Generated by trjconv : CNT in water t= 251.00000
33518
    1C        C    1   2.851   2.776   4.749
    1C        C    2   2.899   2.721   4.870
    1C        C    3   2.844   2.772   4.988
    1C        C    4   2.847   2.777   4.260
    1C        C    5   2.902   2.733   4.382
    1C        C    6   2.849   2.779   4.505
    1C        C    7   3.017   2.647   4.626
    1C        C    8   2.901   2.728   4.626
    1C        C    9   3.078   2.607   4.747
    1C        C   10   3.009   2.633   4.868
    1C        C   11   3.186   2.495   4.973
    1C        C   12   3.063   2.562   4.976
    1C        C   13   2.853   2.773   3.771
    1C        C   14   2.902   2.728   3.896
    1C        C   15   2.854   2.780   4.018
    1C        C   16   3.024   2.655   4.141
    1C        C   17   2.904   2.729   4.140
    1C        C   18   3.087   2.624   4.264
    1C        C   19   3.021   2.657   4.384
    1C        C   20   3.211   2.559   4.505
    1C        C   21   3.081   2.614   4.505
    1C        C   22   3.282   2.539   4.625
    1C        C   23   3.210   2.555   4.746
    1C        C   24   3.417   2.479   4.866
    1C        C   25   3.276   2.507   4.862
    1C        C   26   3.491   2.470   4.984
    1C        C   27   2.851   2.771   3.283
    1C        C   28   2.903   2.725   3.406
    1C        C   29   2.847   2.769   3.528
    1C        C   30   3.020   2.643   3.649
    1C        C   31   2.904   2.724   3.649
    1C        C   32   3.077   2.611   3.774
    1C        C   33   3.018   2.647   3.896
    1C        C   34   3.212   2.561   4.016
    1C        C   35   3.082   2.616   4.018
    1C        C   36   3.279   2.537   4.138
    1C        C   37   3.215   2.563   4.262
    1C        C   38   3.420   2.514   4.383
    1C        C   39   3.281   2.538   4.384
    1C        C   40   3.492   2.502   4.504
    1C        C   41   3.421   2.513   4.626
    1C        C   42   3.633   2.484   4.747
    1C        C   43   3.491   2.482   4.744
    1C        C   44   3.708   2.485   4.866
    1C        C   45   3.630   2.475   4.982
    1C        C   46   2.839   2.752   2.795
    1C        C   47   2.896   2.712   2.917
    1C        C   48   2.845   2.766   3.037
    1C        C   49   3.019   2.645   3.161
    1C        C   50   2.902   2.724   3.160
    1C        C   51   3.079   2.606   3.283
    1C        C   52   3.020   2.645   3.406
    1C        C   53   3.213   2.554   3.528
    1C        C   54   3.083   2.609   3.527
    1C        C   55   3.279   2.535   3.652
    1C        C   56   3.208   2.558   3.772
    1C        C   57   3.418   2.517   3.896
    1C        C   58   3.280   2.545   3.893
    1C        C   59   3.488   2.504   4.018
    1C        C   60   3.417   2.510   4.140
    1C        C   61   3.631   2.499   4.258
    1C        C   62   3.490   2.503   4.261
    1C        C   63   3.703   2.506   4.379
    1C        C   64   3.633   2.495   4.501
    1C        C   65   3.836   2.544   4.623
    1C        C   66   3.702   2.502   4.625
    1C        C   67   3.903   2.569   4.745
    1C        C   68   3.842   2.530   4.867
    1C        C   69   4.058   2.584   4.980
    1C        C   70   3.927   2.533   4.978
    1C        C   71   2.825   2.734   2.308
    1C        C   72   2.887   2.696   2.429
    1C        C   73   2.834   2.747   2.550
    1C        C   74   3.008   2.627   2.675
    1C        C   75   2.888   2.700   2.673
    1C        C   76   3.075   2.597   2.796
    1C        C   77   3.013   2.633   2.918
    1C        C   78   3.208   2.545   3.040
    1C        C   79   3.079   2.603   3.040
    1C        C   80   3.276   2.526   3.163
    1C        C   81   3.208   2.548   3.284
    1C        C   82   3.416   2.504   3.405
    1C        C   83   3.277   2.527   3.405
    1C        C   84   3.486   2.495   3.528
    1C        C   85   3.416   2.499   3.651
    1C        C   86   3.627   2.503   3.770
    1C        C   87   3.486   2.499   3.773
    1C        C   88   3.699   2.516   3.890
    1C        C   89   3.629   2.506   4.013
    1C        C   90   3.836   2.550   4.135
    1C        C   91   3.700   2.512   4.135
    1C        C   92   3.905   2.571   4.256
    1C        C   93   3.839   2.545   4.378
    1C        C   94   4.029   2.634   4.500
    1C        C   95   3.903   2.570   4.501
    1C        C   96   4.093   2.671   4.620
    1C        C   97   4.032   2.629   4.741
    1C        C   98   4.193   2.763   4.862
    1C        C   99   4.103   2.651   4.861
    1C        C  100   4.212   2.841   4.977
    1C        C  101   2.829   2.734   2.069
    1C        C  102   2.995   2.596   2.194
    1C        C  103   2.884   2.686   2.188
    1C        C  104   3.066   2.570   2.314
    1C        C  105   3.002   2.614   2.431
    1C        C  106   3.200   2.535   2.550
    1C        C  107   3.070   2.590   2.553
    1C        C  108   3.272   2.525   2.671
    1C        C  109   3.205   2.541   2.794
    1C        C  110   3.412   2.501   2.916
    1C        C  111   3.272   2.523   2.917
    1C        C  112   3.485   2.495   3.037
    1C        C  113   3.416   2.503   3.159
    1C        C  114   3.627   2.499   3.282
    1C        C  115   3.485   2.498   3.282
    1C        C  116   3.696   2.515   3.404
    1C        C  117   3.627   2.507   3.527
    1C        C  118   3.836   2.544   3.647
    1C        C  119   3.699   2.510   3.648
    1C        C  120   3.903   2.570   3.769
    1C        C  121   3.837   2.545   3.892
    1C        C  122   4.031   2.634   4.014
    1C        C  123   3.906   2.568   4.014
    1C        C  124   4.092   2.671   4.136
    1C        C  125   4.033   2.631   4.258
    1C        C  126   4.198   2.765   4.380
    1C        C  127   4.093   2.672   4.379
    1C        C  128   4.245   2.823   4.500
    1C        C  129   4.195   2.768   4.621
    1C        C  130   4.323   2.939   4.741
    1C        C  131   4.243   2.821   4.743
    1C        C  132   4.346   3.011   4.860
    1C        C  133   4.284   2.960   4.976
    1C        C  134   3.175   2.474   2.081
    1C        C  135   3.041   2.513   2.087
    1C        C  136   3.261   2.478   2.192
    1C        C  137   3.198   2.515   2.313
    1C        C  138   3.409   2.474   2.431
    1C        C  139   3.270   2.498   2.433
    1C        C  140   3.483   2.477   2.551
    1C        C  141   3.411   2.503   2.670
    1C        C  142   3.622   2.499   2.793
    1C        C  143   3.481   2.494   2.793
    1C        C  144   3.695   2.506   2.913
    1C        C  145   3.627   2.498   3.037
    1C        C  146   3.833   2.540   3.157
    1C        C  147   3.697   2.501   3.159
    1C        C  148   3.902   2.563   3.278
    1C        C  149   3.834   2.543   3.401
    1C        C  150   4.027   2.629   3.523
    1C        C  151   3.900   2.567   3.524
    1C        C  152   4.084   2.672   3.645
    1C        C  153   4.026   2.638   3.770
    1C        C  154   4.199   2.762   3.890
    1C        C  155   4.090   2.671   3.891
    1C        C  156   4.247   2.813   4.012
    1C        C  157   4.197   2.766   4.135
    1C        C  158   4.338   2.925   4.253
    1C        C  159   4.248   2.815   4.257
    1C        C  160   4.374   2.987   4.374
    1C        C  161   4.327   2.937   4.498
    1C        C  162   4.435   3.120   4.618
    1C        C  163   4.366   2.997   4.620
    1C        C  164   4.463   3.191   4.737
    1C        C  165   4.425   3.127   4.857
    1C        C  166   4.521   3.324   4.971
    1C        C  167   4.476   3.193   4.970
    1C        C  168   3.477   2.442   2.073
    1C        C  169   3.400   2.457   2.189
    1C        C  170   3.619   2.466   2.307
    1C        C  171   3.477   2.463   2.308
    1C        C  172   3.694   2.488   2.425
    1C        C  173   3.624   2.482   2.548
    1C        C  174   3.828   2.538   2.667
    1C        C  175   3.692   2.501   2.670
    1C        C  176   3.897   2.561   2.788
    1C        C  177   3.832   2.539   2.912
    1C        C  178   4.026   2.625   3.032
    1C        C  179   3.899   2.563   3.035
    1C        C  180   4.088   2.660   3.154
    1C        C  181   4.030   2.622   3.278
    1C        C  182   4.196   2.753   3.399
    1C        C  183   4.088   2.661   3.400
    1C        C  184   4.245   2.806   3.520
    1C        C  185   4.197   2.756   3.643
    1C        C  186   4.339   2.914   3.766
    1C        C  187   4.250   2.805   3.765
    1C        C  188   4.375   2.980   3.886
    1C        C  189   4.332   2.926   4.010
    1C        C  190   4.443   3.109   4.129
    1C        C  191   4.376   2.984   4.131
    1C        C  192   4.470   3.175   4.251
    1C        C  193   4.440   3.112   4.374
    1C        C  194   4.504   3.317   4.492
    1C        C  195   4.463   3.182   4.494
    1C        C  196   4.521   3.393   4.610
    1C        C  197   4.508   3.326   4.734
    1C        C  198   4.553   3.541   4.850
    1C        C  199   4.534   3.399   4.853
    1C        C  200   4.588   3.624   4.961
    1C        C  201   3.615   2.420   2.073
    1C        C  202   3.826   2.514   2.182
    1C        C  203   3.693   2.459   2.186
    1C        C  204   3.896   2.549   2.300
    1C        C  205   3.830   2.525   2.423
    1C        C  206   4.021   2.620   2.543
    1C        C  207   3.895   2.556   2.544
    1C        C  208   4.082   2.660   2.664
    1C        C  209   4.022   2.626   2.787
    1C        C  210   4.197   2.747   2.909
    1C        C  211   4.085   2.660   2.909
    1C        C  212   4.249   2.797   3.031
    1C        C  213   4.199   2.747   3.153
    1C        C  214   4.334   2.910   3.274
    1C        C  215   4.248   2.798   3.275
    1C        C  216   4.369   2.973   3.396
    1C        C  217   4.328   2.920   3.520
    1C        C  218   4.436   3.101   3.640
    1C        C  219   4.372   2.975   3.643
    1C        C  220   4.461   3.170   3.760
    1C        C  221   4.438   3.106   3.884
    1C        C  222   4.501   3.309   4.005
    1C        C  223   4.468   3.172   4.005
    1C        C  224   4.513   3.383   4.125
    1C        C  225   4.507   3.312   4.247
    1C        C  226   4.523   3.525   4.365
    1C        C  227   4.516   3.384   4.368
    1C        C  228   4.519   3.600   4.485
    1C        C  229   4.532   3.534   4.608
    1C        C  230   4.509   3.749   4.727
    1C        C  231   4.539   3.610   4.727
    1C        C  232   4.500   3.823   4.847
    1C        C  233   4.542   3.756   4.962
    1C        C  234   4.016   2.614   2.064
    1C        C  235   3.892   2.550   2.064
    1C        C  236   4.088   2.647   2.179
    1C        C  237   4.026   2.608   2.300
    1C        C  238   4.200   2.735   2.424
    1C        C  239   4.084   2.653   2.421
    1C        C  240   4.252   2.789   2.544
    1C        C  241   4.193   2.748   2.665
    1C        C  242   4.340   2.901   2.785
    1C        C  243   4.248   2.794   2.786
    1C        C  244   4.378   2.961   2.907
    1C        C  245   4.341   2.904   3.031
    1C        C  246   4.437   3.095   3.151
    1C        C  247   4.374   2.969   3.152
    1C        C  248   4.459   3.163   3.273
    1C        C  249   4.433   3.099   3.396
    1C        C  250   4.498   3.302   3.515
    1C        C  251   4.462   3.166   3.517
    1C        C  252   4.509   3.375   3.636
    1C        C  253   4.496   3.307   3.759
    1C        C  254   4.523   3.516   3.877
    1C        C  255   4.515   3.375   3.881
    1C        C  256   4.521   3.592   3.997
    1C        C  257   4.520   3.524   4.120
    1C        C  258   4.498   3.735   4.243
    1C        C  259   4.521   3.595   4.242
    1C        C  260   4.474   3.807   4.362
    1C        C  261   4.490   3.738   4.484
    1C        C  262   4.434   3.946   4.605
    1C        C  263   4.481   3.813   4.604
    1C        C  264   4.403   4.014   4.725
    1C        C  265   4.435   3.948   4.846
    1C        C  266   4.320   4.134   4.960
    1C        C  267   4.391   4.014   4.962
    1C        C  268   4.267   2.775   2.065
    1C        C  269   4.201   2.732   2.181
    1C        C  270   4.340   2.894   2.298
    1C        C  271   4.252   2.783   2.302
    1C        C  272   4.379   2.955   2.419
    1C        C  273   4.343   2.898   2.543
    1C        C  274   4.451   3.084   2.661
    1C        C  275   4.383   2.960   2.663
    1C        C  276   4.474   3.152   2.783
    1C        C  277   4.440   3.088   2.905
    1C        C  278   4.502   3.291   3.025
    1C        C  279   4.465   3.155   3.026
    1C        C  280   4.509   3.363   3.146
    1C        C  281   4.495   3.300   3.272
    1C        C  282   4.517   3.513   3.390
    1C        C  283   4.509   3.372   3.393
    1C        C  284   4.511   3.584   3.512
    1C        C  285   4.514   3.517   3.636
    1C        C  286   4.498   3.729   3.756
    1C        C  287   4.519   3.590   3.756
    1C        C  288   4.475   3.798   3.877
    1C        C  289   4.497   3.731   3.999
    1C        C  290   4.430   3.934   4.119
    1C        C  291   4.481   3.803   4.120
    1C        C  292   4.403   4.005   4.239
    1C        C  293   4.428   3.941   4.362
    1C        C  294   4.328   4.130   4.480
    1C        C  295   4.399   4.008   4.483
    1C        C  296   4.290   4.194   4.600
    1C        C  297   4.327   4.134   4.722
    1C        C  298   4.196   4.312   4.840
    1C        C  299   4.280   4.196   4.841
    1C        C  300   4.171   4.408   4.944
    1C        C  301   4.356   2.881   2.061
    1C        C  302   4.471   3.069   2.182
    1C        C  303   4.393   2.949   2.178
    1C        C  304   4.486   3.145   2.301
    1C        C  305   4.442   3.082   2.419
    1C        C  306   4.510   3.287   2.537
    1C        C  307   4.472   3.151   2.539
    1C        C  308   4.521   3.358   2.659
    1C        C  309   4.502   3.290   2.781
    1C        C  310   4.525   3.502   2.899
    1C        C  311   4.515   3.361   2.902
    1C        C  312   4.519   3.572   3.021
    1C        C  313   4.515   3.504   3.145
    1C        C  314   4.489   3.718   3.264
    1C        C  315   4.515   3.579   3.265
    1C        C  316   4.473   3.789   3.385
    1C        C  317   4.489   3.724   3.509
    1C        C  318   4.427   3.925   3.631
    1C        C  319   4.478   3.793   3.631
    1C        C  320   4.396   3.992   3.751
    1C        C  321   4.428   3.932   3.875
    1C        C  322   4.321   4.115   3.993
    1C        C  323   4.398   3.997   3.997
    1C        C  324   4.277   4.172   4.115
    1C        C  325   4.328   4.125   4.237
    1C        C  326   4.190   4.287   4.357
    1C        C  327   4.292   4.189   4.357
    1C        C  328   4.138   4.346   4.474
    1C        C  329   4.195   4.299   4.595
    1C        C  330   4.028   4.437   4.715
    1C        C  331   4.139   4.348   4.715
    1C        C  332   3.970   4.493   4.832
    1C        C  333   4.054   4.484   4.944
    1C        C  334   4.546   3.272   2.060
    1C        C  335   4.524   3.134   2.066
    1C        C  336   4.540   3.352   2.175
    1C        C  337   4.525   3.282   2.297
    1C        C  338   4.521   3.498   2.412
    1C        C  339   4.527   3.357   2.416
    1C        C  340   4.518   3.568   2.534
    1C        C  341   4.531   3.499   2.657
    1C        C  342   4.494   3.712   2.773
    1C        C  343   4.521   3.573   2.777
    1C        C  344   4.479   3.780   2.896
    1C        C  345   4.497   3.712   3.019
    1C        C  346   4.427   3.916   3.139
    1C        C  347   4.476   3.783   3.139
    1C        C  348   4.392   3.980   3.259
    1C        C  349   4.420   3.920   3.384
    1C        C  350   4.323   4.106   3.504
    1C        C  351   4.397   3.986   3.507
    1C        C  352   4.282   4.169   3.624
    1C        C  353   4.320   4.111   3.747
    1C        C  354   4.176   4.265   3.867
    1C        C  355   4.278   4.168   3.869
    1C        C  356   4.127   4.318   3.989
    1C        C  357   4.176   4.271   4.113
    1C        C  358   4.009   4.400   4.230
    1C        C  359   4.127   4.322   4.235
    1C        C  360   3.953   4.444   4.351
    1C        C  361   4.022   4.426   4.473
    1C        C  362   3.829   4.515   4.594
    1C        C  363   3.961   4.465   4.594
    1C        C  364   3.762   4.544   4.715
    1C        C  365   3.837   4.538   4.835
    1C        C  366   3.629   4.599   4.950
    1C        C  367   3.765   4.570   4.951
    1C        C  368   4.506   3.565   2.053
    1C        C  369   4.525   3.492   2.171
    1C        C  370   4.504   3.709   2.288
    1C        C  371   4.522   3.569   2.289
    1C        C  372   4.487   3.780   2.409
    1C        C  373   4.497   3.708   2.530
    1C        C  374   4.427   3.911   2.650
    1C        C  375   4.473   3.777   2.650
    1C        C  376   4.399   3.977   2.772
    1C        C  377   4.427   3.911   2.894
    1C        C  378   4.322   4.096   3.012
    1C        C  379   4.399   3.978   3.015
    1C        C  380   4.276   4.154   3.133
    1C        C  381   4.314   4.098   3.257
    1C        C  382   4.175   4.255   3.377
    1C        C  383   4.275   4.155   3.380
    1C        C  384   4.122   4.303   3.498
    1C        C  385   4.182   4.269   3.621
    1C        C  386   4.005   4.387   3.745
    1C        C  387   4.123   4.310   3.743
    1C        C  388   3.943   4.425   3.866
    1C        C  389   4.010   4.397   3.987
    1C        C  390   3.817   4.489   4.107
    1C        C  391   3.948   4.437   4.108
    1C        C  392   3.754   4.516   4.231
    1C        C  393   3.824   4.502   4.353
    1C        C  394   3.617   4.551   4.475
    1C        C  395   3.756   4.530   4.474
    1C        C  396   3.544   4.559   4.596
    1C        C  397   3.622   4.560   4.714
    1C        C  398   3.412   4.555   4.841
    1C        C  399   3.552   4.575   4.835
    1C        C  400   3.346   4.517   4.958
    1C        C  401   4.504   3.704   2.052
    1C        C  402   4.449   3.917   2.168
    1C        C  403   4.490   3.782   2.168
    1C        C  404   4.409   3.978   2.288
    1C        C  405   4.442   3.914   2.410
    1C        C  406   4.330   4.100   2.527
    1C        C  407   4.408   3.982   2.529
    1C        C  408   4.280   4.153   2.648
    1C        C  409   4.323   4.095   2.770
    1C        C  410   4.180   4.255   2.890
    1C        C  411   4.276   4.151   2.891
    1C        C  412   4.126   4.304   3.011
    1C        C  413   4.179   4.256   3.133
    1C        C  414   4.002   4.376   3.253
    1C        C  415   4.118   4.295   3.254
    1C        C  416   3.941   4.409   3.376
    1C        C  417   4.002   4.379   3.500
    1C        C  418   3.813   4.473   3.620
    1C        C  419   3.944   4.420   3.622
    1C        C  420   3.747   4.504   3.741
    1C        C  421   3.813   4.480   3.864
    1C        C  422   3.609   4.538   3.988
    1C        C  423   3.746   4.504   3.986
    1C        C  424   3.542   4.541   4.112
    1C        C  425   3.615   4.540   4.233
    1C        C  426   3.402   4.553   4.355
    1C        C  427   3.543   4.549   4.355
    1C        C  428   3.331   4.550   4.477
    1C        C  429   3.403   4.553   4.599
    1C        C  430   3.195   4.521   4.723
    1C        C  431   3.335   4.546   4.723
    1C        C  432   3.129   4.493   4.846
    1C        C  433   3.208   4.497   4.962
    1C        C  434   4.384   4.124   2.052
    1C        C  435   4.441   3.996   2.052
    1C        C  436   4.302   4.165   2.162
    1C        C  437   4.332   4.098   2.284
    1C        C  438   4.186   4.255   2.401
    1C        C  439   4.282   4.151   2.405
    1C        C  440   4.129   4.298   2.523
    1C        C  441   4.176   4.249   2.646
    1C        C  442   4.005   4.375   2.766
    1C        C  443   4.121   4.294   2.768
    1C        C  444   3.943   4.412   2.887
    1C        C  445   4.006   4.379   3.009
    1C        C  446   3.813   4.468   3.134
    1C        C  447   3.945   4.418   3.131
    1C        C  448   3.744   4.493   3.255
    1C        C  449   3.812   4.467   3.376
    1C        C  450   3.609   4.529   3.498
    1C        C  451   3.745   4.492   3.498
    1C        C  452   3.541   4.546   3.621
    1C        C  453   3.610   4.538   3.743
    1C        C  454   3.399   4.548   3.865
    1C        C  455   3.540   4.548   3.865
    1C        C  456   3.331   4.537   3.988
    1C        C  457   3.401   4.535   4.111
    1C        C  458   3.193   4.508   4.236
    1C        C  459   3.331   4.540   4.234
    1C        C  460   3.125   4.492   4.359
    1C        C  461   3.194   4.515   4.480
    1C        C  462   2.999   4.437   4.603
    1C        C  463   3.126   4.498   4.602
    1C        C  464   2.935   4.402   4.724
    1C        C  465   2.996   4.440   4.846
    1C        C  466   2.804   4.340   4.960
    1C        C  467   2.915   4.426   4.963
    1C        C  468   4.125   4.290   2.042
    1C        C  469   4.185   4.248   2.161
    1C        C  470   4.007   4.374   2.282
    1C        C  471   4.127   4.298   2.281
    1C        C  472   3.941   4.403   2.404
    1C        C  473   4.008   4.371   2.524
    1C        C  474   3.814   4.465   2.644
    1C        C  475   3.943   4.409   2.644
    1C        C  476   3.746   4.491   2.765
    1C        C  477   3.813   4.468   2.888
    1C        C  478   3.609   4.519   3.011
    1C        C  479   3.748   4.492   3.011
    1C        C  480   3.536   4.534   3.131
    1C        C  481   3.606   4.522   3.254
    1C        C  482   3.396   4.539   3.377
    1C        C  483   3.537   4.535   3.376
    1C        C  484   3.326   4.539   3.500
    1C        C  485   3.399   4.550   3.620
    1C        C  486   3.190   4.511   3.746
    1C        C  487   3.329   4.538   3.742
    1C        C  488   3.127   4.482   3.869
    1C        C  489   3.193   4.508   3.992
    1C        C  490   2.999   4.426   4.117
    1C        C  491   3.126   4.487   4.114
    1C        C  492   2.939   4.390   4.239
    1C        C  493   2.998   4.429   4.361
    1C        C  494   2.829   4.303   4.483
    1C        C  495   2.935   4.396   4.483
    1C        C  496   2.775   4.256   4.605
    1C        C  497   2.821   4.316   4.724
    1C        C  498   2.670   4.166   4.846
    1C        C  499   2.761   4.274   4.844
    1C        C  500   2.600   4.117   4.958
    1C        C  501   4.006   4.362   2.043
    1C        C  502   3.816   4.466   2.157
    1C        C  503   3.945   4.408   2.160
    1C        C  504   3.745   4.481   2.278
    1C        C  505   3.811   4.460   2.401
    1C        C  506   3.605   4.511   2.522
    1C        C  507   3.744   4.484   2.523
    1C        C  508   3.535   4.520   2.644
    1C        C  509   3.607   4.516   2.766
    1C        C  510   3.398   4.531   2.888
    1C        C  511   3.539   4.527   2.889
    1C        C  512   3.324   4.529   3.009
    1C        C  513   3.395   4.537   3.131
    1C        C  514   3.190   4.496   3.256
    1C        C  515   3.326   4.534   3.254
    1C        C  516   3.123   4.473   3.378
    1C        C  517   3.190   4.501   3.500
    1C        C  518   3.001   4.415   3.626
    1C        C  519   3.126   4.482   3.624
    1C        C  520   2.943   4.378   3.749
    1C        C  521   3.004   4.414   3.872
    1C        C  522   2.839   4.286   3.997
    1C        C  523   2.941   4.383   3.995
    1C        C  524   2.791   4.236   4.120
    1C        C  525   2.834   4.295   4.241
    1C        C  526   2.701   4.130   4.364
    1C        C  527   2.781   4.247   4.363
    1C        C  528   2.659   4.076   4.488
    1C        C  529   2.692   4.141   4.609
    1C        C  530   2.581   3.962   4.731
    1C        C  531   2.641   4.090   4.730
    1C        C  532   2.540   3.901   4.853
    1C        C  533   2.533   3.994   4.962
    1C        C  534   3.620   4.557   2.041
    1C        C  535   3.751   4.510   2.041
    1C        C  536   3.539   4.539   2.158
    1C        C  537   3.607   4.516   2.281
    1C        C  538   3.393   4.530   2.400
    1C        C  539   3.534   4.522   2.401
    1C        C  540   3.322   4.525   2.522
    1C        C  541   3.394   4.524   2.643
    1C        C  542   3.189   4.488   2.763
    1C        C  543   3.326   4.522   2.767
    1C        C  544   3.123   4.469   2.887
    1C        C  545   3.187   4.494   3.010
    1C        C  546   2.999   4.405   3.136
    1C        C  547   3.123   4.472   3.134
    1C        C  548   2.940   4.368   3.259
    1C        C  549   2.999   4.406   3.381
    1C        C  550   2.833   4.282   3.506
    1C        C  551   2.940   4.373   3.505
    1C        C  552   2.787   4.232   3.630
    1C        C  553   2.836   4.286   3.751
    1C        C  554   2.705   4.122   3.877
    1C        C  555   2.787   4.237   3.874
    1C        C  556   2.665   4.065   4.000
    1C        C  557   2.705   4.124   4.121
    1C        C  558   2.603   3.940   4.246
    1C        C  559   2.662   4.068   4.244
    1C        C  560   2.573   3.878   4.370
    1C        C  561   2.597   3.949   4.489
    1C        C  562   2.538   3.748   4.616
    1C        C  563   2.568   3.886   4.612
    1C        C  564   2.523   3.680   4.739
    1C        C  565   2.522   3.759   4.857
    1C        C  566   2.533   3.548   4.977
    1C        C  567   2.523   3.686   4.976
    1C        C  568   3.332   4.480   2.040
    1C        C  569   3.398   4.519   2.157
    1C        C  570   3.186   4.478   2.279
    1C        C  571   3.324   4.514   2.278
    1C        C  572   3.116   4.463   2.400
    1C        C  573   3.185   4.489   2.521
    1C        C  574   2.993   4.402   2.648
    1C        C  575   3.118   4.467   2.643
    1C        C  576   2.933   4.366   2.771
    1C        C  577   2.998   4.403   2.891
    1C        C  578   2.830   4.276   3.016
    1C        C  579   2.941   4.363   3.014
    1C        C  580   2.781   4.224   3.138
    1C        C  581   2.832   4.277   3.259
    1C        C  582   2.702   4.115   3.384
    1C        C  583   2.788   4.226   3.384
    1C        C  584   2.667   4.060   3.509
    1C        C  585   2.705   4.116   3.633
    1C        C  586   2.601   3.935   3.757
    1C        C  587   2.668   4.059   3.756
    1C        C  588   2.574   3.871   3.880
    1C        C  589   2.605   3.937   4.002
    1C        C  590   2.538   3.736   4.128
    1C        C  591   2.579   3.871   4.124
    1C        C  592   2.528   3.669   4.252
    1C        C  593   2.535   3.743   4.373
    1C        C  594   2.517   3.533   4.496
    1C        C  595   2.527   3.674   4.496
    1C        C  596   2.516   3.464   4.620
    1C        C  597   2.515   3.538   4.740
    1C        C  598   2.532   3.328   4.862
    1C        C  599   2.522   3.469   4.862
    1C        C  600   2.537   3.253   4.981
    1C        C  601   3.199   4.442   2.044
    1C        C  602   2.984   4.395   2.160
    1C        C  603   3.118   4.443   2.159
    1C        C  604   2.926   4.358   2.285
    1C        C  605   2.993   4.394   2.404
    1C        C  606   2.824   4.272   2.528
    1C        C  607   2.931   4.364   2.527
    1C        C  608   2.781   4.217   2.651
    1C        C  609   2.830   4.269   2.772
    1C        C  610   2.693   4.110   2.895
    1C        C  611   2.782   4.220   2.896
    1C        C  612   2.659   4.049   3.018
    1C        C  613   2.702   4.107   3.140
    1C        C  614   2.600   3.924   3.266
    1C        C  615   2.664   4.050   3.264
    1C        C  616   2.575   3.865   3.392
    1C        C  617   2.605   3.933   3.512
    1C        C  618   2.535   3.733   3.640
    1C        C  619   2.579   3.868   3.634
    1C        C  620   2.521   3.664   3.762
    1C        C  621   2.535   3.736   3.883
    1C        C  622   2.508   3.527   4.010
    1C        C  623   2.523   3.667   4.006
    1C        C  624   2.514   3.457   4.132
    1C        C  625   2.512   3.529   4.254
    1C        C  626   2.528   3.318   4.381
    1C        C  627   2.512   3.458   4.377
    1C        C  628   2.554   3.252   4.503
    1C        C  629   2.536   3.324   4.624
    1C        C  630   2.588   3.116   4.746
    1C        C  631   2.544   3.251   4.744
    1C        C  632   2.616   3.051   4.869
    1C        C  633   2.564   3.116   4.986
    1C        C  634   2.789   4.300   2.053
    1C        C  635   2.898   4.388   2.045
    1C        C  636   2.748   4.231   2.167
    1C        C  637   2.814   4.271   2.286
    1C        C  638   2.681   4.109   2.412
    1C        C  639   2.767   4.220   2.409
    1C        C  640   2.645   4.048   2.534
    1C        C  641   2.696   4.104   2.653
    1C        C  642   2.591   3.920   2.778
    1C        C  643   2.654   4.047   2.775
    1C        C  644   2.569   3.855   2.901
    1C        C  645   2.594   3.924   3.022
    1C        C  646   2.532   3.722   3.150
    1C        C  647   2.572   3.857   3.145
    1C        C  648   2.517   3.656   3.274
    1C        C  649   2.537   3.729   3.394
    1C        C  650   2.514   3.522   3.519
    1C        C  651   2.522   3.663   3.518
    1C        C  652   2.516   3.452   3.642
    1C        C  653   2.516   3.523   3.764
    1C        C  654   2.535   3.316   3.889
    1C        C  655   2.510   3.455   3.888
    1C        C  656   2.549   3.247   4.012
    1C        C  657   2.535   3.317   4.134
    1C        C  658   2.599   3.119   4.259
    1C        C  659   2.553   3.253   4.258
    1C        C  660   2.631   3.057   4.382
    1C        C  661   2.600   3.119   4.505
    1C        C  662   2.716   2.942   4.628
    1C        C  663   2.627   3.052   4.626
    1C        C  664   2.759   2.884   4.749
    1C        C  665   2.700   2.935   4.869
    1C        C  666   2.747   2.872   4.985
    1C        C  667   2.683   4.023   2.055
    1C        C  668   2.686   4.104   2.169
    1C        C  669   2.595   3.912   2.292
    1C        C  670   2.645   4.045   2.291
    1C        C  671   2.568   3.846   2.414
    1C        C  672   2.585   3.920   2.533
    1C        C  673   2.520   3.720   2.660
    1C        C  674   2.558   3.856   2.657
    1C        C  675   2.513   3.649   2.782
    1C        C  676   2.529   3.720   2.903
    1C        C  677   2.507   3.513   3.032
    1C        C  678   2.516   3.654   3.027
    1C        C  679   2.513   3.442   3.154
    1C        C  680   2.509   3.515   3.275
    1C        C  681   2.532   3.308   3.402
    1C        C  682   2.511   3.447   3.400
    1C        C  683   2.552   3.239   3.524
    1C        C  684   2.539   3.313   3.644
    1C        C  685   2.600   3.112   3.770
    1C        C  686   2.552   3.245   3.768
    1C        C  687   2.635   3.054   3.894
    1C        C  688   2.599   3.115   4.016
    1C        C  689   2.705   2.934   4.139
    1C        C  690   2.625   3.050   4.139
    1C        C  691   2.749   2.879   4.261
    1C        C  692   2.709   2.939   4.383
    1C        C  693   2.757   2.885   4.505
    1C        C  694   2.630   3.894   2.055
    1C        C  695   2.528   3.706   2.177
    1C        C  696   2.581   3.837   2.173
    1C        C  697   2.513   3.637   2.299
    1C        C  698   2.524   3.712   2.418
    1C        C  699   2.490   3.505   2.545
    1C        C  700   2.501   3.646   2.541
    1C        C  701   2.498   3.436   2.668
    1C        C  702   2.500   3.508   2.789
    1C        C  703   2.525   3.298   2.912
    1C        C  704   2.507   3.439   2.912
    1C        C  705   2.543   3.231   3.035
    1C        C  706   2.538   3.303   3.156
    1C        C  707   2.598   3.104   3.278
    1C        C  708   2.553   3.238   3.281
    1C        C  709   2.625   3.042   3.402
    1C        C  710   2.603   3.108   3.525
    1C        C  711   2.708   2.927   3.651
    1C        C  712   2.633   3.047   3.649
    1C        C  713   2.756   2.876   3.773
    1C        C  714   2.718   2.939   3.894
    1C        C  715   2.760   2.886   4.018
    1C        C  716   2.457   3.498   2.067
    1C        C  717   2.493   3.634   2.063
    1C        C  718   2.465   3.420   2.187
    1C        C  719   2.486   3.498   2.304
    1C        C  720   2.512   3.289   2.426
    1C        C  721   2.488   3.428   2.427
    1C        C  722   2.538   3.226   2.549
    1C        C  723   2.519   3.296   2.670
    1C        C  724   2.585   3.095   2.790
    1C        C  725   2.531   3.225   2.792
    1C        C  726   2.613   3.031   2.913
    1C        C  727   2.579   3.094   3.034
    1C        C  728   2.702   2.920   3.159
    1C        C  729   2.622   3.037   3.156
    1C        C  730   2.755   2.874   3.282
    1C        C  731   2.708   2.928   3.404
    1C        C  732   2.751   2.873   3.527
    1C        C  733   2.486   3.195   2.074
    1C        C  734   2.484   3.278   2.187
    1C        C  735   2.578   3.083   2.307
    1C        C  736   2.519   3.212   2.308
    1C        C  737   2.611   3.021   2.430
    1C        C  738   2.591   3.094   2.549
    1C        C  739   2.699   2.911   2.673
    1C        C  740   2.621   3.029   2.670
    1C        C  741   2.743   2.855   2.795
    1C        C  742   2.697   2.917   2.914
    1C        C  743   2.745   2.866   3.036
    1C        C  744   2.547   3.070   2.075
    1C        C  745   2.684   2.895   2.189
    1C        C  746   2.607   3.013   2.188
    1C        C  747   2.726   2.837   2.311
    1C        C  748   2.686   2.901   2.430
    1C        C  749   2.740   2.852   2.551
    1C        C  750   2.740   2.841   2.072
    1C        C  751   3.673   2.327   1.973
    1C        O  752   3.710   2.210   2.003
    1C        O  753   3.733   2.372   1.855
    1C        C  754   4.618   3.052   1.986
    1C        O  755   4.593   2.999   1.874
    1C        O  756   4.746   3.025   2.036
    1C        C  757   4.446   4.223   1.961
    1C        O  758   4.572   4.232   1.960
    1C        O  759   4.399   4.253   1.833
    1C        C  760   3.578   4.623   1.916
    1C        O  761   3.554   4.746   1.908
    1C        O  762   3.548   4.543   1.804
    1C        C  763   2.899   4.495   1.943
    1C        O  764   2.923   4.468   1.823
    1C        O  765   2.880   4.633   1.960
    1C        C  766   2.364   3.453   1.961
    1C        O  767   2.395   3.439   1.840
    1C        O  768   2.231   3.497   1.967
    1C        C  769   4.728   3.615   5.010
    1C        O  770   4.748   3.575   5.128
    1C        O  771   4.839   3.647   4.931
    1C        C  772   4.285   4.469   5.017
    1C        O  773   4.303   4.452   5.140
    1C        O  774   4.338   4.595   4.987
    1C        C  775   4.158   2.509   5.058
    1C        O  776   4.190   2.397   5.010
    1C        O  777   4.140   2.481   5.194
    1C        C  778   2.904   4.535   5.063
    1C        O  779   2.854   4.647   5.034
    1C        O  780   2.908   4.508   5.200
    1C        C  781   2.469   3.043   5.074
    1C        O  782   2.361   2.992   5.033
    1C        O  783   2.480   3.035   5.212
    1C        C  784   2.416   3.988   5.051
    1C        O  785   2.311   4.059   5.044
    1C        O  786   2.434   3.945   5.183
    1C        C  787   2.952   2.431   2.001
    1C        O  788   2.941   2.449   1.877
    1C        O  789   2.930   2.304   2.054
    1C        C  790   3.189   2.380   5.066
    1C        O  791   3.195   2.255   5.046
    1C        O  792   3.206   2.409   5.201
    1C        H  793   4.248   3.037   5.041
    1C        H  794   4.197   2.793   5.071
    1C        H  795   4.470   3.141   5.063
    1C        H  796   4.578   3.354   5.057
    1C        H  797   4.523   3.801   5.058
    1C        H  798   4.418   3.981   5.060
    1C        H  799   4.299   4.182   5.053
    1C        H  800   4.031   4.543   5.030
    1C        H  801   3.804   4.532   5.043
    1C        H  802   3.600   4.676   5.018
    1C        H  803   3.382   4.565   5.047
    1C        H  804   3.159   4.506   5.056
    1C        H  805   3.908   2.453   5.046
    1C        H  806   3.688   2.440   5.065
    1C        H  807   2.992   2.530   5.050
    1C        H  808   3.445   2.428   5.071
    1C        H  809   2.869   2.719   5.077
    1C        H  810   2.680   2.870   5.068
    1C        H  811   2.484   3.295   5.064
    1C        H  812   2.576   3.510   5.068
    1C        H  813   2.565   3.738   5.060
    1C        H  814   2.590   4.187   5.038
    1C        H  815   2.738   4.341   5.044
    1C        H  816   2.733   2.901   1.984
    1C        H  817   2.898   2.733   1.987
    1C        H  818   3.219   2.454   1.986
    1C        H  819   3.443   2.494   1.985
    1C        H  820   3.852   2.522   1.968
    1C        H  821   4.036   2.662   1.971
    1C        H  822   4.249   2.720   1.975
    1C        H  823   4.367   2.939   1.972
    1C        H  824   4.607   3.302   1.977
    1C        H  825   4.460   3.514   1.971
    1C        H  826   4.551   3.743   1.964
    1C        H  827   3.805   4.509   1.948
    1C        H  828   3.958   4.378   1.949
    1C        H  829   4.169   4.259   1.949
    1C        H  830   4.516   3.979   1.977
    1C        H  831   2.589   3.862   1.961
    1C        H  832   2.733   4.053   1.965
    1C        H  833   2.719   4.309   1.973
    1C        H  834   3.380   4.486   1.944
    1C        H  835   3.164   4.399   1.953
    1C        H  836   2.508   3.003   2.001
    1C        H  837   2.403   3.209   2.008
    1C        H  838   2.472   3.691   1.975
    2V3OU   H29  839   2.807   3.551   2.493
    2V3OU   C27  840   2.791   3.504   2.593
    2V3OU   H27  841   2.728   3.570   2.659
    2V3OU   H28  842   2.739   3.406   2.575
    2V3OU   O11  843   2.912   3.476   2.664
    2V3OU   C15  844   2.928   3.404   2.781
    2V3OU   C13  845   3.051   3.377   2.844
    2V3OU   C14  846   3.078   3.273   2.933
    2V3OU   C16  847   2.974   3.190   2.975
    2V3OU    H6  848   2.991   3.101   3.037
    2V3OU   C12  849   3.214   3.228   2.971
    2V3OU    O2  850   3.244   3.130   3.043
    2V3OU   C10  851   3.325   3.304   2.913
    2V3OU    C8  852   3.456   3.272   2.948
    2V3OU   O10  853   3.485   3.157   3.015
    2V3OU   H26  854   3.397   3.118   3.032
    2V3OU    C6  855   3.569   3.354   2.917
    2V3OU    C5  856   3.538   3.471   2.848
    2V3OU    C4  857   3.707   3.298   2.927
    2V3OU    H4  858   3.721   3.236   3.020
    2V3OU    H5  859   3.717   3.227   2.839
    2V3OU    C2  860   3.821   3.399   2.923
    2V3OU    O6  861   3.809   3.477   3.042
    2V3OU   H21  862   3.766   3.560   3.018
    2V3OU    C3  863   3.784   3.495   2.809
    2V3OU    H2  864   3.863   3.573   2.795
    2V3OU    H3  865   3.785   3.438   2.713
    2V3OU   C25  866   3.955   3.328   2.901
    2V3OU    O7  867   4.002   3.297   2.792
    2V3OU   C26  868   4.036   3.290   3.024
    2V3OU   H22  869   4.069   3.386   3.072
    2V3OU   H23  870   4.127   3.233   2.993
    2V3OU    O8  871   3.960   3.209   3.111
    2V3OU   H24  872   3.924   3.265   3.182
    2V3OU    C1  873   3.652   3.567   2.829
    2V3OU    H1  874   3.633   3.628   2.735
    2V3OU    O3  875   3.661   3.656   2.940
    2V3OU   C19  876   3.619   3.792   2.924
    2V3OU    H9  877   3.524   3.799   2.864
    2V3OU    O4  878   3.710   3.852   2.835
    2V3OU   C20  879   3.839   3.875   2.892
    2V3OU   H10  880   3.900   3.781   2.900
    2V3OU   C24  881   3.610   3.857   3.062
    2V3OU   H16  882   3.541   3.796   3.126
    2V3OU   H17  883   3.566   3.960   3.058
    2V3OU   C23  884   3.747   3.878   3.126
    2V3OU   H15  885   3.791   3.775   3.149
    2V3OU    N1  886   3.736   3.956   3.248
    2V3OU   H19  887   3.801   3.929   3.319
    2V3OU   H20  888   3.642   3.936   3.278
    2V3OU   C21  889   3.847   3.946   3.028
    2V3OU   H11  890   3.951   3.925   3.066
    2V3OU    O5  891   3.829   4.087   3.027
    2V3OU   H18  892   3.785   4.105   3.112
    2V3OU   C22  893   3.918   3.950   2.786
    2V3OU   H12  894   3.876   4.053   2.775
    2V3OU   H13  895   3.913   3.889   2.692
    2V3OU   H14  896   4.027   3.955   2.813
    2V3OU   C11  897   3.160   3.474   2.822
    2V3OU    O1  898   3.133   3.593   2.794
    2V3OU    C9  899   3.298   3.424   2.843
    2V3OU    C7  900   3.405   3.508   2.813
    2V3OU    O9  901   3.385   3.615   2.728
    2V3OU   H25  902   3.292   3.637   2.741
    2V3OU   C17  903   2.827   3.318   2.830
    2V3OU    H7  904   2.730   3.344   2.790
    2V3OU   C18  905   2.849   3.215   2.921
    2V3OU    H8  906   2.780   3.170   2.994
    3SOL     OW  907   2.588   5.589   0.208
    3SOL    HW1  908   2.684   5.577   0.183
    3SOL    HW2  909   2.566   5.687   0.210
    4SOL     OW  910   6.883   7.025   2.191
    4SOL    HW1  911   6.869   0.094   2.218
    4SOL    HW2  912   6.796   6.984   2.168
    5SOL     OW  913   4.400   1.525   2.523
    5SOL    HW1  914   4.434   1.581   2.446
    5SOL    HW2  915   4.302   1.540   2.534
    6SOL     OW  916   3.857   0.923   1.703
    6SOL    HW1  917   3.790   0.906   1.631
    6SOL    HW2  918   3.943   0.878   1.680
    7SOL     OW  919   0.202   3.965   3.291
    7SOL    HW1  920   0.205   3.981   3.193
    7SOL    HW2  921   0.197   3.867   3.309
    8SOL     OW  922   3.271   0.959   0.285
    8SOL    HW1  923   3.337   0.919   0.348
    8SOL    HW2  924   3.240   0.889   0.220
    9SOL     OW  925   4.937   0.792   6.013
    9SOL    HW1  926   4.848   0.746   6.000
    9SOL    HW2  927   5.010   0.726   5.998
   10SOL     OW  928   1.689   5.064   5.706
   10SOL    HW1  929   1.630   5.001   5.656
   10SOL    HW2  930   1.785   5.048   5.681
   11SOL     OW  931   2.791   0.912   5.911
   11SOL    HW1  932   2.758   0.976   5.842
   11SOL    HW2  933   2.882   0.941   5.942
   12SOL     OW  934   3.356   5.340   3.322
   12SOL    HW1  935   3.258   5.333   3.303
   12SOL    HW2  936   3.379   5.284   3.402
   13SOL     OW  937   4.318   6.275   3.791
   13SOL    HW1  938   4.260   6.248   3.868
   13SOL    HW2  939   4.382   6.346   3.821
   14SOL     OW  940   3.704   5.435   5.683
   14SOL    HW1  941   3.731   5.365   5.617
   14SOL    HW2  942   3.614   5.471   5.659
   15SOL     OW  943   0.321   6.281   1.860
   15SOL    HW1  944   0.314   6.366   1.912
   15SOL    HW2  945   0.361   6.300   1.770
   16SOL     OW  946   5.593   2.786   5.765
   16SOL    HW1  947   5.498   2.815   5.760
   16SOL    HW2  948   5.617   2.765   5.860
   17SOL     OW  949   5.394   6.654   6.489
   17SOL    HW1  950   5.437   6.728   6.540
   17SOL    HW2  951   5.464   6.596   6.448
   18SOL     OW  952   3.137   1.009   5.765
   18SOL    HW1  953   3.217   0.954   5.790
   18SOL    HW2  954   3.146   1.040   5.670
   19SOL     OW  955   0.039   1.362   2.903
   19SOL    HW1  956   6.970   1.390   2.917
   19SOL    HW2  957   0.042   1.264   2.886
   20SOL     OW  958   5.405   1.625   4.222
   20SOL    HW1  959   5.389   1.684   4.143
   20SOL    HW2  960   5.321   1.617   4.275
   21SOL     OW  961   3.439   1.452   2.642
   21SOL    HW1  962   3.377   1.527   2.666
   21SOL    HW2  963   3.398   1.365   2.670
   22SOL     OW  964   1.368   6.527   6.728
   22SOL    HW1  965   1.427   6.506   6.807
   22SOL    HW2  966   1.276   6.548   6.760
   23SOL     OW  967   5.421   5.746   2.979
   23SOL    HW1  968   5.327   5.772   2.957
   23SOL    HW2  969   5.450   5.793   3.062
   24SOL     OW  970   4.059   6.967   3.730
   24SOL    HW1  971   3.972   6.976   3.778
   24SOL    HW2  972   4.043   6.970   3.631
   25SOL     OW  973   3.620   0.434   4.766
   25SOL    HW1  974   3.662   0.397   4.849
   25SOL    HW2  975   3.667   0.519   4.740
   26SOL     OW  976   0.026   0.563   0.696
   26SOL    HW1  977   6.996   0.547   0.615
   26SOL    HW2  978   6.995   0.556   0.778
   27SOL     OW  979   1.431   2.249   2.919
   27SOL    HW1  980   1.405   2.275   2.826
   27SOL    HW2  981   1.473   2.327   2.965
   28SOL     OW  982   2.792   1.273   6.441
   28SOL    HW1  983   2.742   1.251   6.525
   28SOL    HW2  984   2.729   1.308   6.373
   29SOL     OW  985   6.492   1.903   2.212
   29SOL    HW1  986   6.441   1.818   2.203
   29SOL    HW2  987   6.428   1.979   2.227
   30SOL     OW  988   3.991   1.027   3.669
   30SOL    HW1  989   4.032   1.059   3.584
   30SOL    HW2  990   3.939   1.102   3.711
   31SOL     OW  991   0.913   3.018   6.279
   31SOL    HW1  992   0.878   3.064   6.361
   31SOL    HW2  993   1.002   2.977   6.300
   32SOL     OW  994   7.007   1.885   2.663
   32SOL    HW1  995   0.033   1.800   2.666
   32SOL    HW2  996   6.910   1.866   2.679
   33SOL     OW  997   1.350   4.987   5.359
   33SOL    HW1  998   1.282   4.916   5.341
   33SOL    HW2  999   1.402   5.006   5.276
   34SOL     OW 1000   2.898   0.065   4.553
   34SOL    HW1 1001   2.984   0.030   4.517
   34SOL    HW2 1002   2.872   0.148   4.503
   35SOL     OW 1003   4.147   3.346   6.431
   35SOL    HW1 1004   4.199   3.422   6.392
   35SOL    HW2 1005   4.199   3.262   6.422
   36SOL     OW 1006   5.855   0.980   4.821
   36SOL    HW1 1007   5.843   1.029   4.907
   36SOL    HW2 1008   5.924   1.027   4.765
   37SOL     OW 1009   1.126   1.888   0.137
   37SOL    HW1 1010   1.072   1.884   0.053
   37SOL    HW2 1011   1.220   1.915   0.116
   38SOL     OW 1012   0.843   4.773   2.698
   38SOL    HW1 1013   0.887   4.766   2.609
   38SOL    HW2 1014   0.751   4.813   2.687
   39SOL     OW 1015   6.842   4.302   6.781
   39SOL    HW1 1016   6.744   4.285   6.772
   39SOL    HW2 1017   6.857   4.376   6.846
   40SOL     OW 1018   4.429   1.528   0.713
   40SOL    HW1 1019   4.459   1.469   0.788
   40SOL    HW2 1020   4.489   1.515   0.634
   41SOL     OW 1021   6.711   5.007   3.078
   41SOL    HW1 1022   6.805   5.040   3.090
   41SOL    HW2 1023   6.712   4.907   3.071
   42SOL     OW 1024   2.988   4.854   4.606
   42SOL    HW1 1025   3.053   4.789   4.567
   42SOL    HW2 1026   3.005   4.945   4.567
   43SOL     OW 1027   5.155   6.580   5.449
   43SOL    HW1 1028   5.223   6.644   5.485
   43SOL    HW2 1029   5.130   6.514   5.519
   44SOL     OW 1030   4.368   1.451   6.707
   44SOL    HW1 1031   4.318   1.504   6.775
   44SOL    HW2 1032   4.340   1.355   6.712
   45SOL     OW 1033   4.549   5.988   1.505
   45SOL    HW1 1034   4.477   6.011   1.570
   45SOL    HW2 1035   4.638   6.007   1.545
   46SOL     OW 1036   0.347   3.269   2.992
   46SOL    HW1 1037   0.313   3.212   3.066
   46SOL    HW2 1038   0.270   3.315   2.947
   47SOL     OW 1039   4.732   4.048   0.851
   47SOL    HW1 1040   4.656   4.110   0.869
   47SOL    HW2 1041   4.818   4.092   0.876
   48SOL     OW 1042   6.367   3.386   6.177
   48SOL    HW1 1043   6.379   3.485   6.173
   48SOL    HW2 1044   6.273   3.364   6.203
   49SOL     OW 1045   5.364   3.431   1.308
   49SOL    HW1 1046   5.439   3.409   1.370
   49SOL    HW2 1047   5.381   3.520   1.265
   50SOL     OW 1048   5.360   0.952   5.290
   50SOL    HW1 1049   5.451   0.993   5.304
   50SOL    HW2 1050   5.323   0.985   5.203
   51SOL     OW 1051   2.169   6.692   3.341
   51SOL    HW1 1052   2.232   6.631   3.389
   51SOL    HW2 1053   2.081   6.692   3.388
   52SOL     OW 1054   6.171   3.250   2.612
   52SOL    HW1 1055   6.227   3.167   2.606
   52SOL    HW2 1056   6.152   3.284   2.520
   53SOL     OW 1057   4.924   6.207   4.045
   53SOL    HW1 1058   4.825   6.207   4.030
   53SOL    HW2 1059   4.953   6.295   4.081
   54SOL     OW 1060   4.593   4.906   1.012
   54SOL    HW1 1061   4.521   4.894   1.081
   54SOL    HW2 1062   4.552   4.927   0.924
   55SOL     OW 1063   1.791   2.746   6.401
   55SOL    HW1 1064   1.749   2.813   6.463
   55SOL    HW2 1065   1.833   2.793   6.324
   56SOL     OW 1066   6.989   1.142   1.043
   56SOL    HW1 1067   0.051   1.128   0.996
   56SOL    HW2 1068   7.002   1.204   1.120
   57SOL     OW 1069   4.954   0.582   1.138
   57SOL    HW1 1070   4.859   0.596   1.166
   57SOL    HW2 1071   4.959   0.572   1.039
   58SOL     OW 1072   0.363   6.303   5.882
   58SOL    HW1 1073   0.322   6.247   5.811
   58SOL    HW2 1074   0.340   6.399   5.867
   59SOL     OW 1075   1.147   2.607   5.698
   59SOL    HW1 1076   1.139   2.639   5.792
   59SOL    HW2 1077   1.230   2.645   5.657
   60SOL     OW 1078   5.562   2.648   4.490
   60SOL    HW1 1079   5.465   2.666   4.478
   60SOL    HW2 1080   5.595   2.695   4.573
   61SOL     OW 1081   6.526   2.222   4.803
   61SOL    HW1 1082   6.592   2.207   4.877
   61SOL    HW2 1083   6.574   2.259   4.723
   62SOL     OW 1084   1.233   1.206   1.699
   62SOL    HW1 1085   1.249   1.137   1.769
   62SOL    HW2 1086   1.268   1.295   1.731
   63SOL     OW 1087   5.550   1.168   3.544
   63SOL    HW1 1088   5.517   1.082   3.582
   63SOL    HW2 1089   5.494   1.243   3.579
   64SOL     OW 1090   0.622   3.323   6.195
   64SOL    HW1 1091   0.531   3.286   6.206
   64SOL    HW2 1092   0.681   3.257   6.149
   65SOL     OW 1093   0.675   4.660   6.465
   65SOL    HW1 1094   0.727   4.591   6.516
   65SOL    HW2 1095   0.578   4.652   6.486
   66SOL     OW 1096   4.157   1.111   5.316
   66SOL    HW1 1097   4.160   1.129   5.414
   66SOL    HW2 1098   4.220   1.037   5.294
   67SOL     OW 1099   6.659   3.171   5.631
   67SOL    HW1 1100   6.726   3.215   5.572
   67SOL    HW2 1101   6.704   3.099   5.684
   68SOL     OW 1102   6.244   1.096   6.915
   68SOL    HW1 1103   6.171   1.163   6.925
   68SOL    HW2 1104   6.227   1.039   6.835
   69SOL     OW 1105   0.872   3.665   6.478
   69SOL    HW1 1106   0.820   3.723   6.416
   69SOL    HW2 1107   0.924   3.722   6.542
   70SOL     OW 1108   5.743   4.429   5.017
   70SOL    HW1 1109   5.704   4.521   5.025
   70SOL    HW2 1110   5.673   4.366   4.986
   71SOL     OW 1111   3.927   1.888   3.842
   71SOL    HW1 1112   3.952   1.844   3.756
   71SOL    HW2 1113   3.996   1.867   3.911
   72SOL     OW 1114   1.336   0.501   4.003
   72SOL    HW1 1115   1.256   0.528   4.057
   72SOL    HW2 1116   1.338   0.401   3.995
   73SOL     OW 1117   3.761   0.583   1.359
   73SOL    HW1 1118   3.806   0.525   1.428
   73SOL    HW2 1119   3.729   0.667   1.403
   74SOL     OW 1120   4.019   0.720   0.140
   74SOL    HW1 1121   3.996   0.643   0.081
   74SOL    HW2 1122   4.049   0.797   0.084
   75SOL     OW 1123   4.517   0.857   0.931
   75SOL    HW1 1124   4.544   0.869   1.026
   75SOL    HW2 1125   4.568   0.780   0.892
   76SOL     OW 1126   2.867   3.234   1.478
   76SOL    HW1 1127   2.946   3.182   1.510
   76SOL    HW2 1128   2.818   3.271   1.557
   77SOL     OW 1129   0.641   0.093   3.702
   77SOL    HW1 1130   0.629   0.113   3.799
   77SOL    HW2 1131   0.707   0.019   3.691
   78SOL     OW 1132   5.577   1.546   7.022
   78SOL    HW1 1133   5.586   1.503   0.085
   78SOL    HW2 1134   5.555   1.476   6.953
   79SOL     OW 1135   3.004   5.738   1.343
   79SOL    HW1 1136   2.958   5.650   1.354
   79SOL    HW2 1137   3.097   5.723   1.312
   80SOL     OW 1138   4.426   1.184   4.057
   80SOL    HW1 1139   4.480   1.226   4.130
   80SOL    HW2 1140   4.438   1.238   3.973
   81SOL     OW 1141   2.703   0.213   2.353
   81SOL    HW1 1142   2.636   0.189   2.283
   81SOL    HW2 1143   2.786   0.159   2.339
   82SOL     OW 1144   5.736   4.967   0.523
   82SOL    HW1 1145   5.753   4.932   0.615
   82SOL    HW2 1146   5.695   4.895   0.467
   83SOL     OW 1147   0.159   0.355   0.125
   83SOL    HW1 1148   0.137   0.264   0.162
   83SOL    HW2 1149   0.250   0.354   0.084
   84SOL     OW 1150   6.242   2.971   3.261
   84SOL    HW1 1151   6.151   2.929   3.263
   84SOL    HW2 1152   6.259   3.018   3.347
   85SOL     OW 1153   1.725   1.441   3.729
   85SOL    HW1 1154   1.814   1.483   3.749
   85SOL    HW2 1155   1.734   1.378   3.652
   86SOL     OW 1156   0.853   1.360   6.373
   86SOL    HW1 1157   0.772   1.335   6.319
   86SOL    HW2 1158   0.933   1.366   6.312
   87SOL     OW 1159   5.085   4.479   0.935
   87SOL    HW1 1160   5.044   4.483   0.844
   87SOL    HW2 1161   5.185   4.480   0.928
   88SOL     OW 1162   3.390   1.938   6.233
   88SOL    HW1 1163   3.392   1.856   6.175
   88SOL    HW2 1164   3.448   1.923   6.313
   89SOL     OW 1165   2.621   2.482   6.765
   89SOL    HW1 1166   2.537   2.450   6.810
   89SOL    HW2 1167   2.625   2.445   6.672
   90SOL     OW 1168   4.300   4.850   2.354
   90SOL    HW1 1169   4.242   4.808   2.285
   90SOL    HW2 1170   4.292   4.950   2.348
   91SOL     OW 1171   6.153   3.580   6.102
   91SOL    HW1 1172   6.110   3.655   6.152
   91SOL    HW2 1173   6.084   3.511   6.081
   92SOL     OW 1174   4.441   4.546   0.861
   92SOL    HW1 1175   4.378   4.472   0.834
   92SOL    HW2 1176   4.394   4.609   0.922
   93SOL     OW 1177   3.367   3.543   0.724
   93SOL    HW1 1178   3.388   3.500   0.636
   93SOL    HW2 1179   3.284   3.502   0.762
   94SOL     OW 1180   2.433   5.998   6.200
   94SOL    HW1 1181   2.414   5.906   6.166
   94SOL    HW2 1182   2.530   6.020   6.183
   95SOL     OW 1183   0.732   6.873   2.755
   95SOL    HW1 1184   0.764   6.949   2.811
   95SOL    HW2 1185   0.776   6.788   2.784
   96SOL     OW 1186   3.490   0.040   5.014
   96SOL    HW1 1187   3.508   0.137   5.030
   96SOL    HW2 1188   3.396   0.019   5.041
   97SOL     OW 1189   2.349   3.405   6.457
   97SOL    HW1 1190   2.254   3.378   6.472
   97SOL    HW2 1191   2.388   3.353   6.382
   98SOL     OW 1192   1.097   3.304   0.885
   98SOL    HW1 1193   1.073   3.211   0.912
   98SOL    HW2 1194   1.196   3.315   0.892
   99SOL     OW 1195   3.871   2.671   1.402
   99SOL    HW1 1196   3.958   2.635   1.437
   99SOL    HW2 1197   3.797   2.608   1.427
  100SOL     OW 1198   0.994   6.509   4.370
  100SOL    HW1 1199   1.001   6.591   4.312
  100SOL    HW2 1200   1.080   6.495   4.419
  101SOL     OW 1201   2.010   5.076   2.362
  101SOL    HW1 1202   2.072   5.131   2.305
  101SOL    HW2 1203   1.943   5.135   2.406
  102SOL     OW 1204   3.579   5.561   1.106
  102SOL    HW1 1205   3.512   5.598   1.170
  102SOL    HW2 1206   3.573   5.461   1.105
  103SOL     OW 1207   2.324   1.947   1.797
  103SOL    HW1 1208   2.379   1.877   1.751
  103SOL    HW2 1209   2.341   1.946   1.895
  104SOL     OW 1210   1.484   5.828   2.905
  104SOL    HW1 1211   1.477   5.919   2.946
  104SOL    HW2 1212   1.427   5.823   2.824
  105SOL     OW 1213   6.701   1.219   6.194
  105SOL    HW1 1214   6.771   1.290   6.184
  105SOL    HW2 1215   6.697   1.164   6.111
  106SOL     OW 1216   3.605   6.249   4.123
  106SOL    HW1 1217   3.674   6.213   4.185
  106SOL    HW2 1218   3.541   6.176   4.099
  107SOL     OW 1219   0.904   1.098   0.919
  107SOL    HW1 1220   0.950   1.043   0.989
  107SOL    HW2 1221   0.806   1.102   0.939
  108SOL     OW 1222   3.259   6.943   5.714
  108SOL    HW1 1223   3.334   7.009   5.722
  108SOL    HW2 1224   3.176   6.990   5.684
  109SOL     OW 1225   1.157   0.952   2.292
  109SOL    HW1 1226   1.151   1.021   2.220
  109SOL    HW2 1227   1.065   0.918   2.314
  110SOL     OW 1228   3.124   5.273   4.260
  110SOL    HW1 1229   3.097   5.366   4.233
  110SOL    HW2 1230   3.044   5.213   4.255
  111SOL     OW 1231   1.587   1.440   3.981
  111SOL    HW1 1232   1.644   1.454   3.899
  111SOL    HW2 1233   1.502   1.493   3.971
  112SOL     OW 1234   3.222   5.841   6.541
  112SOL    HW1 1235   3.179   5.816   6.454
  112SOL    HW2 1236   3.255   5.935   6.536
  113SOL     OW 1237   0.465   5.769   2.339
  113SOL    HW1 1238   0.370   5.795   2.358
  113SOL    HW2 1239   0.505   5.728   2.421
  114SOL     OW 1240   0.977   6.741   2.025
  114SOL    HW1 1241   1.021   6.662   2.067
  114SOL    HW2 1242   0.890   6.760   2.071
  115SOL     OW 1243   5.017   1.215   3.208
  115SOL    HW1 1244   4.971   1.304   3.202
  115SOL    HW2 1245   4.973   1.150   3.147
  116SOL     OW 1246   6.122   6.049   1.612
  116SOL    HW1 1247   6.130   5.968   1.670
  116SOL    HW2 1248   6.141   6.131   1.666
  117SOL     OW 1249   1.542   1.143   1.204
  117SOL    HW1 1250   1.512   1.159   1.298
  117SOL    HW2 1251   1.541   1.045   1.185
  118SOL     OW 1252   1.476   0.778   2.160
  118SOL    HW1 1253   1.557   0.736   2.201
  118SOL    HW2 1254   1.443   0.852   2.220
  119SOL     OW 1255   0.437   0.574   0.008
  119SOL    HW1 1256   0.400   0.519   6.958
  119SOL    HW2 1257   0.497   0.517   0.064
  120SOL     OW 1258   5.592   0.820   6.181
  120SOL    HW1 1259   5.592   0.759   6.260
  120SOL    HW2 1260   5.633   0.773   6.102
  121SOL     OW 1261   1.823   3.316   6.852
  121SOL    HW1 1262   1.810   3.218   6.837
  121SOL    HW2 1263   1.757   3.348   6.920
  122SOL     OW 1264   1.410   3.809   6.616
  122SOL    HW1 1265   1.400   3.738   6.546
  122SOL    HW2 1266   1.469   3.776   6.689
  123SOL     OW 1267   0.903   1.386   2.704
  123SOL    HW1 1268   0.805   1.371   2.707
  123SOL    HW2 1269   0.943   1.338   2.626
  124SOL     OW 1270   3.947   2.554   1.063
  124SOL    HW1 1271   4.019   2.581   0.999
  124SOL    HW2 1272   3.936   2.454   1.061
  125SOL     OW 1273   3.481   1.927   0.207
  125SOL    HW1 1274   3.498   1.955   0.112
  125SOL    HW2 1275   3.436   2.002   0.256
  126SOL     OW 1276   2.766   4.182   1.292
  126SOL    HW1 1277   2.727   4.092   1.309
  126SOL    HW2 1278   2.711   4.252   1.338
  127SOL     OW 1279   1.086   4.617   6.877
  127SOL    HW1 1280   1.122   4.666   6.798
  127SOL    HW2 1281   1.148   4.628   6.955
  128SOL     OW 1282   4.906   2.623   1.401
  128SOL    HW1 1283   4.918   2.655   1.307
  128SOL    HW2 1284   4.818   2.576   1.410
  129SOL     OW 1285   3.387   3.717   6.276
  129SOL    HW1 1286   3.481   3.699   6.306
  129SOL    HW2 1287   3.388   3.751   6.182
  130SOL     OW 1288   1.578   1.726   4.381
  130SOL    HW1 1289   1.559   1.803   4.442
  130SOL    HW2 1290   1.553   1.751   4.288
  131SOL     OW 1291   4.746   0.291   3.414
  131SOL    HW1 1292   4.714   0.345   3.336
  131SOL    HW2 1293   4.771   0.199   3.383
  132SOL     OW 1294   2.912   2.887   1.577
  132SOL    HW1 1295   2.930   2.811   1.640
  132SOL    HW2 1296   2.941   2.860   1.485
  133SOL     OW 1297   5.003   0.820   4.251
  133SOL    HW1 1298   4.970   0.786   4.163
  133SOL    HW2 1299   5.103   0.815   4.254
  134SOL     OW 1300   6.621   1.202   2.351
  134SOL    HW1 1301   6.530   1.170   2.376
  134SOL    HW2 1302   6.661   1.252   2.428
  135SOL     OW 1303   5.400   4.214   3.724
  135SOL    HW1 1304   5.422   4.283   3.655
  135SOL    HW2 1305   5.441   4.127   3.698
  136SOL     OW 1306   1.862   5.541   5.033
  136SOL    HW1 1307   1.784   5.521   5.092
  136SOL    HW2 1308   1.861   5.638   5.009
  137SOL     OW 1309   5.343   1.719   2.900
  137SOL    HW1 1310   5.332   1.624   2.929
  137SOL    HW2 1311   5.348   1.777   2.981
  138SOL     OW 1312   1.246   3.704   2.809
  138SOL    HW1 1313   1.308   3.756   2.750
  138SOL    HW2 1314   1.292   3.681   2.894
  139SOL     OW 1315   1.479   0.274   5.360
  139SOL    HW1 1316   1.534   0.190   5.355
  139SOL    HW2 1317   1.383   0.252   5.347
  140SOL     OW 1318   1.346   6.722   3.876
  140SOL    HW1 1319   1.263   6.740   3.824
  140SOL    HW2 1320   1.326   6.661   3.952
  141SOL     OW 1321   0.183   2.757   5.091
  141SOL    HW1 1322   0.146   2.664   5.089
  141SOL    HW2 1323   0.160   2.804   5.006
  142SOL     OW 1324   1.432   4.440   1.243
  142SOL    HW1 1325   1.472   4.518   1.291
  142SOL    HW2 1326   1.476   4.431   1.153
  143SOL     OW 1327   6.137   4.005   0.472
  143SOL    HW1 1328   6.138   3.952   0.557
  143SOL    HW2 1329   6.046   4.004   0.432
  144SOL     OW 1330   1.054   4.613   5.710
  144SOL    HW1 1331   1.141   4.565   5.703
  144SOL    HW2 1332   1.044   4.650   5.803
  145SOL     OW 1333   1.028   5.141   1.337
  145SOL    HW1 1334   0.948   5.139   1.277
  145SOL    HW2 1335   1.099   5.199   1.297
  146SOL     OW 1336   4.824   0.554   5.823
  146SOL    HW1 1337   4.736   0.584   5.786
  146SOL    HW2 1338   4.854   0.472   5.776
  147SOL     OW 1339   5.334   2.559   6.022
  147SOL    HW1 1340   5.404   2.595   6.083
  147SOL    HW2 1341   5.376   2.495   5.957
  148SOL     OW 1342   6.809   5.506   0.722
  148SOL    HW1 1343   6.854   5.446   0.789
  148SOL    HW2 1344   6.867   5.515   0.641
  149SOL     OW 1345   3.658   1.887   3.885
  149SOL    HW1 1346   3.753   1.876   3.856
  149SOL    HW2 1347   3.649   1.860   3.981
  150SOL     OW 1348   5.772   6.835   0.502
  150SOL    HW1 1349   5.749   6.830   0.405
  150SOL    HW2 1350   5.689   6.825   0.557
  151SOL     OW 1351   3.201   1.391   1.953
  151SOL    HW1 1352   3.143   1.384   1.872
  151SOL    HW2 1353   3.247   1.481   1.953
  152SOL     OW 1354   0.204   0.983   1.563
  152SOL    HW1 1355   0.188   1.047   1.487
  152SOL    HW2 1356   0.144   1.006   1.639
  153SOL     OW 1357   2.855   0.442   3.644
  153SOL    HW1 1358   2.861   0.348   3.612
  153SOL    HW2 1359   2.861   0.443   3.744
  154SOL     OW 1360   0.795   3.468   1.728
  154SOL    HW1 1361   0.889   3.451   1.760
  154SOL    HW2 1362   0.766   3.559   1.757
  155SOL     OW 1363   0.909   1.896   5.265
  155SOL    HW1 1364   0.955   1.902   5.354
  155SOL    HW2 1365   0.885   1.988   5.234
  156SOL     OW 1366   0.109   0.801   0.951
  156SOL    HW1 1367   0.174   0.831   0.882
  156SOL    HW2 1368   0.128   0.847   1.038
  157SOL     OW 1369   5.512   3.033   1.563
  157SOL    HW1 1370   5.608   3.054   1.582
  157SOL    HW2 1371   5.483   3.083   1.481
  158SOL     OW 1372   1.881   3.161   1.855
  158SOL    HW1 1373   1.869   3.113   1.768
  158SOL    HW2 1374   1.974   3.197   1.860
  159SOL     OW 1375   4.487   4.879   2.643
  159SOL    HW1 1376   4.394   4.912   2.660
  159SOL    HW2 1377   4.503   4.874   2.544
  160SOL     OW 1378   5.486   6.338   0.584
  160SOL    HW1 1379   5.543   6.420   0.580
  160SOL    HW2 1380   5.482   6.304   0.678
  161SOL     OW 1381   1.493   6.176   3.292
  161SOL    HW1 1382   1.516   6.085   3.325
  161SOL    HW2 1383   1.569   6.212   3.238
  162SOL     OW 1384   3.778   6.512   0.196
  162SOL    HW1 1385   3.738   6.604   0.202
  162SOL    HW2 1386   3.795   6.477   0.288
  163SOL     OW 1387   6.505   5.192   1.911
  163SOL    HW1 1388   6.480   5.288   1.922
  163SOL    HW2 1389   6.535   5.176   1.817
  164SOL     OW 1390   0.578   4.401   2.856
  164SOL    HW1 1391   0.506   4.331   2.862
  164SOL    HW2 1392   0.667   4.357   2.855
  165SOL     OW 1393   4.421   3.675   1.675
  165SOL    HW1 1394   4.517   3.701   1.680
  165SOL    HW2 1395   4.413   3.578   1.650
  166SOL     OW 1396   1.563   3.576   2.053
  166SOL    HW1 1397   1.617   3.558   1.970
  166SOL    HW2 1398   1.577   3.671   2.081
  167SOL     OW 1399   5.227   3.138   0.004
  167SOL    HW1 1400   5.142   3.144   0.057
  167SOL    HW2 1401   5.210   3.171   6.937
  168SOL     OW 1402   3.462   2.807   1.043
  168SOL    HW1 1403   3.432   2.815   1.138
  168SOL    HW2 1404   3.390   2.764   0.989
  169SOL     OW 1405   5.895   1.896   1.638
  169SOL    HW1 1406   5.943   1.971   1.592
  169SOL    HW2 1407   5.803   1.888   1.601
  170SOL     OW 1408   0.357   0.011   2.488
  170SOL    HW1 1409   0.324   6.996   2.573
  170SOL    HW2 1410   0.424   6.976   2.445
  171SOL     OW 1411   2.213   4.231   6.773
  171SOL    HW1 1412   2.162   4.290   6.711
  171SOL    HW2 1413   2.263   4.162   6.720
  172SOL     OW 1414   6.397   1.250   2.745
  172SOL    HW1 1415   6.433   1.341   2.766
  172SOL    HW2 1416   6.467   1.181   2.765
  173SOL     OW 1417   6.662   1.170   4.100
  173SOL    HW1 1418   6.591   1.211   4.042
  173SOL    HW2 1419   6.752   1.201   4.069
  174SOL     OW 1420   3.731   5.392   3.361
  174SOL    HW1 1421   3.694   5.301   3.342
  174SOL    HW2 1422   3.664   5.445   3.413
  175SOL     OW 1423   3.063   0.008   1.594
  175SOL    HW1 1424   3.099   6.963   1.655
  175SOL    HW2 1425   3.069   0.097   1.640
  176SOL     OW 1426   6.708   4.597   1.024
  176SOL    HW1 1427   6.753   4.576   1.111
  176SOL    HW2 1428   6.760   4.556   0.949
  177SOL     OW 1429   5.806   3.170   3.500
  177SOL    HW1 1430   5.779   3.208   3.411
  177SOL    HW2 1431   5.806   3.071   3.494
  178SOL     OW 1432   3.316   4.295   5.935
  178SOL    HW1 1433   3.309   4.230   5.858
  178SOL    HW2 1434   3.303   4.246   6.021
  179SOL     OW 1435   4.249   1.384   5.939
  179SOL    HW1 1436   4.151   1.365   5.932
  179SOL    HW2 1437   4.269   1.471   5.894
  180SOL     OW 1438   2.226   6.871   0.274
  180SOL    HW1 1439   2.323   6.855   0.294
  180SOL    HW2 1440   2.210   6.970   0.264
  181SOL     OW 1441   3.672   3.498   5.570
  181SOL    HW1 1442   3.636   3.418   5.521
  181SOL    HW2 1443   3.667   3.481   5.669
  182SOL     OW 1444   3.767   1.852   5.473
  182SOL    HW1 1445   3.787   1.912   5.395
  182SOL    HW2 1446   3.669   1.833   5.476
  183SOL     OW 1447   3.700   1.834   3.179
  183SOL    HW1 1448   3.639   1.910   3.202
  183SOL    HW2 1449   3.761   1.862   3.105
  184SOL     OW 1450   0.864   6.735   4.176
  184SOL    HW1 1451   0.766   6.724   4.197
  184SOL    HW2 1452   0.896   6.656   4.124
  185SOL     OW 1453   0.459   0.517   5.743
  185SOL    HW1 1454   0.497   0.587   5.804
  185SOL    HW2 1455   0.411   0.560   5.667
  186SOL     OW 1456   6.155   0.671   3.790
  186SOL    HW1 1457   6.061   0.702   3.802
  186SOL    HW2 1458   6.181   0.613   3.868
  187SOL     OW 1459   5.157   6.631   2.221
  187SOL    HW1 1460   5.171   6.711   2.162
  187SOL    HW2 1461   5.059   6.616   2.234
  188SOL     OW 1462   1.247   3.139   3.207
  188SOL    HW1 1463   1.269   3.192   3.125
  188SOL    HW2 1464   1.255   3.042   3.187
  189SOL     OW 1465   2.665   5.457   0.717
  189SOL    HW1 1466   2.627   5.375   0.674
  189SOL    HW2 1467   2.656   5.535   0.655
  190SOL     OW 1468   5.475   3.262   5.650
  190SOL    HW1 1469   5.532   3.180   5.641
  190SOL    HW2 1470   5.379   3.236   5.654
  191SOL     OW 1471   6.150   0.281   6.421
  191SOL    HW1 1472   6.242   0.268   6.386
  191SOL    HW2 1473   6.084   0.234   6.362
  192SOL     OW 1474   0.845   4.772   2.390
  192SOL    HW1 1475   0.757   4.755   2.347
  192SOL    HW2 1476   0.900   4.688   2.389
  193SOL     OW 1477   4.572   3.608   5.354
  193SOL    HW1 1478   4.480   3.629   5.321
  193SOL    HW2 1479   4.631   3.586   5.275
  194SOL     OW 1480   3.836   0.746   2.742
  194SOL    HW1 1481   3.900   0.785   2.676
  194SOL    HW2 1482   3.860   0.650   2.758
  195SOL     OW 1483   1.555   0.122   4.189
  195SOL    HW1 1484   1.538   0.213   4.150
  195SOL    HW2 1485   1.592   0.062   4.119
  196SOL     OW 1486   3.186   0.794   0.640
  196SOL    HW1 1487   3.178   0.700   0.675
  196SOL    HW2 1488   3.096   0.834   0.629
  197SOL     OW 1489   2.600   0.548   1.482
  197SOL    HW1 1490   2.616   0.513   1.574
  197SOL    HW2 1491   2.682   0.535   1.426
  198SOL     OW 1492   5.083   0.172   1.545
  198SOL    HW1 1493   5.109   0.118   1.625
  198SOL    HW2 1494   5.009   0.235   1.570
  199SOL     OW 1495   6.556   1.585   3.258
  199SOL    HW1 1496   6.465   1.545   3.245
  199SOL    HW2 1497   6.551   1.684   3.244
  200SOL     OW 1498   1.088   4.490   2.101
  200SOL    HW1 1499   1.071   4.421   2.171
  200SOL    HW2 1500   1.006   4.547   2.090
  201SOL     OW 1501   7.001   6.592   6.086
  201SOL    HW1 1502   6.904   6.594   6.061
  201SOL    HW2 1503   7.019   6.514   6.145
  202SOL     OW 1504   4.792   0.400   6.047
  202SOL    HW1 1505   4.867   0.334   6.058
  202SOL    HW2 1506   4.810   0.458   5.968
  203SOL     OW 1507   4.517   2.600   4.383
  203SOL    HW1 1508   4.453   2.533   4.347
  203SOL    HW2 1509   4.498   2.617   4.480
  204SOL     OW 1510   0.386   1.003   6.792
  204SOL    HW1 1511   0.442   1.080   6.760
  204SOL    HW2 1512   0.291   1.017   6.764
  205SOL     OW 1513   0.526   0.973   3.223
  205SOL    HW1 1514   0.547   1.067   3.249
  205SOL    HW2 1515   0.599   0.937   3.166
  206SOL     OW 1516   0.197   5.099   1.719
  206SOL    HW1 1517   0.211   5.174   1.784
  206SOL    HW2 1518   0.121   5.041   1.750
  207SOL     OW 1519   5.165   1.118   3.685
  207SOL    HW1 1520   5.179   1.045   3.752
  207SOL    HW2 1521   5.161   1.079   3.593
  208SOL     OW 1522   5.555   2.495   5.154
  208SOL    HW1 1523   5.481   2.428   5.147
  208SOL    HW2 1524   5.588   2.518   5.062
  209SOL     OW 1525   0.281   4.335   4.550
  209SOL    HW1 1526   0.191   4.356   4.511
  209SOL    HW2 1527   0.275   4.249   4.602
  210SOL     OW 1528   4.155   1.634   0.713
  210SOL    HW1 1529   4.232   1.583   0.677
  210SOL    HW2 1530   4.158   1.632   0.813
  211SOL     OW 1531   2.497   6.078   3.320
  211SOL    HW1 1532   2.466   6.109   3.410
  211SOL    HW2 1533   2.431   6.107   3.250
  212SOL     OW 1534   1.379   4.288   1.606
  212SOL    HW1 1535   1.326   4.373   1.612
  212SOL    HW2 1536   1.353   4.237   1.524
  213SOL     OW 1537   2.922   0.642   6.573
  213SOL    HW1 1538   3.000   0.607   6.521
  213SOL    HW2 1539   2.928   0.609   6.667
  214SOL     OW 1540   4.772   5.319   1.262
  214SOL    HW1 1541   4.836   5.377   1.213
  214SOL    HW2 1542   4.751   5.359   1.351
  215SOL     OW 1543   2.145   3.785   0.870
  215SOL    HW1 1544   2.193   3.866   0.838
  215SOL    HW2 1545   2.108   3.802   0.962
  216SOL     OW 1546   2.344   5.792   4.158
  216SOL    HW1 1547   2.316   5.737   4.237
  216SOL    HW2 1548   2.405   5.865   4.187
  217SOL     OW 1549   1.974   2.515   4.015
  217SOL    HW1 1550   2.025   2.453   4.076
  217SOL    HW2 1551   2.038   2.565   3.957
  218SOL     OW 1552   0.997   3.133   4.305
  218SOL    HW1 1553   0.935   3.191   4.253
  218SOL    HW2 1554   0.955   3.043   4.319
  219SOL     OW 1555   4.291   6.557   5.977
  219SOL    HW1 1556   4.375   6.564   6.029
  219SOL    HW2 1557   4.312   6.554   5.879
  220SOL     OW 1558   3.919   6.954   0.720
  220SOL    HW1 1559   3.926   6.860   0.686
  220SOL    HW2 1560   4.010   6.994   0.728
  221SOL     OW 1561   6.399   2.805   1.763
  221SOL    HW1 1562   6.401   2.849   1.674
  221SOL    HW2 1563   6.307   2.813   1.802
  222SOL     OW 1564   2.796   4.821   5.799
  222SOL    HW1 1565   2.785   4.800   5.702
  222SOL    HW2 1566   2.766   4.743   5.854
  223SOL     OW 1567   5.552   2.750   0.940
  223SOL    HW1 1568   5.530   2.721   1.033
  223SOL    HW2 1569   5.546   2.671   0.879
  224SOL     OW 1570   1.975   2.396   4.835
  224SOL    HW1 1571   1.956   2.327   4.765
  224SOL    HW2 1572   2.052   2.453   4.806
  225SOL     OW 1573   4.724   2.545   6.258
  225SOL    HW1 1574   4.818   2.528   6.287
  225SOL    HW2 1575   4.662   2.486   6.310
  226SOL     OW 1576   1.186   0.605   6.303
  226SOL    HW1 1577   1.185   0.571   6.209
  226SOL    HW2 1578   1.172   0.704   6.304
  227SOL     OW 1579   1.416   3.417   3.247
  227SOL    HW1 1580   1.359   3.336   3.238
  227SOL    HW2 1581   1.360   3.495   3.273
  228SOL     OW 1582   3.021   6.148   3.600
  228SOL    HW1 1583   3.032   6.053   3.630
  228SOL    HW2 1584   3.028   6.152   3.500
  229SOL     OW 1585   4.830   5.969   6.855
  229SOL    HW1 1586   4.863   6.056   6.893
  229SOL    HW2 1587   4.821   5.978   6.755
  230SOL     OW 1588   3.212   4.885   3.268
  230SOL    HW1 1589   3.131   4.828   3.259
  230SOL    HW2 1590   3.265   4.883   3.184
  231SOL     OW 1591   6.048   1.772   0.020
  231SOL    HW1 1592   6.057   1.726   0.109
  231SOL    HW2 1593   6.104   1.855   0.020
  232SOL     OW 1594   0.964   3.986   6.224
  232SOL    HW1 1595   0.873   3.993   6.264
  232SOL    HW2 1596   0.977   3.894   6.186
  233SOL     OW 1597   2.344   2.326   3.921
  233SOL    HW1 1598   2.336   2.330   3.822
  233SOL    HW2 1599   2.265   2.277   3.959
  234SOL     OW 1600   4.207   6.769   4.966
  234SOL    HW1 1601   4.245   6.678   4.982
  234SOL    HW2 1602   4.118   6.760   4.922
  235SOL     OW 1603   3.556   2.932   1.636
  235SOL    HW1 1604   3.466   2.914   1.597
  235SOL    HW2 1605   3.564   2.888   1.725
  236SOL     OW 1606   4.975   3.214   0.090
  236SOL    HW1 1607   4.914   3.292   0.104
  236SOL    HW2 1608   4.921   3.133   0.066
  237SOL     OW 1609   5.986   4.986   1.968
  237SOL    HW1 1610   6.048   5.042   2.023
  237SOL    HW2 1611   6.036   4.906   1.934
  238SOL     OW 1612   5.107   2.440   0.081
  238SOL    HW1 1613   5.114   2.387   0.165
  238SOL    HW2 1614   5.198   2.470   0.053
  239SOL     OW 1615   0.223   5.400   5.720
  239SOL    HW1 1616   0.241   5.303   5.704
  239SOL    HW2 1617   0.242   5.421   5.816
  240SOL     OW 1618   0.453   2.570   3.635
  240SOL    HW1 1619   0.483   2.482   3.673
  240SOL    HW2 1620   0.517   2.599   3.564
  241SOL     OW 1621   1.757   0.160   5.075
  241SOL    HW1 1622   1.826   0.159   5.003
  241SOL    HW2 1623   1.689   0.231   5.055
  242SOL     OW 1624   2.979   3.266   5.393
  242SOL    HW1 1625   2.908   3.307   5.336
  242SOL    HW2 1626   2.978   3.308   5.484
  243SOL     OW 1627   4.344   0.235   5.725
  243SOL    HW1 1628   4.267   0.298   5.739
  243SOL    HW2 1629   4.392   0.222   5.811
  244SOL     OW 1630   5.619   2.079   4.650
  244SOL    HW1 1631   5.528   2.059   4.686
  244SOL    HW2 1632   5.629   2.178   4.637
  245SOL     OW 1633   6.629   3.508   4.660
  245SOL    HW1 1634   6.573   3.591   4.664
  245SOL    HW2 1635   6.699   3.518   4.589
  246SOL     OW 1636   4.741   2.492   3.142
  246SOL    HW1 1637   4.699   2.421   3.085
  246SOL    HW2 1638   4.723   2.582   3.101
  247SOL     OW 1639   3.078   1.712   1.734
  247SOL    HW1 1640   3.136   1.700   1.653
  247SOL    HW2 1641   3.043   1.806   1.737
  248SOL     OW 1642   3.532   2.063   2.510
  248SOL    HW1 1643   3.567   2.156   2.500
  248SOL    HW2 1644   3.555   2.009   2.429
  249SOL     OW 1645   3.995   0.227   5.624
  249SOL    HW1 1646   4.022   0.155   5.560
  249SOL    HW2 1647   3.911   0.201   5.671
  250SOL     OW 1648   4.986   2.631   0.724
  250SOL    HW1 1649   5.077   2.671   0.732
  250SOL    HW2 1650   4.980   2.549   0.781
  251SOL     OW 1651   4.752   3.775   5.468
  251SOL    HW1 1652   4.678   3.707   5.457
  251SOL    HW2 1653   4.813   3.770   5.389
  252SOL     OW 1654   6.622   6.843   6.669
  252SOL    HW1 1655   6.674   6.777   6.723
  252SOL    HW2 1656   6.615   6.810   6.574
  253SOL     OW 1657   2.345   4.450   6.939
  253SOL    HW1 1658   2.285   4.529   6.924
  253SOL    HW2 1659   2.313   4.374   6.883
  254SOL     OW 1660   4.886   3.148   3.232
  254SOL    HW1 1661   4.896   3.169   3.135
  254SOL    HW2 1662   4.826   3.068   3.243
  255SOL     OW 1663   2.119   3.298   4.743
  255SOL    HW1 1664   2.021   3.314   4.732
  255SOL    HW2 1665   2.139   3.279   4.839
  256SOL     OW 1666   6.626   4.153   6.407
  256SOL    HW1 1667   6.691   4.091   6.452
  256SOL    HW2 1668   6.533   4.122   6.425
  257SOL     OW 1669   4.780   6.850   3.858
  257SOL    HW1 1670   4.846   6.885   3.924
  257SOL    HW2 1671   4.688   6.881   3.883
  258SOL     OW 1672   0.462   5.033   5.015
  258SOL    HW1 1673   0.487   5.120   5.058
  258SOL    HW2 1674   0.416   5.050   4.928
  259SOL     OW 1675   1.594   1.973   2.284
  259SOL    HW1 1676   1.664   1.914   2.325
  259SOL    HW2 1677   1.541   2.016   2.356
  260SOL     OW 1678   4.870   1.173   0.750
  260SOL    HW1 1679   4.785   1.154   0.702
  260SOL    HW2 1680   4.860   1.150   0.846
  261SOL     OW 1681   6.391   3.740   0.162
  261SOL    HW1 1682   6.397   3.686   0.078
  261SOL    HW2 1683   6.437   3.827   0.149
  262SOL     OW 1684   6.818   4.350   0.592
  262SOL    HW1 1685   6.778   4.316   0.506
  262SOL    HW2 1686   6.914   4.323   0.597
  263SOL     OW 1687   0.611   1.066   3.908
  263SOL    HW1 1688   0.525   1.022   3.885
  263SOL    HW2 1689   0.603   1.165   3.895
  264SOL     OW 1690   4.761   3.136   5.918
  264SOL    HW1 1691   4.677   3.176   5.882
  264SOL    HW2 1692   4.747   3.110   6.013
  265SOL     OW 1693   4.472   5.584   3.075
  265SOL    HW1 1694   4.557   5.568   3.025
  265SOL    HW2 1695   4.492   5.629   3.162
  266SOL     OW 1696   3.588   3.195   5.683
  266SOL    HW1 1697   3.521   3.232   5.619
  266SOL    HW2 1698   3.659   3.146   5.632
  267SOL     OW 1699   6.707   2.452   6.162
  267SOL    HW1 1700   6.789   2.427   6.214
  267SOL    HW2 1701   6.721   2.429   6.066
  268SOL     OW 1702   4.073   0.237   5.336
  268SOL    HW1 1703   4.163   0.269   5.364
  268SOL    HW2 1704   4.080   0.144   5.299
  269SOL     OW 1705   1.597   3.100   1.052
  269SOL    HW1 1706   1.529   3.048   1.104
  269SOL    HW2 1707   1.607   3.191   1.093
  270SOL     OW 1708   0.364   0.377   0.465
  270SOL    HW1 1709   0.407   0.454   0.419
  270SOL    HW2 1710   0.348   0.401   0.561
  271SOL     OW 1711   2.532   1.755   0.636
  271SOL    HW1 1712   2.532   1.701   0.552
  271SOL    HW2 1713   2.448   1.810   0.640
  272SOL     OW 1714   3.204   4.887   4.017
  272SOL    HW1 1715   3.289   4.865   4.065
  272SOL    HW2 1716   3.127   4.875   4.080
  273SOL     OW 1717   2.149   4.552   4.729
  273SOL    HW1 1718   2.184   4.606   4.805
  273SOL    HW2 1719   2.219   4.489   4.697
  274SOL     OW 1720   4.893   2.098   3.803
  274SOL    HW1 1721   4.816   2.106   3.866
  274SOL    HW2 1722   4.894   2.006   3.763
  275SOL     OW 1723   6.158   4.892   5.893
  275SOL    HW1 1724   6.187   4.829   5.821
  275SOL    HW2 1725   6.178   4.852   5.982
  276SOL     OW 1726   0.054   5.242   2.519
  276SOL    HW1 1727   0.053   5.328   2.468
  276SOL    HW2 1728   0.131   5.241   2.582
  277SOL     OW 1729   1.907   3.999   0.500
  277SOL    HW1 1730   1.894   3.949   0.586
  277SOL    HW2 1731   1.905   3.934   0.423
  278SOL     OW 1732   0.111   5.285   1.518
  278SOL    HW1 1733   0.166   5.210   1.555
  278SOL    HW2 1734   0.078   5.342   1.592
  279SOL     OW 1735   6.283   2.952   4.529
  279SOL    HW1 1736   6.317   3.021   4.592
  279SOL    HW2 1737   6.337   2.869   4.538
  280SOL     OW 1738   2.368   6.806   2.946
  280SOL    HW1 1739   2.276   6.772   2.964
  280SOL    HW2 1740   2.433   6.730   2.949
  281SOL     OW 1741   3.333   5.019   2.122
  281SOL    HW1 1742   3.265   5.026   2.049
  281SOL    HW2 1743   3.288   5.020   2.211
  282SOL     OW 1744   3.581   1.341   5.420
  282SOL    HW1 1745   3.652   1.340   5.491
  282SOL    HW2 1746   3.619   1.376   5.335
  283SOL     OW 1747   0.071   1.214   5.742
  283SOL    HW1 1748   0.081   1.162   5.826
  283SOL    HW2 1749   7.018   1.181   5.690
  284SOL     OW 1750   0.748   4.380   4.620
  284SOL    HW1 1751   0.715   4.469   4.588
  284SOL    HW2 1752   0.789   4.331   4.544
  285SOL     OW 1753   5.546   5.107   6.081
  285SOL    HW1 1754   5.561   5.009   6.066
  285SOL    HW2 1755   5.516   5.150   5.995
  286SOL     OW 1756   3.289   5.286   5.119
  286SOL    HW1 1757   3.293   5.350   5.195
  286SOL    HW2 1758   3.195   5.282   5.083
  287SOL     OW 1759   0.733   4.606   6.949
  287SOL    HW1 1760   0.778   4.550   6.879
  287SOL    HW2 1761   0.708   4.695   6.909
  288SOL     OW 1762   4.006   2.290   6.177
  288SOL    HW1 1763   4.022   2.281   6.078
  288SOL    HW2 1764   3.991   2.199   6.216
  289SOL     OW 1765   6.895   5.250   5.092
  289SOL    HW1 1766   6.806   5.204   5.084
  289SOL    HW2 1767   6.931   5.236   5.184
  290SOL     OW 1768   5.171   1.434   4.098
  290SOL    HW1 1769   5.139   1.479   4.016
  290SOL    HW2 1770   5.156   1.493   4.177
  291SOL     OW 1771   2.748   1.817   4.710
  291SOL    HW1 1772   2.751   1.769   4.622
  291SOL    HW2 1773   2.676   1.887   4.707
  292SOL     OW 1774   2.316   1.854   2.755
  292SOL    HW1 1775   2.339   1.948   2.778
  292SOL    HW2 1776   2.312   1.844   2.656
  293SOL     OW 1777   4.875   4.815   1.700
  293SOL    HW1 1778   4.917   4.881   1.638
  293SOL    HW2 1779   4.778   4.804   1.676
  294SOL     OW 1780   6.461   5.471   6.505
  294SOL    HW1 1781   6.389   5.540   6.511
  294SOL    HW2 1782   6.448   5.416   6.422
  295SOL     OW 1783   3.207   1.360   4.359
  295SOL    HW1 1784   3.176   1.365   4.264
  295SOL    HW2 1785   3.148   1.297   4.410
  296SOL     OW 1786   6.035   2.077   2.295
  296SOL    HW1 1787   5.945   2.086   2.338
  296SOL    HW2 1788   6.025   2.082   2.195
  297SOL     OW 1789   3.177   4.909   2.899
  297SOL    HW1 1790   3.166   4.818   2.858
  297SOL    HW2 1791   3.094   4.932   2.951
  298SOL     OW 1792   3.333   5.855   0.708
  298SOL    HW1 1793   3.246   5.816   0.679
  298SOL    HW2 1794   3.320   5.903   0.795
  299SOL     OW 1795   3.659   3.724   6.044
  299SOL    HW1 1796   3.733   3.772   5.996
  299SOL    HW2 1797   3.689   3.697   6.135
  300SOL     OW 1798   5.565   0.728   2.128
  300SOL    HW1 1799   5.511   0.700   2.049
  300SOL    HW2 1800   5.601   0.821   2.113
  301SOL     OW 1801   5.669   3.156   0.889
  301SOL    HW1 1802   5.702   3.063   0.874
  301SOL    HW2 1803   5.689   3.213   0.809
  302SOL     OW 1804   0.543   0.867   3.579
  302SOL    HW1 1805   0.543   0.967   3.575
  302SOL    HW2 1806   0.592   0.831   3.499
  303SOL     OW 1807   6.650   6.896   2.126
  303SOL    HW1 1808   6.622   6.939   2.040
  303SOL    HW2 1809   6.642   6.797   2.118
  304SOL     OW 1810   1.750   0.089   5.680
  304SOL    HW1 1811   1.790   0.138   5.603
  304SOL    HW2 1812   1.740   7.018   5.657
  305SOL     OW 1813   0.978   3.366   0.253
  305SOL    HW1 1814   1.052   3.371   0.186
  305SOL    HW2 1815   1.017   3.368   0.346
  306SOL     OW 1816   1.676   6.924   3.656
  306SOL    HW1 1817   1.737   6.995   3.620
  306SOL    HW2 1818   1.668   6.850   3.589
  307SOL     OW 1819   4.908   5.947   0.160
  307SOL    HW1 1820   4.967   6.012   0.208
  307SOL    HW2 1821   4.956   5.911   0.080
  308SOL     OW 1822   6.454   3.352   4.528
  308SOL    HW1 1823   6.362   3.382   4.507
  308SOL    HW2 1824   6.494   3.412   4.598
  309SOL     OW 1825   2.700   6.203   6.903
  309SOL    HW1 1826   2.620   6.252   6.867
  309SOL    HW2 1827   2.771   6.269   6.929
  310SOL     OW 1828   5.866   6.390   5.244
  310SOL    HW1 1829   5.770   6.375   5.222
  310SOL    HW2 1830   5.876   6.478   5.291
  311SOL     OW 1831   4.694   4.803   2.930
  311SOL    HW1 1832   4.599   4.812   2.960
  311SOL    HW2 1833   4.696   4.789   2.831
  312SOL     OW 1834   4.223   1.155   4.683
  312SOL    HW1 1835   4.278   1.181   4.762
  312SOL    HW2 1836   4.188   1.062   4.695
  313SOL     OW 1837   2.984   3.653   2.248
  313SOL    HW1 1838   2.920   3.579   2.230
  313SOL    HW2 1839   3.022   3.686   2.162
  314SOL     OW 1840   2.951   5.566   6.883
  314SOL    HW1 1841   2.943   5.470   6.856
  314SOL    HW2 1842   3.015   5.613   6.823
  315SOL     OW 1843   1.172   2.810   4.137
  315SOL    HW1 1844   1.249   2.759   4.099
  315SOL    HW2 1845   1.165   2.899   4.091
  316SOL     OW 1846   3.076   1.520   4.025
  316SOL    HW1 1847   3.101   1.571   3.943
  316SOL    HW2 1848   3.040   1.583   4.093
  317SOL     OW 1849   0.013   1.346   0.798
  317SOL    HW1 1850   0.003   1.261   0.746
  317SOL    HW2 1851   6.954   1.364   0.848
  318SOL     OW 1852   0.999   5.741   6.669
  318SOL    HW1 1853   0.995   5.730   6.570
  318SOL    HW2 1854   1.039   5.830   6.691
  319SOL     OW 1855   6.424   1.027   3.243
  319SOL    HW1 1856   6.357   1.027   3.318
  319SOL    HW2 1857   6.415   1.112   3.191
  320SOL     OW 1858   6.454   2.469   1.489
  320SOL    HW1 1859   6.477   2.375   1.516
  320SOL    HW2 1860   6.526   2.505   1.429
  321SOL     OW 1861   3.969   1.951   0.034
  321SOL    HW1 1862   4.065   1.970   0.017
  321SOL    HW2 1863   3.924   2.033   0.070
  322SOL     OW 1864   3.948   3.157   4.233
  322SOL    HW1 1865   3.938   3.065   4.196
  322SOL    HW2 1866   3.910   3.161   4.325
  323SOL     OW 1867   1.142   2.905   6.396
  323SOL    HW1 1868   1.232   2.937   6.369
  323SOL    HW2 1869   1.151   2.825   6.455
  324SOL     OW 1870   2.640   1.680   4.913
  324SOL    HW1 1871   2.712   1.637   4.968
  324SOL    HW2 1872   2.682   1.736   4.842
  325SOL     OW 1873   1.022   2.896   1.985
  325SOL    HW1 1874   1.041   2.994   1.980
  325SOL    HW2 1875   0.925   2.880   1.968
  326SOL     OW 1876   1.186   4.779   6.688
  326SOL    HW1 1877   1.126   4.777   6.608
  326SOL    HW2 1878   1.278   4.751   6.661
  327SOL     OW 1879   1.535   4.873   3.538
  327SOL    HW1 1880   1.523   4.836   3.445
  327SOL    HW2 1881   1.507   4.803   3.604
  328SOL     OW 1882   1.441   5.714   1.908
  328SOL    HW1 1883   1.477   5.679   1.994
  328SOL    HW2 1884   1.471   5.655   1.833
  329SOL     OW 1885   3.981   3.606   4.708
  329SOL    HW1 1886   4.047   3.531   4.712
  329SOL    HW2 1887   3.894   3.576   4.747
  330SOL     OW 1888   3.972   6.932   1.733
  330SOL    HW1 1889   3.914   6.898   1.807
  330SOL    HW2 1890   4.042   6.864   1.712
  331SOL     OW 1891   3.640   5.109   0.417
  331SOL    HW1 1892   3.553   5.060   0.408
  331SOL    HW2 1893   3.699   5.063   0.483
  332SOL     OW 1894   4.223   1.699   5.259
  332SOL    HW1 1895   4.180   1.651   5.183
  332SOL    HW2 1896   4.297   1.642   5.296
  333SOL     OW 1897   2.866   0.471   6.208
  333SOL    HW1 1898   2.839   0.523   6.128
  333SOL    HW2 1899   2.914   0.388   6.180
  334SOL     OW 1900   3.073   0.274   1.736
  334SOL    HW1 1901   3.125   0.338   1.792
  334SOL    HW2 1902   3.004   0.229   1.793
  335SOL     OW 1903   3.886   6.984   5.575
  335SOL    HW1 1904   3.961   6.923   5.549
  335SOL    HW2 1905   3.809   6.929   5.609
  336SOL     OW 1906   1.710   0.484   3.479
  336SOL    HW1 1907   1.779   0.508   3.411
  336SOL    HW2 1908   1.660   0.566   3.506
  337SOL     OW 1909   0.591   2.768   0.128
  337SOL    HW1 1910   0.526   2.693   0.115
  337SOL    HW2 1911   0.682   2.731   0.145
  338SOL     OW 1912   2.727   2.225   1.633
  338SOL    HW1 1913   2.787   2.304   1.621
  338SOL    HW2 1914   2.761   2.149   1.578
  339SOL     OW 1915   3.002   6.341   3.777
  339SOL    HW1 1916   2.991   6.280   3.699
  339SOL    HW2 1917   2.931   6.411   3.776
  340SOL     OW 1918   4.642   4.542   5.369
  340SOL    HW1 1919   4.644   4.489   5.285
  340SOL    HW2 1920   4.668   4.637   5.349
  341SOL     OW 1921   6.552   0.755   4.714
  341SOL    HW1 1922   6.580   0.769   4.809
  341SOL    HW2 1923   6.600   0.819   4.654
  342SOL     OW 1924   5.977   3.424   0.003
  342SOL    HW1 1925   6.048   3.380   6.975
  342SOL    HW2 1926   5.903   3.454   6.968
  343SOL     OW 1927   2.369   5.667   0.493
  343SOL    HW1 1928   2.281   5.692   0.453
  343SOL    HW2 1929   2.392   5.731   0.566
  344SOL     OW 1930   1.331   4.327   2.339
  344SOL    HW1 1931   1.233   4.329   2.355
  344SOL    HW2 1932   1.378   4.378   2.411
  345SOL     OW 1933   4.724   1.201   3.292
  345SOL    HW1 1934   4.752   1.131   3.227
  345SOL    HW2 1935   4.632   1.180   3.326
  346SOL     OW 1936   2.075   0.886   3.033
  346SOL    HW1 1937   2.174   0.871   3.030
  346SOL    HW2 1938   2.038   0.846   3.117
  347SOL     OW 1939   2.943   5.521   6.289
  347SOL    HW1 1940   2.959   5.491   6.195
  347SOL    HW2 1941   2.926   5.442   6.347
  348SOL     OW 1942   5.380   3.881   2.250
  348SOL    HW1 1943   5.351   3.933   2.330
  348SOL    HW2 1944   5.351   3.786   2.260
  349SOL     OW 1945   6.907   5.031   1.130
  349SOL    HW1 1946   6.909   4.973   1.211
  349SOL    HW2 1947   6.852   4.986   1.059
  350SOL     OW 1948   3.563   3.402   1.068
  350SOL    HW1 1949   3.534   3.496   1.052
  350SOL    HW2 1950   3.529   3.371   1.157
  351SOL     OW 1951   2.065   2.955   1.026
  351SOL    HW1 1952   1.974   2.938   1.065
  351SOL    HW2 1953   2.108   2.868   1.005
  352SOL     OW 1954   2.563   1.230   4.489
  352SOL    HW1 1955   2.613   1.260   4.408
  352SOL    HW2 1956   2.466   1.219   4.466
  353SOL     OW 1957   2.315   7.003   0.676
  353SOL    HW1 1958   2.365   0.025   0.748
  353SOL    HW2 1959   2.289   0.042   0.605
  354SOL     OW 1960   3.504   2.481   0.749
  354SOL    HW1 1961   3.587   2.457   0.798
  354SOL    HW2 1962   3.446   2.400   0.740
  355SOL     OW 1963   1.070   3.833   2.621
  355SOL    HW1 1964   1.108   3.911   2.572
  355SOL    HW2 1965   1.123   3.818   2.705
  356SOL     OW 1966   2.954   0.418   5.806
  356SOL    HW1 1967   2.912   0.487   5.865
  356SOL    HW2 1968   3.029   0.373   5.855
  357SOL     OW 1969   0.249   6.779   5.448
  357SOL    HW1 1970   0.271   6.820   5.360
  357SOL    HW2 1971   0.284   6.685   5.451
  358SOL     OW 1972   4.164   0.415   0.978
  358SOL    HW1 1973   4.123   0.503   1.000
  358SOL    HW2 1974   4.131   0.345   1.042
  359SOL     OW 1975   1.619   2.580   2.240
  359SOL    HW1 1976   1.717   2.592   2.230
  359SOL    HW2 1977   1.583   2.529   2.162
  360SOL     OW 1978   0.798   4.811   6.742
  360SOL    HW1 1979   0.860   4.858   6.805
  360SOL    HW2 1980   0.830   4.718   6.727
  361SOL     OW 1981   5.648   5.638   2.878
  361SOL    HW1 1982   5.572   5.679   2.929
  361SOL    HW2 1983   5.612   5.573   2.811
  362SOL     OW 1984   3.670   3.875   1.821
  362SOL    HW1 1985   3.715   3.943   1.879
  362SOL    HW2 1986   3.701   3.783   1.848
  363SOL     OW 1987   5.405   4.797   3.573
  363SOL    HW1 1988   5.428   4.711   3.527
  363SOL    HW2 1989   5.480   4.824   3.633
  364SOL     OW 1990   5.903   5.544   6.109
  364SOL    HW1 1991   5.824   5.605   6.102
  364SOL    HW2 1992   5.901   5.477   6.034
  365SOL     OW 1993   5.701   5.953   2.196
  365SOL    HW1 1994   5.750   6.015   2.134
  365SOL    HW2 1995   5.606   5.945   2.167
  366SOL     OW 1996   6.416   0.782   5.971
  366SOL    HW1 1997   6.322   0.747   5.974
  366SOL    HW2 1998   6.416   0.881   5.987
  367SOL     OW 1999   4.660   2.946   0.982
  367SOL    HW1 2000   4.695   2.863   1.024
  367SOL    HW2 2001   4.735   3.011   0.969
  368SOL     OW 2002   0.006   3.731   4.757
  368SOL    HW1 2003   0.080   3.746   4.822
  368SOL    HW2 2004   6.945   3.755   4.799
  369SOL     OW 2005   6.566   5.411   1.716
  369SOL    HW1 2006   6.594   5.327   1.668
  369SOL    HW2 2007   6.624   5.487   1.686
  370SOL     OW 2008   2.654   1.263   5.953
  370SOL    HW1 2009   2.561   1.226   5.953
  370SOL    HW2 2010   2.652   1.361   5.936
  371SOL     OW 2011   2.391   3.655   6.159
  371SOL    HW1 2012   2.406   3.570   6.108
  371SOL    HW2 2013   2.299   3.655   6.197
  372SOL     OW 2014   1.470   6.221   6.366
  372SOL    HW1 2015   1.423   6.145   6.321
  372SOL    HW2 2016   1.539   6.259   6.305
  373SOL     OW 2017   6.847   6.779   4.628
  373SOL    HW1 2018   6.782   6.712   4.664
  373SOL    HW2 2019   6.880   6.749   4.538
  374SOL     OW 2020   2.495   1.742   2.987
  374SOL    HW1 2021   2.557   1.669   2.956
  374SOL    HW2 2022   2.438   1.772   2.910
  375SOL     OW 2023   0.987   4.464   3.340
  375SOL    HW1 2024   0.959   4.405   3.264
  375SOL    HW2 2025   0.955   4.557   3.323
  376SOL     OW 2026   2.414   1.534   4.989
  376SOL    HW1 2027   2.489   1.587   4.951
  376SOL    HW2 2028   2.385   1.466   4.922
  377SOL     OW 2029   0.889   2.212   1.374
  377SOL    HW1 2030   0.965   2.173   1.322
  377SOL    HW2 2031   0.845   2.140   1.427
  378SOL     OW 2032   3.599   2.153   5.756
  378SOL    HW1 2033   3.590   2.141   5.855
  378SOL    HW2 2034   3.693   2.134   5.729
  379SOL     OW 2035   6.023   4.153   0.729
  379SOL    HW1 2036   6.076   4.219   0.676
  379SOL    HW2 2037   6.068   4.064   0.725
  380SOL     OW 2038   2.736   1.012   1.203
  380SOL    HW1 2039   2.660   0.969   1.156
  380SOL    HW2 2040   2.816   1.016   1.142
  381SOL     OW 2041   1.794   4.102   2.752
  381SOL    HW1 2042   1.878   4.059   2.786
  381SOL    HW2 2043   1.717   4.041   2.767
  382SOL     OW 2044   5.577   6.472   6.350
  382SOL    HW1 2045   5.632   6.438   6.274
  382SOL    HW2 2046   5.539   6.394   6.401
  383SOL     OW 2047   4.905   3.378   5.861
  383SOL    HW1 2048   4.884   3.291   5.906
  383SOL    HW2 2049   4.820   3.428   5.844
  384SOL     OW 2050   6.741   5.629   4.516
  384SOL    HW1 2051   6.678   5.664   4.447
  384SOL    HW2 2052   6.814   5.695   4.532
  385SOL     OW 2053   4.003   5.880   5.380
  385SOL    HW1 2054   3.999   5.978   5.360
  385SOL    HW2 2055   3.947   5.830   5.314
  386SOL     OW 2056   2.487   6.184   5.668
  386SOL    HW1 2057   2.412   6.233   5.623
  386SOL    HW2 2058   2.466   6.086   5.668
  387SOL     OW 2059   0.896   6.484   3.483
  387SOL    HW1 2060   0.799   6.476   3.508
  387SOL    HW2 2061   0.917   6.580   3.466
  388SOL     OW 2062   1.456   1.832   4.155
  388SOL    HW1 2063   1.386   1.890   4.196
  388SOL    HW2 2064   1.515   1.886   4.095
  389SOL     OW 2065   4.288   4.703   1.014
  389SOL    HW1 2066   4.271   4.789   1.061
  389SOL    HW2 2067   4.203   4.671   0.971
  390SOL     OW 2068   2.903   1.484   0.309
  390SOL    HW1 2069   2.924   1.407   0.248
  390SOL    HW2 2070   2.936   1.569   0.269
  391SOL     OW 2071   1.951   3.454   5.251
  391SOL    HW1 2072   2.039   3.475   5.207
  391SOL    HW2 2073   1.884   3.523   5.225
  392SOL     OW 2074   1.883   4.186   1.661
  392SOL    HW1 2075   1.915   4.225   1.747
  392SOL    HW2 2076   1.789   4.217   1.643
  393SOL     OW 2077   1.431   4.624   6.582
  393SOL    HW1 2078   1.425   4.567   6.664
  393SOL    HW2 2079   1.486   4.577   6.513
  394SOL     OW 2080   6.948   2.928   0.292
  394SOL    HW1 2081   0.021   2.930   0.279
  394SOL    HW2 2082   6.914   3.021   0.308
  395SOL     OW 2083   4.888   4.716   3.382
  395SOL    HW1 2084   4.877   4.716   3.283
  395SOL    HW2 2085   4.840   4.794   3.421
  396SOL     OW 2086   2.993   3.100   2.122
  396SOL    HW1 2087   3.070   3.036   2.124
  396SOL    HW2 2088   2.959   3.108   2.028
  397SOL     OW 2089   5.773   1.439   6.066
  397SOL    HW1 2090   5.734   1.476   5.982
  397SOL    HW2 2091   5.705   1.443   6.139
  398SOL     OW 2092   1.011   0.107   3.727
  398SOL    HW1 2093   0.955   0.024   3.738
  398SOL    HW2 2094   0.953   0.188   3.741
  399SOL     OW 2095   5.238   6.828   4.142
  399SOL    HW1 2096   5.305   6.797   4.210
  399SOL    HW2 2097   5.162   6.872   4.189
  400SOL     OW 2098   6.329   6.780   5.711
  400SOL    HW1 2099   6.315   6.685   5.739
  400SOL    HW2 2100   6.377   6.829   5.784
  401SOL     OW 2101   5.259   0.191   6.629
  401SOL    HW1 2102   5.309   0.145   6.556
  401SOL    HW2 2103   5.161   0.192   6.608
  402SOL     OW 2104   6.671   0.963   3.714
  402SOL    HW1 2105   6.735   0.895   3.678
  402SOL    HW2 2106   6.649   1.029   3.642
  403SOL     OW 2107   3.930   1.156   5.154
  403SOL    HW1 2108   4.006   1.131   5.214
  403SOL    HW2 2109   3.963   1.218   5.083
  404SOL     OW 2110   1.385   4.511   4.023
  404SOL    HW1 2111   1.365   4.585   4.088
  404SOL    HW2 2112   1.331   4.523   3.940
  405SOL     OW 2113   2.043   3.218   3.318
  405SOL    HW1 2114   2.108   3.177   3.254
  405SOL    HW2 2115   2.042   3.318   3.306
  406SOL     OW 2116   0.221   4.006   4.455
  406SOL    HW1 2117   0.287   4.018   4.529
  406SOL    HW2 2118   0.268   4.009   4.367
  407SOL     OW 2119   1.580   2.245   5.331
  407SOL    HW1 2120   1.625   2.306   5.396
  407SOL    HW2 2121   1.639   2.231   5.252
  408SOL     OW 2122   3.101   2.149   3.140
  408SOL    HW1 2123   3.078   2.175   3.234
  408SOL    HW2 2124   3.020   2.160   3.082
  409SOL     OW 2125   6.455   3.042   1.609
  409SOL    HW1 2126   6.506   3.090   1.538
  409SOL    HW2 2127   6.405   3.108   1.666
  410SOL     OW 2128   0.826   1.830   1.290
  410SOL    HW1 2129   0.798   1.734   1.299
  410SOL    HW2 2130   0.783   1.870   1.210
  411SOL     OW 2131   6.516   0.927   1.738
  411SOL    HW1 2132   6.498   0.830   1.719
  411SOL    HW2 2133   6.591   0.959   1.681
  412SOL     OW 2134   3.547   5.188   2.304
  412SOL    HW1 2135   3.537   5.091   2.327
  412SOL    HW2 2136   3.584   5.197   2.212
  413SOL     OW 2137   5.700   4.196   1.765
  413SOL    HW1 2138   5.697   4.213   1.863
  413SOL    HW2 2139   5.606   4.189   1.729
  414SOL     OW 2140   3.675   5.874   3.527
  414SOL    HW1 2141   3.731   5.953   3.500
  414SOL    HW2 2142   3.640   5.829   3.445
  415SOL     OW 2143   0.070   0.564   0.298
  415SOL    HW1 2144   7.021   0.517   0.344
  415SOL    HW2 2145   0.124   0.498   0.245
  416SOL     OW 2146   5.295   5.495   5.191
  416SOL    HW1 2147   5.271   5.467   5.098
  416SOL    HW2 2148   5.388   5.466   5.211
  417SOL     OW 2149   2.246   6.972   5.607
  417SOL    HW1 2150   2.205   6.882   5.595
  417SOL    HW2 2151   2.346   6.963   5.610
  418SOL     OW 2152   3.330   6.665   6.829
  418SOL    HW1 2153   3.275   6.587   6.857
  418SOL    HW2 2154   3.415   6.633   6.786
  419SOL     OW 2155   0.828   6.604   2.813
  419SOL    HW1 2156   0.822   6.586   2.911
  419SOL    HW2 2157   0.901   6.549   2.773
  420SOL     OW 2158   5.934   1.513   6.424
  420SOL    HW1 2159   5.908   1.443   6.491
  420SOL    HW2 2160   5.852   1.560   6.392
  421SOL     OW 2161   5.738   3.800   4.441
  421SOL    HW1 2162   5.705   3.834   4.529
  421SOL    HW2 2163   5.816   3.739   4.456
  422SOL     OW 2164   5.032   3.371   0.764
  422SOL    HW1 2165   4.943   3.348   0.723
  422SOL    HW2 2166   5.018   3.417   0.851
  423SOL     OW 2167   1.520   2.425   6.907
  423SOL    HW1 2168   1.472   2.511   6.888
  423SOL    HW2 2169   1.479   2.351   6.853
  424SOL     OW 2170   1.880   4.893   2.164
  424SOL    HW1 2171   1.937   4.953   2.221
  424SOL    HW2 2172   1.886   4.800   2.199
  425SOL     OW 2173   5.021   1.821   4.276
  425SOL    HW1 2174   5.009   1.820   4.176
  425SOL    HW2 2175   4.945   1.871   4.317
  426SOL     OW 2176   2.556   1.863   4.449
  426SOL    HW1 2177   2.601   1.944   4.485
  426SOL    HW2 2178   2.615   1.783   4.462
  427SOL     OW 2179   6.469   6.843   3.878
  427SOL    HW1 2180   6.379   6.859   3.837
  427SOL    HW2 2181   6.485   6.909   3.952
  428SOL     OW 2182   4.074   0.537   3.527
  428SOL    HW1 2183   4.173   0.532   3.538
  428SOL    HW2 2184   4.042   0.629   3.549
  429SOL     OW 2185   0.234   4.848   3.614
  429SOL    HW1 2186   0.284   4.898   3.685
  429SOL    HW2 2187   0.279   4.862   3.526
  430SOL     OW 2188   1.208   6.517   4.563
  430SOL    HW1 2189   1.263   6.598   4.544
  430SOL    HW2 2190   1.215   6.493   4.659
  431SOL     OW 2191   2.774   0.644   0.593
  431SOL    HW1 2192   2.842   0.574   0.569
  431SOL    HW2 2193   2.750   0.634   0.690
  432SOL     OW 2194   6.603   2.364   1.035
  432SOL    HW1 2195   6.532   2.405   1.092
  432SOL    HW2 2196   6.668   2.435   1.007
  433SOL     OW 2197   2.006   6.598   5.666
  433SOL    HW1 2198   2.010   6.567   5.571
  433SOL    HW2 2199   2.098   6.618   5.699
  434SOL     OW 2200   4.440   6.062   3.655
  434SOL    HW1 2201   4.389   6.140   3.691
  434SOL    HW2 2202   4.515   6.095   3.598
  435SOL     OW 2203   3.930   1.855   5.698
  435SOL    HW1 2204   3.885   1.844   5.610
  435SOL    HW2 2205   3.952   1.765   5.736
  436SOL     OW 2206   2.640   5.499   1.740
  436SOL    HW1 2207   2.736   5.523   1.755
  436SOL    HW2 2208   2.582   5.575   1.769
  437SOL     OW 2209   0.432   1.159   6.357
  437SOL    HW1 2210   0.407   1.242   6.407
  437SOL    HW2 2211   0.513   1.178   6.301
  438SOL     OW 2212   1.267   3.976   4.032
  438SOL    HW1 2213   1.312   4.065   4.030
  438SOL    HW2 2214   1.177   3.985   4.075
  439SOL     OW 2215   5.777   6.347   2.493
  439SOL    HW1 2216   5.802   6.376   2.401
  439SOL    HW2 2217   5.859   6.337   2.549
  440SOL     OW 2218   2.811   1.559   6.012
  440SOL    HW1 2219   2.887   1.497   5.996
  440SOL    HW2 2220   2.832   1.620   6.088
  441SOL     OW 2221   6.629   3.307   3.605
  441SOL    HW1 2222   6.607   3.246   3.529
  441SOL    HW2 2223   6.720   3.285   3.640
  442SOL     OW 2224   4.861   5.871   5.378
  442SOL    HW1 2225   4.904   5.831   5.297
  442SOL    HW2 2226   4.803   5.803   5.422
  443SOL     OW 2227   5.957   3.608   4.444
  443SOL    HW1 2228   6.043   3.610   4.495
  443SOL    HW2 2229   5.958   3.678   4.372
  444SOL     OW 2230   4.721   0.179   5.836
  444SOL    HW1 2231   4.813   0.206   5.806
  444SOL    HW2 2232   4.687   0.246   5.902
  445SOL     OW 2233   2.443   6.246   2.870
  445SOL    HW1 2234   2.389   6.324   2.841
  445SOL    HW2 2235   2.418   6.221   2.964
  446SOL     OW 2236   4.457   5.708   2.192
  446SOL    HW1 2237   4.460   5.791   2.248
  446SOL    HW2 2238   4.523   5.716   2.117
  447SOL     OW 2239   6.069   4.150   5.142
  447SOL    HW1 2240   5.973   4.166   5.164
  447SOL    HW2 2241   6.083   4.052   5.123
  448SOL     OW 2242   2.356   0.875   3.002
  448SOL    HW1 2243   2.421   0.807   2.969
  448SOL    HW2 2244   2.374   0.963   2.957
  449SOL     OW 2245   2.959   1.281   4.199
  449SOL    HW1 2246   2.888   1.313   4.136
  449SOL    HW2 2247   3.036   1.245   4.147
  450SOL     OW 2248   1.999   4.787   3.376
  450SOL    HW1 2249   1.993   4.773   3.277
  450SOL    HW2 2250   1.925   4.737   3.422
  451SOL     OW 2251   1.969   2.237   4.575
  451SOL    HW1 2252   1.932   2.302   4.509
  451SOL    HW2 2253   2.049   2.192   4.536
  452SOL     OW 2254   4.438   6.393   1.717
  452SOL    HW1 2255   4.371   6.420   1.647
  452SOL    HW2 2256   4.515   6.456   1.716
  453SOL     OW 2257   3.484   6.724   6.410
  453SOL    HW1 2258   3.584   6.725   6.402
  453SOL    HW2 2259   3.457   6.668   6.488
  454SOL     OW 2260   0.158   3.441   6.814
  454SOL    HW1 2261   0.169   3.359   6.757
  454SOL    HW2 2262   0.119   3.416   6.902
  455SOL     OW 2263   5.387   2.340   4.811
  455SOL    HW1 2264   5.388   2.267   4.879
  455SOL    HW2 2265   5.458   2.407   4.832
  456SOL     OW 2266   1.040   0.639   4.627
  456SOL    HW1 2267   1.024   0.588   4.712
  456SOL    HW2 2268   1.111   0.592   4.574
  457SOL     OW 2269   1.962   3.990   4.520
  457SOL    HW1 2270   2.015   3.963   4.440
  457SOL    HW2 2271   1.865   3.978   4.502
  458SOL     OW 2272   3.110   0.200   2.913
  458SOL    HW1 2273   3.057   0.132   2.964
  458SOL    HW2 2274   3.191   0.226   2.966
  459SOL     OW 2275   1.371   0.281   5.620
  459SOL    HW1 2276   1.415   0.287   5.530
  459SOL    HW2 2277   1.272   0.269   5.608
  460SOL     OW 2278   1.437   0.344   4.797
  460SOL    HW1 2279   1.475   0.340   4.889
  460SOL    HW2 2280   1.495   0.292   4.734
  461SOL     OW 2281   6.308   4.422   6.239
  461SOL    HW1 2282   6.271   4.494   6.298
  461SOL    HW2 2283   6.402   4.445   6.212
  462SOL     OW 2284   4.043   3.552   5.579
  462SOL    HW1 2285   3.997   3.591   5.499
  462SOL    HW2 2286   4.016   3.456   5.589
  463SOL     OW 2287   0.225   0.511   3.708
  463SOL    HW1 2288   0.253   0.548   3.797
  463SOL    HW2 2289   0.126   0.521   3.698
  464SOL     OW 2290   2.591   0.956   5.727
  464SOL    HW1 2291   2.528   0.978   5.802
  464SOL    HW2 2292   2.545   0.899   5.660
  465SOL     OW 2293   0.481   2.547   7.023
  465SOL    HW1 2294   0.411   2.516   6.960
  465SOL    HW2 2295   0.571   2.520   6.989
  466SOL     OW 2296   2.779   6.325   4.045
  466SOL    HW1 2297   2.750   6.370   3.960
  466SOL    HW2 2298   2.878   6.317   4.047
  467SOL     OW 2299   1.691   1.124   2.163
  467SOL    HW1 2300   1.635   1.200   2.195
  467SOL    HW2 2301   1.683   1.048   2.227
  468SOL     OW 2302   4.031   5.766   4.989
  468SOL    HW1 2303   3.966   5.760   4.914
  468SOL    HW2 2304   3.982   5.771   5.076
  469SOL     OW 2305   3.056   3.767   6.079
  469SOL    HW1 2306   3.128   3.748   6.146
  469SOL    HW2 2307   3.066   3.860   6.046
  470SOL     OW 2308   3.865   6.281   1.488
  470SOL    HW1 2309   3.805   6.202   1.500
  470SOL    HW2 2310   3.935   6.281   1.560
  471SOL     OW 2311   2.774   2.392   4.130
  471SOL    HW1 2312   2.765   2.380   4.229
  471SOL    HW2 2313   2.692   2.436   4.094
  472SOL     OW 2314   5.965   4.302   0.141
  472SOL    HW1 2315   5.949   4.274   0.046
  472SOL    HW2 2316   5.895   4.367   0.170
  473SOL     OW 2317   1.269   1.611   1.898
  473SOL    HW1 2318   1.184   1.573   1.933
  473SOL    HW2 2319   1.250   1.694   1.846
  474SOL     OW 2320   5.623   5.605   5.052
  474SOL    HW1 2321   5.575   5.693   5.051
  474SOL    HW2 2322   5.700   5.609   4.988
  475SOL     OW 2323   6.290   2.908   0.570
  475SOL    HW1 2324   6.234   2.989   0.588
  475SOL    HW2 2325   6.276   2.842   0.644
  476SOL     OW 2326   6.996   3.546   1.854
  476SOL    HW1 2327   0.026   3.617   1.812
  476SOL    HW2 2328   0.028   3.468   1.880
  477SOL     OW 2329   2.654   5.902   3.451
  477SOL    HW1 2330   2.691   5.956   3.526
  477SOL    HW2 2331   2.598   5.960   3.392
  478SOL     OW 2332   3.852   6.422   3.559
  478SOL    HW1 2333   3.941   6.421   3.513
  478SOL    HW2 2334   3.797   6.497   3.523
  479SOL     OW 2335   3.748   2.961   4.864
  479SOL    HW1 2336   3.753   3.060   4.879
  479SOL    HW2 2337   3.654   2.930   4.875
  480SOL     OW 2338   3.106   0.373   1.293
  480SOL    HW1 2339   3.177   0.302   1.295
  480SOL    HW2 2340   3.095   0.411   1.385
  481SOL     OW 2341   0.708   6.635   1.744
  481SOL    HW1 2342   0.670   6.623   1.653
  481SOL    HW2 2343   0.800   6.596   1.748
  482SOL     OW 2344   4.539   5.191   2.564
  482SOL    HW1 2345   4.601   5.130   2.514
  482SOL    HW2 2346   4.578   5.213   2.653
  483SOL     OW 2347   6.964   2.375   2.800
  483SOL    HW1 2348   6.990   2.315   2.876
  483SOL    HW2 2349   6.874   2.349   2.766
  484SOL     OW 2350   1.488   4.236   4.724
  484SOL    HW1 2351   1.419   4.219   4.654
  484SOL    HW2 2352   1.579   4.226   4.683
  485SOL     OW 2353   4.764   5.072   2.398
  485SOL    HW1 2354   4.831   5.102   2.330
  485SOL    HW2 2355   4.712   4.995   2.361
  486SOL     OW 2356   6.065   1.582   6.832
  486SOL    HW1 2357   6.067   1.660   6.893
  486SOL    HW2 2358   6.080   1.612   6.738
  487SOL     OW 2359   0.864   0.711   3.185
  487SOL    HW1 2360   0.961   0.689   3.188
  487SOL    HW2 2361   0.818   0.652   3.119
  488SOL     OW 2362   0.740   6.685   2.137
  488SOL    HW1 2363   0.651   6.687   2.184
  488SOL    HW2 2364   0.783   6.596   2.152
  489SOL     OW 2365   6.058   6.002   5.460
  489SOL    HW1 2366   5.992   5.941   5.504
  489SOL    HW2 2367   6.114   5.949   5.397
  490SOL     OW 2368   1.399   6.075   3.598
  490SOL    HW1 2369   1.467   6.031   3.539
  490SOL    HW2 2370   1.382   6.168   3.565
  491SOL     OW 2371   1.253   3.281   1.231
  491SOL    HW1 2372   1.312   3.349   1.187
  491SOL    HW2 2373   1.244   3.304   1.328
  492SOL     OW 2374   1.425   0.913   5.813
  492SOL    HW1 2375   1.429   0.894   5.911
  492SOL    HW2 2376   1.518   0.923   5.777
  493SOL     OW 2377   2.869   0.111   5.454
  493SOL    HW1 2378   2.873   0.173   5.375
  493SOL    HW2 2379   2.805   0.148   5.522
  494SOL     OW 2380   1.633   0.693   6.398
  494SOL    HW1 2381   1.579   0.633   6.457
  494SOL    HW2 2382   1.715   0.723   6.447
  495SOL     OW 2383   3.422   6.398   3.909
  495SOL    HW1 2384   3.514   6.405   3.948
  495SOL    HW2 2385   3.420   6.321   3.845
  496SOL     OW 2386   6.725   2.471   2.269
  496SOL    HW1 2387   6.709   2.381   2.308
  496SOL    HW2 2388   6.781   2.526   2.331
  497SOL     OW 2389   3.336   1.523   4.721
  497SOL    HW1 2390   3.376   1.551   4.634
  497SOL    HW2 2391   3.242   1.494   4.708
  498SOL     OW 2392   0.814   4.463   2.292
  498SOL    HW1 2393   0.757   4.476   2.211
  498SOL    HW2 2394   0.770   4.396   2.353
  499SOL     OW 2395   1.873   5.518   4.764
  499SOL    HW1 2396   1.899   5.495   4.858
  499SOL    HW2 2397   1.776   5.541   4.761
  500SOL     OW 2398   5.609   2.673   0.056
  500SOL    HW1 2399   5.682   2.667   7.014
  500SOL    HW2 2400   5.615   2.760   0.104
  501SOL     OW 2401   4.411   6.762   0.987
  501SOL    HW1 2402   4.493   6.712   1.014
  501SOL    HW2 2403   4.431   6.821   0.909
  502SOL     OW 2404   0.921   4.530   6.231
  502SOL    HW1 2405   0.932   4.446   6.177
  502SOL    HW2 2406   0.833   4.572   6.210
  503SOL     OW 2407   1.893   5.012   5.950
  503SOL    HW1 2408   1.813   5.055   5.992
  503SOL    HW2 2409   1.907   5.050   5.859
  504SOL     OW 2410   1.282   5.393   1.961
  504SOL    HW1 2411   1.301   5.469   2.024
  504SOL    HW2 2412   1.323   5.413   1.872
  505SOL     OW 2413   3.890   6.501   4.582
  505SOL    HW1 2414   3.804   6.483   4.534
  505SOL    HW2 2415   3.912   6.599   4.576
  506SOL     OW 2416   2.945   6.220   2.172
  506SOL    HW1 2417   2.883   6.288   2.212
  506SOL    HW2 2418   3.028   6.266   2.140
  507SOL     OW 2419   3.660   6.519   2.819
  507SOL    HW1 2420   3.720   6.540   2.897
  507SOL    HW2 2421   3.666   6.593   2.752
  508SOL     OW 2422   0.106   2.686   2.302
  508SOL    HW1 2423   0.163   2.742   2.362
  508SOL    HW2 2424   0.012   2.687   2.334
  509SOL     OW 2425   3.578   1.424   0.664
  509SOL    HW1 2426   3.546   1.508   0.708
  509SOL    HW2 2427   3.592   1.353   0.733
  510SOL     OW 2428   6.860   4.223   6.247
  510SOL    HW1 2429   6.844   4.137   6.296
  510SOL    HW2 2430   6.920   4.206   6.169
  511SOL     OW 2431   0.905   2.537   6.643
  511SOL    HW1 2432   0.862   2.552   6.732
  511SOL    HW2 2433   0.904   2.622   6.591
  512SOL     OW 2434   6.395   2.476   6.937
  512SOL    HW1 2435   6.412   2.552   6.874
  512SOL    HW2 2436   6.453   2.484   7.017
  513SOL     OW 2437   4.968   6.772   3.087
  513SOL    HW1 2438   5.051   6.828   3.087
  513SOL    HW2 2439   4.964   6.719   3.002
  514SOL     OW 2440   6.740   0.712   4.355
  514SOL    HW1 2441   6.640   0.708   4.367
  514SOL    HW2 2442   6.765   0.802   4.321
  515SOL     OW 2443   1.671   0.560   0.519
  515SOL    HW1 2444   1.597   0.513   0.568
  515SOL    HW2 2445   1.751   0.565   0.578
  516SOL     OW 2446   2.740   4.995   2.119
  516SOL    HW1 2447   2.749   4.902   2.156
  516SOL    HW2 2448   2.831   5.035   2.108
  517SOL     OW 2449   3.374   4.638   1.630
  517SOL    HW1 2450   3.455   4.606   1.678
  517SOL    HW2 2451   3.294   4.630   1.689
  518SOL     OW 2452   2.651   2.163   3.419
  518SOL    HW1 2453   2.726   2.109   3.382
  518SOL    HW2 2454   2.564   2.117   3.398
  519SOL     OW 2455   0.113   6.359   3.389
  519SOL    HW1 2456   0.026   6.386   3.430
  519SOL    HW2 2457   0.100   6.282   3.327
  520SOL     OW 2458   6.595   3.529   6.701
  520SOL    HW1 2459   6.512   3.577   6.674
  520SOL    HW2 2460   6.605   3.534   6.801
  521SOL     OW 2461   5.566   5.404   5.216
  521SOL    HW1 2462   5.591   5.483   5.160
  521SOL    HW2 2463   5.573   5.428   5.313
  522SOL     OW 2464   4.138   3.619   2.893
  522SOL    HW1 2465   4.140   3.711   2.853
  522SOL    HW2 2466   4.119   3.625   2.991
  523SOL     OW 2467   0.196   5.978   1.438
  523SOL    HW1 2468   0.138   5.989   1.358
  523SOL    HW2 2469   0.286   5.945   1.410
  524SOL     OW 2470   1.680   2.677   2.533
  524SOL    HW1 2471   1.694   2.776   2.531
  524SOL    HW2 2472   1.648   2.646   2.444
  525SOL     OW 2473   1.884   3.958   5.738
  525SOL    HW1 2474   1.929   4.030   5.686
  525SOL    HW2 2475   1.949   3.885   5.759
  526SOL     OW 2476   3.162   6.498   3.620
  526SOL    HW1 2477   3.211   6.445   3.551
  526SOL    HW2 2478   3.127   6.437   3.691
  527SOL     OW 2479   6.926   2.276   1.149
  527SOL    HW1 2480   6.941   2.226   1.234
  527SOL    HW2 2481   6.975   2.363   1.152
  528SOL     OW 2482   1.643   2.670   4.165
  528SOL    HW1 2483   1.690   2.582   4.161
  528SOL    HW2 2484   1.709   2.743   4.184
  529SOL     OW 2485   1.545   6.686   5.162
  529SOL    HW1 2486   1.555   6.709   5.065
  529SOL    HW2 2487   1.591   6.599   5.180
  530SOL     OW 2488   4.162   3.479   2.635
  530SOL    HW1 2489   4.088   3.414   2.649
  530SOL    HW2 2490   4.192   3.515   2.724
  531SOL     OW 2491   1.405   1.085   2.774
  531SOL    HW1 2492   1.360   1.069   2.686
  531SOL    HW2 2493   1.436   1.180   2.779
  532SOL     OW 2494   1.422   3.166   0.359
  532SOL    HW1 2495   1.434   3.068   0.342
  532SOL    HW2 2496   1.509   3.213   0.345
  533SOL     OW 2497   4.515   0.016   3.537
  533SOL    HW1 2498   4.478   0.106   3.559
  533SOL    HW2 2499   4.524   0.007   3.438
  534SOL     OW 2500   5.644   5.837   2.689
  534SOL    HW1 2501   5.666   5.748   2.727
  534SOL    HW2 2502   5.545   5.847   2.680
  535SOL     OW 2503   0.052   4.104   2.776
  535SOL    HW1 2504   0.105   4.124   2.694
  535SOL    HW2 2505   6.981   4.117   2.757
  536SOL     OW 2506   6.385   4.651   2.364
  536SOL    HW1 2507   6.321   4.580   2.338
  536SOL    HW2 2508   6.442   4.675   2.285
  537SOL     OW 2509   3.294   6.977   4.661
  537SOL    HW1 2510   3.228   6.955   4.732
  537SOL    HW2 2511   3.247   7.019   4.583
  538SOL     OW 2512   0.474   4.349   4.357
  538SOL    HW1 2513   0.535   4.428   4.344
  538SOL    HW2 2514   0.413   4.367   4.434
  539SOL     OW 2515   2.265   4.924   1.954
  539SOL    HW1 2516   2.309   4.893   1.869
  539SOL    HW2 2517   2.166   4.920   1.943
  540SOL     OW 2518   1.469   1.363   2.756
  540SOL    HW1 2519   1.523   1.402   2.831
  540SOL    HW2 2520   1.398   1.427   2.730
  541SOL     OW 2521   5.024   5.676   3.654
  541SOL    HW1 2522   5.099   5.671   3.589
  541SOL    HW2 2523   4.982   5.767   3.649
  542SOL     OW 2524   4.492   6.480   0.055
  542SOL    HW1 2525   4.504   6.563   0.109
  542SOL    HW2 2526   4.468   6.504   6.987
  543SOL     OW 2527   6.392   3.698   4.157
  543SOL    HW1 2528   6.321   3.645   4.205
  543SOL    HW2 2529   6.457   3.636   4.114
  544SOL     OW 2530   0.992   4.933   6.948
  544SOL    HW1 2531   0.974   4.881   0.005
  544SOL    HW2 2532   1.003   5.030   6.971
  545SOL     OW 2533   3.666   0.773   1.525
  545SOL    HW1 2534   3.596   0.834   1.487
  545SOL    HW2 2535   3.639   0.745   1.617
  546SOL     OW 2536   1.081   3.965   1.474
  546SOL    HW1 2537   1.179   3.972   1.454
  546SOL    HW2 2538   1.041   3.894   1.416
  547SOL     OW 2539   3.259   2.423   0.964
  547SOL    HW1 2540   3.166   2.398   0.990
  547SOL    HW2 2541   3.298   2.353   0.904
  548SOL     OW 2542   3.135   3.375   1.374
  548SOL    HW1 2543   3.135   3.302   1.441
  548SOL    HW2 2544   3.047   3.378   1.326
  549SOL     OW 2545   5.354   2.487   1.729
  549SOL    HW1 2546   5.374   2.573   1.775
  549SOL    HW2 2547   5.384   2.411   1.785
  550SOL     OW 2548   1.111   5.693   3.448
  550SOL    HW1 2549   1.030   5.700   3.389
  550SOL    HW2 2550   1.084   5.711   3.542
  551SOL     OW 2551   0.265   6.990   1.634
  551SOL    HW1 2552   0.299   0.020   1.558
  551SOL    HW2 2553   0.322   7.004   1.715
  552SOL     OW 2554   5.902   3.989   6.801
  552SOL    HW1 2555   5.959   4.030   6.872
  552SOL    HW2 2556   5.907   4.044   6.718
  553SOL     OW 2557   2.506   6.680   4.304
  553SOL    HW1 2558   2.526   6.584   4.281
  553SOL    HW2 2559   2.581   6.717   4.359
  554SOL     OW 2560   5.786   0.090   0.284
  554SOL    HW1 2561   5.773   0.026   0.360
  554SOL    HW2 2562   5.818   0.039   0.203
  555SOL     OW 2563   3.204   5.204   4.788
  555SOL    HW1 2564   3.136   5.261   4.834
  555SOL    HW2 2565   3.214   5.117   4.835
  556SOL     OW 2566   5.068   1.838   3.964
  556SOL    HW1 2567   5.031   1.848   3.871
  556SOL    HW2 2568   5.131   1.913   3.983
  557SOL     OW 2569   6.565   5.704   0.346
  557SOL    HW1 2570   6.509   5.742   0.272
  557SOL    HW2 2571   6.661   5.727   0.331
  558SOL     OW 2572   3.532   3.229   3.617
  558SOL    HW1 2573   3.616   3.252   3.667
  558SOL    HW2 2574   3.486   3.154   3.663
  559SOL     OW 2575   6.938   5.409   5.959
  559SOL    HW1 2576   6.888   5.412   5.873
  559SOL    HW2 2577   0.010   5.424   5.941
  560SOL     OW 2578   6.485   3.436   4.104
  560SOL    HW1 2579   6.525   3.405   4.018
  560SOL    HW2 2580   6.404   3.381   4.125
  561SOL     OW 2581   0.413   1.782   0.987
  561SOL    HW1 2582   0.436   1.764   0.892
  561SOL    HW2 2583   0.373   1.874   0.994
  562SOL     OW 2584   4.383   0.251   6.001
  562SOL    HW1 2585   4.417   0.330   6.053
  562SOL    HW2 2586   4.310   0.206   6.053
  563SOL     OW 2587   3.040   0.781   3.530
  563SOL    HW1 2588   2.990   0.725   3.596
  563SOL    HW2 2589   3.065   0.868   3.572
  564SOL     OW 2590   0.908   3.250   6.931
  564SOL    HW1 2591   0.875   3.316   6.864
  564SOL    HW2 2592   0.962   3.179   6.885
  565SOL     OW 2593   3.349   3.902   4.572
  565SOL    HW1 2594   3.325   3.805   4.579
  565SOL    HW2 2595   3.266   3.957   4.584
  566SOL     OW 2596   0.650   3.823   3.299
  566SOL    HW1 2597   0.739   3.798   3.337
  566SOL    HW2 2598   0.579   3.766   3.340
  567SOL     OW 2599   3.077   2.787   1.358
  567SOL    HW1 2600   3.139   2.710   1.343
  567SOL    HW2 2601   3.016   2.797   1.279
  568SOL     OW 2602   4.633   0.004   6.979
  568SOL    HW1 2603   4.680   6.945   6.955
  568SOL    HW2 2604   4.540   7.010   7.007
  569SOL     OW 2605   1.216   3.174   0.148
  569SOL    HW1 2606   1.275   3.180   0.228
  569SOL    HW2 2607   1.134   3.121   0.170
  570SOL     OW 2608   3.695   0.308   6.338
  570SOL    HW1 2609   3.773   0.365   6.315
  570SOL    HW2 2610   3.633   0.358   6.399
  571SOL     OW 2611   3.396   4.934   3.091
  571SOL    HW1 2612   3.492   4.940   3.065
  571SOL    HW2 2613   3.340   4.921   3.009
  572SOL     OW 2614   2.587   4.928   5.373
  572SOL    HW1 2615   2.663   4.917   5.437
  572SOL    HW2 2616   2.500   4.907   5.419
  573SOL     OW 2617   5.759   0.736   5.552
  573SOL    HW1 2618   5.722   0.740   5.460
  573SOL    HW2 2619   5.859   0.726   5.549
  574SOL     OW 2620   3.485   1.376   4.314
  574SOL    HW1 2621   3.389   1.362   4.337
  574SOL    HW2 2622   3.532   1.288   4.312
  575SOL     OW 2623   4.902   3.273   1.673
  575SOL    HW1 2624   4.985   3.296   1.623
  575SOL    HW2 2625   4.852   3.201   1.624
  576SOL     OW 2626   1.443   2.776   2.929
  576SOL    HW1 2627   1.442   2.684   2.969
  576SOL    HW2 2628   1.432   2.769   2.830
  577SOL     OW 2629   1.498   1.241   2.492
  577SOL    HW1 2630   1.509   1.304   2.569
  577SOL    HW2 2631   1.556   1.161   2.505
  578SOL     OW 2632   6.713   5.102   4.815
  578SOL    HW1 2633   6.693   5.068   4.723
  578SOL    HW2 2634   6.782   5.174   4.810
  579SOL     OW 2635   1.894   3.352   3.990
  579SOL    HW1 2636   1.982   3.395   4.012
  579SOL    HW2 2637   1.820   3.418   4.009
  580SOL     OW 2638   4.581   5.141   5.231
  580SOL    HW1 2639   4.588   5.235   5.198
  580SOL    HW2 2640   4.498   5.132   5.286
  581SOL     OW 2641   1.676   2.503   1.837
  581SOL    HW1 2642   1.724   2.438   1.777
  581SOL    HW2 2643   1.717   2.594   1.825
  582SOL     OW 2644   5.029   6.059   2.701
  582SOL    HW1 2645   5.076   6.042   2.788
  582SOL    HW2 2646   5.095   6.088   2.632
  583SOL     OW 2647   2.684   6.538   4.790
  583SOL    HW1 2648   2.756   6.527   4.721
  583SOL    HW2 2649   2.699   6.624   4.839
  584SOL     OW 2650   2.814   6.012   6.736
  584SOL    HW1 2651   2.750   6.013   6.659
  584SOL    HW2 2652   2.789   6.083   6.802
  585SOL     OW 2653   4.604   1.546   6.614
  585SOL    HW1 2654   4.515   1.504   6.631
  585SOL    HW2 2655   4.628   1.605   6.691
  586SOL     OW 2656   3.268   0.369   6.348
  586SOL    HW1 2657   3.341   0.393   6.284
  586SOL    HW2 2658   3.304   0.308   6.418
  587SOL     OW 2659   4.802   2.384   4.291
  587SOL    HW1 2660   4.731   2.315   4.304
  587SOL    HW2 2661   4.832   2.383   4.195
  588SOL     OW 2662   2.646   5.085   1.544
  588SOL    HW1 2663   2.669   5.048   1.634
  588SOL    HW2 2664   2.607   5.177   1.555
  589SOL     OW 2665   3.789   4.836   1.467
  589SOL    HW1 2666   3.765   4.820   1.563
  589SOL    HW2 2667   3.873   4.787   1.445
  590SOL     OW 2668   5.240   2.797   2.027
  590SOL    HW1 2669   5.181   2.747   1.964
  590SOL    HW2 2670   5.220   2.770   2.121
  591SOL     OW 2671   3.635   5.781   3.252
  591SOL    HW1 2672   3.729   5.779   3.217
  591SOL    HW2 2673   3.594   5.690   3.243
  592SOL     OW 2674   4.424   1.174   1.203
  592SOL    HW1 2675   4.343   1.180   1.143
  592SOL    HW2 2676   4.396   1.186   1.298
  593SOL     OW 2677   4.556   2.572   4.103
  593SOL    HW1 2678   4.471   2.574   4.051
  593SOL    HW2 2679   4.537   2.596   4.198
  594SOL     OW 2680   5.804   0.853   0.647
  594SOL    HW1 2681   5.862   0.786   0.694
  594SOL    HW2 2682   5.795   0.934   0.705
  595SOL     OW 2683   5.663   0.540   3.417
  595SOL    HW1 2684   5.601   0.614   3.444
  595SOL    HW2 2685   5.718   0.569   3.339
  596SOL     OW 2686   0.626   5.194   3.640
  596SOL    HW1 2687   0.695   5.151   3.583
  596SOL    HW2 2688   0.535   5.179   3.600
  597SOL     OW 2689   2.025   0.287   6.939
  597SOL    HW1 2690   2.015   0.364   7.002
  597SOL    HW2 2691   2.121   0.278   6.912
  598SOL     OW 2692   3.792   3.860   4.811
  598SOL    HW1 2693   3.747   3.817   4.890
  598SOL    HW2 2694   3.834   3.946   4.840
  599SOL     OW 2695   2.745   6.268   2.608
  599SOL    HW1 2696   2.730   6.352   2.659
  599SOL    HW2 2697   2.679   6.199   2.638
  600SOL     OW 2698   6.197   1.972   6.945
  600SOL    HW1 2699   6.214   2.070   6.937
  600SOL    HW2 2700   6.243   1.924   6.870
  601SOL     OW 2701   1.294   0.827   4.110
  601SOL    HW1 2702   1.363   0.842   4.039
  601SOL    HW2 2703   1.260   0.916   4.141
  602SOL     OW 2704   1.170   0.876   6.305
  602SOL    HW1 2705   1.092   0.908   6.358
  602SOL    HW2 2706   1.255   0.904   6.350
  603SOL     OW 2707   3.104   2.848   5.397
  603SOL    HW1 2708   3.116   2.760   5.349
  603SOL    HW2 2709   3.040   2.836   5.472
  604SOL     OW 2710   0.788   2.002   1.506
  604SOL    HW1 2711   0.807   1.936   1.433
  604SOL    HW2 2712   0.710   1.970   1.559
  605SOL     OW 2713   6.486   5.299   0.051
  605SOL    HW1 2714   6.424   5.364   0.006
  605SOL    HW2 2715   6.580   5.329   0.037
  606SOL     OW 2716   4.937   6.307   6.012
  606SOL    HW1 2717   5.023   6.309   6.064
  606SOL    HW2 2718   4.953   6.266   5.922
  607SOL     OW 2719   6.027   4.991   5.162
  607SOL    HW1 2720   6.006   4.993   5.260
  607SOL    HW2 2721   6.120   5.026   5.148
  608SOL     OW 2722   3.940   6.277   6.605
  608SOL    HW1 2723   4.034   6.298   6.580
  608SOL    HW2 2724   3.928   6.178   6.612
  609SOL     OW 2725   3.966   3.020   2.656
  609SOL    HW1 2726   4.060   3.006   2.687
  609SOL    HW2 2727   3.903   2.992   2.728
  610SOL     OW 2728   6.115   3.810   1.213
  610SOL    HW1 2729   6.161   3.899   1.206
  610SOL    HW2 2730   6.040   3.807   1.147
  611SOL     OW 2731   4.509   0.021   1.661
  611SOL    HW1 2732   4.545   6.998   1.740
  611SOL    HW2 2733   4.409   0.012   1.659
  612SOL     OW 2734   3.712   5.940   4.261
  612SOL    HW1 2735   3.800   5.894   4.251
  612SOL    HW2 2736   3.725   6.026   4.311
  613SOL     OW 2737   4.890   5.406   5.201
  613SOL    HW1 2738   4.954   5.458   5.257
  613SOL    HW2 2739   4.867   5.320   5.247
  614SOL     OW 2740   4.874   5.368   6.640
  614SOL    HW1 2741   4.954   5.380   6.580
  614SOL    HW2 2742   4.874   5.439   6.711
  615SOL     OW 2743   6.914   2.329   1.983
  615SOL    HW1 2744   6.821   2.303   2.008
  615SOL    HW2 2745   6.977   2.254   2.005
  616SOL     OW 2746   0.582   3.292   3.175
  616SOL    HW1 2747   0.628   3.205   3.191
  616SOL    HW2 2748   0.497   3.276   3.125
  617SOL     OW 2749   0.568   4.393   6.175
  617SOL    HW1 2750   0.522   4.398   6.263
  617SOL    HW2 2751   0.514   4.443   6.107
  618SOL     OW 2752   6.907   2.579   0.647
  618SOL    HW1 2753   6.828   2.640   0.637
  618SOL    HW2 2754   6.989   2.625   0.613
  619SOL     OW 2755   4.081   1.319   6.969
  619SOL    HW1 2756   4.000   1.378   6.975
  619SOL    HW2 2757   4.056   1.233   6.926
  620SOL     OW 2758   4.162   2.413   1.657
  620SOL    HW1 2759   4.217   2.334   1.631
  620SOL    HW2 2760   4.101   2.388   1.733
  621SOL     OW 2761   2.477   6.554   6.702
  621SOL    HW1 2762   2.422   6.601   6.772
  621SOL    HW2 2763   2.446   6.460   6.692
  622SOL     OW 2764   0.917   0.606   6.378
  622SOL    HW1 2765   0.863   0.682   6.343
  622SOL    HW2 2766   1.013   0.620   6.356
  623SOL     OW 2767   0.706   5.227   5.507
  623SOL    HW1 2768   0.649   5.201   5.429
  623SOL    HW2 2769   0.726   5.325   5.503
  624SOL     OW 2770   0.195   2.604   0.822
  624SOL    HW1 2771   0.278   2.584   0.875
  624SOL    HW2 2772   0.161   2.519   0.781
  625SOL     OW 2773   2.197   1.262   1.457
  625SOL    HW1 2774   2.261   1.247   1.533
  625SOL    HW2 2775   2.140   1.182   1.445
  626SOL     OW 2776   2.189   6.069   3.356
  626SOL    HW1 2777   2.202   6.161   3.316
  626SOL    HW2 2778   2.225   6.068   3.449
  627SOL     OW 2779   5.175   6.721   0.294
  627SOL    HW1 2780   5.117   6.781   0.348
  627SOL    HW2 2781   5.117   6.651   0.250
  628SOL     OW 2782   6.491   5.396   6.245
  628SOL    HW1 2783   6.566   5.379   6.181
  628SOL    HW2 2784   6.404   5.370   6.203
  629SOL     OW 2785   6.783   6.754   0.203
  629SOL    HW1 2786   6.835   6.699   0.138
  629SOL    HW2 2787   6.842   6.778   0.281
  630SOL     OW 2788   6.594   1.892   2.496
  630SOL    HW1 2789   6.569   1.977   2.449
  630SOL    HW2 2790   6.604   1.909   2.594
  631SOL     OW 2791   3.225   6.522   5.501
  631SOL    HW1 2792   3.217   6.510   5.600
  631SOL    HW2 2793   3.207   6.617   5.477
  632SOL     OW 2794   2.511   1.266   0.766
  632SOL    HW1 2795   2.555   1.340   0.716
  632SOL    HW2 2796   2.413   1.268   0.752
  633SOL     OW 2797   4.907   4.512   0.031
  633SOL    HW1 2798   4.886   4.567   6.975
  633SOL    HW2 2799   4.833   4.523   0.098
  634SOL     OW 2800   4.605   4.468   1.756
  634SOL    HW1 2801   4.554   4.394   1.799
  634SOL    HW2 2802   4.607   4.454   1.657
  635SOL     OW 2803   4.718   4.981   0.707
  635SOL    HW1 2804   4.741   5.029   0.792
  635SOL    HW2 2805   4.636   4.926   0.720
  636SOL     OW 2806   4.224   5.563   6.461
  636SOL    HW1 2807   4.324   5.565   6.452
  636SOL    HW2 2808   4.190   5.657   6.464
  637SOL     OW 2809   6.653   3.957   2.341
  637SOL    HW1 2810   6.591   3.903   2.399
  637SOL    HW2 2811   6.629   3.945   2.245
  638SOL     OW 2812   5.702   2.166   2.698
  638SOL    HW1 2813   5.610   2.199   2.720
  638SOL    HW2 2814   5.769   2.226   2.742
  639SOL     OW 2815   5.394   4.296   2.584
  639SOL    HW1 2816   5.365   4.340   2.499
  639SOL    HW2 2817   5.482   4.335   2.612
  640SOL     OW 2818   0.473   4.927   4.108
  640SOL    HW1 2819   0.572   4.934   4.094
  640SOL    HW2 2820   0.448   4.978   4.190
  641SOL     OW 2821   6.920   6.125   4.788
  641SOL    HW1 2822   6.878   6.084   4.706
  641SOL    HW2 2823   6.865   6.100   4.868
  642SOL     OW 2824   0.282   3.360   4.917
  642SOL    HW1 2825   0.280   3.261   4.923
  642SOL    HW2 2826   0.200   3.392   4.869
  643SOL     OW 2827   4.580   5.354   5.035
  643SOL    HW1 2828   4.567   5.303   4.949
  643SOL    HW2 2829   4.678   5.369   5.049
  644SOL     OW 2830   0.997   6.067   4.395
  644SOL    HW1 2831   1.034   6.035   4.482
  644SOL    HW2 2832   1.041   6.153   4.369
  645SOL     OW 2833   4.979   1.502   4.888
  645SOL    HW1 2834   5.012   1.519   4.981
  645SOL    HW2 2835   4.959   1.404   4.877
  646SOL     OW 2836   3.196   1.271   4.031
  646SOL    HW1 2837   3.283   1.280   3.982
  646SOL    HW2 2838   3.153   1.361   4.039
  647SOL     OW 2839   5.312   1.803   5.137
  647SOL    HW1 2840   5.282   1.709   5.121
  647SOL    HW2 2841   5.248   1.848   5.200
  648SOL     OW 2842   6.826   4.133   3.805
  648SOL    HW1 2843   6.885   4.201   3.847
  648SOL    HW2 2844   6.750   4.112   3.866
  649SOL     OW 2845   3.770   3.808   0.518
  649SOL    HW1 2846   3.846   3.786   0.458
  649SOL    HW2 2847   3.795   3.788   0.613
  650SOL     OW 2848   6.124   4.647   0.702
  650SOL    HW1 2849   6.113   4.735   0.656
  650SOL    HW2 2850   6.062   4.643   0.781
  651SOL     OW 2851   6.684   6.537   6.130
  651SOL    HW1 2852   6.664   6.585   6.216
  651SOL    HW2 2853   6.683   6.438   6.146
  652SOL     OW 2854   5.413   6.375   3.805
  652SOL    HW1 2855   5.350   6.367   3.882
  652SOL    HW2 2856   5.447   6.284   3.781
  653SOL     OW 2857   3.030   6.377   4.494
  653SOL    HW1 2858   3.034   6.376   4.594
  653SOL    HW2 2859   2.992   6.291   4.461
  654SOL     OW 2860   0.256   3.999   5.571
  654SOL    HW1 2861   0.161   3.993   5.602
  654SOL    HW2 2862   0.314   4.032   5.645
  655SOL     OW 2863   0.969   6.559   1.828
  655SOL    HW1 2864   0.928   6.485   1.882
  655SOL    HW2 2865   0.982   6.639   1.886
  656SOL     OW 2866   1.887   6.169   1.715
  656SOL    HW1 2867   1.806   6.213   1.756
  656SOL    HW2 2868   1.955   6.154   1.787
  657SOL     OW 2869   1.361   2.172   1.862
  657SOL    HW1 2870   1.393   2.134   1.948
  657SOL    HW2 2871   1.375   2.105   1.789
  658SOL     OW 2872   2.772   3.341   5.983
  658SOL    HW1 2873   2.820   3.282   5.918
  658SOL    HW2 2874   2.789   3.310   6.076
  659SOL     OW 2875   2.417   5.762   6.067
  659SOL    HW1 2876   2.366   5.769   5.981
  659SOL    HW2 2877   2.436   5.665   6.086
  660SOL     OW 2878   4.894   4.642   2.370
  660SOL    HW1 2879   4.963   4.572   2.386
  660SOL    HW2 2880   4.838   4.652   2.453
  661SOL     OW 2881   4.015   5.866   3.359
  661SOL    HW1 2882   3.963   5.943   3.394
  661SOL    HW2 2883   4.079   5.835   3.430
  662SOL     OW 2884   3.833   0.704   5.686
  662SOL    HW1 2885   3.748   0.653   5.702
  662SOL    HW2 2886   3.859   0.753   5.769
  663SOL     OW 2887   2.427   4.207   6.392
  663SOL    HW1 2888   2.475   4.136   6.342
  663SOL    HW2 2889   2.434   4.294   6.342
  664SOL     OW 2890   6.923   5.432   6.234
  664SOL    HW1 2891   6.944   5.436   6.136
  664SOL    HW2 2892   6.844   5.490   6.254
  665SOL     OW 2893   5.071   5.599   2.101
  665SOL    HW1 2894   5.115   5.555   2.023
  665SOL    HW2 2895   4.995   5.655   2.068
  666SOL     OW 2896   5.418   2.213   2.481
  666SOL    HW1 2897   5.432   2.211   2.580
  666SOL    HW2 2898   5.389   2.122   2.450
  667SOL     OW 2899   1.380   5.097   3.456
  667SOL    HW1 2900   1.446   5.024   3.478
  667SOL    HW2 2901   1.427   5.171   3.409
  668SOL     OW 2902   5.232   6.640   5.817
  668SOL    HW1 2903   5.234   6.712   5.748
  668SOL    HW2 2904   5.320   6.593   5.818
  669SOL     OW 2905   4.197   0.598   2.712
  669SOL    HW1 2906   4.132   0.580   2.638
  669SOL    HW2 2907   4.283   0.630   2.674
  670SOL     OW 2908   3.282   2.508   1.651
  670SOL    HW1 2909   3.314   2.588   1.701
  670SOL    HW2 2910   3.323   2.426   1.690
  671SOL     OW 2911   1.818   6.734   0.263
  671SOL    HW1 2912   1.805   6.645   0.307
  671SOL    HW2 2913   1.909   6.738   0.221
  672SOL     OW 2914   0.430   5.355   2.190
  672SOL    HW1 2915   0.487   5.312   2.260
  672SOL    HW2 2916   0.484   5.372   2.109
  673SOL     OW 2917   6.908   6.787   1.569
  673SOL    HW1 2918   6.988   6.799   1.628
  673SOL    HW2 2919   6.888   6.874   1.523
  674SOL     OW 2920   1.293   1.278   5.138
  674SOL    HW1 2921   1.204   1.319   5.117
  674SOL    HW2 2922   1.348   1.344   5.191
  675SOL     OW 2923   0.692   0.698   2.805
  675SOL    HW1 2924   0.604   0.689   2.759
  675SOL    HW2 2925   0.728   0.791   2.792
  676SOL     OW 2926   3.013   5.886   2.365
  676SOL    HW1 2927   3.036   5.926   2.453
  676SOL    HW2 2928   2.991   5.959   2.300
  677SOL     OW 2929   5.463   1.897   0.679
  677SOL    HW1 2930   5.517   1.955   0.741
  677SOL    HW2 2931   5.388   1.950   0.640
  678SOL     OW 2932   2.345   0.320   5.429
  678SOL    HW1 2933   2.280   0.249   5.454
  678SOL    HW2 2934   2.310   0.372   5.351
  679SOL     OW 2935   4.666   2.282   3.382
  679SOL    HW1 2936   4.729   2.316   3.312
  679SOL    HW2 2937   4.603   2.216   3.341
  680SOL     OW 2938   5.621   5.521   5.461
  680SOL    HW1 2939   5.643   5.613   5.429
  680SOL    HW2 2940   5.578   5.527   5.551
  681SOL     OW 2941   4.933   4.541   1.633
  681SOL    HW1 2942   4.996   4.558   1.557
  681SOL    HW2 2943   4.927   4.622   1.691
  682SOL     OW 2944   6.795   1.374   1.361
  682SOL    HW1 2945   6.866   1.437   1.333
  682SOL    HW2 2946   6.821   1.280   1.336
  683SOL     OW 2947   4.814   3.630   0.657
  683SOL    HW1 2948   4.758   3.586   0.587
  683SOL    HW2 2949   4.911   3.623   0.632
  684SOL     OW 2950   6.362   1.384   0.290
  684SOL    HW1 2951   6.298   1.326   0.240
  684SOL    HW2 2952   6.447   1.393   0.238
  685SOL     OW 2953   4.006   1.508   3.475
  685SOL    HW1 2954   3.912   1.497   3.443
  685SOL    HW2 2955   4.051   1.582   3.423
  686SOL     OW 2956   5.115   2.883   3.867
  686SOL    HW1 2957   5.112   2.787   3.839
  686SOL    HW2 2958   5.094   2.941   3.788
  687SOL     OW 2959   0.489   2.200   4.620
  687SOL    HW1 2960   0.572   2.152   4.591
  687SOL    HW2 2961   0.477   2.283   4.564
  688SOL     OW 2962   0.190   1.587   0.039
  688SOL    HW1 2963   0.249   1.517   0.079
  688SOL    HW2 2964   0.098   1.549   0.027
  689SOL     OW 2965   0.604   5.091   6.243
  689SOL    HW1 2966   0.533   5.162   6.246
  689SOL    HW2 2967   0.646   5.082   6.333
  690SOL     OW 2968   0.460   3.973   2.948
  690SOL    HW1 2969   0.523   3.998   3.022
  690SOL    HW2 2970   0.366   3.988   2.977
  691SOL     OW 2971   2.577   0.357   0.622
  691SOL    HW1 2972   2.640   0.280   0.631
  691SOL    HW2 2973   2.579   0.391   0.528
  692SOL     OW 2974   3.583   0.573   3.935
  692SOL    HW1 2975   3.643   0.560   3.856
  692SOL    HW2 2976   3.624   0.639   3.998
  693SOL     OW 2977   5.514   0.549   4.067
  693SOL    HW1 2978   5.556   0.560   3.977
  693SOL    HW2 2979   5.523   0.454   4.097
  694SOL     OW 2980   4.596   6.579   3.639
  694SOL    HW1 2981   4.585   6.547   3.733
  694SOL    HW2 2982   4.616   6.677   3.640
  695SOL     OW 2983   4.782   6.845   4.243
  695SOL    HW1 2984   4.856   6.869   4.180
  695SOL    HW2 2985   4.698   6.830   4.190
  696SOL     OW 2986   4.843   5.053   3.076
  696SOL    HW1 2987   4.807   4.988   3.010
  696SOL    HW2 2988   4.925   5.098   3.039
  697SOL     OW 2989   1.506   3.887   3.642
  697SOL    HW1 2990   1.407   3.870   3.636
  697SOL    HW2 2991   1.545   3.889   3.550
  698SOL     OW 2992   4.410   6.641   0.635
  698SOL    HW1 2993   4.448   6.717   0.689
  698SOL    HW2 2994   4.461   6.558   0.654
  699SOL     OW 2995   2.400   3.809   6.566
  699SOL    HW1 2996   2.351   3.761   6.639
  699SOL    HW2 2997   2.373   3.905   6.564
  700SOL     OW 2998   2.733   0.690   1.988
  700SOL    HW1 2999   2.726   0.790   1.986
  700SOL    HW2 3000   2.829   0.663   1.984
  701SOL     OW 3001   6.540   3.725   6.378
  701SOL    HW1 3002   6.599   3.744   6.456
  701SOL    HW2 3003   6.592   3.732   6.294
  702SOL     OW 3004   1.466   6.173   4.964
  702SOL    HW1 3005   1.472   6.245   5.032
  702SOL    HW2 3006   1.386   6.116   4.982
  703SOL     OW 3007   3.508   3.296   6.684
  703SOL    HW1 3008   3.517   3.367   6.614
  703SOL    HW2 3009   3.414   3.261   6.683
  704SOL     OW 3010   1.366   2.706   0.167
  704SOL    HW1 3011   1.298   2.776   0.187
  704SOL    HW2 3012   1.327   2.615   0.183
  705SOL     OW 3013   6.036   4.960   2.877
  705SOL    HW1 3014   6.111   4.969   2.811
  705SOL    HW2 3015   6.030   5.043   2.932
  706SOL     OW 3016   4.332   2.289   5.344
  706SOL    HW1 3017   4.403   2.293   5.273
  706SOL    HW2 3018   4.363   2.341   5.424
  707SOL     OW 3019   4.435   4.715   3.001
  707SOL    HW1 3020   4.394   4.685   3.087
  707SOL    HW2 3021   4.450   4.635   2.942
  708SOL     OW 3022   3.640   0.506   2.118
  708SOL    HW1 3023   3.607   0.422   2.162
  708SOL    HW2 3024   3.625   0.583   2.180
  709SOL     OW 3025   0.540   5.770   0.629
  709SOL    HW1 3026   0.619   5.733   0.579
  709SOL    HW2 3027   0.490   5.833   0.569
  710SOL     OW 3028   3.601   2.585   1.206
  710SOL    HW1 3029   3.554   2.640   1.137
  710SOL    HW2 3030   3.685   2.547   1.167
  711SOL     OW 3031   6.969   3.289   5.711
  711SOL    HW1 3032   6.870   3.282   5.701
  711SOL    HW2 3033   7.011   3.205   5.676
  712SOL     OW 3034   3.856   2.344   1.391
  712SOL    HW1 3035   3.914   2.421   1.420
  712SOL    HW2 3036   3.837   2.352   1.293
  713SOL     OW 3037   4.255   2.585   6.003
  713SOL    HW1 3038   4.169   2.586   6.053
  713SOL    HW2 3039   4.264   2.669   5.950
  714SOL     OW 3040   0.096   4.581   3.647
  714SOL    HW1 3041   0.084   4.609   3.552
  714SOL    HW2 3042   0.155   4.647   3.694
  715SOL     OW 3043   4.906   6.216   7.010
  715SOL    HW1 3044   4.813   6.253   7.005
  715SOL    HW2 3045   4.911   6.151   0.060
  716SOL     OW 3046   0.424   0.985   2.330
  716SOL    HW1 3047   0.469   1.063   2.287
  716SOL    HW2 3048   0.339   0.965   2.281
  717SOL     OW 3049   6.670   4.592   3.926
  717SOL    HW1 3050   6.727   4.543   3.992
  717SOL    HW2 3051   6.727   4.651   3.870
  718SOL     OW 3052   4.374   3.451   5.974
  718SOL    HW1 3053   4.407   3.373   5.922
  718SOL    HW2 3054   4.290   3.486   5.931
  719SOL     OW 3055   6.631   0.623   2.616
  719SOL    HW1 3056   6.550   0.564   2.612
  719SOL    HW2 3057   6.691   0.592   2.690
  720SOL     OW 3058   2.290   0.502   5.974
  720SOL    HW1 3059   2.292   0.431   5.903
  720SOL    HW2 3060   2.196   0.521   5.999
  721SOL     OW 3061   2.937   1.787   2.724
  721SOL    HW1 3062   2.845   1.826   2.724
  721SOL    HW2 3063   2.976   1.795   2.633
  722SOL     OW 3064   2.684   0.528   5.197
  722SOL    HW1 3065   2.634   0.499   5.115
  722SOL    HW2 3066   2.630   0.597   5.246
  723SOL     OW 3067   1.435   4.723   3.769
  723SOL    HW1 3068   1.403   4.816   3.789
  723SOL    HW2 3069   1.356   4.660   3.769
  724SOL     OW 3070   1.368   2.166   4.054
  724SOL    HW1 3071   1.406   2.238   4.112
  724SOL    HW2 3072   1.269   2.158   4.071
  725SOL     OW 3073   1.916   5.293   1.677
  725SOL    HW1 3074   1.966   5.367   1.721
  725SOL    HW2 3075   1.835   5.271   1.732
  726SOL     OW 3076   3.659   4.406   1.282
  726SOL    HW1 3077   3.604   4.409   1.198
  726SOL    HW2 3078   3.618   4.465   1.351
  727SOL     OW 3079   6.352   4.427   5.732
  727SOL    HW1 3080   6.396   4.421   5.822
  727SOL    HW2 3081   6.421   4.451   5.663
  728SOL     OW 3082   6.397   2.820   3.774
  728SOL    HW1 3083   6.359   2.822   3.866
  728SOL    HW2 3084   6.461   2.743   3.766
  729SOL     OW 3085   0.490   2.096   1.543
  729SOL    HW1 3086   0.461   2.069   1.635
  729SOL    HW2 3087   0.589   2.111   1.543
  730SOL     OW 3088   6.036   0.028   4.269
  730SOL    HW1 3089   6.039   0.105   4.333
  730SOL    HW2 3090   6.021   6.969   4.320
  731SOL     OW 3091   4.474   5.014   6.612
  731SOL    HW1 3092   4.400   5.060   6.563
  731SOL    HW2 3093   4.545   5.080   6.636
  732SOL     OW 3094   5.155   2.931   1.348
  732SOL    HW1 3095   5.224   3.000   1.371
  732SOL    HW2 3096   5.141   2.871   1.427
  733SOL     OW 3097   5.501   0.227   4.373
  733SOL    HW1 3098   5.528   0.149   4.429
  733SOL    HW2 3099   5.506   0.310   4.427
  734SOL     OW 3100   5.974   4.462   3.184
  734SOL    HW1 3101   6.065   4.478   3.223
  734SOL    HW2 3102   5.931   4.549   3.162
  735SOL     OW 3103   4.059   1.763   0.312
  735SOL    HW1 3104   4.044   1.778   0.410
  735SOL    HW2 3105   3.982   1.711   0.275
  736SOL     OW 3106   7.019   1.873   3.415
  736SOL    HW1 3107   0.056   1.912   3.482
  736SOL    HW2 3108   0.036   1.796   3.370
  737SOL     OW 3109   5.385   1.887   5.440
  737SOL    HW1 3110   5.381   1.822   5.516
  737SOL    HW2 3111   5.301   1.880   5.386
  738SOL     OW 3112   2.893   3.772   1.184
  738SOL    HW1 3113   2.921   3.812   1.271
  738SOL    HW2 3114   2.810   3.818   1.152
  739SOL     OW 3115   5.083   1.071   4.499
  739SOL    HW1 3116   5.142   1.144   4.532
  739SOL    HW2 3117   5.004   1.062   4.560
  740SOL     OW 3118   6.136   1.557   1.406
  740SOL    HW1 3119   6.160   1.647   1.442
  740SOL    HW2 3120   6.132   1.562   1.306
  741SOL     OW 3121   1.474   0.354   3.374
  741SOL    HW1 3122   1.561   0.382   3.415
  741SOL    HW2 3123   1.454   0.259   3.398
  742SOL     OW 3124   2.557   6.617   2.055
  742SOL    HW1 3125   2.510   6.658   2.133
  742SOL    HW2 3126   2.491   6.567   1.998
  743SOL     OW 3127   1.121   5.187   3.559
  743SOL    HW1 3128   1.077   5.130   3.629
  743SOL    HW2 3129   1.193   5.134   3.514
  744SOL     OW 3130   5.698   0.531   1.466
  744SOL    HW1 3131   5.780   0.498   1.515
  744SOL    HW2 3132   5.722   0.612   1.413
  745SOL     OW 3133   1.540   5.606   4.961
  745SOL    HW1 3134   1.483   5.663   4.901
  745SOL    HW2 3135   1.602   5.551   4.905
  746SOL     OW 3136   6.217   4.135   6.513
  746SOL    HW1 3137   6.284   4.060   6.514
  746SOL    HW2 3138   6.182   4.149   6.606
  747SOL     OW 3139   3.695   6.493   4.071
  747SOL    HW1 3140   3.729   6.540   4.153
  747SOL    HW2 3141   3.660   6.403   4.097
  748SOL     OW 3142   3.950   5.111   2.206
  748SOL    HW1 3143   3.922   5.204   2.182
  748SOL    HW2 3144   4.042   5.093   2.170
  749SOL     OW 3145   5.788   3.412   4.335
  749SOL    HW1 3146   5.833   3.499   4.356
  749SOL    HW2 3147   5.763   3.410   4.238
  750SOL     OW 3148   2.750   1.198   1.400
  750SOL    HW1 3149   2.742   1.143   1.317
  750SOL    HW2 3150   2.823   1.161   1.457
  751SOL     OW 3151   4.446   1.854   6.582
  751SOL    HW1 3152   4.435   1.841   6.483
  751SOL    HW2 3153   4.363   1.823   6.629
  752SOL     OW 3154   3.236   1.394   1.505
  752SOL    HW1 3155   3.151   1.411   1.455
  752SOL    HW2 3156   3.310   1.448   1.465
  753SOL     OW 3157   1.033   3.771   6.083
  753SOL    HW1 3158   0.980   3.798   6.004
  753SOL    HW2 3159   1.088   3.690   6.060
  754SOL     OW 3160   4.839   2.061   5.873
  754SOL    HW1 3161   4.906   2.132   5.852
  754SOL    HW2 3162   4.808   2.070   5.968
  755SOL     OW 3163   1.840   4.849   4.718
  755SOL    HW1 3164   1.837   4.922   4.651
  755SOL    HW2 3165   1.935   4.819   4.730
  756SOL     OW 3166   3.025   6.278   6.613
  756SOL    HW1 3167   2.973   6.344   6.558
  756SOL    HW2 3168   2.999   6.287   6.709
  757SOL     OW 3169   0.353   0.355   4.241
  757SOL    HW1 3170   0.430   0.418   4.245
  757SOL    HW2 3171   0.268   0.405   4.258
  758SOL     OW 3172   3.386   0.704   3.252
  758SOL    HW1 3173   3.464   0.647   3.226
  758SOL    HW2 3174   3.313   0.693   3.185
  759SOL     OW 3175   0.753   2.357   1.909
  759SOL    HW1 3176   0.717   2.328   1.820
  759SOL    HW2 3177   0.712   2.445   1.934
  760SOL     OW 3178   6.372   6.339   3.964
  760SOL    HW1 3179   6.366   6.282   3.881
  760SOL    HW2 3180   6.356   6.434   3.940
  761SOL     OW 3181   5.499   3.826   6.195
  761SOL    HW1 3182   5.529   3.732   6.211
  761SOL    HW2 3183   5.509   3.879   6.279
  762SOL     OW 3184   2.486   0.045   4.883
  762SOL    HW1 3185   2.448   0.132   4.853
  762SOL    HW2 3186   2.502   7.012   4.804
  763SOL     OW 3187   3.923   5.780   6.501
  763SOL    HW1 3188   3.882   5.775   6.411
  763SOL    HW2 3189   3.852   5.784   6.571
  764SOL     OW 3190   5.679   0.758   5.279
  764SOL    HW1 3191   5.597   0.773   5.225
  764SOL    HW2 3192   5.758   0.799   5.233
  765SOL     OW 3193   1.198   5.990   1.245
  765SOL    HW1 3194   1.278   6.001   1.305
  765SOL    HW2 3195   1.188   5.894   1.221
  766SOL     OW 3196   2.593   2.123   5.969
  766SOL    HW1 3197   2.526   2.061   6.011
  766SOL    HW2 3198   2.548   2.209   5.944
  767SOL     OW 3199   6.359   5.902   3.330
  767SOL    HW1 3200   6.350   5.874   3.425
  767SOL    HW2 3201   6.445   5.951   3.317
  768SOL     OW 3202   2.140   5.826   2.700
  768SOL    HW1 3203   2.102   5.737   2.727
  768SOL    HW2 3204   2.082   5.899   2.735
  769SOL     OW 3205   2.391   1.159   5.357
  769SOL    HW1 3206   2.307   1.214   5.362
  769SOL    HW2 3207   2.417   1.131   5.449
  770SOL     OW 3208   1.662   5.070   3.693
  770SOL    HW1 3209   1.646   4.981   3.648
  770SOL    HW2 3210   1.579   5.097   3.742
  771SOL     OW 3211   1.198   5.218   2.478
  771SOL    HW1 3212   1.287   5.260   2.456
  771SOL    HW2 3213   1.194   5.198   2.575
  772SOL     OW 3214   5.234   4.877   6.510
  772SOL    HW1 3215   5.239   4.777   6.512
  772SOL    HW2 3216   5.139   4.906   6.518
  773SOL     OW 3217   0.006   4.296   3.984
  773SOL    HW1 3218   0.067   4.299   4.064
  773SOL    HW2 3219   7.014   4.389   3.953
  774SOL     OW 3220   1.826   1.261   1.011
  774SOL    HW1 3221   1.885   1.281   1.089
  774SOL    HW2 3222   1.747   1.323   1.013
  775SOL     OW 3223   2.200   2.151   4.446
  775SOL    HW1 3224   2.162   2.226   4.391
  775SOL    HW2 3225   2.260   2.095   4.389
  776SOL     OW 3226   0.144   0.389   5.356
  776SOL    HW1 3227   0.243   0.391   5.341
  776SOL    HW2 3228   0.113   0.294   5.361
  777SOL     OW 3229   1.500   4.672   1.349
  777SOL    HW1 3230   1.471   4.689   1.443
  777SOL    HW2 3231   1.589   4.714   1.334
  778SOL     OW 3232   2.607   0.532   1.782
  778SOL    HW1 3233   2.671   0.587   1.728
  778SOL    HW2 3234   2.615   0.556   1.878
  779SOL     OW 3235   6.795   2.883   2.814
  779SOL    HW1 3236   6.757   2.804   2.862
  779SOL    HW2 3237   6.731   2.912   2.742
  780SOL     OW 3238   0.801   2.929   4.270
  780SOL    HW1 3239   0.808   2.896   4.176
  780SOL    HW2 3240   0.710   2.967   4.286
  781SOL     OW 3241   6.196   6.928   0.531
  781SOL    HW1 3242   6.135   6.941   0.453
  781SOL    HW2 3243   6.192   6.832   0.560
  782SOL     OW 3244   1.270   3.623   5.988
  782SOL    HW1 3245   1.299   3.676   6.067
  782SOL    HW2 3246   1.294   3.527   6.002
  783SOL     OW 3247   5.092   4.877   1.904
  783SOL    HW1 3248   5.116   4.969   1.873
  783SOL    HW2 3249   5.175   4.823   1.916
  784SOL     OW 3250   4.513   4.820   0.271
  784SOL    HW1 3251   4.414   4.831   0.265
  784SOL    HW2 3252   4.549   4.796   0.181
  785SOL     OW 3253   0.577   1.982   3.438
  785SOL    HW1 3254   0.492   2.033   3.438
  785SOL    HW2 3255   0.569   1.905   3.502
  786SOL     OW 3256   0.587   6.830   3.084
  786SOL    HW1 3257   0.644   6.871   3.012
  786SOL    HW2 3258   0.502   6.882   3.093
  787SOL     OW 3259   1.241   0.517   0.177
  787SOL    HW1 3260   1.292   0.495   0.260
  787SOL    HW2 3261   1.288   0.478   0.098
  788SOL     OW 3262   3.896   1.550   6.960
  788SOL    HW1 3263   3.861   1.637   6.995
  788SOL    HW2 3264   3.827   1.478   6.974
  789SOL     OW 3265   4.224   4.389   1.722
  789SOL    HW1 3266   4.293   4.342   1.778
  789SOL    HW2 3267   4.263   4.472   1.683
  790SOL     OW 3268   1.856   1.829   2.881
  790SOL    HW1 3269   1.757   1.820   2.889
  790SOL    HW2 3270   1.893   1.864   2.967
  791SOL     OW 3271   1.344   6.083   4.436
  791SOL    HW1 3272   1.399   6.119   4.511
  791SOL    HW2 3273   1.329   6.155   4.367
  792SOL     OW 3274   0.649   0.485   1.807
  792SOL    HW1 3275   0.746   0.465   1.821
  792SOL    HW2 3276   0.615   0.544   1.880
  793SOL     OW 3277   5.364   5.068   4.332
  793SOL    HW1 3278   5.390   4.997   4.398
  793SOL    HW2 3279   5.362   5.157   4.379
  794SOL     OW 3280   3.030   3.972   5.915
  794SOL    HW1 3281   2.974   3.916   5.854
  794SOL    HW2 3282   2.990   4.063   5.923
  795SOL     OW 3283   4.074   7.015   4.581
  795SOL    HW1 3284   4.053   0.086   4.566
  795SOL    HW2 3285   4.169   6.998   4.553
  796SOL     OW 3286   1.119   2.505   6.074
  796SOL    HW1 3287   1.132   2.588   6.022
  796SOL    HW2 3288   1.200   2.447   6.066
  797SOL     OW 3289   5.425   1.303   1.148
  797SOL    HW1 3290   5.347   1.260   1.101
  797SOL    HW2 3291   5.391   1.373   1.210
  798SOL     OW 3292   3.122   6.576   1.861
  798SOL    HW1 3293   3.187   6.509   1.826
  798SOL    HW2 3294   3.127   6.580   1.961
  799SOL     OW 3295   0.248   6.667   6.148
  799SOL    HW1 3296   0.150   6.667   6.132
  799SOL    HW2 3297   0.266   6.676   6.246
  800SOL     OW 3298   5.641   1.333   2.320
  800SOL    HW1 3299   5.543   1.320   2.328
  800SOL    HW2 3300   5.688   1.246   2.335
  801SOL     OW 3301   2.375   4.396   4.694
  801SOL    HW1 3302   2.460   4.386   4.642
  801SOL    HW2 3303   2.333   4.306   4.707
  802SOL     OW 3304   2.896   1.598   0.950
  802SOL    HW1 3305   2.972   1.585   0.886
  802SOL    HW2 3306   2.864   1.693   0.944
  803SOL     OW 3307   1.263   0.336   6.175
  803SOL    HW1 3308   1.346   0.281   6.169
  803SOL    HW2 3309   1.261   0.384   6.263
  804SOL     OW 3310   5.956   6.879   0.691
  804SOL    HW1 3311   5.887   6.846   0.626
  804SOL    HW2 3312   6.029   6.811   0.700
  805SOL     OW 3313   2.875   1.036   3.883
  805SOL    HW1 3314   2.925   1.102   3.827
  805SOL    HW2 3315   2.779   1.064   3.889
  806SOL     OW 3316   5.313   0.865   4.821
  806SOL    HW1 3317   5.227   0.881   4.772
  806SOL    HW2 3318   5.386   0.920   4.781
  807SOL     OW 3319   0.497   0.700   5.383
  807SOL    HW1 3320   0.424   0.661   5.439
  807SOL    HW2 3321   0.547   0.626   5.337
  808SOL     OW 3322   3.809   4.298   6.202
  808SOL    HW1 3323   3.851   4.331   6.118
  808SOL    HW2 3324   3.715   4.332   6.207
  809SOL     OW 3325   0.575   5.345   1.227
  809SOL    HW1 3326   0.476   5.331   1.230
  809SOL    HW2 3327   0.607   5.336   1.133
  810SOL     OW 3328   3.676   4.064   0.474
  810SOL    HW1 3329   3.692   3.977   0.521
  810SOL    HW2 3330   3.591   4.105   0.508
  811SOL     OW 3331   5.296   6.018   5.353
  811SOL    HW1 3332   5.347   5.932   5.351
  811SOL    HW2 3333   5.221   6.011   5.420
  812SOL     OW 3334   6.867   0.719   2.789
  812SOL    HW1 3335   6.960   0.714   2.827
  812SOL    HW2 3336   6.865   0.786   2.715
  813SOL     OW 3337   4.103   6.505   4.194
  813SOL    HW1 3338   4.158   6.567   4.138
  813SOL    HW2 3339   4.027   6.468   4.140
  814SOL     OW 3340   6.076   5.686   2.576
  814SOL    HW1 3341   6.002   5.623   2.598
  814SOL    HW2 3342   6.046   5.750   2.505
  815SOL     OW 3343   6.770   3.613   3.316
  815SOL    HW1 3344   6.810   3.565   3.239
  815SOL    HW2 3345   6.739   3.704   3.286
  816SOL     OW 3346   6.028   5.830   0.335
  816SOL    HW1 3347   5.992   5.923   0.326
  816SOL    HW2 3348   6.103   5.830   0.401
  817SOL     OW 3349   1.156   5.715   1.473
  817SOL    HW1 3350   1.088   5.642   1.479
  817SOL    HW2 3351   1.201   5.712   1.384
  818SOL     OW 3352   6.002   2.569   3.713
  818SOL    HW1 3353   6.069   2.500   3.740
  818SOL    HW2 3354   6.045   2.634   3.650
  819SOL     OW 3355   5.871   2.873   2.046
  819SOL    HW1 3356   5.791   2.930   2.029
  819SOL    HW2 3357   5.857   2.783   2.004
  820SOL     OW 3358   3.123   2.106   4.839
  820SOL    HW1 3359   3.160   2.158   4.916
  820SOL    HW2 3360   3.097   2.014   4.870
  821SOL     OW 3361   6.738   4.162   7.026
  821SOL    HW1 3362   6.820   4.217   0.015
  821SOL    HW2 3363   6.691   4.195   6.944
  822SOL     OW 3364   0.367   3.706   3.607
  822SOL    HW1 3365   0.323   3.698   3.518
  822SOL    HW2 3366   0.338   3.630   3.666
  823SOL     OW 3367   6.089   4.256   6.293
  823SOL    HW1 3368   6.105   4.350   6.263
  823SOL    HW2 3369   6.166   4.225   6.349
  824SOL     OW 3370   4.297   1.083   6.079
  824SOL    HW1 3371   4.352   1.163   6.056
  824SOL    HW2 3372   4.344   1.031   6.151
  825SOL     OW 3373   7.012   5.963   1.253
  825SOL    HW1 3374   6.960   5.892   1.207
  825SOL    HW2 3375   6.959   6.048   1.257
  826SOL     OW 3376   3.781   1.918   5.944
  826SOL    HW1 3377   3.836   1.918   5.860
  826SOL    HW2 3378   3.778   2.011   5.982
  827SOL     OW 3379   2.565   4.378   5.272
  827SOL    HW1 3380   2.509   4.337   5.199
  827SOL    HW2 3381   2.508   4.394   5.352
  828SOL     OW 3382   5.178   6.531   6.587
  828SOL    HW1 3383   5.112   6.593   6.630
  828SOL    HW2 3384   5.255   6.584   6.552
  829SOL     OW 3385   4.133   3.488   2.148
  829SOL    HW1 3386   4.099   3.542   2.225
  829SOL    HW2 3387   4.232   3.498   2.141
  830SOL     OW 3388   5.565   4.955   6.798
  830SOL    HW1 3389   5.524   4.917   6.715
  830SOL    HW2 3390   5.665   4.949   6.792
  831SOL     OW 3391   6.167   6.804   0.000
  831SOL    HW1 3392   6.170   6.726   6.964
  831SOL    HW2 3393   6.202   6.885   6.980
  832SOL     OW 3394   4.342   1.155   2.840
  832SOL    HW1 3395   4.345   1.162   2.740
  832SOL    HW2 3396   4.280   1.082   2.867
  833SOL     OW 3397   1.761   3.446   6.614
  833SOL    HW1 3398   1.829   3.518   6.601
  833SOL    HW2 3399   1.774   3.402   6.702
  834SOL     OW 3400   4.313   3.819   1.001
  834SOL    HW1 3401   4.254   3.738   1.002
  834SOL    HW2 3402   4.346   3.837   1.094
  835SOL     OW 3403   3.286   0.453   5.462
  835SOL    HW1 3404   3.187   0.468   5.454
  835SOL    HW2 3405   3.310   0.443   5.558
  836SOL     OW 3406   3.705   0.024   4.837
  836SOL    HW1 3407   3.771   0.085   4.883
  836SOL    HW2 3408   3.621   0.020   4.891
  837SOL     OW 3409   6.770   0.047   0.906
  837SOL    HW1 3410   6.835   7.009   0.948
  837SOL    HW2 3411   6.805   0.140   0.914
  838SOL     OW 3412   2.225   0.483   4.652
  838SOL    HW1 3413   2.285   0.448   4.581
  838SOL    HW2 3414   2.132   0.449   4.637
  839SOL     OW 3415   1.922   1.494   1.922
  839SOL    HW1 3416   1.972   1.437   1.857
  839SOL    HW2 3417   1.826   1.465   1.925
  840SOL     OW 3418   6.228   6.013   6.865
  840SOL    HW1 3419   6.147   6.054   6.907
  840SOL    HW2 3420   6.213   5.915   6.853
  841SOL     OW 3421   3.157   5.187   6.066
  841SOL    HW1 3422   3.121   5.202   5.974
  841SOL    HW2 3423   3.243   5.137   6.060
  842SOL     OW 3424   3.642   0.412   5.393
  842SOL    HW1 3425   3.581   0.360   5.333
  842SOL    HW2 3426   3.635   0.509   5.371
  843SOL     OW 3427   1.001   1.754   1.466
  843SOL    HW1 3428   1.090   1.779   1.427
  843SOL    HW2 3429   0.929   1.779   1.402
  844SOL     OW 3430   6.588   0.017   0.233
  844SOL    HW1 3431   6.621   6.950   0.221
  844SOL    HW2 3432   6.653   0.080   0.189
  845SOL     OW 3433   4.886   3.717   3.643
  845SOL    HW1 3434   4.918   3.735   3.736
  845SOL    HW2 3435   4.906   3.622   3.619
  846SOL     OW 3436   2.240   1.165   5.839
  846SOL    HW1 3437   2.304   1.100   5.879
  846SOL    HW2 3438   2.147   1.142   5.867
  847SOL     OW 3439   1.766   3.747   1.146
  847SOL    HW1 3440   1.851   3.729   1.098
  847SOL    HW2 3441   1.696   3.776   1.081
  848SOL     OW 3442   6.999   6.859   5.926
  848SOL    HW1 3443   6.928   6.846   5.857
  848SOL    HW2 3444   0.001   6.770   5.962
  849SOL     OW 3445   6.391   3.968   6.331
  849SOL    HW1 3446   6.423   3.885   6.376
  849SOL    HW2 3447   6.317   3.945   6.268
  850SOL     OW 3448   5.224   1.280   4.610
  850SOL    HW1 3449   5.292   1.340   4.568
  850SOL    HW2 3450   5.251   1.258   4.703
  851SOL     OW 3451   0.276   2.876   1.171
  851SOL    HW1 3452   0.248   2.966   1.205
  851SOL    HW2 3453   0.213   2.848   1.098
  852SOL     OW 3454   1.097   3.883   0.347
  852SOL    HW1 3455   1.028   3.945   0.384
  852SOL    HW2 3456   1.053   3.815   0.288
  853SOL     OW 3457   0.786   4.584   1.146
  853SOL    HW1 3458   0.833   4.617   1.227
  853SOL    HW2 3459   0.840   4.606   1.064
  854SOL     OW 3460   5.392   5.114   0.486
  854SOL    HW1 3461   5.407   5.096   0.389
  854SOL    HW2 3462   5.436   5.200   0.511
  855SOL     OW 3463   6.827   0.627   1.768
  855SOL    HW1 3464   6.871   0.636   1.857
  855SOL    HW2 3465   6.730   0.606   1.782
  856SOL     OW 3466   1.188   2.223   6.673
  856SOL    HW1 3467   1.138   2.242   6.758
  856SOL    HW2 3468   1.138   2.154   6.620
  857SOL     OW 3469   6.179   4.817   1.915
  857SOL    HW1 3470   6.263   4.869   1.898
  857SOL    HW2 3471   6.202   4.720   1.930
  858SOL     OW 3472   3.121   3.943   1.291
  858SOL    HW1 3473   3.169   3.887   1.223
  858SOL    HW2 3474   3.097   4.031   1.250
  859SOL     OW 3475   5.945   6.983   5.204
  859SOL    HW1 3476   5.941   6.933   5.118
  859SOL    HW2 3477   5.994   6.929   5.272
  860SOL     OW 3478   6.542   2.499   0.612
  860SOL    HW1 3479   6.551   2.571   0.682
  860SOL    HW2 3480   6.445   2.488   0.589
  861SOL     OW 3481   2.638   5.207   4.194
  861SOL    HW1 3482   2.653   5.130   4.132
  861SOL    HW2 3483   2.651   5.292   4.144
  862SOL     OW 3484   1.228   3.969   3.716
  862SOL    HW1 3485   1.179   4.028   3.652
  862SOL    HW2 3486   1.239   4.016   3.803
  863SOL     OW 3487   5.769   0.932   6.834
  863SOL    HW1 3488   5.791   0.877   6.914
  863SOL    HW2 3489   5.819   0.898   6.754
  864SOL     OW 3490   4.158   5.436   3.884
  864SOL    HW1 3491   4.087   5.446   3.954
  864SOL    HW2 3492   4.194   5.342   3.887
  865SOL     OW 3493   1.411   6.449   6.101
  865SOL    HW1 3494   1.439   6.476   6.193
  865SOL    HW2 3495   1.334   6.386   6.107
  866SOL     OW 3496   2.406   1.178   1.277
  866SOL    HW1 3497   2.402   1.207   1.181
  866SOL    HW2 3498   2.331   1.220   1.328
  867SOL     OW 3499   5.306   3.822   0.240
  867SOL    HW1 3500   5.267   3.734   0.266
  867SOL    HW2 3501   5.406   3.817   0.244
  868SOL     OW 3502   6.317   1.406   0.733
  868SOL    HW1 3503   6.225   1.370   0.744
  868SOL    HW2 3504   6.348   1.446   0.819
  869SOL     OW 3505   0.379   4.453   3.134
  869SOL    HW1 3506   0.376   4.383   3.063
  869SOL    HW2 3507   0.338   4.538   3.099
  870SOL     OW 3508   3.795   3.426   0.017
  870SOL    HW1 3509   3.867   3.483   7.004
  870SOL    HW2 3510   3.821   3.398   0.109
  871SOL     OW 3511   4.931   2.356   2.740
  871SOL    HW1 3512   4.937   2.390   2.834
  871SOL    HW2 3513   4.839   2.321   2.723
  872SOL     OW 3514   5.542   3.032   3.864
  872SOL    HW1 3515   5.445   3.042   3.887
  872SOL    HW2 3516   5.578   2.951   3.910
  873SOL     OW 3517   6.112   6.264   5.430
  873SOL    HW1 3518   6.026   6.312   5.412
  873SOL    HW2 3519   6.092   6.170   5.458
  874SOL     OW 3520   0.345   3.688   6.157
  874SOL    HW1 3521   0.314   3.658   6.247
  874SOL    HW2 3522   0.443   3.707   6.159
  875SOL     OW 3523   5.356   4.628   0.685
  875SOL    HW1 3524   5.357   4.685   0.603
  875SOL    HW2 3525   5.299   4.548   0.670
  876SOL     OW 3526   1.261   4.775   2.577
  876SOL    HW1 3527   1.234   4.870   2.564
  876SOL    HW2 3528   1.311   4.743   2.497
  877SOL     OW 3529   3.664   4.628   5.685
  877SOL    HW1 3530   3.721   4.710   5.696
  877SOL    HW2 3531   3.717   4.548   5.713
  878SOL     OW 3532   3.806   5.956   4.785
  878SOL    HW1 3533   3.784   5.893   4.710
  878SOL    HW2 3534   3.723   6.005   4.812
  879SOL     OW 3535   3.631   1.894   1.064
  879SOL    HW1 3536   3.671   1.802   1.064
  879SOL    HW2 3537   3.640   1.934   1.155
  880SOL     OW 3538   2.884   3.751   4.811
  880SOL    HW1 3539   2.916   3.722   4.721
  880SOL    HW2 3540   2.855   3.847   4.808
  881SOL     OW 3541   5.899   3.488   5.724
  881SOL    HW1 3542   5.928   3.584   5.718
  881SOL    HW2 3543   5.808   3.479   5.685
  882SOL     OW 3544   1.211   2.706   4.403
  882SOL    HW1 3545   1.112   2.712   4.414
  882SOL    HW2 3546   1.238   2.744   4.314
  883SOL     OW 3547   3.834   0.720   0.360
  883SOL    HW1 3548   3.906   0.748   0.297
  883SOL    HW2 3549   3.860   0.746   0.454
  884SOL     OW 3550   6.893   4.442   0.001
  884SOL    HW1 3551   6.823   4.512   0.010
  884SOL    HW2 3552   6.944   4.435   0.087
  885SOL     OW 3553   4.033   6.664   5.267
  885SOL    HW1 3554   4.044   6.582   5.211
  885SOL    HW2 3555   3.998   6.739   5.211
  886SOL     OW 3556   4.538   0.467   0.663
  886SOL    HW1 3557   4.517   0.456   0.760
  886SOL    HW2 3558   4.467   0.423   0.609
  887SOL     OW 3559   3.805   5.625   3.605
  887SOL    HW1 3560   3.757   5.537   3.599
  887SOL    HW2 3561   3.742   5.699   3.583
  888SOL     OW 3562   6.998   6.160   3.086
  888SOL    HW1 3563   0.071   6.176   3.086
  888SOL    HW2 3564   6.972   6.119   2.998
  889SOL     OW 3565   6.971   1.439   6.311
  889SOL    HW1 3566   6.892   1.482   6.356
  889SOL    HW2 3567   6.967   1.457   6.213
  890SOL     OW 3568   2.822   5.257   2.618
  890SOL    HW1 3569   2.782   5.301   2.699
  890SOL    HW2 3570   2.884   5.184   2.647
  891SOL     OW 3571   6.699   3.696   0.465
  891SOL    HW1 3572   6.658   3.743   0.543
  891SOL    HW2 3573   6.631   3.639   0.421
  892SOL     OW 3574   3.258   3.600   4.840
  892SOL    HW1 3575   3.195   3.631   4.912
  892SOL    HW2 3576   3.206   3.550   4.770
  893SOL     OW 3577   1.820   6.524   2.502
  893SOL    HW1 3578   1.791   6.455   2.437
  893SOL    HW2 3579   1.848   6.607   2.453
  894SOL     OW 3580   1.195   2.505   2.871
  894SOL    HW1 3581   1.190   2.422   2.815
  894SOL    HW2 3582   1.163   2.583   2.817
  895SOL     OW 3583   1.153   4.890   3.958
  895SOL    HW1 3584   1.131   4.803   4.003
  895SOL    HW2 3585   1.209   4.872   3.877
  896SOL     OW 3586   6.029   5.664   1.400
  896SOL    HW1 3587   6.032   5.576   1.447
  896SOL    HW2 3588   5.934   5.692   1.387
  897SOL     OW 3589   4.045   0.321   6.500
  897SOL    HW1 3590   3.994   0.349   6.581
  897SOL    HW2 3591   4.064   0.223   6.505
  898SOL     OW 3592   3.978   5.831   2.313
  898SOL    HW1 3593   4.012   5.829   2.218
  898SOL    HW2 3594   4.040   5.778   2.371
  899SOL     OW 3595   0.192   5.772   0.373
  899SOL    HW1 3596   0.248   5.689   0.374
  899SOL    HW2 3597   0.251   5.852   0.384
  900SOL     OW 3598   4.826   6.370   6.264
  900SOL    HW1 3599   4.868   6.335   6.180
  900SOL    HW2 3600   4.819   6.469   6.259
  901SOL     OW 3601   1.001   0.995   4.398
  901SOL    HW1 3602   0.918   0.989   4.343
  901SOL    HW2 3603   1.077   1.027   4.341
  902SOL     OW 3604   1.521   2.771   1.180
  902SOL    HW1 3605   1.618   2.777   1.158
  902SOL    HW2 3606   1.510   2.729   1.270
  903SOL     OW 3607   0.357   3.253   6.987
  903SOL    HW1 3608   0.341   3.346   7.019
  903SOL    HW2 3609   0.420   3.206   0.023
  904SOL     OW 3610   2.178   3.103   2.487
  904SOL    HW1 3611   2.205   3.051   2.406
  904SOL    HW2 3612   2.164   3.199   2.462
  905SOL     OW 3613   5.124   4.535   6.046
  905SOL    HW1 3614   5.038   4.523   5.996
  905SOL    HW2 3615   5.199   4.547   5.981
  906SOL     OW 3616   0.859   2.299   6.491
  906SOL    HW1 3617   0.881   2.391   6.525
  906SOL    HW2 3618   0.785   2.305   6.424
  907SOL     OW 3619   5.233   2.437   1.472
  907SOL    HW1 3620   5.215   2.342   1.499
  907SOL    HW2 3621   5.272   2.486   1.549
  908SOL     OW 3622   2.289   4.846   3.121
  908SOL    HW1 3623   2.223   4.771   3.122
  908SOL    HW2 3624   2.246   4.928   3.159
  909SOL     OW 3625   3.555   6.016   2.115
  909SOL    HW1 3626   3.462   6.044   2.090
  909SOL    HW2 3627   3.562   5.916   2.108
  910SOL     OW 3628   3.359   1.271   1.052
  910SOL    HW1 3629   3.280   1.328   1.074
  910SOL    HW2 3630   3.349   1.235   0.959
  911SOL     OW 3631   0.751   5.951   6.744
  911SOL    HW1 3632   0.836   5.911   6.777
  911SOL    HW2 3633   0.770   6.038   6.699
  912SOL     OW 3634   4.875   0.746   3.509
  912SOL    HW1 3635   4.817   0.702   3.578
  912SOL    HW2 3636   4.961   0.774   3.551
  913SOL     OW 3637   2.607   1.092   3.938
  913SOL    HW1 3638   2.571   1.100   4.031
  913SOL    HW2 3639   2.546   1.035   3.884
  914SOL     OW 3640   2.688   6.204   5.324
  914SOL    HW1 3641   2.724   6.188   5.231
  914SOL    HW2 3642   2.758   6.251   5.378
  915SOL     OW 3643   6.864   3.416   0.934
  915SOL    HW1 3644   6.820   3.341   0.885
  915SOL    HW2 3645   6.871   3.496   0.874
  916SOL     OW 3646   2.001   3.012   2.668
  916SOL    HW1 3647   1.931   3.079   2.642
  916SOL    HW2 3648   2.085   3.029   2.615
  917SOL     OW 3649   6.626   0.378   2.131
  917SOL    HW1 3650   6.638   0.451   2.199
  917SOL    HW2 3651   6.629   0.418   2.039
  918SOL     OW 3652   3.610   0.218   1.283
  918SOL    HW1 3653   3.665   0.296   1.312
  918SOL    HW2 3654   3.567   0.176   1.363
  919SOL     OW 3655   6.665   6.677   3.357
  919SOL    HW1 3656   6.757   6.647   3.382
  919SOL    HW2 3657   6.648   6.767   3.398
  920SOL     OW 3658   2.696   4.970   2.458
  920SOL    HW1 3659   2.679   4.951   2.555
  920SOL    HW2 3660   2.658   5.060   2.435
  921SOL     OW 3661   3.988   5.320   3.292
  921SOL    HW1 3662   3.897   5.346   3.324
  921SOL    HW2 3663   4.054   5.333   3.367
  922SOL     OW 3664   2.970   3.185   4.681
  922SOL    HW1 3665   3.068   3.195   4.660
  922SOL    HW2 3666   2.920   3.166   4.597
  923SOL     OW 3667   2.320   3.951   5.745
  923SOL    HW1 3668   2.376   3.873   5.771
  923SOL    HW2 3669   2.334   3.971   5.647
  924SOL     OW 3670   6.446   3.051   3.109
  924SOL    HW1 3671   6.526   2.992   3.118
  924SOL    HW2 3672   6.373   3.018   3.169
  925SOL     OW 3673   0.169   2.410   6.648
  925SOL    HW1 3674   0.101   2.350   6.690
  925SOL    HW2 3675   0.139   2.437   6.557
  926SOL     OW 3676   6.575   1.371   1.059
  926SOL    HW1 3677   6.531   1.293   1.104
  926SOL    HW2 3678   6.543   1.377   0.965
  927SOL     OW 3679   5.238   4.331   3.025
  927SOL    HW1 3680   5.315   4.269   3.042
  927SOL    HW2 3681   5.204   4.317   2.932
  928SOL     OW 3682   1.294   6.590   0.121
  928SOL    HW1 3683   1.331   6.528   0.190
  928SOL    HW2 3684   1.196   6.573   0.111
  929SOL     OW 3685   0.550   0.243   0.344
  929SOL    HW1 3686   0.529   0.159   0.294
  929SOL    HW2 3687   0.474   0.263   0.407
  930SOL     OW 3688   5.180   6.092   4.640
  930SOL    HW1 3689   5.259   6.046   4.680
  930SOL    HW2 3690   5.103   6.028   4.633
  931SOL     OW 3691   5.676   1.383   4.868
  931SOL    HW1 3692   5.760   1.366   4.920
  931SOL    HW2 3693   5.605   1.415   4.930
  932SOL     OW 3694   3.035   0.221   3.574
  932SOL    HW1 3695   3.014   0.190   3.666
  932SOL    HW2 3696   3.107   0.290   3.578
  933SOL     OW 3697   1.890   5.900   3.795
  933SOL    HW1 3698   1.860   5.994   3.779
  933SOL    HW2 3699   1.883   5.848   3.710
  934SOL     OW 3700   1.682   6.960   6.953
  934SOL    HW1 3701   1.626   6.898   7.007
  934SOL    HW2 3702   1.757   6.908   6.911
  935SOL     OW 3703   4.891   4.439   3.425
  935SOL    HW1 3704   4.922   4.531   3.404
  935SOL    HW2 3705   4.925   4.411   3.514
  936SOL     OW 3706   0.421   0.798   6.136
  936SOL    HW1 3707   0.355   0.873   6.144
  936SOL    HW2 3708   0.437   0.757   6.226
  937SOL     OW 3709   5.179   1.550   5.706
  937SOL    HW1 3710   5.154   1.485   5.778
  937SOL    HW2 3711   5.198   1.500   5.621
  938SOL     OW 3712   6.241   5.319   6.147
  938SOL    HW1 3713   6.172   5.350   6.213
  938SOL    HW2 3714   6.281   5.233   6.178
  939SOL     OW 3715   6.849   6.926   4.868
  939SOL    HW1 3716   6.888   7.009   4.908
  939SOL    HW2 3717   6.896   6.905   4.783
  940SOL     OW 3718   1.463   3.764   1.594
  940SOL    HW1 3719   1.430   3.848   1.550
  940SOL    HW2 3720   1.431   3.761   1.688
  941SOL     OW 3721   5.203   1.159   6.238
  941SOL    HW1 3722   5.262   1.112   6.304
  941SOL    HW2 3723   5.156   1.091   6.181
  942SOL     OW 3724   5.641   0.190   3.042
  942SOL    HW1 3725   5.554   0.150   3.072
  942SOL    HW2 3726   5.711   0.119   3.037
  943SOL     OW 3727   2.113   3.514   3.988
  943SOL    HW1 3728   2.135   3.535   3.893
  943SOL    HW2 3729   2.089   3.598   4.036
  944SOL     OW 3730   0.143   4.637   6.163
  944SOL    HW1 3731   0.125   4.565   6.096
  944SOL    HW2 3732   0.124   4.604   6.255
  945SOL     OW 3733   6.581   3.242   6.060
  945SOL    HW1 3734   6.561   3.249   5.962
  945SOL    HW2 3735   6.511   3.292   6.111
  946SOL     OW 3736   5.327   3.591   5.380
  946SOL    HW1 3737   5.346   3.594   5.282
  946SOL    HW2 3738   5.241   3.543   5.396
  947SOL     OW 3739   3.880   3.006   3.389
  947SOL    HW1 3740   3.948   3.068   3.426
  947SOL    HW2 3741   3.921   2.950   3.317
  948SOL     OW 3742   4.720   0.553   2.978
  948SOL    HW1 3743   4.811   0.557   2.936
  948SOL    HW2 3744   4.676   0.643   2.973
  949SOL     OW 3745   1.225   5.696   0.292
  949SOL    HW1 3746   1.322   5.678   0.278
  949SOL    HW2 3747   1.194   5.649   0.375
  950SOL     OW 3748   4.741   5.501   1.962
  950SOL    HW1 3749   4.733   5.448   2.047
  950SOL    HW2 3750   4.661   5.561   1.953
  951SOL     OW 3751   1.853   0.618   4.027
  951SOL    HW1 3752   1.780   0.572   3.976
  951SOL    HW2 3753   1.815   0.695   4.078
  952SOL     OW 3754   4.482   2.139   3.222
  952SOL    HW1 3755   4.485   2.039   3.228
  952SOL    HW2 3756   4.392   2.171   3.250
  953SOL     OW 3757   5.248   4.898   4.152
  953SOL    HW1 3758   5.295   4.955   4.219
  953SOL    HW2 3759   5.166   4.858   4.194
  954SOL     OW 3760   4.009   5.923   1.135
  954SOL    HW1 3761   3.996   6.014   1.096
  954SOL    HW2 3762   4.062   5.867   1.071
  955SOL     OW 3763   0.210   3.730   1.972
  955SOL    HW1 3764   0.119   3.709   1.936
  955SOL    HW2 3765   0.217   3.828   1.991
  956SOL     OW 3766   6.434   0.173   2.162
  956SOL    HW1 3767   6.485   0.259   2.158
  956SOL    HW2 3768   6.479   0.105   2.103
  957SOL     OW 3769   5.842   3.428   4.063
  957SOL    HW1 3770   5.920   3.464   4.012
  957SOL    HW2 3771   5.857   3.331   4.082
  958SOL     OW 3772   3.924   1.626   1.661
  958SOL    HW1 3773   3.827   1.650   1.661
  958SOL    HW2 3774   3.958   1.623   1.567
  959SOL     OW 3775   3.819   6.062   3.387
  959SOL    HW1 3776   3.847   6.151   3.424
  959SOL    HW2 3777   3.751   6.076   3.315
  960SOL     OW 3778   0.610   6.388   2.353
  960SOL    HW1 3779   0.611   6.464   2.418
  960SOL    HW2 3780   0.701   6.377   2.313
  961SOL     OW 3781   4.180   6.144   3.274
  961SOL    HW1 3782   4.209   6.139   3.178
  961SOL    HW2 3783   4.160   6.052   3.308
  962SOL     OW 3784   0.232   1.746   5.128
  962SOL    HW1 3785   0.303   1.677   5.144
  962SOL    HW2 3786   0.169   1.747   5.205
  963SOL     OW 3787   5.698   1.589   6.324
  963SOL    HW1 3788   5.606   1.577   6.363
  963SOL    HW2 3789   5.721   1.687   6.323
  964SOL     OW 3790   5.469   4.765   6.982
  964SOL    HW1 3791   5.539   4.835   6.991
  964SOL    HW2 3792   5.460   4.739   6.886
  965SOL     OW 3793   5.498   1.843   1.716
  965SOL    HW1 3794   5.589   1.848   1.757
  965SOL    HW2 3795   5.470   1.935   1.687
  966SOL     OW 3796   6.018   2.886   2.488
  966SOL    HW1 3797   5.965   2.827   2.428
  966SOL    HW2 3798   5.961   2.962   2.520
  967SOL     OW 3799   2.976   4.449   1.399
  967SOL    HW1 3800   3.054   4.450   1.336
  967SOL    HW2 3801   2.891   4.463   1.348
  968SOL     OW 3802   3.604   0.207   2.150
  968SOL    HW1 3803   3.675   0.194   2.219
  968SOL    HW2 3804   3.582   0.119   2.107
  969SOL     OW 3805   2.057   5.291   5.471
  969SOL    HW1 3806   1.980   5.270   5.411
  969SOL    HW2 3807   2.087   5.385   5.454
  970SOL     OW 3808   5.955   0.958   6.463
  970SOL    HW1 3809   5.969   0.886   6.532
  970SOL    HW2 3810   5.857   0.968   6.446
  971SOL     OW 3811   0.399   2.801   2.497
  971SOL    HW1 3812   0.334   2.852   2.439
  971SOL    HW2 3813   0.489   2.800   2.453
  972SOL     OW 3814   5.785   2.408   1.607
  972SOL    HW1 3815   5.816   2.441   1.519
  972SOL    HW2 3816   5.693   2.370   1.598
  973SOL     OW 3817   0.152   5.173   6.867
  973SOL    HW1 3818   0.218   5.237   6.826
  973SOL    HW2 3819   0.187   5.080   6.858
  974SOL     OW 3820   5.240   6.490   2.444
  974SOL    HW1 3821   5.306   6.419   2.420
  974SOL    HW2 3822   5.227   6.552   2.366
  975SOL     OW 3823   2.028   0.621   6.601
  975SOL    HW1 3824   2.000   0.525   6.609
  975SOL    HW2 3825   2.107   0.628   6.540
  976SOL     OW 3826   0.346   3.479   2.612
  976SOL    HW1 3827   0.347   3.575   2.643
  976SOL    HW2 3828   0.438   3.440   2.621
  977SOL     OW 3829   0.487   6.598   1.919
  977SOL    HW1 3830   0.505   6.578   2.015
  977SOL    HW2 3831   0.574   6.611   1.871
  978SOL     OW 3832   5.680   3.218   5.351
  978SOL    HW1 3833   5.767   3.243   5.393
  978SOL    HW2 3834   5.632   3.153   5.409
  979SOL     OW 3835   0.226   2.549   0.115
  979SOL    HW1 3836   0.192   2.482   0.180
  979SOL    HW2 3837   0.320   2.527   0.090
  980SOL     OW 3838   4.393   2.172   3.877
  980SOL    HW1 3839   4.438   2.183   3.966
  980SOL    HW2 3840   4.361   2.261   3.844
  981SOL     OW 3841   0.270   1.986   4.990
  981SOL    HW1 3842   0.189   2.016   4.941
  981SOL    HW2 3843   0.255   1.894   5.028
  982SOL     OW 3844   1.559   1.759   4.955
  982SOL    HW1 3845   1.611   1.716   5.029
  982SOL    HW2 3846   1.610   1.751   4.870
  983SOL     OW 3847   5.747   3.198   3.801
  983SOL    HW1 3848   5.775   3.225   3.709
  983SOL    HW2 3849   5.676   3.128   3.796
  984SOL     OW 3850   2.604   2.454   4.839
  984SOL    HW1 3851   2.560   2.510   4.909
  984SOL    HW2 3852   2.697   2.431   4.868
  985SOL     OW 3853   6.387   2.999   5.212
  985SOL    HW1 3854   6.378   3.080   5.270
  985SOL    HW2 3855   6.298   2.957   5.199
  986SOL     OW 3856   4.676   4.712   1.350
  986SOL    HW1 3857   4.702   4.615   1.357
  986SOL    HW2 3858   4.608   4.723   1.278
  987SOL     OW 3859   4.711   6.728   2.681
  987SOL    HW1 3860   4.646   6.690   2.615
  987SOL    HW2 3861   4.668   6.735   2.771
  988SOL     OW 3862   3.487   3.896   2.186
  988SOL    HW1 3863   3.572   3.933   2.225
  988SOL    HW2 3864   3.412   3.960   2.204
  989SOL     OW 3865   6.735   1.573   6.148
  989SOL    HW1 3866   6.786   1.635   6.089
  989SOL    HW2 3867   6.732   1.610   6.241
  990SOL     OW 3868   4.292   1.371   2.042
  990SOL    HW1 3869   4.334   1.283   2.021
  990SOL    HW2 3870   4.263   1.372   2.138
  991SOL     OW 3871   0.796   4.032   4.615
  991SOL    HW1 3872   0.747   4.073   4.538
  991SOL    HW2 3873   0.730   4.004   4.685
  992SOL     OW 3874   0.263   3.600   0.959
  992SOL    HW1 3875   0.351   3.620   0.915
  992SOL    HW2 3876   0.243   3.502   0.949
  993SOL     OW 3877   6.694   5.010   0.475
  993SOL    HW1 3878   6.713   4.915   0.449
  993SOL    HW2 3879   6.761   5.040   0.542
  994SOL     OW 3880   4.212   4.874   1.506
  994SOL    HW1 3881   4.163   4.955   1.540
  994SOL    HW2 3882   4.148   4.797   1.499
  995SOL     OW 3883   3.995   2.812   5.566
  995SOL    HW1 3884   3.970   2.768   5.652
  995SOL    HW2 3885   3.951   2.763   5.490
  996SOL     OW 3886   3.476   5.400   4.461
  996SOL    HW1 3887   3.465   5.300   4.461
  996SOL    HW2 3888   3.556   5.424   4.514
  997SOL     OW 3889   1.042   0.140   3.463
  997SOL    HW1 3890   1.046   0.104   3.556
  997SOL    HW2 3891   1.015   0.236   3.465
  998SOL     OW 3892   5.156   0.524   5.232
  998SOL    HW1 3893   5.127   0.567   5.147
  998SOL    HW2 3894   5.200   0.436   5.212
  999SOL     OW 3895   5.225   4.520   2.698
  999SOL    HW1 3896   5.262   4.428   2.685
  999SOL    HW2 3897   5.301   4.585   2.710
 1000SOL     OW 3898   3.244   1.701   1.521
 1000SOL    HW1 3899   3.208   1.776   1.465
 1000SOL    HW2 3900   3.336   1.678   1.490
 1001SOL     OW 3901   5.345   6.002   1.122
 1001SOL    HW1 3902   5.249   6.007   1.095
 1001SOL    HW2 3903   5.357   6.047   1.210
 1002SOL     OW 3904   5.768   2.001   1.092
 1002SOL    HW1 3905   5.850   2.013   1.149
 1002SOL    HW2 3906   5.732   1.909   1.107
 1003SOL     OW 3907   1.824   6.242   2.805
 1003SOL    HW1 3908   1.828   6.283   2.897
 1003SOL    HW2 3909   1.737   6.268   2.762
 1004SOL     OW 3910   0.555   0.634   2.028
 1004SOL    HW1 3911   0.578   0.704   2.096
 1004SOL    HW2 3912   0.460   0.645   2.000
 1005SOL     OW 3913   2.114   2.359   4.201
 1005SOL    HW1 3914   2.037   2.386   4.258
 1005SOL    HW2 3915   2.187   2.427   4.209
 1006SOL     OW 3916   1.403   4.523   0.401
 1006SOL    HW1 3917   1.413   4.578   0.484
 1006SOL    HW2 3918   1.437   4.575   0.323
 1007SOL     OW 3919   4.416   0.457   5.078
 1007SOL    HW1 3920   4.384   0.405   4.999
 1007SOL    HW2 3921   4.375   0.549   5.075
 1008SOL     OW 3922   0.815   3.163   6.073
 1008SOL    HW1 3923   0.858   3.122   6.153
 1008SOL    HW2 3924   0.881   3.169   5.998
 1009SOL     OW 3925   0.324   4.884   5.223
 1009SOL    HW1 3926   0.328   4.784   5.215
 1009SOL    HW2 3927   0.364   4.925   5.142
 1010SOL     OW 3928   3.177   1.899   0.043
 1010SOL    HW1 3929   3.163   1.991   0.009
 1010SOL    HW2 3930   3.218   1.902   0.134
 1011SOL     OW 3931   1.586   5.296   2.666
 1011SOL    HW1 3932   1.645   5.370   2.634
 1011SOL    HW2 3933   1.526   5.267   2.592
 1012SOL     OW 3934   0.127   6.755   2.509
 1012SOL    HW1 3935   0.143   6.832   2.571
 1012SOL    HW2 3936   0.074   6.786   2.430
 1013SOL     OW 3937   1.042   1.591   6.699
 1013SOL    HW1 3938   1.013   1.686   6.690
 1013SOL    HW2 3939   1.098   1.580   6.781
 1014SOL     OW 3940   6.749   4.584   5.663
 1014SOL    HW1 3941   6.688   4.609   5.739
 1014SOL    HW2 3942   6.695   4.545   5.589
 1015SOL     OW 3943   2.610   6.578   6.014
 1015SOL    HW1 3944   2.557   6.524   5.948
 1015SOL    HW2 3945   2.647   6.659   5.969
 1016SOL     OW 3946   4.134   3.842   7.025
 1016SOL    HW1 3947   4.178   3.836   6.935
 1016SOL    HW2 3948   4.035   3.846   7.013
 1017SOL     OW 3949   4.472   2.830   1.473
 1017SOL    HW1 3950   4.489   2.916   1.424
 1017SOL    HW2 3951   4.507   2.837   1.566
 1018SOL     OW 3952   0.723   4.505   4.270
 1018SOL    HW1 3953   0.683   4.505   4.178
 1018SOL    HW2 3954   0.763   4.595   4.288
 1019SOL     OW 3955   6.945   6.530   0.769
 1019SOL    HW1 3956   6.964   6.478   0.852
 1019SOL    HW2 3957   6.956   6.470   0.689
 1020SOL     OW 3958   6.370   1.212   1.124
 1020SOL    HW1 3959   6.342   1.116   1.133
 1020SOL    HW2 3960   6.291   1.266   1.094
 1021SOL     OW 3961   5.704   0.060   1.638
 1021SOL    HW1 3962   5.671   0.152   1.660
 1021SOL    HW2 3963   5.752   0.063   1.550
 1022SOL     OW 3964   2.992   4.243   5.252
 1022SOL    HW1 3965   2.929   4.168   5.268
 1022SOL    HW2 3966   2.940   4.325   5.226
 1023SOL     OW 3967   0.355   0.800   2.862
 1023SOL    HW1 3968   0.438   0.750   2.887
 1023SOL    HW2 3969   0.294   0.804   2.941
 1024SOL     OW 3970   0.513   3.002   4.269
 1024SOL    HW1 3971   0.450   2.933   4.233
 1024SOL    HW2 3972   0.535   3.068   4.196
 1025SOL     OW 3973   3.852   3.899   1.625
 1025SOL    HW1 3974   3.763   3.880   1.667
 1025SOL    HW2 3975   3.924   3.890   1.694
 1026SOL     OW 3976   2.611   2.718   1.692
 1026SOL    HW1 3977   2.648   2.674   1.773
 1026SOL    HW2 3978   2.608   2.817   1.706
 1027SOL     OW 3979   3.465   6.651   2.244
 1027SOL    HW1 3980   3.454   6.643   2.343
 1027SOL    HW2 3981   3.540   6.592   2.214
 1028SOL     OW 3982   2.068   7.012   2.189
 1028SOL    HW1 3983   2.025   0.027   2.109
 1028SOL    HW2 3984   2.118   0.056   2.240
 1029SOL     OW 3985   1.415   0.462   6.386
 1029SOL    HW1 3986   1.433   0.462   6.484
 1029SOL    HW2 3987   1.344   0.529   6.364
 1030SOL     OW 3988   3.445   3.179   1.900
 1030SOL    HW1 3989   3.478   3.161   1.993
 1030SOL    HW2 3990   3.517   3.158   1.834
 1031SOL     OW 3991   4.387   3.894   1.247
 1031SOL    HW1 3992   4.434   3.970   1.202
 1031SOL    HW2 3993   4.382   3.912   1.346
 1032SOL     OW 3994   2.115   1.904   6.277
 1032SOL    HW1 3995   2.148   1.865   6.191
 1032SOL    HW2 3996   2.027   1.862   6.301
 1033SOL     OW 3997   1.205   6.010   1.534
 1033SOL    HW1 3998   1.140   5.959   1.478
 1033SOL    HW2 3999   1.298   5.996   1.498
 1034SOL     OW 4000   0.550   5.057   4.365
 1034SOL    HW1 4001   0.520   5.003   4.444
 1034SOL    HW2 4002   0.644   5.088   4.379
 1035SOL     OW 4003   0.333   1.290   5.031
 1035SOL    HW1 4004   0.294   1.228   4.963
 1035SOL    HW2 4005   0.367   1.372   4.987
 1036SOL     OW 4006   3.987   0.429   1.788
 1036SOL    HW1 4007   4.042   0.469   1.861
 1036SOL    HW2 4008   3.967   0.334   1.810
 1037SOL     OW 4009   1.557   1.331   2.252
 1037SOL    HW1 4010   1.504   1.400   2.204
 1037SOL    HW2 4011   1.525   1.322   2.346
 1038SOL     OW 4012   1.859   1.044   5.474
 1038SOL    HW1 4013   1.900   1.092   5.552
 1038SOL    HW2 4014   1.871   1.099   5.391
 1039SOL     OW 4015   3.584   3.538   4.523
 1039SOL    HW1 4016   3.640   3.465   4.561
 1039SOL    HW2 4017   3.589   3.619   4.582
 1040SOL     OW 4018   5.327   1.377   2.580
 1040SOL    HW1 4019   5.228   1.391   2.590
 1040SOL    HW2 4020   5.344   1.327   2.495
 1041SOL     OW 4021   6.981   6.423   3.612
 1041SOL    HW1 4022   0.017   6.494   3.644
 1041SOL    HW2 4023   6.940   6.376   3.691
 1042SOL     OW 4024   4.158   5.550   2.613
 1042SOL    HW1 4025   4.197   5.633   2.573
 1042SOL    HW2 4026   4.139   5.483   2.541
 1043SOL     OW 4027   2.999   2.252   4.073
 1043SOL    HW1 4028   2.929   2.322   4.086
 1043SOL    HW2 4029   3.043   2.264   3.984
 1044SOL     OW 4030   6.029   5.233   2.577
 1044SOL    HW1 4031   6.102   5.289   2.615
 1044SOL    HW2 4032   5.963   5.210   2.648
 1045SOL     OW 4033   3.859   0.465   2.664
 1045SOL    HW1 4034   3.925   0.495   2.595
 1045SOL    HW2 4035   3.893   0.384   2.710
 1046SOL     OW 4036   1.598   0.882   0.494
 1046SOL    HW1 4037   1.654   0.799   0.505
 1046SOL    HW2 4038   1.562   0.885   0.401
 1047SOL     OW 4039   2.000   0.516   4.244
 1047SOL    HW1 4040   1.965   0.554   4.329
 1047SOL    HW2 4041   1.940   0.541   4.169
 1048SOL     OW 4042   4.265   6.035   3.034
 1048SOL    HW1 4043   4.350   6.050   2.984
 1048SOL    HW2 4044   4.263   5.941   3.068
 1049SOL     OW 4045   6.626   6.390   4.094
 1049SOL    HW1 4046   6.532   6.365   4.070
 1049SOL    HW2 4047   6.678   6.408   4.011
 1050SOL     OW 4048   3.454   4.991   1.423
 1050SOL    HW1 4049   3.448   4.962   1.519
 1050SOL    HW2 4050   3.403   5.077   1.411
 1051SOL     OW 4051   0.718   5.249   0.439
 1051SOL    HW1 4052   0.779   5.257   0.518
 1051SOL    HW2 4053   0.681   5.156   0.435
 1052SOL     OW 4054   4.274   0.745   5.032
 1052SOL    HW1 4055   4.213   0.761   4.954
 1052SOL    HW2 4056   4.227   0.687   5.099
 1053SOL     OW 4057   5.840   4.752   3.073
 1053SOL    HW1 4058   5.815   4.781   2.980
 1053SOL    HW2 4059   5.841   4.832   3.133
 1054SOL     OW 4060   2.964   3.571   0.611
 1054SOL    HW1 4061   3.014   3.581   0.698
 1054SOL    HW2 4062   3.008   3.502   0.555
 1055SOL     OW 4063   3.908   6.253   5.090
 1055SOL    HW1 4064   3.885   6.299   5.004
 1055SOL    HW2 4065   3.881   6.157   5.086
 1056SOL     OW 4066   2.475   3.874   6.984
 1056SOL    HW1 4067   2.461   3.792   0.013
 1056SOL    HW2 4068   2.386   3.911   6.956
 1057SOL     OW 4069   3.182   3.625   1.485
 1057SOL    HW1 4070   3.140   3.547   1.438
 1057SOL    HW2 4071   3.267   3.649   1.439
 1058SOL     OW 4072   4.890   2.170   3.550
 1058SOL    HW1 4073   4.812   2.206   3.499
 1058SOL    HW2 4074   4.870   2.175   3.648
 1059SOL     OW 4075   3.013   0.585   2.166
 1059SOL    HW1 4076   3.102   0.539   2.169
 1059SOL    HW2 4077   3.018   0.663   2.104
 1060SOL     OW 4078   0.095   4.929   4.342
 1060SOL    HW1 4079   0.162   5.003   4.357
 1060SOL    HW2 4080   0.029   4.957   4.272
 1061SOL     OW 4081   6.793   3.189   0.089
 1061SOL    HW1 4082   6.693   3.192   0.090
 1061SOL    HW2 4083   6.827   3.198   0.182
 1062SOL     OW 4084   5.295   5.017   5.763
 1062SOL    HW1 4085   5.213   5.070   5.740
 1062SOL    HW2 4086   5.283   4.923   5.731
 1063SOL     OW 4087   1.064   5.705   0.915
 1063SOL    HW1 4088   0.997   5.758   0.863
 1063SOL    HW2 4089   1.061   5.732   1.012
 1064SOL     OW 4090   1.976   4.454   2.765
 1064SOL    HW1 4091   2.027   4.433   2.682
 1064SOL    HW2 4092   2.000   4.547   2.796
 1065SOL     OW 4093   4.334   0.752   3.875
 1065SOL    HW1 4094   4.315   0.759   3.973
 1065SOL    HW2 4095   4.268   0.806   3.823
 1066SOL     OW 4096   5.190   6.588   2.713
 1066SOL    HW1 4097   5.106   6.636   2.738
 1066SOL    HW2 4098   5.190   6.571   2.614
 1067SOL     OW 4099   0.836   3.219   0.688
 1067SOL    HW1 4100   0.842   3.170   0.601
 1067SOL    HW2 4101   0.876   3.163   0.760
 1068SOL     OW 4102   6.326   4.937   2.168
 1068SOL    HW1 4103   6.246   4.902   2.216
 1068SOL    HW2 4104   6.297   5.002   2.097
 1069SOL     OW 4105   4.801   5.599   0.812
 1069SOL    HW1 4106   4.708   5.623   0.839
 1069SOL    HW2 4107   4.827   5.653   0.731
 1070SOL     OW 4108   0.235   0.709   1.651
 1070SOL    HW1 4109   0.287   0.719   1.566
 1070SOL    HW2 4110   0.174   0.787   1.662
 1071SOL     OW 4111   1.216   1.064   4.220
 1071SOL    HW1 4112   1.175   1.112   4.143
 1071SOL    HW2 4113   1.280   1.124   4.268
 1072SOL     OW 4114   1.752   0.924   0.994
 1072SOL    HW1 4115   1.812   0.998   1.024
 1072SOL    HW2 4116   1.739   0.929   0.895
 1073SOL     OW 4117   4.792   0.119   2.917
 1073SOL    HW1 4118   4.726   0.111   2.992
 1073SOL    HW2 4119   4.880   0.080   2.946
 1074SOL     OW 4120   1.958   5.507   1.844
 1074SOL    HW1 4121   1.878   5.461   1.884
 1074SOL    HW2 4122   2.034   5.504   1.909
 1075SOL     OW 4123   5.504   0.387   3.591
 1075SOL    HW1 4124   5.563   0.354   3.664
 1075SOL    HW2 4125   5.560   0.417   3.514
 1076SOL     OW 4126   0.729   2.694   5.397
 1076SOL    HW1 4127   0.660   2.698   5.470
 1076SOL    HW2 4128   0.819   2.715   5.436
 1077SOL     OW 4129   5.878   0.218   1.006
 1077SOL    HW1 4130   5.904   0.175   0.920
 1077SOL    HW2 4131   5.837   0.307   0.988
 1078SOL     OW 4132   0.633   0.365   2.109
 1078SOL    HW1 4133   0.603   0.455   2.075
 1078SOL    HW2 4134   0.731   0.354   2.092
 1079SOL     OW 4135   1.548   6.593   2.165
 1079SOL    HW1 4136   1.552   6.510   2.110
 1079SOL    HW2 4137   1.593   6.668   2.116
 1080SOL     OW 4138   1.678   5.699   3.198
 1080SOL    HW1 4139   1.686   5.600   3.185
 1080SOL    HW2 4140   1.586   5.721   3.230
 1081SOL     OW 4141   6.634   4.764   5.836
 1081SOL    HW1 4142   6.731   4.745   5.850
 1081SOL    HW2 4143   6.594   4.799   5.920
 1082SOL     OW 4144   5.373   2.165   5.035
 1082SOL    HW1 4145   5.365   2.244   5.096
 1082SOL    HW2 4146   5.438   2.100   5.073
 1083SOL     OW 4147   4.817   4.322   0.499
 1083SOL    HW1 4148   4.749   4.309   0.427
 1083SOL    HW2 4149   4.906   4.287   0.469
 1084SOL     OW 4150   5.761   5.958   6.493
 1084SOL    HW1 4151   5.849   5.965   6.446
 1084SOL    HW2 4152   5.758   6.025   6.568
 1085SOL     OW 4153   1.926   3.633   4.868
 1085SOL    HW1 4154   2.007   3.617   4.811
 1085SOL    HW2 4155   1.884   3.545   4.891
 1086SOL     OW 4156   0.615   5.009   0.424
 1086SOL    HW1 4157   0.548   5.001   0.498
 1086SOL    HW2 4158   0.574   4.976   0.338
 1087SOL     OW 4159   6.510   2.130   5.316
 1087SOL    HW1 4160   6.422   2.084   5.334
 1087SOL    HW2 4161   6.504   2.225   5.346
 1088SOL     OW 4162   0.606   3.711   2.974
 1088SOL    HW1 4163   0.555   3.786   2.933
 1088SOL    HW2 4164   0.647   3.741   3.061
 1089SOL     OW 4165   0.447   6.238   4.822
 1089SOL    HW1 4166   0.479   6.177   4.895
 1089SOL    HW2 4167   0.403   6.318   4.862
 1090SOL     OW 4168   2.804   1.970   3.318
 1090SOL    HW1 4169   2.903   1.972   3.326
 1090SOL    HW2 4170   2.774   1.877   3.295
 1091SOL     OW 4171   2.771   2.051   4.490
 1091SOL    HW1 4172   2.866   2.031   4.466
 1091SOL    HW2 4173   2.768   2.100   4.578
 1092SOL     OW 4174   0.786   4.307   1.186
 1092SOL    HW1 4175   0.789   4.406   1.170
 1092SOL    HW2 4176   0.703   4.269   1.144
 1093SOL     OW 4177   2.222   0.568   1.897
 1093SOL    HW1 4178   2.237   0.506   1.820
 1093SOL    HW2 4179   2.245   0.521   1.982
 1094SOL     OW 4180   0.941   6.937   2.461
 1094SOL    HW1 4181   0.879   6.950   2.383
 1094SOL    HW2 4182   0.974   6.842   2.461
 1095SOL     OW 4183   1.299   3.131   6.300
 1095SOL    HW1 4184   1.341   3.042   6.282
 1095SOL    HW2 4185   1.224   3.146   6.236
 1096SOL     OW 4186   3.417   4.304   1.730
 1096SOL    HW1 4187   3.450   4.394   1.757
 1096SOL    HW2 4188   3.398   4.250   1.812
 1097SOL     OW 4189   2.531   4.552   3.712
 1097SOL    HW1 4190   2.479   4.543   3.626
 1097SOL    HW2 4191   2.496   4.631   3.763
 1098SOL     OW 4192   4.428   3.510   6.661
 1098SOL    HW1 4193   4.503   3.446   6.643
 1098SOL    HW2 4194   4.375   3.479   6.740
 1099SOL     OW 4195   3.473   1.153   6.156
 1099SOL    HW1 4196   3.433   1.207   6.082
 1099SOL    HW2 4197   3.405   1.138   6.227
 1100SOL     OW 4198   4.301   1.433   4.432
 1100SOL    HW1 4199   4.248   1.412   4.514
 1100SOL    HW2 4200   4.361   1.355   4.410
 1101SOL     OW 4201   5.596   3.105   5.892
 1101SOL    HW1 4202   5.666   3.038   5.869
 1101SOL    HW2 4203   5.638   3.182   5.940
 1102SOL     OW 4204   0.896   0.275   4.802
 1102SOL    HW1 4205   0.866   0.181   4.819
 1102SOL    HW2 4206   0.991   0.274   4.769
 1103SOL     OW 4207   4.228   1.942   0.143
 1103SOL    HW1 4208   4.158   1.871   0.153
 1103SOL    HW2 4209   4.262   1.968   0.233
 1104SOL     OW 4210   1.890   3.247   5.560
 1104SOL    HW1 4211   1.923   3.341   5.564
 1104SOL    HW2 4212   1.901   3.211   5.468
 1105SOL     OW 4213   5.849   3.812   5.208
 1105SOL    HW1 4214   5.821   3.718   5.228
 1105SOL    HW2 4215   5.767   3.870   5.198
 1106SOL     OW 4216   7.014   2.519   1.173
 1106SOL    HW1 4217   6.974   2.557   1.257
 1106SOL    HW2 4218   0.020   2.594   1.115
 1107SOL     OW 4219   0.831   0.727   0.104
 1107SOL    HW1 4220   0.782   0.742   0.018
 1107SOL    HW2 4221   0.809   0.800   0.169
 1108SOL     OW 4222   3.383   6.940   5.362
 1108SOL    HW1 4223   3.474   6.917   5.327
 1108SOL    HW2 4224   3.393   6.996   5.445
 1109SOL     OW 4225   5.348   1.173   3.957
 1109SOL    HW1 4226   5.414   1.247   3.943
 1109SOL    HW2 4227   5.282   1.173   3.882
 1110SOL     OW 4228   3.753   2.050   3.013
 1110SOL    HW1 4229   3.655   2.051   2.993
 1110SOL    HW2 4230   3.804   2.056   2.927
 1111SOL     OW 4231   4.408   5.595   6.092
 1111SOL    HW1 4232   4.462   5.529   6.145
 1111SOL    HW2 4233   4.444   5.600   5.999
 1112SOL     OW 4234   5.803   0.937   2.611
 1112SOL    HW1 4235   5.713   0.904   2.580
 1112SOL    HW2 4236   5.858   0.860   2.642
 1113SOL     OW 4237   5.781   4.436   1.681
 1113SOL    HW1 4238   5.753   4.421   1.586
 1113SOL    HW2 4239   5.774   4.351   1.732
 1114SOL     OW 4240   3.337   1.730   6.036
 1114SOL    HW1 4241   3.315   1.804   5.972
 1114SOL    HW2 4242   3.273   1.655   6.024
 1115SOL     OW 4243   4.107   3.143   5.859
 1115SOL    HW1 4244   4.134   3.119   5.766
 1115SOL    HW2 4245   4.043   3.220   5.857
 1116SOL     OW 4246   5.066   6.463   5.684
 1116SOL    HW1 4247   5.103   6.528   5.751
 1116SOL    HW2 4248   5.111   6.375   5.696
 1117SOL     OW 4249   1.889   2.604   2.247
 1117SOL    HW1 4250   1.947   2.644   2.318
 1117SOL    HW2 4251   1.902   2.505   2.245
 1118SOL     OW 4252   3.305   4.552   0.754
 1118SOL    HW1 4253   3.235   4.545   0.683
 1118SOL    HW2 4254   3.383   4.604   0.718
 1119SOL     OW 4255   4.193   4.702   2.142
 1119SOL    HW1 4256   4.250   4.632   2.098
 1119SOL    HW2 4257   4.137   4.747   2.072
 1120SOL     OW 4258   5.977   6.446   0.307
 1120SOL    HW1 4259   6.026   6.485   0.385
 1120SOL    HW2 4260   5.879   6.450   0.324
 1121SOL     OW 4261   5.987   4.154   4.423
 1121SOL    HW1 4262   6.050   4.183   4.350
 1121SOL    HW2 4263   5.894   4.148   4.386
 1122SOL     OW 4264   4.973   2.394   1.641
 1122SOL    HW1 4265   5.000   2.465   1.576
 1122SOL    HW2 4266   4.878   2.368   1.624
 1123SOL     OW 4267   5.391   1.918   3.119
 1123SOL    HW1 4268   5.483   1.923   3.079
 1123SOL    HW2 4269   5.335   1.993   3.085
 1124SOL     OW 4270   0.013   3.840   5.182
 1124SOL    HW1 4271   6.955   3.894   5.175
 1124SOL    HW2 4272   0.086   3.887   5.133
 1125SOL     OW 4273   2.445   2.278   3.653
 1125SOL    HW1 4274   2.469   2.217   3.729
 1125SOL    HW2 4275   2.485   2.369   3.669
 1126SOL     OW 4276   5.600   5.412   0.173
 1126SOL    HW1 4277   5.538   5.377   0.243
 1126SOL    HW2 4278   5.630   5.337   0.115
 1127SOL     OW 4279   5.253   5.343   4.366
 1127SOL    HW1 4280   5.312   5.359   4.445
 1127SOL    HW2 4281   5.170   5.399   4.375
 1128SOL     OW 4282   6.054   1.176   4.701
 1128SOL    HW1 4283   6.053   1.273   4.727
 1128SOL    HW2 4284   6.139   1.134   4.732
 1129SOL     OW 4285   1.530   0.333   1.160
 1129SOL    HW1 4286   1.626   0.356   1.173
 1129SOL    HW2 4287   1.514   0.239   1.192
 1130SOL     OW 4288   2.772   4.969   0.598
 1130SOL    HW1 4289   2.797   4.918   0.516
 1130SOL    HW2 4290   2.725   5.053   0.572
 1131SOL     OW 4291   1.377   5.978   5.868
 1131SOL    HW1 4292   1.339   6.047   5.806
 1131SOL    HW2 4293   1.457   6.017   5.914
 1132SOL     OW 4294   5.318   0.240   2.598
 1132SOL    HW1 4295   5.281   0.183   2.672
 1132SOL    HW2 4296   5.398   0.289   2.631
 1133SOL     OW 4297   0.535   1.183   0.527
 1133SOL    HW1 4298   0.473   1.130   0.469
 1133SOL    HW2 4299   0.557   1.130   0.609
 1134SOL     OW 4300   5.030   0.047   2.602
 1134SOL    HW1 4301   5.003   0.119   2.666
 1134SOL    HW2 4302   5.098   0.083   2.538
 1135SOL     OW 4303   2.718   0.057   3.501
 1135SOL    HW1 4304   2.624   0.042   3.470
 1135SOL    HW2 4305   2.738   7.021   3.577
 1136SOL     OW 4306   4.532   4.842   3.516
 1136SOL    HW1 4307   4.523   4.842   3.616
 1136SOL    HW2 4308   4.617   4.795   3.490
 1137SOL     OW 4309   1.191   6.269   0.066
 1137SOL    HW1 4310   1.207   6.285   6.995
 1137SOL    HW2 4311   1.277   6.245   0.111
 1138SOL     OW 4312   0.252   0.996   6.258
 1138SOL    HW1 4313   0.180   0.955   6.314
 1138SOL    HW2 4314   0.319   1.041   6.318
 1139SOL     OW 4315   3.331   5.001   2.705
 1139SOL    HW1 4316   3.274   4.978   2.784
 1139SOL    HW2 4317   3.325   5.099   2.687
 1140SOL     OW 4318   2.963   1.229   2.580
 1140SOL    HW1 4319   2.898   1.154   2.566
 1140SOL    HW2 4320   3.034   1.226   2.509
 1141SOL     OW 4321   0.773   6.265   6.911
 1141SOL    HW1 4322   0.807   6.188   6.966
 1141SOL    HW2 4323   0.810   6.350   6.948
 1142SOL     OW 4324   3.248   0.216   4.271
 1142SOL    HW1 4325   3.284   0.160   4.197
 1142SOL    HW2 4326   3.319   0.277   4.305
 1143SOL     OW 4327   2.224   2.807   3.368
 1143SOL    HW1 4328   2.168   2.727   3.349
 1143SOL    HW2 4329   2.194   2.849   3.453
 1144SOL     OW 4330   6.184   4.311   4.065
 1144SOL    HW1 4331   6.134   4.366   4.132
 1144SOL    HW2 4332   6.155   4.216   4.072
 1145SOL     OW 4333   6.228   3.922   1.825
 1145SOL    HW1 4334   6.207   3.877   1.738
 1145SOL    HW2 4335   6.275   3.858   1.885
 1146SOL     OW 4336   6.933   1.013   2.661
 1146SOL    HW1 4337   6.980   1.095   2.626
 1146SOL    HW2 4338   6.928   1.018   2.761
 1147SOL     OW 4339   2.908   5.608   1.686
 1147SOL    HW1 4340   2.884   5.705   1.674
 1147SOL    HW2 4341   2.981   5.584   1.622
 1148SOL     OW 4342   4.398   6.038   0.271
 1148SOL    HW1 4343   4.380   6.124   0.223
 1148SOL    HW2 4344   4.494   6.013   0.261
 1149SOL     OW 4345   5.908   3.285   2.775
 1149SOL    HW1 4346   5.988   3.333   2.739
 1149SOL    HW2 4347   5.883   3.212   2.711
 1150SOL     OW 4348   0.650   3.857   0.354
 1150SOL    HW1 4349   0.696   3.858   0.266
 1150SOL    HW2 4350   0.649   3.764   0.391
 1151SOL     OW 4351   5.347   4.583   6.440
 1151SOL    HW1 4352   5.335   4.558   6.536
 1151SOL    HW2 4353   5.316   4.507   6.382
 1152SOL     OW 4354   4.980   5.150   0.069
 1152SOL    HW1 4355   4.936   5.079   0.013
 1152SOL    HW2 4356   4.938   5.151   0.160
 1153SOL     OW 4357   0.891   0.073   1.847
 1153SOL    HW1 4358   0.843   0.057   1.761
 1153SOL    HW2 4359   0.876   7.021   1.908
 1154SOL     OW 4360   6.790   4.386   1.636
 1154SOL    HW1 4361   6.739   4.354   1.715
 1154SOL    HW2 4362   6.730   4.439   1.576
 1155SOL     OW 4363   2.406   4.548   5.985
 1155SOL    HW1 4364   2.329   4.608   6.006
 1155SOL    HW2 4365   2.387   4.497   5.901
 1156SOL     OW 4366   4.480   1.809   5.125
 1156SOL    HW1 4367   4.439   1.806   5.035
 1156SOL    HW2 4368   4.413   1.783   5.194
 1157SOL     OW 4369   5.486   1.399   6.165
 1157SOL    HW1 4370   5.487   1.305   6.197
 1157SOL    HW2 4371   5.463   1.460   6.241
 1158SOL     OW 4372   0.023   5.105   5.280
 1158SOL    HW1 4373   0.105   5.159   5.261
 1158SOL    HW2 4374   0.011   5.037   5.208
 1159SOL     OW 4375   6.627   6.930   3.509
 1159SOL    HW1 4376   6.632   6.961   3.604
 1159SOL    HW2 4377   6.582   7.001   3.454
 1160SOL     OW 4378   5.354   4.501   0.924
 1160SOL    HW1 4379   5.419   4.425   0.920
 1160SOL    HW2 4380   5.367   4.559   0.844
 1161SOL     OW 4381   6.251   5.785   5.734
 1161SOL    HW1 4382   6.188   5.712   5.706
 1161SOL    HW2 4383   6.269   5.778   5.832
 1162SOL     OW 4384   2.984   2.906   6.945
 1162SOL    HW1 4385   2.961   2.880   0.013
 1162SOL    HW2 4386   2.902   2.901   6.889
 1163SOL     OW 4387   6.611   3.792   1.810
 1163SOL    HW1 4388   6.674   3.863   1.779
 1163SOL    HW2 4389   6.663   3.720   1.856
 1164SOL     OW 4390   5.600   2.816   3.970
 1164SOL    HW1 4391   5.541   2.798   4.049
 1164SOL    HW2 4392   5.657   2.735   3.952
 1165SOL     OW 4393   3.846   5.157   3.734
 1165SOL    HW1 4394   3.797   5.071   3.751
 1165SOL    HW2 4395   3.908   5.145   3.656
 1166SOL     OW 4396   3.593   6.995   0.015
 1166SOL    HW1 4397   3.681   6.956   0.042
 1166SOL    HW2 4398   3.523   6.923   0.019
 1167SOL     OW 4399   4.020   6.663   0.380
 1167SOL    HW1 4400   4.044   6.640   0.286
 1167SOL    HW2 4401   4.073   6.606   0.443
 1168SOL     OW 4402   5.786   2.595   2.515
 1168SOL    HW1 4403   5.779   2.677   2.572
 1168SOL    HW2 4404   5.701   2.543   2.521
 1169SOL     OW 4405   4.607   2.775   5.868
 1169SOL    HW1 4406   4.681   2.744   5.808
 1169SOL    HW2 4407   4.613   2.726   5.955
 1170SOL     OW 4408   5.273   0.185   2.875
 1170SOL    HW1 4409   5.186   0.157   2.917
 1170SOL    HW2 4410   5.349   0.147   2.928
 1171SOL     OW 4411   2.328   6.332   6.907
 1171SOL    HW1 4412   2.376   6.299   6.826
 1171SOL    HW2 4413   2.390   6.388   6.962
 1172SOL     OW 4414   3.458   3.961   1.648
 1172SOL    HW1 4415   3.530   3.945   1.716
 1172SOL    HW2 4416   3.373   3.918   1.680
 1173SOL     OW 4417   3.336   1.493   0.537
 1173SOL    HW1 4418   3.408   1.434   0.573
 1173SOL    HW2 4419   3.331   1.577   0.590
 1174SOL     OW 4420   2.440   4.907   1.727
 1174SOL    HW1 4421   2.482   4.832   1.676
 1174SOL    HW2 4422   2.508   4.950   1.786
 1175SOL     OW 4423   4.101   4.845   6.462
 1175SOL    HW1 4424   4.136   4.782   6.531
 1175SOL    HW2 4425   4.039   4.796   6.400
 1176SOL     OW 4426   5.846   3.899   6.372
 1176SOL    HW1 4427   5.814   3.821   6.318
 1176SOL    HW2 4428   5.844   3.982   6.316
 1177SOL     OW 4429   0.074   3.486   4.752
 1177SOL    HW1 4430   0.034   3.578   4.752
 1177SOL    HW2 4431   0.105   3.463   4.660
 1178SOL     OW 4432   4.053   3.867   0.676
 1178SOL    HW1 4433   4.064   3.861   0.577
 1178SOL    HW2 4434   4.134   3.911   0.715
 1179SOL     OW 4435   2.030   6.401   0.997
 1179SOL    HW1 4436   1.990   6.492   1.004
 1179SOL    HW2 4437   2.129   6.409   0.979
 1180SOL     OW 4438   2.741   5.867   4.403
 1180SOL    HW1 4439   2.689   5.926   4.342
 1180SOL    HW2 4440   2.826   5.839   4.358
 1181SOL     OW 4441   7.015   4.535   5.379
 1181SOL    HW1 4442   6.960   4.452   5.366
 1181SOL    HW2 4443   6.998   4.572   5.470
 1182SOL     OW 4444   4.211   5.074   3.697
 1182SOL    HW1 4445   4.124   5.088   3.650
 1182SOL    HW2 4446   4.285   5.110   3.641
 1183SOL     OW 4447   3.021   4.319   1.643
 1183SOL    HW1 4448   2.995   4.378   1.720
 1183SOL    HW2 4449   3.007   4.369   1.557
 1184SOL     OW 4450   0.282   1.445   5.612
 1184SOL    HW1 4451   0.206   1.461   5.548
 1184SOL    HW2 4452   0.352   1.515   5.599
 1185SOL     OW 4453   1.191   0.905   0.589
 1185SOL    HW1 4454   1.094   0.929   0.581
 1185SOL    HW2 4455   1.216   0.842   0.514
 1186SOL     OW 4456   4.547   6.318   5.065
 1186SOL    HW1 4457   4.569   6.237   5.120
 1186SOL    HW2 4458   4.620   6.385   5.074
 1187SOL     OW 4459   5.118   0.243   4.918
 1187SOL    HW1 4460   5.021   0.264   4.925
 1187SOL    HW2 4461   5.156   0.285   4.836
 1188SOL     OW 4462   2.862   5.227   6.315
 1188SOL    HW1 4463   2.863   5.231   6.215
 1188SOL    HW2 4464   2.845   5.133   6.344
 1189SOL     OW 4465   6.181   2.110   1.691
 1189SOL    HW1 4466   6.266   2.161   1.681
 1189SOL    HW2 4467   6.104   2.174   1.692
 1190SOL     OW 4468   3.300   5.673   2.696
 1190SOL    HW1 4469   3.333   5.690   2.789
 1190SOL    HW2 4470   3.271   5.760   2.655
 1191SOL     OW 4471   4.351   5.171   4.474
 1191SOL    HW1 4472   4.269   5.210   4.433
 1191SOL    HW2 4473   4.431   5.199   4.421
 1192SOL     OW 4474   5.066   5.376   3.369
 1192SOL    HW1 4475   5.030   5.319   3.295
 1192SOL    HW2 4476   5.151   5.337   3.403
 1193SOL     OW 4477   0.415   2.434   5.823
 1193SOL    HW1 4478   0.475   2.513   5.835
 1193SOL    HW2 4479   0.330   2.449   5.873
 1194SOL     OW 4480   6.141   1.271   1.514
 1194SOL    HW1 4481   6.237   1.257   1.538
 1194SOL    HW2 4482   6.129   1.365   1.482
 1195SOL     OW 4483   6.782   3.597   0.193
 1195SOL    HW1 4484   6.848   3.659   0.235
 1195SOL    HW2 4485   6.703   3.587   0.254
 1196SOL     OW 4486   6.800   4.890   3.480
 1196SOL    HW1 4487   6.789   4.791   3.493
 1196SOL    HW2 4488   6.712   4.935   3.494
 1197SOL     OW 4489   4.474   6.639   4.778
 1197SOL    HW1 4490   4.411   6.611   4.851
 1197SOL    HW2 4491   4.459   6.581   4.698
 1198SOL     OW 4492   1.854   3.547   2.640
 1198SOL    HW1 4493   1.782   3.521   2.704
 1198SOL    HW2 4494   1.934   3.488   2.653
 1199SOL     OW 4495   3.543   3.786   2.571
 1199SOL    HW1 4496   3.475   3.750   2.636
 1199SOL    HW2 4497   3.504   3.786   2.479
 1200SOL     OW 4498   3.207   4.127   4.977
 1200SOL    HW1 4499   3.110   4.135   4.953
 1200SOL    HW2 4500   3.216   4.134   5.077
 1201SOL     OW 4501   0.989   1.197   4.089
 1201SOL    HW1 4502   0.941   1.118   4.127
 1201SOL    HW2 4503   0.928   1.276   4.089
 1202SOL     OW 4504   6.981   5.532   5.413
 1202SOL    HW1 4505   6.899   5.486   5.448
 1202SOL    HW2 4506   6.962   5.629   5.398
 1203SOL     OW 4507   0.340   5.215   0.625
 1203SOL    HW1 4508   0.403   5.267   0.683
 1203SOL    HW2 4509   0.333   5.259   0.536
 1204SOL     OW 4510   4.840   1.426   1.089
 1204SOL    HW1 4511   4.823   1.521   1.062
 1204SOL    HW2 4512   4.787   1.404   1.171
 1205SOL     OW 4513   3.923   3.248   0.654
 1205SOL    HW1 4514   3.869   3.326   0.687
 1205SOL    HW2 4515   4.014   3.279   0.629
 1206SOL     OW 4516   2.612   2.769   5.525
 1206SOL    HW1 4517   2.548   2.830   5.572
 1206SOL    HW2 4518   2.573   2.741   5.437
 1207SOL     OW 4519   1.220   0.074   1.108
 1207SOL    HW1 4520   1.168   0.159   1.107
 1207SOL    HW2 4521   1.227   0.038   1.015
 1208SOL     OW 4522   3.673   3.597   1.481
 1208SOL    HW1 4523   3.725   3.575   1.564
 1208SOL    HW2 4524   3.677   3.520   1.417
 1209SOL     OW 4525   5.035   0.307   3.717
 1209SOL    HW1 4526   4.945   0.266   3.716
 1209SOL    HW2 4527   5.054   0.346   3.807
 1210SOL     OW 4528   4.320   6.928   3.758
 1210SOL    HW1 4529   4.350   6.945   3.664
 1210SOL    HW2 4530   4.225   6.955   3.768
 1211SOL     OW 4531   1.249   2.907   3.053
 1211SOL    HW1 4532   1.197   2.965   2.991
 1211SOL    HW2 4533   1.318   2.857   3.000
 1212SOL     OW 4534   6.635   0.334   6.115
 1212SOL    HW1 4535   6.633   0.425   6.073
 1212SOL    HW2 4536   6.710   0.330   6.181
 1213SOL     OW 4537   6.321   2.855   1.259
 1213SOL    HW1 4538   6.241   2.809   1.297
 1213SOL    HW2 4539   6.370   2.792   1.198
 1214SOL     OW 4540   0.966   3.528   7.002
 1214SOL    HW1 4541   0.881   3.559   6.960
 1214SOL    HW2 4542   0.979   3.430   6.986
 1215SOL     OW 4543   0.322   4.548   3.416
 1215SOL    HW1 4544   0.232   4.587   3.399
 1215SOL    HW2 4545   0.366   4.525   3.330
 1216SOL     OW 4546   5.226   0.477   0.646
 1216SOL    HW1 4547   5.230   0.575   0.667
 1216SOL    HW2 4548   5.308   0.432   0.682
 1217SOL     OW 4549   2.675   4.277   1.038
 1217SOL    HW1 4550   2.718   4.255   1.126
 1217SOL    HW2 4551   2.674   4.376   1.025
 1218SOL     OW 4552   1.214   3.076   5.027
 1218SOL    HW1 4553   1.271   3.023   4.965
 1218SOL    HW2 4554   1.270   3.148   5.070
 1219SOL     OW 4555   5.708   6.087   1.823
 1219SOL    HW1 4556   5.730   6.142   1.903
 1219SOL    HW2 4557   5.746   5.996   1.833
 1220SOL     OW 4558   0.961   4.789   2.953
 1220SOL    HW1 4559   0.929   4.767   2.861
 1220SOL    HW2 4560   0.888   4.774   3.019
 1221SOL     OW 4561   4.408   4.320   6.313
 1221SOL    HW1 4562   4.373   4.333   6.220
 1221SOL    HW2 4563   4.501   4.357   6.319
 1222SOL     OW 4564   6.553   1.295   6.556
 1222SOL    HW1 4565   6.523   1.234   6.484
 1222SOL    HW2 4566   6.636   1.259   6.598
 1223SOL     OW 4567   4.024   1.852   0.591
 1223SOL    HW1 4568   3.929   1.826   0.577
 1223SOL    HW2 4569   4.069   1.783   0.648
 1224SOL     OW 4570   3.759   5.994   0.460
 1224SOL    HW1 4571   3.677   6.029   0.416
 1224SOL    HW2 4572   3.734   5.920   0.523
 1225SOL     OW 4573   3.255   3.196   6.631
 1225SOL    HW1 4574   3.228   3.178   6.536
 1225SOL    HW2 4575   3.180   3.173   6.693
 1226SOL     OW 4576   2.678   6.733   1.429
 1226SOL    HW1 4577   2.723   6.786   1.358
 1226SOL    HW2 4578   2.734   6.654   1.453
 1227SOL     OW 4579   5.557   4.627   6.198
 1227SOL    HW1 4580   5.480   4.690   6.200
 1227SOL    HW2 4581   5.572   4.595   6.105
 1228SOL     OW 4582   2.796   2.062   6.142
 1228SOL    HW1 4583   2.869   2.010   6.097
 1228SOL    HW2 4584   2.724   2.082   6.075
 1229SOL     OW 4585   3.378   5.372   6.017
 1229SOL    HW1 4586   3.323   5.455   6.026
 1229SOL    HW2 4587   3.346   5.319   5.938
 1230SOL     OW 4588   4.886   6.703   2.237
 1230SOL    HW1 4589   4.908   6.734   2.144
 1230SOL    HW2 4590   4.922   6.768   2.304
 1231SOL     OW 4591   1.916   1.997   4.939
 1231SOL    HW1 4592   1.987   2.007   5.009
 1231SOL    HW2 4593   1.842   2.061   4.959
 1232SOL     OW 4594   0.441   2.383   5.552
 1232SOL    HW1 4595   0.453   2.452   5.480
 1232SOL    HW2 4596   0.462   2.424   5.641
 1233SOL     OW 4597   0.881   5.101   5.139
 1233SOL    HW1 4598   0.905   5.086   5.235
 1233SOL    HW2 4599   0.876   5.012   5.092
 1234SOL     OW 4600   6.403   2.814   5.854
 1234SOL    HW1 4601   6.306   2.838   5.859
 1234SOL    HW2 4602   6.435   2.823   5.760
 1235SOL     OW 4603   6.055   5.183   3.023
 1235SOL    HW1 4604   6.149   5.209   3.045
 1235SOL    HW2 4605   6.016   5.251   2.960
 1236SOL     OW 4606   4.819   1.160   6.625
 1236SOL    HW1 4607   4.733   1.109   6.623
 1236SOL    HW2 4608   4.852   1.167   6.719
 1237SOL     OW 4609   2.447   4.443   6.242
 1237SOL    HW1 4610   2.423   4.462   6.146
 1237SOL    HW2 4611   2.505   4.516   6.277
 1238SOL     OW 4612   1.195   1.155   0.981
 1238SOL    HW1 4613   1.119   1.181   0.921
 1238SOL    HW2 4614   1.276   1.137   0.925
 1239SOL     OW 4615   6.854   6.267   6.529
 1239SOL    HW1 4616   6.847   6.223   6.619
 1239SOL    HW2 4617   6.762   6.292   6.497
 1240SOL     OW 4618   5.372   6.298   1.121
 1240SOL    HW1 4619   5.430   6.223   1.152
 1240SOL    HW2 4620   5.333   6.276   1.031
 1241SOL     OW 4621   5.265   3.117   4.006
 1241SOL    HW1 4622   5.336   3.132   4.074
 1241SOL    HW2 4623   5.226   3.025   4.018
 1242SOL     OW 4624   0.829   3.760   1.681
 1242SOL    HW1 4625   0.782   3.797   1.600
 1242SOL    HW2 4626   0.922   3.796   1.684
 1243SOL     OW 4627   0.018   6.807   5.100
 1243SOL    HW1 4628   0.114   6.828   5.121
 1243SOL    HW2 4629   0.000   6.829   5.004
 1244SOL     OW 4630   5.871   6.948   4.898
 1244SOL    HW1 4631   5.789   6.987   4.855
 1244SOL    HW2 4632   5.873   6.850   4.882
 1245SOL     OW 4633   5.617   4.653   0.665
 1245SOL    HW1 4634   5.518   4.645   0.678
 1245SOL    HW2 4635   5.651   4.570   0.620
 1246SOL     OW 4636   2.802   0.360   0.977
 1246SOL    HW1 4637   2.855   0.322   1.052
 1246SOL    HW2 4638   2.711   0.319   0.977
 1247SOL     OW 4639   0.854   6.468   6.195
 1247SOL    HW1 4640   0.906   6.478   6.110
 1247SOL    HW2 4641   0.788   6.394   6.184
 1248SOL     OW 4642   1.869   0.057   4.803
 1248SOL    HW1 4643   1.851   6.995   4.846
 1248SOL    HW2 4644   1.964   0.059   4.770
 1249SOL     OW 4645   6.253   1.974   2.693
 1249SOL    HW1 4646   6.239   2.073   2.696
 1249SOL    HW2 4647   6.217   1.938   2.606
 1250SOL     OW 4648   5.961   5.295   3.918
 1250SOL    HW1 4649   5.921   5.376   3.959
 1250SOL    HW2 4650   6.046   5.271   3.966
 1251SOL     OW 4651   2.691   0.645   3.534
 1251SOL    HW1 4652   2.736   0.568   3.580
 1251SOL    HW2 4653   2.701   0.728   3.589
 1252SOL     OW 4654   4.624   3.344   6.535
 1252SOL    HW1 4655   4.557   3.273   6.511
 1252SOL    HW2 4656   4.660   3.325   6.626
 1253SOL     OW 4657   2.970   6.063   2.686
 1253SOL    HW1 4658   2.888   6.119   2.675
 1253SOL    HW2 4659   2.946   5.977   2.731
 1254SOL     OW 4660   1.158   3.027   2.464
 1254SOL    HW1 4661   1.132   3.098   2.399
 1254SOL    HW2 4662   1.097   3.031   2.544
 1255SOL     OW 4663   5.921   1.584   5.501
 1255SOL    HW1 4664   5.964   1.525   5.433
 1255SOL    HW2 4665   5.938   1.548   5.592
 1256SOL     OW 4666   0.045   6.592   3.176
 1256SOL    HW1 4667   7.010   6.527   3.131
 1256SOL    HW2 4668   0.138   6.557   3.174
 1257SOL     OW 4669   6.681   6.426   5.279
 1257SOL    HW1 4670   6.596   6.374   5.290
 1257SOL    HW2 4671   6.727   6.397   5.195
 1258SOL     OW 4672   1.991   5.279   2.684
 1258SOL    HW1 4673   1.920   5.239   2.627
 1258SOL    HW2 4674   2.080   5.242   2.657
 1259SOL     OW 4675   4.272   0.436   3.980
 1259SOL    HW1 4676   4.195   0.394   4.026
 1259SOL    HW2 4677   4.251   0.531   3.958
 1260SOL     OW 4678   1.762   1.568   0.655
 1260SOL    HW1 4679   1.765   1.579   0.755
 1260SOL    HW2 4680   1.850   1.596   0.616
 1261SOL     OW 4681   6.708   5.865   6.604
 1261SOL    HW1 4682   6.721   5.766   6.612
 1261SOL    HW2 4683   6.671   5.886   6.513
 1262SOL     OW 4684   5.436   4.515   1.193
 1262SOL    HW1 4685   5.395   4.486   1.107
 1262SOL    HW2 4686   5.421   4.613   1.205
 1263SOL     OW 4687   0.082   2.722   1.844
 1263SOL    HW1 4688   7.021   2.689   1.880
 1263SOL    HW2 4689   0.072   2.818   1.816
 1264SOL     OW 4690   6.583   4.793   0.719
 1264SOL    HW1 4691   6.556   4.887   0.699
 1264SOL    HW2 4692   6.524   4.756   0.791
 1265SOL     OW 4693   5.716   5.412   4.544
 1265SOL    HW1 4694   5.652   5.489   4.547
 1265SOL    HW2 4695   5.737   5.390   4.449
 1266SOL     OW 4696   0.772   1.538   4.306
 1266SOL    HW1 4697   0.814   1.591   4.379
 1266SOL    HW2 4698   0.730   1.456   4.345
 1267SOL     OW 4699   4.795   0.280   1.276
 1267SOL    HW1 4700   4.751   0.204   1.324
 1267SOL    HW2 4701   4.731   0.318   1.209
 1268SOL     OW 4702   2.483   2.555   0.731
 1268SOL    HW1 4703   2.469   2.456   0.740
 1268SOL    HW2 4704   2.542   2.587   0.805
 1269SOL     OW 4705   5.758   4.123   4.620
 1269SOL    HW1 4706   5.747   4.033   4.662
 1269SOL    HW2 4707   5.797   4.114   4.529
 1270SOL     OW 4708   1.282   3.360   3.767
 1270SOL    HW1 4709   1.302   3.453   3.798
 1270SOL    HW2 4710   1.357   3.327   3.709
 1271SOL     OW 4711   2.646   2.000   3.034
 1271SOL    HW1 4712   2.641   1.906   3.000
 1271SOL    HW2 4713   2.733   2.013   3.082
 1272SOL     OW 4714   5.921   4.029   0.259
 1272SOL    HW1 4715   5.949   4.122   0.239
 1272SOL    HW2 4716   5.822   4.020   0.246
 1273SOL     OW 4717   0.512   2.967   6.994
 1273SOL    HW1 4718   0.519   2.895   0.037
 1273SOL    HW2 4719   0.537   3.054   0.008
 1274SOL     OW 4720   0.038   4.751   1.562
 1274SOL    HW1 4721   0.048   4.784   1.656
 1274SOL    HW2 4722   0.030   4.651   1.563
 1275SOL     OW 4723   3.857   1.314   4.376
 1275SOL    HW1 4724   3.904   1.240   4.424
 1275SOL    HW2 4725   3.924   1.383   4.348
 1276SOL     OW 4726   6.549   5.128   5.417
 1276SOL    HW1 4727   6.580   5.033   5.413
 1276SOL    HW2 4728   6.627   5.188   5.433
 1277SOL     OW 4729   1.518   5.510   5.924
 1277SOL    HW1 4730   1.556   5.440   5.863
 1277SOL    HW2 4731   1.586   5.581   5.941
 1278SOL     OW 4732   1.033   6.817   5.379
 1278SOL    HW1 4733   1.094   6.738   5.369
 1278SOL    HW2 4734   1.079   6.886   5.434
 1279SOL     OW 4735   2.209   4.643   0.445
 1279SOL    HW1 4736   2.234   4.555   0.486
 1279SOL    HW2 4737   2.283   4.675   0.386
 1280SOL     OW 4738   4.402   6.210   4.257
 1280SOL    HW1 4739   4.499   6.208   4.231
 1280SOL    HW2 4740   4.390   6.162   4.344
 1281SOL     OW 4741   2.433   6.450   3.250
 1281SOL    HW1 4742   2.464   6.462   3.344
 1281SOL    HW2 4743   2.498   6.492   3.187
 1282SOL     OW 4744   6.681   2.453   0.365
 1282SOL    HW1 4745   6.702   2.355   0.378
 1282SOL    HW2 4746   6.637   2.488   0.448
 1283SOL     OW 4747   6.380   3.853   5.540
 1283SOL    HW1 4748   6.293   3.883   5.579
 1283SOL    HW2 4749   6.363   3.784   5.470
 1284SOL     OW 4750   4.761   1.709   1.756
 1284SOL    HW1 4751   4.796   1.669   1.671
 1284SOL    HW2 4752   4.792   1.653   1.833
 1285SOL     OW 4753   4.258   1.804   6.083
 1285SOL    HW1 4754   4.178   1.864   6.090
 1285SOL    HW2 4755   4.248   1.727   6.146
 1286SOL     OW 4756   4.400   3.920   1.528
 1286SOL    HW1 4757   4.423   3.829   1.563
 1286SOL    HW2 4758   4.359   3.974   1.601
 1287SOL     OW 4759   5.463   4.897   4.932
 1287SOL    HW1 4760   5.418   4.982   4.957
 1287SOL    HW2 4761   5.562   4.908   4.941
 1288SOL     OW 4762   3.790   3.351   6.701
 1288SOL    HW1 4763   3.698   3.330   6.670
 1288SOL    HW2 4764   3.848   3.270   6.692
 1289SOL     OW 4765   6.793   6.730   0.865
 1289SOL    HW1 4766   6.702   6.754   0.830
 1289SOL    HW2 4767   6.827   6.651   0.814
 1290SOL     OW 4768   1.062   6.488   0.183
 1290SOL    HW1 4769   1.024   6.483   0.275
 1290SOL    HW2 4770   1.087   6.395   0.152
 1291SOL     OW 4771   0.744   4.294   3.924
 1291SOL    HW1 4772   0.660   4.252   3.957
 1291SOL    HW2 4773   0.821   4.232   3.938
 1292SOL     OW 4774   0.224   6.081   2.265
 1292SOL    HW1 4775   0.207   6.170   2.308
 1292SOL    HW2 4776   0.321   6.058   2.273
 1293SOL     OW 4777   1.795   2.454   0.279
 1293SOL    HW1 4778   1.724   2.483   0.215
 1293SOL    HW2 4779   1.753   2.417   0.362
 1294SOL     OW 4780   0.670   3.570   6.055
 1294SOL    HW1 4781   0.638   3.587   5.962
 1294SOL    HW2 4782   0.639   3.480   6.085
 1295SOL     OW 4783   0.539   3.604   1.488
 1295SOL    HW1 4784   0.587   3.517   1.483
 1295SOL    HW2 4785   0.477   3.613   1.411
 1296SOL     OW 4786   3.555   6.618   5.149
 1296SOL    HW1 4787   3.559   6.558   5.229
 1296SOL    HW2 4788   3.583   6.710   5.176
 1297SOL     OW 4789   0.036   0.109   1.441
 1297SOL    HW1 4790   0.020   0.190   1.497
 1297SOL    HW2 4791   0.133   0.102   1.418
 1298SOL     OW 4792   5.420   5.815   3.633
 1298SOL    HW1 4793   5.404   5.721   3.603
 1298SOL    HW2 4794   5.355   5.839   3.706
 1299SOL     OW 4795   2.167   2.877   3.634
 1299SOL    HW1 4796   2.117   2.960   3.659
 1299SOL    HW2 4797   2.264   2.887   3.660
 1300SOL     OW 4798   1.338   3.116   0.691
 1300SOL    HW1 4799   1.295   3.080   0.608
 1300SOL    HW2 4800   1.400   3.046   0.729
 1301SOL     OW 4801   0.222   6.532   1.042
 1301SOL    HW1 4802   0.244   6.520   0.945
 1301SOL    HW2 4803   0.219   6.443   1.087
 1302SOL     OW 4804   4.634   6.686   5.465
 1302SOL    HW1 4805   4.696   6.615   5.500
 1302SOL    HW2 4806   4.542   6.647   5.455
 1303SOL     OW 4807   3.725   2.108   1.718
 1303SOL    HW1 4808   3.814   2.064   1.703
 1303SOL    HW2 4809   3.738   2.187   1.779
 1304SOL     OW 4810   1.588   0.617   0.249
 1304SOL    HW1 4811   1.647   0.601   0.328
 1304SOL    HW2 4812   1.564   0.714   0.244
 1305SOL     OW 4813   5.494   3.302   0.554
 1305SOL    HW1 4814   5.592   3.285   0.566
 1305SOL    HW2 4815   5.447   3.288   0.641
 1306SOL     OW 4816   1.169   5.395   4.026
 1306SOL    HW1 4817   1.085   5.424   4.071
 1306SOL    HW2 4818   1.150   5.380   3.929
 1307SOL     OW 4819   1.650   4.624   3.931
 1307SOL    HW1 4820   1.724   4.685   3.903
 1307SOL    HW2 4821   1.564   4.656   3.891
 1308SOL     OW 4822   6.494   0.156   5.548
 1308SOL    HW1 4823   6.472   0.074   5.495
 1308SOL    HW2 4824   6.565   0.209   5.500
 1309SOL     OW 4825   5.730   4.913   5.037
 1309SOL    HW1 4826   5.723   5.000   5.087
 1309SOL    HW2 4827   5.797   4.854   5.082
 1310SOL     OW 4828   6.440   3.876   3.960
 1310SOL    HW1 4829   6.383   3.834   4.031
 1310SOL    HW2 4830   6.516   3.815   3.938
 1311SOL     OW 4831   6.807   5.321   5.715
 1311SOL    HW1 4832   6.834   5.269   5.634
 1311SOL    HW2 4833   6.733   5.384   5.692
 1312SOL     OW 4834   1.173   6.654   6.367
 1312SOL    HW1 4835   1.231   6.706   6.305
 1312SOL    HW2 4836   1.077   6.672   6.346
 1313SOL     OW 4837   0.357   4.761   2.763
 1313SOL    HW1 4838   0.411   4.705   2.825
 1313SOL    HW2 4839   0.410   4.780   2.681
 1314SOL     OW 4840   4.020   1.617   4.783
 1314SOL    HW1 4841   4.075   1.551   4.732
 1314SOL    HW2 4842   3.926   1.615   4.751
 1315SOL     OW 4843   0.404   1.825   2.776
 1315SOL    HW1 4844   0.305   1.833   2.779
 1315SOL    HW2 4845   0.443   1.851   2.865
 1316SOL     OW 4846   2.764   6.779   5.900
 1316SOL    HW1 4847   2.742   6.874   5.879
 1316SOL    HW2 4848   2.806   6.774   5.991
 1317SOL     OW 4849   2.047   4.348   5.728
 1317SOL    HW1 4850   2.012   4.260   5.695
 1317SOL    HW2 4851   2.048   4.414   5.653
 1318SOL     OW 4852   0.860   2.740   1.003
 1318SOL    HW1 4853   0.818   2.665   1.053
 1318SOL    HW2 4854   0.835   2.827   1.045
 1319SOL     OW 4855   6.836   6.037   0.593
 1319SOL    HW1 4856   6.870   6.016   0.685
 1319SOL    HW2 4857   6.882   5.978   0.526
 1320SOL     OW 4858   3.870   4.719   6.627
 1320SOL    HW1 4859   3.925   4.661   6.687
 1320SOL    HW2 4860   3.845   4.667   6.545
 1321SOL     OW 4861   5.664   2.372   6.545
 1321SOL    HW1 4862   5.654   2.275   6.522
 1321SOL    HW2 4863   5.624   2.390   6.635
 1322SOL     OW 4864   4.132   1.788   4.012
 1322SOL    HW1 4865   4.136   1.688   4.013
 1322SOL    HW2 4866   4.203   1.824   3.951
 1323SOL     OW 4867   4.170   0.146   6.126
 1323SOL    HW1 4868   4.142   0.108   6.214
 1323SOL    HW2 4869   4.126   0.096   6.052
 1324SOL     OW 4870   0.640   3.791   0.065
 1324SOL    HW1 4871   0.699   3.711   0.072
 1324SOL    HW2 4872   0.652   3.833   7.002
 1325SOL     OW 4873   2.590   6.435   4.215
 1325SOL    HW1 4874   2.530   6.368   4.259
 1325SOL    HW2 4875   2.648   6.389   4.148
 1326SOL     OW 4876   5.073   3.490   5.401
 1326SOL    HW1 4877   5.049   3.519   5.493
 1326SOL    HW2 4878   4.992   3.449   5.357
 1327SOL     OW 4879   1.198   6.325   1.009
 1327SOL    HW1 4880   1.135   6.379   1.066
 1327SOL    HW2 4881   1.278   6.299   1.064
 1328SOL     OW 4882   2.581   3.338   1.420
 1328SOL    HW1 4883   2.626   3.259   1.379
 1328SOL    HW2 4884   2.643   3.416   1.418
 1329SOL     OW 4885   0.691   2.279   2.179
 1329SOL    HW1 4886   0.678   2.190   2.222
 1329SOL    HW2 4887   0.747   2.268   2.097
 1330SOL     OW 4888   1.184   1.200   2.093
 1330SOL    HW1 4889   1.098   1.217   2.046
 1330SOL    HW2 4890   1.242   1.142   2.037
 1331SOL     OW 4891   4.898   3.245   2.699
 1331SOL    HW1 4892   4.909   3.341   2.673
 1331SOL    HW2 4893   4.894   3.188   2.617
 1332SOL     OW 4894   2.846   0.061   6.574
 1332SOL    HW1 4895   2.894   7.002   6.595
 1332SOL    HW2 4896   2.912   0.131   6.546
 1333SOL     OW 4897   3.360   3.566   3.922
 1333SOL    HW1 4898   3.446   3.518   3.937
 1333SOL    HW2 4899   3.368   3.661   3.954
 1334SOL     OW 4900   6.036   1.418   3.994
 1334SOL    HW1 4901   5.968   1.345   4.007
 1334SOL    HW2 4902   6.125   1.377   3.975
 1335SOL     OW 4903   2.226   2.043   2.243
 1335SOL    HW1 4904   2.284   2.105   2.296
 1335SOL    HW2 4905   2.279   2.004   2.168
 1336SOL     OW 4906   2.513   2.238   5.191
 1336SOL    HW1 4907   2.605   2.273   5.169
 1336SOL    HW2 4908   2.445   2.294   5.144
 1337SOL     OW 4909   1.315   1.217   3.112
 1337SOL    HW1 4910   1.412   1.208   3.138
 1337SOL    HW2 4911   1.284   1.130   3.073
 1338SOL     OW 4912   6.242   2.197   4.724
 1338SOL    HW1 4913   6.173   2.237   4.785
 1338SOL    HW2 4914   6.333   2.212   4.762
 1339SOL     OW 4915   6.039   2.152   6.502
 1339SOL    HW1 4916   6.132   2.183   6.481
 1339SOL    HW2 4917   5.980   2.168   6.423
 1340SOL     OW 4918   6.031   2.162   2.926
 1340SOL    HW1 4919   6.025   2.229   3.000
 1340SOL    HW2 4920   6.024   2.070   2.964
 1341SOL     OW 4921   4.906   6.619   6.739
 1341SOL    HW1 4922   4.836   6.655   6.800
 1341SOL    HW2 4923   4.863   6.580   6.657
 1342SOL     OW 4924   3.131   5.656   5.851
 1342SOL    HW1 4925   3.192   5.669   5.929
 1342SOL    HW2 4926   3.165   5.709   5.773
 1343SOL     OW 4927   5.300   5.690   2.219
 1343SOL    HW1 4928   5.212   5.648   2.194
 1343SOL    HW2 4929   5.345   5.633   2.288
 1344SOL     OW 4930   0.716   6.409   4.412
 1344SOL    HW1 4931   0.665   6.488   4.448
 1344SOL    HW2 4932   0.804   6.440   4.377
 1345SOL     OW 4933   0.753   6.200   3.332
 1345SOL    HW1 4934   0.762   6.108   3.371
 1345SOL    HW2 4935   0.838   6.225   3.285
 1346SOL     OW 4936   1.182   5.500   4.780
 1346SOL    HW1 4937   1.173   5.510   4.880
 1346SOL    HW2 4938   1.121   5.428   4.748
 1347SOL     OW 4939   0.051   6.287   5.918
 1347SOL    HW1 4940   0.126   6.285   5.983
 1347SOL    HW2 4941   0.029   6.382   5.894
 1348SOL     OW 4942   5.846   6.492   3.909
 1348SOL    HW1 4943   5.759   6.539   3.923
 1348SOL    HW2 4944   5.831   6.393   3.917
 1349SOL     OW 4945   5.057   3.040   5.619
 1349SOL    HW1 4946   4.992   2.975   5.658
 1349SOL    HW2 4947   5.125   2.990   5.566
 1350SOL     OW 4948   5.440   4.832   5.932
 1350SOL    HW1 4949   5.367   4.898   5.919
 1350SOL    HW2 4950   5.401   4.743   5.955
 1351SOL     OW 4951   5.822   1.841   2.966
 1351SOL    HW1 4952   5.836   1.743   2.982
 1351SOL    HW2 4953   5.769   1.854   2.882
 1352SOL     OW 4954   6.850   5.788   3.601
 1352SOL    HW1 4955   6.806   5.714   3.652
 1352SOL    HW2 4956   6.877   5.755   3.510
 1353SOL     OW 4957   0.433   2.826   0.399
 1353SOL    HW1 4958   0.443   2.784   0.489
 1353SOL    HW2 4959   0.522   2.862   0.370
 1354SOL     OW 4960   0.885   4.167   1.466
 1354SOL    HW1 4961   0.952   4.093   1.458
 1354SOL    HW2 4962   0.815   4.156   1.395
 1355SOL     OW 4963   5.491   2.506   4.176
 1355SOL    HW1 4964   5.493   2.418   4.223
 1355SOL    HW2 4965   5.409   2.556   4.203
 1356SOL     OW 4966   3.713   3.451   2.411
 1356SOL    HW1 4967   3.685   3.369   2.461
 1356SOL    HW2 4968   3.774   3.425   2.336
 1357SOL     OW 4969   0.549   4.002   6.225
 1357SOL    HW1 4970   0.544   4.042   6.316
 1357SOL    HW2 4971   0.606   4.059   6.166
 1358SOL     OW 4972   4.113   6.681   6.173
 1358SOL    HW1 4973   4.182   6.640   6.114
 1358SOL    HW2 4974   4.156   6.745   6.237
 1359SOL     OW 4975   5.890   4.975   2.499
 1359SOL    HW1 4976   5.905   4.884   2.536
 1359SOL    HW2 4977   5.873   5.040   2.573
 1360SOL     OW 4978   2.592   3.544   0.449
 1360SOL    HW1 4979   2.613   3.488   0.529
 1360SOL    HW2 4980   2.626   3.637   0.465
 1361SOL     OW 4981   6.164   4.659   5.725
 1361SOL    HW1 4982   6.235   4.591   5.742
 1361SOL    HW2 4983   6.134   4.653   5.630
 1362SOL     OW 4984   3.157   4.008   4.027
 1362SOL    HW1 4985   3.165   4.058   3.941
 1362SOL    HW2 4986   3.227   4.038   4.091
 1363SOL     OW 4987   6.476   5.077   3.199
 1363SOL    HW1 4988   6.434   4.991   3.227
 1363SOL    HW2 4989   6.568   5.060   3.163
 1364SOL     OW 4990   6.034   4.223   0.993
 1364SOL    HW1 4991   6.024   4.198   0.896
 1364SOL    HW2 4992   6.026   4.322   1.003
 1365SOL     OW 4993   0.836   4.519   5.921
 1365SOL    HW1 4994   0.932   4.495   5.929
 1365SOL    HW2 4995   0.790   4.454   5.860
 1366SOL     OW 4996   1.493   4.976   6.904
 1366SOL    HW1 4997   1.518   4.945   6.813
 1366SOL    HW2 4998   1.422   5.046   6.897
 1367SOL     OW 4999   1.447   0.100   3.444
 1367SOL    HW1 5000   1.410   0.058   3.527
 1367SOL    HW2 5001   1.462   0.030   3.375
 1368SOL     OW 5002   6.086   0.319   3.467
 1368SOL    HW1 5003   6.147   0.263   3.412
 1368SOL    HW2 5004   6.001   0.270   3.484
 1369SOL     OW 5005   2.596   6.893   1.645
 1369SOL    HW1 5006   2.634   6.869   1.555
 1369SOL    HW2 5007   2.657   6.860   1.717
 1370SOL     OW 5008   3.901   0.531   1.138
 1370SOL    HW1 5009   3.855   0.565   1.220
 1370SOL    HW2 5010   3.845   0.461   1.094
 1371SOL     OW 5011   6.047   1.836   4.232
 1371SOL    HW1 5012   6.090   1.923   4.257
 1371SOL    HW2 5013   5.963   1.824   4.286
 1372SOL     OW 5014   1.218   3.274   6.927
 1372SOL    HW1 5015   1.245   3.370   6.918
 1372SOL    HW2 5016   1.209   3.251   7.024
 1373SOL     OW 5017   5.567   3.557   0.230
 1373SOL    HW1 5018   5.548   3.619   0.154
 1373SOL    HW2 5019   5.505   3.479   0.225
 1374SOL     OW 5020   4.457   2.638   0.385
 1374SOL    HW1 5021   4.359   2.622   0.379
 1374SOL    HW2 5022   4.506   2.566   0.335
 1375SOL     OW 5023   0.264   3.994   6.491
 1375SOL    HW1 5024   0.204   3.956   6.420
 1375SOL    HW2 5025   0.260   3.936   6.573
 1376SOL     OW 5026   4.836   3.988   4.130
 1376SOL    HW1 5027   4.896   3.930   4.185
 1376SOL    HW2 5028   4.840   3.958   4.035
 1377SOL     OW 5029   6.837   3.839   5.767
 1377SOL    HW1 5030   6.740   3.846   5.746
 1377SOL    HW2 5031   6.849   3.780   5.847
 1378SOL     OW 5032   6.421   1.109   4.514
 1378SOL    HW1 5033   6.459   1.201   4.511
 1378SOL    HW2 5034   6.492   1.045   4.544
 1379SOL     OW 5035   3.356   0.074   2.530
 1379SOL    HW1 5036   3.341   0.142   2.601
 1379SOL    HW2 5037   3.445   0.031   2.543
 1380SOL     OW 5038   0.304   0.260   2.812
 1380SOL    HW1 5039   0.309   0.353   2.775
 1380SOL    HW2 5040   0.211   0.226   2.802
 1381SOL     OW 5041   5.513   2.294   6.821
 1381SOL    HW1 5042   5.584   2.240   6.865
 1381SOL    HW2 5043   5.505   2.382   6.867
 1382SOL     OW 5044   4.629   4.525   0.567
 1382SOL    HW1 5045   4.693   4.598   0.541
 1382SOL    HW2 5046   4.677   4.437   0.567
 1383SOL     OW 5047   0.693   0.128   0.684
 1383SOL    HW1 5048   0.605   0.090   0.712
 1383SOL    HW2 5049   0.758   0.053   0.667
 1384SOL     OW 5050   3.764   0.921   2.262
 1384SOL    HW1 5051   3.843   0.931   2.323
 1384SOL    HW2 5052   3.796   0.915   2.167
 1385SOL     OW 5053   0.987   3.189   2.630
 1385SOL    HW1 5054   0.916   3.218   2.695
 1385SOL    HW2 5055   0.956   3.208   2.537
 1386SOL     OW 5056   2.283   1.023   4.622
 1386SOL    HW1 5057   2.236   0.977   4.697
 1386SOL    HW2 5058   2.357   1.079   4.658
 1387SOL     OW 5059   3.984   6.309   3.338
 1387SOL    HW1 5060   4.061   6.253   3.308
 1387SOL    HW2 5061   3.917   6.317   3.263
 1388SOL     OW 5062   0.248   6.222   3.591
 1388SOL    HW1 5063   0.213   6.312   3.563
 1388SOL    HW2 5064   0.172   6.158   3.601
 1389SOL     OW 5065   0.639   1.357   3.924
 1389SOL    HW1 5066   0.701   1.401   3.988
 1389SOL    HW2 5067   0.680   1.354   3.833
 1390SOL     OW 5068   4.581   2.008   6.076
 1390SOL    HW1 5069   4.629   2.029   6.161
 1390SOL    HW2 5070   4.492   2.055   6.075
 1391SOL     OW 5071   6.642   0.566   5.502
 1391SOL    HW1 5072   6.680   0.514   5.579
 1391SOL    HW2 5073   6.553   0.603   5.528
 1392SOL     OW 5074   5.514   5.531   6.119
 1392SOL    HW1 5075   5.593   5.477   6.089
 1392SOL    HW2 5076   5.540   5.628   6.126
 1393SOL     OW 5077   5.476   3.163   6.713
 1393SOL    HW1 5078   5.432   3.079   6.744
 1393SOL    HW2 5079   5.575   3.154   6.718
 1394SOL     OW 5080   3.714   6.846   3.525
 1394SOL    HW1 5081   3.761   6.876   3.608
 1394SOL    HW2 5082   3.682   6.752   3.537
 1395SOL     OW 5083   1.545   3.987   3.266
 1395SOL    HW1 5084   1.619   3.923   3.286
 1395SOL    HW2 5085   1.467   3.967   3.325
 1396SOL     OW 5086   1.339   6.785   3.530
 1396SOL    HW1 5087   1.299   6.706   3.577
 1396SOL    HW2 5088   1.332   6.866   3.588
 1397SOL     OW 5089   0.608   6.612   4.547
 1397SOL    HW1 5090   0.542   6.682   4.520
 1397SOL    HW2 5091   0.645   6.635   4.637
 1398SOL     OW 5092   0.825   1.932   6.957
 1398SOL    HW1 5093   0.798   2.028   6.952
 1398SOL    HW2 5094   0.745   1.873   6.949
 1399SOL     OW 5095   4.444   0.310   0.332
 1399SOL    HW1 5096   4.419   0.215   0.313
 1399SOL    HW2 5097   4.533   0.314   0.376
 1400SOL     OW 5098   6.057   1.189   4.242
 1400SOL    HW1 5099   6.088   1.101   4.206
 1400SOL    HW2 5100   6.136   1.243   4.271
 1401SOL     OW 5101   6.132   6.828   4.437
 1401SOL    HW1 5102   6.170   6.810   4.346
 1401SOL    HW2 5103   6.047   6.778   4.448
 1402SOL     OW 5104   5.498   4.172   0.112
 1402SOL    HW1 5105   5.518   4.091   0.167
 1402SOL    HW2 5106   5.478   4.145   0.018
 1403SOL     OW 5107   2.320   2.274   1.190
 1403SOL    HW1 5108   2.255   2.350   1.198
 1403SOL    HW2 5109   2.340   2.239   1.282
 1404SOL     OW 5110   4.875   7.018   0.144
 1404SOL    HW1 5111   4.819   0.037   0.074
 1404SOL    HW2 5112   4.969   7.010   0.111
 1405SOL     OW 5113   2.457   3.644   0.125
 1405SOL    HW1 5114   2.512   3.561   0.122
 1405SOL    HW2 5115   2.394   3.640   0.203
 1406SOL     OW 5116   2.468   5.256   0.945
 1406SOL    HW1 5117   2.403   5.222   1.013
 1406SOL    HW2 5118   2.561   5.230   0.971
 1407SOL     OW 5119   1.711   3.780   3.345
 1407SOL    HW1 5120   1.778   3.799   3.417
 1407SOL    HW2 5121   1.688   3.682   3.346
 1408SOL     OW 5122   5.321   6.496   6.844
 1408SOL    HW1 5123   5.291   6.484   6.750
 1408SOL    HW2 5124   5.316   6.593   6.869
 1409SOL     OW 5125   0.118   1.184   5.287
 1409SOL    HW1 5126   0.084   1.092   5.305
 1409SOL    HW2 5127   0.214   1.180   5.260
 1410SOL     OW 5128   3.443   3.888   0.214
 1410SOL    HW1 5129   3.473   3.818   0.279
 1410SOL    HW2 5130   3.415   3.843   0.129
 1411SOL     OW 5131   3.648   5.981   6.247
 1411SOL    HW1 5132   3.578   6.024   6.303
 1411SOL    HW2 5133   3.714   6.049   6.217
 1412SOL     OW 5134   0.876   4.641   2.038
 1412SOL    HW1 5135   0.870   4.718   1.975
 1412SOL    HW2 5136   0.789   4.592   2.041
 1413SOL     OW 5137   1.827   1.806   4.462
 1413SOL    HW1 5138   1.784   1.857   4.537
 1413SOL    HW2 5139   1.757   1.761   4.407
 1414SOL     OW 5140   1.499   2.570   1.640
 1414SOL    HW1 5141   1.581   2.555   1.696
 1414SOL    HW2 5142   1.424   2.602   1.698
 1415SOL     OW 5143   2.994   2.073   4.302
 1415SOL    HW1 5144   3.050   2.102   4.379
 1415SOL    HW2 5145   3.012   2.131   4.223
 1416SOL     OW 5146   4.150   0.209   4.398
 1416SOL    HW1 5147   4.160   0.290   4.455
 1416SOL    HW2 5148   4.240   0.175   4.372
 1417SOL     OW 5149   3.403   3.052   6.193
 1417SOL    HW1 5150   3.490   3.102   6.193
 1417SOL    HW2 5151   3.331   3.111   6.155
 1418SOL     OW 5152   2.849   3.433   0.356
 1418SOL    HW1 5153   2.945   3.459   0.350
 1418SOL    HW2 5154   2.791   3.514   0.348
 1419SOL     OW 5155   1.794   5.449   4.367
 1419SOL    HW1 5156   1.815   5.506   4.446
 1419SOL    HW2 5157   1.832   5.491   4.285
 1420SOL     OW 5158   4.005   5.430   2.407
 1420SOL    HW1 5159   3.944   5.499   2.446
 1420SOL    HW2 5160   3.973   5.339   2.433
 1421SOL     OW 5161   1.435   4.644   4.316
 1421SOL    HW1 5162   1.499   4.718   4.294
 1421SOL    HW2 5163   1.484   4.557   4.317
 1422SOL     OW 5164   2.843   4.461   5.465
 1422SOL    HW1 5165   2.803   4.548   5.495
 1422SOL    HW2 5166   2.869   4.468   5.368
 1423SOL     OW 5167   4.103   1.823   4.952
 1423SOL    HW1 5168   4.068   1.811   5.045
 1423SOL    HW2 5169   4.084   1.742   4.898
 1424SOL     OW 5170   6.150   3.419   0.360
 1424SOL    HW1 5171   6.143   3.448   0.455
 1424SOL    HW2 5172   6.098   3.482   0.301
 1425SOL     OW 5173   2.463   6.014   4.676
 1425SOL    HW1 5174   2.538   6.052   4.621
 1425SOL    HW2 5175   2.439   5.923   4.641
 1426SOL     OW 5176   1.857   2.081   6.089
 1426SOL    HW1 5177   1.907   2.036   6.015
 1426SOL    HW2 5178   1.894   2.173   6.103
 1427SOL     OW 5179   0.259   0.861   3.641
 1427SOL    HW1 5180   0.212   0.796   3.582
 1427SOL    HW2 5181   0.358   0.843   3.639
 1428SOL     OW 5182   6.925   2.450   1.736
 1428SOL    HW1 5183   6.897   2.401   1.819
 1428SOL    HW2 5184   6.845   2.490   1.692
 1429SOL     OW 5185   5.404   1.923   0.014
 1429SOL    HW1 5186   5.456   1.987   0.071
 1429SOL    HW2 5187   5.353   1.860   0.073
 1430SOL     OW 5188   2.160   3.929   4.711
 1430SOL    HW1 5189   2.244   3.889   4.673
 1430SOL    HW2 5190   2.082   3.905   4.653
 1431SOL     OW 5191   2.478   2.351   6.518
 1431SOL    HW1 5192   2.391   2.400   6.520
 1431SOL    HW2 5193   2.481   2.284   6.592
 1432SOL     OW 5194   2.199   1.058   1.836
 1432SOL    HW1 5195   2.208   0.968   1.794
 1432SOL    HW2 5196   2.170   1.048   1.931
 1433SOL     OW 5197   3.315   6.648   3.826
 1433SOL    HW1 5198   3.225   6.658   3.870
 1433SOL    HW2 5199   3.351   6.557   3.846
 1434SOL     OW 5200   6.718   1.671   6.384
 1434SOL    HW1 5201   6.771   1.752   6.408
 1434SOL    HW2 5202   6.636   1.667   6.442
 1435SOL     OW 5203   6.894   0.832   3.882
 1435SOL    HW1 5204   6.937   0.872   3.963
 1435SOL    HW2 5205   6.815   0.888   3.855
 1436SOL     OW 5206   6.111   3.336   0.843
 1436SOL    HW1 5207   6.102   3.426   0.886
 1436SOL    HW2 5208   6.158   3.274   0.907
 1437SOL     OW 5209   3.482   0.952   5.275
 1437SOL    HW1 5210   3.570   0.939   5.229
 1437SOL    HW2 5211   3.475   1.047   5.306
 1438SOL     OW 5212   3.159   0.910   1.634
 1438SOL    HW1 5213   3.176   0.821   1.675
 1438SOL    HW2 5214   3.210   0.980   1.683
 1439SOL     OW 5215   0.515   5.374   0.727
 1439SOL    HW1 5216   0.508   5.466   0.766
 1439SOL    HW2 5217   0.598   5.367   0.672
 1440SOL     OW 5218   3.757   3.522   4.844
 1440SOL    HW1 5219   3.791   3.576   4.921
 1440SOL    HW2 5220   3.658   3.513   4.850
 1441SOL     OW 5221   6.422   3.304   3.798
 1441SOL    HW1 5222   6.485   3.279   3.725
 1441SOL    HW2 5223   6.373   3.223   3.829
 1442SOL     OW 5224   6.309   4.609   0.508
 1442SOL    HW1 5225   6.395   4.562   0.527
 1442SOL    HW2 5226   6.257   4.618   0.593
 1443SOL     OW 5227   1.210   1.964   4.260
 1443SOL    HW1 5228   1.265   2.027   4.315
 1443SOL    HW2 5229   1.175   1.891   4.318
 1444SOL     OW 5230   4.520   6.367   1.341
 1444SOL    HW1 5231   4.447   6.314   1.385
 1444SOL    HW2 5232   4.493   6.464   1.337
 1445SOL     OW 5233   0.626   2.739   2.335
 1445SOL    HW1 5234   0.583   2.649   2.333
 1445SOL    HW2 5235   0.614   2.784   2.247
 1446SOL     OW 5236   5.371   2.807   6.547
 1446SOL    HW1 5237   5.420   2.818   6.634
 1446SOL    HW2 5238   5.273   2.805   6.564
 1447SOL     OW 5239   6.481   0.160   4.885
 1447SOL    HW1 5240   6.392   0.174   4.843
 1447SOL    HW2 5241   6.536   0.098   4.829
 1448SOL     OW 5242   5.613   1.985   0.196
 1448SOL    HW1 5243   5.686   1.954   0.134
 1448SOL    HW2 5244   5.581   1.908   0.251
 1449SOL     OW 5245   6.365   6.859   6.774
 1449SOL    HW1 5246   6.301   6.799   6.727
 1449SOL    HW2 5247   6.456   6.850   6.733
 1450SOL     OW 5248   0.161   2.433   2.323
 1450SOL    HW1 5249   0.096   2.418   2.397
 1450SOL    HW2 5250   0.153   2.528   2.290
 1451SOL     OW 5251   3.212   0.789   2.791
 1451SOL    HW1 5252   3.303   0.809   2.827
 1451SOL    HW2 5253   3.212   0.804   2.692
 1452SOL     OW 5254   5.287   2.161   4.491
 1452SOL    HW1 5255   5.297   2.085   4.554
 1452SOL    HW2 5256   5.233   2.233   4.534
 1453SOL     OW 5257   6.061   3.700   5.389
 1453SOL    HW1 5258   6.020   3.764   5.324
 1453SOL    HW2 5259   6.095   3.620   5.340
 1454SOL     OW 5260   6.315   2.830   2.023
 1454SOL    HW1 5261   6.344   2.925   2.032
 1454SOL    HW2 5262   6.363   2.788   1.946
 1455SOL     OW 5263   1.690   0.369   1.781
 1455SOL    HW1 5264   1.753   0.351   1.706
 1455SOL    HW2 5265   1.724   0.445   1.837
 1456SOL     OW 5266   6.451   6.663   5.503
 1456SOL    HW1 5267   6.412   6.726   5.571
 1456SOL    HW2 5268   6.474   6.577   5.547
 1457SOL     OW 5269   1.417   0.318   1.698
 1457SOL    HW1 5270   1.400   0.255   1.622
 1457SOL    HW2 5271   1.514   0.317   1.722
 1458SOL     OW 5272   4.862   6.466   4.151
 1458SOL    HW1 5273   4.866   6.539   4.219
 1458SOL    HW2 5274   4.885   6.502   4.061
 1459SOL     OW 5275   3.019   4.081   6.340
 1459SOL    HW1 5276   3.090   4.096   6.409
 1459SOL    HW2 5277   2.939   4.138   6.361
 1460SOL     OW 5278   0.221   5.389   6.021
 1460SOL    HW1 5279   0.191   5.300   6.057
 1460SOL    HW2 5280   0.321   5.392   6.021
 1461SOL     OW 5281   0.054   4.626   3.343
 1461SOL    HW1 5282   0.025   4.720   3.360
 1461SOL    HW2 5283   6.999   4.568   3.329
 1462SOL     OW 5284   6.468   1.172   6.324
 1462SOL    HW1 5285   6.401   1.179   6.250
 1462SOL    HW2 5286   6.560   1.192   6.289
 1463SOL     OW 5287   7.002   5.870   6.368
 1463SOL    HW1 5288   0.075   5.855   6.371
 1463SOL    HW2 5289   6.965   5.870   6.461
 1464SOL     OW 5290   6.508   6.687   0.812
 1464SOL    HW1 5291   6.503   6.603   0.865
 1464SOL    HW2 5292   6.503   6.766   0.874
 1465SOL     OW 5293   1.463   1.729   2.653
 1465SOL    HW1 5294   1.388   1.664   2.667
 1465SOL    HW2 5295   1.536   1.685   2.600
 1466SOL     OW 5296   1.006   0.086   3.128
 1466SOL    HW1 5297   1.091   0.137   3.113
 1466SOL    HW2 5298   0.988   0.079   3.226
 1467SOL     OW 5299   2.336   0.432   2.147
 1467SOL    HW1 5300   2.403   0.427   2.073
 1467SOL    HW2 5301   2.381   0.460   2.232
 1468SOL     OW 5302   5.381   5.888   2.676
 1468SOL    HW1 5303   5.342   5.977   2.652
 1468SOL    HW2 5304   5.318   5.839   2.736
 1469SOL     OW 5305   0.912   0.297   2.824
 1469SOL    HW1 5306   0.922   0.234   2.901
 1469SOL    HW2 5307   0.857   0.253   2.753
 1470SOL     OW 5308   1.403   0.879   2.431
 1470SOL    HW1 5309   1.389   0.816   2.506
 1470SOL    HW2 5310   1.318   0.891   2.380
 1471SOL     OW 5311   0.741   0.951   0.240
 1471SOL    HW1 5312   0.667   0.901   0.194
 1471SOL    HW2 5313   0.757   1.037   0.193
 1472SOL     OW 5314   4.360   5.660   4.546
 1472SOL    HW1 5315   4.298   5.692   4.617
 1472SOL    HW2 5316   4.408   5.578   4.577
 1473SOL     OW 5317   5.587   6.602   3.927
 1473SOL    HW1 5318   5.558   6.697   3.916
 1473SOL    HW2 5319   5.514   6.541   3.894
 1474SOL     OW 5320   6.658   5.931   3.930
 1474SOL    HW1 5321   6.690   5.991   3.857
 1474SOL    HW2 5322   6.715   5.943   4.011
 1475SOL     OW 5323   6.926   0.478   1.305
 1475SOL    HW1 5324   6.964   0.390   1.332
 1475SOL    HW2 5325   6.977   0.515   1.228
 1476SOL     OW 5326   1.157   1.234   1.233
 1476SOL    HW1 5327   1.185   1.219   1.139
 1476SOL    HW2 5328   1.132   1.147   1.275
 1477SOL     OW 5329   2.452   0.450   6.742
 1477SOL    HW1 5330   2.410   0.538   6.724
 1477SOL    HW2 5331   2.459   0.398   6.657
 1478SOL     OW 5332   5.325   4.312   0.635
 1478SOL    HW1 5333   5.323   4.214   0.654
 1478SOL    HW2 5334   5.413   4.336   0.595
 1479SOL     OW 5335   1.580   3.635   6.797
 1479SOL    HW1 5336   1.603   3.565   6.728
 1479SOL    HW2 5337   1.651   3.705   6.799
 1480SOL     OW 5338   2.529   0.190   0.165
 1480SOL    HW1 5339   2.481   0.246   0.233
 1480SOL    HW2 5340   2.608   0.240   0.130
 1481SOL     OW 5341   6.624   1.694   4.773
 1481SOL    HW1 5342   6.555   1.713   4.703
 1481SOL    HW2 5343   6.684   1.773   4.782
 1482SOL     OW 5344   5.383   1.987   1.035
 1482SOL    HW1 5345   5.311   1.939   0.984
 1482SOL    HW2 5346   5.451   2.023   0.971
 1483SOL     OW 5347   0.191   2.843   6.248
 1483SOL    HW1 5348   0.120   2.905   6.214
 1483SOL    HW2 5349   0.278   2.863   6.203
 1484SOL     OW 5350   6.234   4.394   3.782
 1484SOL    HW1 5351   6.306   4.463   3.790
 1484SOL    HW2 5352   6.197   4.375   3.873
 1485SOL     OW 5353   4.442   1.960   2.928
 1485SOL    HW1 5354   4.540   1.943   2.939
 1485SOL    HW2 5355   4.429   2.048   2.880
 1486SOL     OW 5356   5.009   2.894   3.137
 1486SOL    HW1 5357   4.936   2.909   3.204
 1486SOL    HW2 5358   5.062   2.814   3.164
 1487SOL     OW 5359   6.151   2.660   6.896
 1487SOL    HW1 5360   6.123   2.617   6.982
 1487SOL    HW2 5361   6.241   2.702   6.908
 1488SOL     OW 5362   6.212   1.860   2.944
 1488SOL    HW1 5363   6.152   1.891   3.017
 1488SOL    HW2 5364   6.219   1.930   2.873
 1489SOL     OW 5365   3.883   5.170   4.319
 1489SOL    HW1 5366   3.838   5.258   4.307
 1489SOL    HW2 5367   3.835   5.101   4.266
 1490SOL     OW 5368   1.368   2.671   1.400
 1490SOL    HW1 5369   1.363   2.614   1.482
 1490SOL    HW2 5370   1.278   2.713   1.384
 1491SOL     OW 5371   6.596   3.584   3.556
 1491SOL    HW1 5372   6.604   3.490   3.588
 1491SOL    HW2 5373   6.650   3.596   3.473
 1492SOL     OW 5374   6.211   1.830   1.770
 1492SOL    HW1 5375   6.134   1.774   1.801
 1492SOL    HW2 5376   6.179   1.923   1.753
 1493SOL     OW 5377   5.089   0.603   4.784
 1493SOL    HW1 5378   5.179   0.581   4.746
 1493SOL    HW2 5379   5.100   0.631   4.880
 1494SOL     OW 5380   4.307   2.115   6.115
 1494SOL    HW1 5381   4.217   2.071   6.110
 1494SOL    HW2 5382   4.304   2.202   6.066
 1495SOL     OW 5383   0.547   2.990   3.773
 1495SOL    HW1 5384   0.605   2.911   3.794
 1495SOL    HW2 5385   0.585   3.039   3.694
 1496SOL     OW 5386   1.125   0.716   2.528
 1496SOL    HW1 5387   1.157   0.698   2.435
 1496SOL    HW2 5388   1.043   0.662   2.546
 1497SOL     OW 5389   0.579   4.116   2.744
 1497SOL    HW1 5390   0.551   4.117   2.648
 1497SOL    HW2 5391   0.508   4.071   2.799
 1498SOL     OW 5392   1.565   4.573   6.166
 1498SOL    HW1 5393   1.465   4.569   6.159
 1498SOL    HW2 5394   1.592   4.659   6.209
 1499SOL     OW 5395   1.175   3.440   5.555
 1499SOL    HW1 5396   1.141   3.430   5.648
 1499SOL    HW2 5397   1.166   3.535   5.525
 1500SOL     OW 5398   5.604   6.450   6.921
 1500SOL    HW1 5399   5.510   6.480   6.906
 1500SOL    HW2 5400   5.606   6.354   6.946
 1501SOL     OW 5401   3.995   1.298   6.460
 1501SOL    HW1 5402   3.948   1.210   6.470
 1501SOL    HW2 5403   4.023   1.310   6.364
 1502SOL     OW 5404   5.910   6.702   1.455
 1502SOL    HW1 5405   5.851   6.638   1.406
 1502SOL    HW2 5406   5.874   6.717   1.547
 1503SOL     OW 5407   2.864   1.700   1.561
 1503SOL    HW1 5408   2.942   1.691   1.623
 1503SOL    HW2 5409   2.813   1.783   1.584
 1504SOL     OW 5410   1.745   0.737   5.169
 1504SOL    HW1 5411   1.759   0.820   5.116
 1504SOL    HW2 5412   1.806   0.737   5.248
 1505SOL     OW 5413   5.582   0.798   6.629
 1505SOL    HW1 5414   5.525   0.715   6.624
 1505SOL    HW2 5415   5.561   0.848   6.713
 1506SOL     OW 5416   1.849   5.583   2.153
 1506SOL    HW1 5417   1.786   5.615   2.224
 1506SOL    HW2 5418   1.834   5.637   2.070
 1507SOL     OW 5419   1.496   1.984   5.397
 1507SOL    HW1 5420   1.430   1.933   5.341
 1507SOL    HW2 5421   1.499   2.079   5.366
 1508SOL     OW 5422   5.940   0.665   0.834
 1508SOL    HW1 5423   5.882   0.620   0.902
 1508SOL    HW2 5424   6.004   0.598   0.796
 1509SOL     OW 5425   3.893   2.082   6.322
 1509SOL    HW1 5426   3.904   2.005   6.385
 1509SOL    HW2 5427   3.797   2.108   6.318
 1510SOL     OW 5428   5.711   2.059   3.960
 1510SOL    HW1 5429   5.672   1.980   4.007
 1510SOL    HW2 5430   5.805   2.038   3.931
 1511SOL     OW 5431   2.381   2.823   0.678
 1511SOL    HW1 5432   2.441   2.744   0.688
 1511SOL    HW2 5433   2.325   2.811   0.596
 1512SOL     OW 5434   0.118   6.768   1.708
 1512SOL    HW1 5435   0.061   6.802   1.784
 1512SOL    HW2 5436   0.175   6.842   1.673
 1513SOL     OW 5437   4.552   0.146   4.075
 1513SOL    HW1 5438   4.651   0.154   4.081
 1513SOL    HW2 5439   4.518   0.205   4.001
 1514SOL     OW 5440   5.589   2.508   4.879
 1514SOL    HW1 5441   5.679   2.465   4.878
 1514SOL    HW2 5442   5.587   2.581   4.811
 1515SOL     OW 5443   6.675   3.646   5.553
 1515SOL    HW1 5444   6.646   3.585   5.627
 1515SOL    HW2 5445   6.596   3.696   5.517
 1516SOL     OW 5446   0.774   0.251   0.926
 1516SOL    HW1 5447   0.756   0.226   0.830
 1516SOL    HW2 5448   0.788   0.350   0.932
 1517SOL     OW 5449   4.529   5.808   3.566
 1517SOL    HW1 5450   4.440   5.765   3.552
 1517SOL    HW2 5451   4.516   5.895   3.614
 1518SOL     OW 5452   0.291   3.475   0.106
 1518SOL    HW1 5453   0.311   3.572   0.122
 1518SOL    HW2 5454   0.224   3.443   0.172
 1519SOL     OW 5455   0.223   4.387   1.888
 1519SOL    HW1 5456   0.159   4.310   1.885
 1519SOL    HW2 5457   0.183   4.462   1.941
 1520SOL     OW 5458   1.589   3.469   2.313
 1520SOL    HW1 5459   1.505   3.416   2.304
 1520SOL    HW2 5460   1.610   3.514   2.225
 1521SOL     OW 5461   2.270   3.481   6.915
 1521SOL    HW1 5462   2.203   3.415   6.881
 1521SOL    HW2 5463   2.296   3.456   7.008
 1522SOL     OW 5464   6.572   1.600   5.473
 1522SOL    HW1 5465   6.657   1.636   5.512
 1522SOL    HW2 5466   6.579   1.599   5.373
 1523SOL     OW 5467   4.960   4.063   0.011
 1523SOL    HW1 5468   4.995   4.157   0.018
 1523SOL    HW2 5469   4.995   4.021   6.953
 1524SOL     OW 5470   1.163   1.840   1.718
 1524SOL    HW1 5471   1.120   1.820   1.629
 1524SOL    HW2 5472   1.250   1.886   1.703
 1525SOL     OW 5473   5.392   2.537   6.731
 1525SOL    HW1 5474   5.381   2.611   6.665
 1525SOL    HW2 5475   5.362   2.451   6.690
 1526SOL     OW 5476   1.499   1.864   0.229
 1526SOL    HW1 5477   1.427   1.911   0.279
 1526SOL    HW2 5478   1.558   1.814   0.293
 1527SOL     OW 5479   3.685   0.870   5.511
 1527SOL    HW1 5480   3.764   0.860   5.572
 1527SOL    HW2 5481   3.713   0.919   5.429
 1528SOL     OW 5482   5.167   6.389   2.914
 1528SOL    HW1 5483   5.219   6.447   2.852
 1528SOL    HW2 5484   5.097   6.444   2.960
 1529SOL     OW 5485   3.489   1.520   0.050
 1529SOL    HW1 5486   3.553   1.462   7.026
 1529SOL    HW2 5487   3.478   1.607   0.002
 1530SOL     OW 5488   3.046   0.498   1.537
 1530SOL    HW1 5489   3.134   0.537   1.565
 1530SOL    HW2 5490   3.023   0.422   1.597
 1531SOL     OW 5491   5.908   0.892   5.169
 1531SOL    HW1 5492   5.864   0.966   5.119
 1531SOL    HW2 5493   6.005   0.915   5.183
 1532SOL     OW 5494   2.653   2.478   5.558
 1532SOL    HW1 5495   2.641   2.571   5.593
 1532SOL    HW2 5496   2.567   2.445   5.519
 1533SOL     OW 5497   0.212   3.318   6.139
 1533SOL    HW1 5498   0.286   3.384   6.130
 1533SOL    HW2 5499   0.127   3.357   6.102
 1534SOL     OW 5500   1.877   5.112   6.937
 1534SOL    HW1 5501   1.954   5.090   6.877
 1534SOL    HW2 5502   1.905   5.180   7.004
 1535SOL     OW 5503   5.443   6.353   4.187
 1535SOL    HW1 5504   5.491   6.277   4.231
 1535SOL    HW2 5505   5.498   6.436   4.195
 1536SOL     OW 5506   3.742   4.773   5.219
 1536SOL    HW1 5507   3.802   4.710   5.268
 1536SOL    HW2 5508   3.796   4.842   5.173
 1537SOL     OW 5509   4.153   5.758   2.994
 1537SOL    HW1 5510   4.060   5.768   3.030
 1537SOL    HW2 5511   4.170   5.662   2.971
 1538SOL     OW 5512   3.209   5.421   5.445
 1538SOL    HW1 5513   3.113   5.446   5.459
 1538SOL    HW2 5514   3.242   5.370   5.524
 1539SOL     OW 5515   3.944   4.398   1.503
 1539SOL    HW1 5516   3.849   4.394   1.533
 1539SOL    HW2 5517   3.946   4.399   1.403
 1540SOL     OW 5518   0.818   0.263   5.560
 1540SOL    HW1 5519   0.911   0.286   5.529
 1540SOL    HW2 5520   0.775   0.344   5.600
 1541SOL     OW 5521   3.283   2.884   1.597
 1541SOL    HW1 5522   3.284   2.849   1.690
 1541SOL    HW2 5523   3.195   2.865   1.554
 1542SOL     OW 5524   6.896   5.835   1.466
 1542SOL    HW1 5525   6.836   5.772   1.417
 1542SOL    HW2 5526   6.940   5.897   1.400
 1543SOL     OW 5527   3.116   3.062   3.921
 1543SOL    HW1 5528   3.154   2.971   3.908
 1543SOL    HW2 5529   3.125   3.090   4.017
 1544SOL     OW 5530   3.132   3.754   2.478
 1544SOL    HW1 5531   3.061   3.710   2.422
 1544SOL    HW2 5532   3.222   3.727   2.444
 1545SOL     OW 5533   5.438   0.711   5.029
 1545SOL    HW1 5534   5.379   0.779   4.986
 1545SOL    HW2 5535   5.393   0.622   5.027
 1546SOL     OW 5536   5.144   6.829   5.995
 1546SOL    HW1 5537   5.161   6.772   5.915
 1546SOL    HW2 5538   5.080   6.902   5.970
 1547SOL     OW 5539   2.332   4.407   2.770
 1547SOL    HW1 5540   2.336   4.485   2.707
 1547SOL    HW2 5541   2.314   4.440   2.863
 1548SOL     OW 5542   4.604   3.927   5.658
 1548SOL    HW1 5543   4.648   3.866   5.592
 1548SOL    HW2 5544   4.541   3.873   5.715
 1549SOL     OW 5545   5.570   1.026   2.166
 1549SOL    HW1 5546   5.573   1.047   2.069
 1549SOL    HW2 5547   5.663   1.027   2.204
 1550SOL     OW 5548   3.006   6.644   5.658
 1550SOL    HW1 5549   3.073   6.688   5.599
 1550SOL    HW2 5550   3.005   6.689   5.747
 1551SOL     OW 5551   1.886   3.328   0.906
 1551SOL    HW1 5552   1.956   3.370   0.963
 1551SOL    HW2 5553   1.795   3.350   0.942
 1552SOL     OW 5554   0.799   0.041   1.494
 1552SOL    HW1 5555   0.891   0.080   1.497
 1552SOL    HW2 5556   0.733   0.106   1.531
 1553SOL     OW 5557   6.242   2.149   6.293
 1553SOL    HW1 5558   6.265   2.236   6.250
 1553SOL    HW2 5559   6.314   2.125   6.359
 1554SOL     OW 5560   3.779   2.155   2.269
 1554SOL    HW1 5561   3.715   2.082   2.293
 1554SOL    HW2 5562   3.735   2.219   2.206
 1555SOL     OW 5563   4.333   2.331   5.920
 1555SOL    HW1 5564   4.430   2.321   5.900
 1555SOL    HW2 5565   4.314   2.427   5.943
 1556SOL     OW 5566   3.739   1.205   0.184
 1556SOL    HW1 5567   3.748   1.259   0.267
 1556SOL    HW2 5568   3.649   1.161   0.183
 1557SOL     OW 5569   2.977   1.844   0.600
 1557SOL    HW1 5570   2.982   1.745   0.600
 1557SOL    HW2 5571   3.068   1.883   0.615
 1558SOL     OW 5572   5.995   1.669   4.642
 1558SOL    HW1 5573   6.027   1.578   4.614
 1558SOL    HW2 5574   5.906   1.660   4.687
 1559SOL     OW 5575   0.545   3.213   1.049
 1559SOL    HW1 5576   0.627   3.270   1.050
 1559SOL    HW2 5577   0.562   3.131   0.994
 1560SOL     OW 5578   2.661   1.165   6.788
 1560SOL    HW1 5579   2.620   1.194   6.701
 1560SOL    HW2 5580   2.601   1.192   6.863
 1561SOL     OW 5581   4.804   5.396   3.500
 1561SOL    HW1 5582   4.826   5.443   3.585
 1561SOL    HW2 5583   4.888   5.376   3.450
 1562SOL     OW 5584   3.773   6.479   1.705
 1562SOL    HW1 5585   3.811   6.484   1.613
 1562SOL    HW2 5586   3.826   6.536   1.768
 1563SOL     OW 5587   2.173   1.787   6.037
 1563SOL    HW1 5588   2.222   1.705   6.007
 1563SOL    HW2 5589   2.086   1.793   5.988
 1564SOL     OW 5590   1.388   2.349   2.539
 1564SOL    HW1 5591   1.463   2.358   2.605
 1564SOL    HW2 5592   1.405   2.411   2.462
 1565SOL     OW 5593   3.894   5.024   4.552
 1565SOL    HW1 5594   3.934   4.943   4.508
 1565SOL    HW2 5595   3.883   5.097   4.484
 1566SOL     OW 5596   6.164   5.535   4.798
 1566SOL    HW1 5597   6.103   5.488   4.735
 1566SOL    HW2 5598   6.249   5.558   4.751
 1567SOL     OW 5599   6.330   5.578   0.420
 1567SOL    HW1 5600   6.279   5.661   0.441
 1567SOL    HW2 5601   6.423   5.602   0.393
 1568SOL     OW 5602   2.383   6.528   2.762
 1568SOL    HW1 5603   2.337   6.531   2.673
 1568SOL    HW2 5604   2.320   6.497   2.832
 1569SOL     OW 5605   3.809   6.606   3.045
 1569SOL    HW1 5606   3.906   6.605   3.070
 1569SOL    HW2 5607   3.783   6.698   3.018
 1570SOL     OW 5608   1.516   6.591   6.962
 1570SOL    HW1 5609   1.441   6.602   0.002
 1570SOL    HW2 5610   1.582   6.665   6.974
 1571SOL     OW 5611   0.387   2.264   3.223
 1571SOL    HW1 5612   0.376   2.256   3.322
 1571SOL    HW2 5613   0.481   2.238   3.198
 1572SOL     OW 5614   1.922   5.374   2.315
 1572SOL    HW1 5615   1.890   5.437   2.243
 1572SOL    HW2 5616   2.022   5.381   2.323
 1573SOL     OW 5617   5.690   5.162   2.103
 1573SOL    HW1 5618   5.751   5.153   2.182
 1573SOL    HW2 5619   5.723   5.106   2.028
 1574SOL     OW 5620   6.701   2.909   3.245
 1574SOL    HW1 5621   6.631   2.852   3.288
 1574SOL    HW2 5622   6.776   2.852   3.212
 1575SOL     OW 5623   2.953   0.973   1.895
 1575SOL    HW1 5624   3.031   1.020   1.936
 1575SOL    HW2 5625   2.874   0.980   1.955
 1576SOL     OW 5626   0.704   6.815   3.374
 1576SOL    HW1 5627   0.668   6.788   3.284
 1576SOL    HW2 5628   0.635   6.868   3.423
 1577SOL     OW 5629   2.149   0.734   5.533
 1577SOL    HW1 5630   2.199   0.765   5.614
 1577SOL    HW2 5631   2.091   0.656   5.557
 1578SOL     OW 5632   4.965   1.264   5.924
 1578SOL    HW1 5633   4.899   1.295   5.994
 1578SOL    HW2 5634   4.921   1.266   5.834
 1579SOL     OW 5635   0.094   1.883   1.669
 1579SOL    HW1 5636   0.097   1.970   1.718
 1579SOL    HW2 5637   0.097   1.808   1.735
 1580SOL     OW 5638   3.642   4.082   3.569
 1580SOL    HW1 5639   3.600   4.033   3.492
 1580SOL    HW2 5640   3.736   4.106   3.544
 1581SOL     OW 5641   6.830   4.316   5.395
 1581SOL    HW1 5642   6.781   4.331   5.481
 1581SOL    HW2 5643   6.879   4.229   5.399
 1582SOL     OW 5644   3.060   6.346   4.777
 1582SOL    HW1 5645   3.014   6.315   4.860
 1582SOL    HW2 5646   3.105   6.433   4.795
 1583SOL     OW 5647   1.187   5.798   3.938
 1583SOL    HW1 5648   1.119   5.736   3.979
 1583SOL    HW2 5649   1.215   5.865   4.006
 1584SOL     OW 5650   0.754   5.230   6.053
 1584SOL    HW1 5651   0.761   5.190   5.962
 1584SOL    HW2 5652   0.725   5.160   6.118
 1585SOL     OW 5653   4.242   1.995   2.492
 1585SOL    HW1 5654   4.180   1.929   2.535
 1585SOL    HW2 5655   4.189   2.073   2.460
 1586SOL     OW 5656   3.556   5.191   2.784
 1586SOL    HW1 5657   3.531   5.210   2.690
 1586SOL    HW2 5658   3.482   5.220   2.845
 1587SOL     OW 5659   2.309   5.281   5.197
 1587SOL    HW1 5660   2.231   5.322   5.150
 1587SOL    HW2 5661   2.277   5.208   5.257
 1588SOL     OW 5662   4.801   0.790   1.963
 1588SOL    HW1 5663   4.729   0.832   2.019
 1588SOL    HW2 5664   4.844   0.861   1.907
 1589SOL     OW 5665   0.357   3.258   2.297
 1589SOL    HW1 5666   0.342   3.353   2.271
 1589SOL    HW2 5667   0.319   3.242   2.388
 1590SOL     OW 5668   5.248   0.871   3.826
 1590SOL    HW1 5669   5.195   0.832   3.751
 1590SOL    HW2 5670   5.190   0.881   3.906
 1591SOL     OW 5671   6.809   6.259   0.905
 1591SOL    HW1 5672   6.862   6.174   0.892
 1591SOL    HW2 5673   6.854   6.316   0.973
 1592SOL     OW 5674   2.426   3.525   6.693
 1592SOL    HW1 5675   2.387   3.487   6.610
 1592SOL    HW2 5676   2.379   3.487   6.773
 1593SOL     OW 5677   0.737   6.836   5.923
 1593SOL    HW1 5678   0.651   6.815   5.970
 1593SOL    HW2 5679   0.801   6.761   5.937
 1594SOL     OW 5680   0.385   6.040   1.972
 1594SOL    HW1 5681   0.349   6.133   1.966
 1594SOL    HW2 5682   0.448   6.034   2.049
 1595SOL     OW 5683   1.032   4.767   0.880
 1595SOL    HW1 5684   1.028   4.820   0.964
 1595SOL    HW2 5685   1.058   4.672   0.901
 1596SOL     OW 5686   6.540   3.143   2.873
 1596SOL    HW1 5687   6.637   3.131   2.894
 1596SOL    HW2 5688   6.485   3.105   2.948
 1597SOL     OW 5689   1.251   5.926   0.970
 1597SOL    HW1 5690   1.224   5.988   1.044
 1597SOL    HW2 5691   1.211   5.836   0.986
 1598SOL     OW 5692   1.224   4.845   6.075
 1598SOL    HW1 5693   1.225   4.902   6.157
 1598SOL    HW2 5694   1.276   4.761   6.092
 1599SOL     OW 5695   5.420   4.976   5.305
 1599SOL    HW1 5696   5.437   5.013   5.213
 1599SOL    HW2 5697   5.480   5.022   5.370
 1600SOL     OW 5698   2.801   1.612   2.923
 1600SOL    HW1 5699   2.869   1.652   2.861
 1600SOL    HW2 5700   2.812   1.512   2.924
 1601SOL     OW 5701   0.041   7.000   4.037
 1601SOL    HW1 5702   0.084   0.004   3.952
 1601SOL    HW2 5703   0.072   0.033   4.112
 1602SOL     OW 5704   4.341   4.622   3.899
 1602SOL    HW1 5705   4.244   4.597   3.895
 1602SOL    HW2 5706   4.354   4.693   3.969
 1603SOL     OW 5707   3.047   5.103   3.201
 1603SOL    HW1 5708   3.073   5.193   3.236
 1603SOL    HW2 5709   3.110   5.034   3.237
 1604SOL     OW 5710   4.307   4.627   1.611
 1604SOL    HW1 5711   4.325   4.723   1.587
 1604SOL    HW2 5712   4.289   4.575   1.528
 1605SOL     OW 5713   6.969   5.731   1.709
 1605SOL    HW1 5714   6.952   5.765   1.616
 1605SOL    HW2 5715   7.005   5.804   1.766
 1606SOL     OW 5716   3.762   5.723   5.623
 1606SOL    HW1 5717   3.829   5.769   5.566
 1606SOL    HW2 5718   3.787   5.626   5.633
 1607SOL     OW 5719   4.249   0.313   0.734
 1607SOL    HW1 5720   4.238   0.356   0.824
 1607SOL    HW2 5721   4.252   0.384   0.664
 1608SOL     OW 5722   6.652   0.872   2.490
 1608SOL    HW1 5723   6.730   0.927   2.517
 1608SOL    HW2 5724   6.660   0.780   2.529
 1609SOL     OW 5725   3.607   6.701   0.452
 1609SOL    HW1 5726   3.619   6.610   0.492
 1609SOL    HW2 5727   3.528   6.701   0.391
 1610SOL     OW 5728   5.196   6.005   0.501
 1610SOL    HW1 5729   5.253   6.012   0.583
 1610SOL    HW2 5730   5.208   5.916   0.459
 1611SOL     OW 5731   2.543   3.822   0.544
 1611SOL    HW1 5732   2.521   3.725   0.559
 1611SOL    HW2 5733   2.642   3.832   0.532
 1612SOL     OW 5734   3.912   7.002   1.260
 1612SOL    HW1 5735   3.995   0.006   1.213
 1612SOL    HW2 5736   3.911   0.012   1.353
 1613SOL     OW 5737   1.584   5.940   1.876
 1613SOL    HW1 5738   1.533   5.856   1.899
 1613SOL    HW2 5739   1.539   6.019   1.919
 1614SOL     OW 5740   5.985   1.682   6.115
 1614SOL    HW1 5741   5.957   1.707   6.208
 1614SOL    HW2 5742   6.052   1.749   6.082
 1615SOL     OW 5743   5.989   6.112   0.328
 1615SOL    HW1 5744   6.055   6.116   0.403
 1615SOL    HW2 5745   5.963   6.205   0.302
 1616SOL     OW 5746   4.093   0.654   4.318
 1616SOL    HW1 5747   4.010   0.601   4.305
 1616SOL    HW2 5748   4.145   0.616   4.395
 1617SOL     OW 5749   5.590   6.229   3.068
 1617SOL    HW1 5750   5.682   6.268   3.061
 1617SOL    HW2 5751   5.586   6.144   3.016
 1618SOL     OW 5752   1.864   6.706   3.140
 1618SOL    HW1 5753   1.804   6.786   3.142
 1618SOL    HW2 5754   1.894   6.685   3.233
 1619SOL     OW 5755   0.163   4.803   0.319
 1619SOL    HW1 5756   0.205   4.890   0.292
 1619SOL    HW2 5757   0.105   4.818   0.399
 1620SOL     OW 5758   3.560   4.673   1.403
 1620SOL    HW1 5759   3.612   4.735   1.463
 1620SOL    HW2 5760   3.466   4.666   1.437
 1621SOL     OW 5761   6.347   0.234   1.404
 1621SOL    HW1 5762   6.391   0.248   1.316
 1621SOL    HW2 5763   6.251   0.208   1.390
 1622SOL     OW 5764   0.819   3.805   5.353
 1622SOL    HW1 5765   0.791   3.870   5.283
 1622SOL    HW2 5766   0.892   3.746   5.317
 1623SOL     OW 5767   0.422   2.712   4.949
 1623SOL    HW1 5768   0.514   2.745   4.925
 1623SOL    HW2 5769   0.408   2.722   5.048
 1624SOL     OW 5770   4.279   0.943   5.645
 1624SOL    HW1 5771   4.271   1.043   5.649
 1624SOL    HW2 5772   4.292   0.907   5.738
 1625SOL     OW 5773   1.555   4.871   6.648
 1625SOL    HW1 5774   1.507   4.796   6.603
 1625SOL    HW2 5775   1.653   4.850   6.652
 1626SOL     OW 5776   3.366   1.137   0.757
 1626SOL    HW1 5777   3.387   1.054   0.809
 1626SOL    HW2 5778   3.296   1.116   0.688
 1627SOL     OW 5779   5.403   2.708   3.694
 1627SOL    HW1 5780   5.466   2.753   3.757
 1627SOL    HW2 5781   5.326   2.669   3.745
 1628SOL     OW 5782   4.356   5.529   0.152
 1628SOL    HW1 5783   4.391   5.541   0.059
 1628SOL    HW2 5784   4.257   5.545   0.152
 1629SOL     OW 5785   2.224   1.126   3.707
 1629SOL    HW1 5786   2.297   1.075   3.752
 1629SOL    HW2 5787   2.167   1.171   3.775
 1630SOL     OW 5788   0.298   4.553   5.503
 1630SOL    HW1 5789   0.353   4.585   5.425
 1630SOL    HW2 5790   0.224   4.618   5.519
 1631SOL     OW 5791   0.716   3.358   0.194
 1631SOL    HW1 5792   0.810   3.337   0.221
 1631SOL    HW2 5793   0.686   3.442   0.239
 1632SOL     OW 5794   4.771   2.924   2.594
 1632SOL    HW1 5795   4.804   2.831   2.606
 1632SOL    HW2 5796   4.719   2.952   2.674
 1633SOL     OW 5797   4.840   3.925   4.530
 1633SOL    HW1 5798   4.872   3.884   4.444
 1633SOL    HW2 5799   4.859   3.862   4.606
 1634SOL     OW 5800   4.507   6.681   4.484
 1634SOL    HW1 5801   4.595   6.643   4.454
 1634SOL    HW2 5802   4.512   6.781   4.484
 1635SOL     OW 5803   0.304   5.387   6.796
 1635SOL    HW1 5804   0.351   5.376   6.883
 1635SOL    HW2 5805   0.372   5.406   6.724
 1636SOL     OW 5806   3.120   4.967   1.615
 1636SOL    HW1 5807   3.166   4.905   1.550
 1636SOL    HW2 5808   3.035   4.925   1.647
 1637SOL     OW 5809   0.071   6.652   3.712
 1637SOL    HW1 5810   0.153   6.644   3.769
 1637SOL    HW2 5811   0.020   6.734   3.738
 1638SOL     OW 5812   1.088   3.387   2.312
 1638SOL    HW1 5813   1.041   3.472   2.336
 1638SOL    HW2 5814   1.020   3.315   2.294
 1639SOL     OW 5815   5.528   5.127   1.500
 1639SOL    HW1 5816   5.459   5.067   1.541
 1639SOL    HW2 5817   5.527   5.216   1.546
 1640SOL     OW 5818   6.087   0.740   0.457
 1640SOL    HW1 5819   6.152   0.816   0.467
 1640SOL    HW2 5820   6.009   0.770   0.403
 1641SOL     OW 5821   6.122   1.630   3.699
 1641SOL    HW1 5822   6.154   1.645   3.792
 1641SOL    HW2 5823   6.024   1.651   3.694
 1642SOL     OW 5824   6.457   3.350   7.017
 1642SOL    HW1 5825   6.501   3.303   6.941
 1642SOL    HW2 5826   6.449   3.287   0.069
 1643SOL     OW 5827   2.955   4.788   3.300
 1643SOL    HW1 5828   2.876   4.727   3.301
 1643SOL    HW2 5829   2.974   4.819   3.393
 1644SOL     OW 5830   5.774   3.628   6.940
 1644SOL    HW1 5831   5.869   3.645   6.967
 1644SOL    HW2 5832   5.745   3.699   6.875
 1645SOL     OW 5833   2.735   5.688   6.379
 1645SOL    HW1 5834   2.810   5.623   6.365
 1645SOL    HW2 5835   2.731   5.714   6.476
 1646SOL     OW 5836   2.980   6.815   0.583
 1646SOL    HW1 5837   2.933   6.746   0.638
 1646SOL    HW2 5838   2.964   6.906   0.622
 1647SOL     OW 5839   5.900   2.310   4.230
 1647SOL    HW1 5840   5.991   2.293   4.268
 1647SOL    HW2 5841   5.835   2.245   4.269
 1648SOL     OW 5842   5.093   5.854   7.002
 1648SOL    HW1 5843   5.159   5.784   0.000
 1648SOL    HW2 5844   5.067   5.844   6.905
 1649SOL     OW 5845   3.609   1.408   4.071
 1649SOL    HW1 5846   3.550   1.415   4.152
 1649SOL    HW2 5847   3.702   1.436   4.094
 1650SOL     OW 5848   0.525   5.636   4.937
 1650SOL    HW1 5849   0.457   5.708   4.924
 1650SOL    HW2 5850   0.480   5.548   4.949
 1651SOL     OW 5851   0.387   2.315   1.739
 1651SOL    HW1 5852   0.296   2.354   1.727
 1651SOL    HW2 5853   0.445   2.340   1.661
 1652SOL     OW 5854   1.606   3.216   2.665
 1652SOL    HW1 5855   1.564   3.162   2.738
 1652SOL    HW2 5856   1.576   3.311   2.671
 1653SOL     OW 5857   1.001   6.347   0.402
 1653SOL    HW1 5858   1.061   6.268   0.412
 1653SOL    HW2 5859   0.925   6.340   0.467
 1654SOL     OW 5860   6.721   3.256   1.609
 1654SOL    HW1 5861   6.667   3.233   1.529
 1654SOL    HW2 5862   6.747   3.353   1.605
 1655SOL     OW 5863   6.944   2.070   4.541
 1655SOL    HW1 5864   6.905   2.153   4.580
 1655SOL    HW2 5865   6.904   2.053   4.451
 1656SOL     OW 5866   1.955   5.189   2.934
 1656SOL    HW1 5867   1.969   5.220   2.841
 1656SOL    HW2 5868   1.860   5.205   2.961
 1657SOL     OW 5869   5.884   0.759   4.173
 1657SOL    HW1 5870   5.941   0.792   4.248
 1657SOL    HW2 5871   5.800   0.719   4.210
 1658SOL     OW 5872   5.868   1.306   0.974
 1658SOL    HW1 5873   5.884   1.248   1.054
 1658SOL    HW2 5874   5.875   1.251   0.891
 1659SOL     OW 5875   3.450   0.409   0.153
 1659SOL    HW1 5876   3.395   0.403   0.070
 1659SOL    HW2 5877   3.391   0.409   0.233
 1660SOL     OW 5878   1.821   6.057   2.062
 1660SOL    HW1 5879   1.813   6.099   2.152
 1660SOL    HW2 5880   1.918   6.041   2.040
 1661SOL     OW 5881   1.705   6.522   1.569
 1661SOL    HW1 5882   1.805   6.522   1.567
 1661SOL    HW2 5883   1.671   6.601   1.518
 1662SOL     OW 5884   0.127   1.197   4.281
 1662SOL    HW1 5885   0.094   1.263   4.349
 1662SOL    HW2 5886   0.139   1.108   4.324
 1663SOL     OW 5887   4.444   5.335   3.412
 1663SOL    HW1 5888   4.411   5.364   3.322
 1663SOL    HW2 5889   4.490   5.412   3.457
 1664SOL     OW 5890   2.218   6.068   4.838
 1664SOL    HW1 5891   2.208   5.972   4.810
 1664SOL    HW2 5892   2.310   6.100   4.813
 1665SOL     OW 5893   6.251   3.374   2.274
 1665SOL    HW1 5894   6.272   3.443   2.343
 1665SOL    HW2 5895   6.324   3.305   2.272
 1666SOL     OW 5896   5.570   1.110   6.926
 1666SOL    HW1 5897   5.475   1.085   6.912
 1666SOL    HW2 5898   5.629   1.031   6.907
 1667SOL     OW 5899   0.123   6.391   1.465
 1667SOL    HW1 5900   0.118   6.393   1.565
 1667SOL    HW2 5901   0.032   6.409   1.427
 1668SOL     OW 5902   4.785   5.316   3.871
 1668SOL    HW1 5903   4.723   5.252   3.825
 1668SOL    HW2 5904   4.801   5.395   3.812
 1669SOL     OW 5905   6.877   4.160   5.885
 1669SOL    HW1 5906   6.881   4.237   5.820
 1669SOL    HW2 5907   6.802   4.099   5.860
 1670SOL     OW 5908   6.657   4.442   5.206
 1670SOL    HW1 5909   6.726   4.463   5.137
 1670SOL    HW2 5910   6.686   4.362   5.259
 1671SOL     OW 5911   5.635   1.807   3.666
 1671SOL    HW1 5912   5.558   1.870   3.677
 1671SOL    HW2 5913   5.606   1.715   3.690
 1672SOL     OW 5914   2.461   3.598   0.703
 1672SOL    HW1 5915   2.509   3.659   0.766
 1672SOL    HW2 5916   2.458   3.506   0.742
 1673SOL     OW 5917   1.339   1.919   4.737
 1673SOL    HW1 5918   1.401   1.963   4.672
 1673SOL    HW2 5919   1.306   1.833   4.699
 1674SOL     OW 5920   0.704   3.314   2.201
 1674SOL    HW1 5921   0.625   3.302   2.140
 1674SOL    HW2 5922   0.672   3.346   2.290
 1675SOL     OW 5923   4.378   0.469   0.115
 1675SOL    HW1 5924   4.467   0.505   0.087
 1675SOL    HW2 5925   4.392   0.391   0.177
 1676SOL     OW 5926   2.313   2.709   1.875
 1676SOL    HW1 5927   2.269   2.664   1.797
 1676SOL    HW2 5928   2.381   2.647   1.915
 1677SOL     OW 5929   3.744   3.867   3.974
 1677SOL    HW1 5930   3.711   3.949   4.021
 1677SOL    HW2 5931   3.843   3.871   3.965
 1678SOL     OW 5932   6.866   4.893   2.579
 1678SOL    HW1 5933   6.914   4.856   2.500
 1678SOL    HW2 5934   6.770   4.865   2.576
 1679SOL     OW 5935   2.032   1.257   4.835
 1679SOL    HW1 5936   2.120   1.299   4.857
 1679SOL    HW2 5937   2.022   1.250   4.735
 1680SOL     OW 5938   0.454   3.851   5.634
 1680SOL    HW1 5939   0.435   3.890   5.724
 1680SOL    HW2 5940   0.373   3.857   5.576
 1681SOL     OW 5941   0.434   5.327   6.280
 1681SOL    HW1 5942   0.339   5.356   6.289
 1681SOL    HW2 5943   0.479   5.380   6.208
 1682SOL     OW 5944   1.102   0.455   5.757
 1682SOL    HW1 5945   1.175   0.428   5.821
 1682SOL    HW2 5946   1.100   0.392   5.680
 1683SOL     OW 5947   5.597   5.465   2.689
 1683SOL    HW1 5948   5.647   5.392   2.642
 1683SOL    HW2 5949   5.502   5.438   2.701
 1684SOL     OW 5950   0.546   5.989   2.179
 1684SOL    HW1 5951   0.537   5.907   2.234
 1684SOL    HW2 5952   0.643   6.005   2.158
 1685SOL     OW 5953   1.809   1.421   5.388
 1685SOL    HW1 5954   1.891   1.447   5.439
 1685SOL    HW2 5955   1.738   1.389   5.451
 1686SOL     OW 5956   2.151   6.373   4.206
 1686SOL    HW1 5957   2.076   6.323   4.249
 1686SOL    HW2 5958   2.130   6.470   4.204
 1687SOL     OW 5959   1.577   2.803   2.024
 1687SOL    HW1 5960   1.489   2.826   1.983
 1687SOL    HW2 5961   1.573   2.712   2.063
 1688SOL     OW 5962   2.250   1.680   3.806
 1688SOL    HW1 5963   2.166   1.651   3.759
 1688SOL    HW2 5964   2.297   1.600   3.841
 1689SOL     OW 5965   6.585   1.032   2.746
 1689SOL    HW1 5966   6.527   0.964   2.791
 1689SOL    HW2 5967   6.605   1.003   2.652
 1690SOL     OW 5968   1.393   2.479   4.851
 1690SOL    HW1 5969   1.409   2.382   4.836
 1690SOL    HW2 5970   1.371   2.523   4.764
 1691SOL     OW 5971   5.572   2.972   4.371
 1691SOL    HW1 5972   5.591   3.036   4.296
 1691SOL    HW2 5973   5.649   2.971   4.435
 1692SOL     OW 5974   4.223   6.215   1.394
 1692SOL    HW1 5975   4.199   6.234   1.489
 1692SOL    HW2 5976   4.164   6.268   1.333
 1693SOL     OW 5977   0.082   2.341   3.232
 1693SOL    HW1 5978   0.045   2.364   3.322
 1693SOL    HW2 5979   0.181   2.328   3.239
 1694SOL     OW 5980   6.422   1.881   3.609
 1694SOL    HW1 5981   6.454   1.805   3.553
 1694SOL    HW2 5982   6.481   1.961   3.594
 1695SOL     OW 5983   3.898   0.735   6.427
 1695SOL    HW1 5984   3.837   0.812   6.411
 1695SOL    HW2 5985   3.881   0.664   6.359
 1696SOL     OW 5986   3.506   5.899   1.322
 1696SOL    HW1 5987   3.487   5.961   1.398
 1696SOL    HW2 5988   3.604   5.893   1.308
 1697SOL     OW 5989   6.669   1.667   0.434
 1697SOL    HW1 5990   6.719   1.587   0.400
 1697SOL    HW2 5991   6.719   1.707   0.511
 1698SOL     OW 5992   3.882   0.107   0.958
 1698SOL    HW1 5993   3.823   0.182   0.990
 1698SOL    HW2 5994   3.864   0.090   0.862
 1699SOL     OW 5995   2.166   1.625   6.683
 1699SOL    HW1 5996   2.143   1.692   6.754
 1699SOL    HW2 5997   2.259   1.593   6.697
 1700SOL     OW 5998   6.366   4.196   3.655
 1700SOL    HW1 5999   6.321   4.109   3.673
 1700SOL    HW2 6000   6.314   4.270   3.697
 1701SOL     OW 6001   5.465   5.517   5.704
 1701SOL    HW1 6002   5.439   5.438   5.760
 1701SOL    HW2 6003   5.391   5.584   5.704
 1702SOL     OW 6004   6.361   1.536   0.977
 1702SOL    HW1 6005   6.266   1.563   0.997
 1702SOL    HW2 6006   6.403   1.502   1.061
 1703SOL     OW 6007   3.425   1.728   6.914
 1703SOL    HW1 6008   3.483   1.807   6.938
 1703SOL    HW2 6009   3.329   1.752   6.927
 1704SOL     OW 6010   0.824   2.643   0.370
 1704SOL    HW1 6011   0.852   2.690   0.453
 1704SOL    HW2 6012   0.807   2.546   0.391
 1705SOL     OW 6013   3.324   2.193   1.855
 1705SOL    HW1 6014   3.239   2.157   1.894
 1705SOL    HW2 6015   3.402   2.153   1.904
 1706SOL     OW 6016   4.969   1.275   1.608
 1706SOL    HW1 6017   5.062   1.307   1.626
 1706SOL    HW2 6018   4.926   1.248   1.694
 1707SOL     OW 6019   4.465   2.293   2.786
 1707SOL    HW1 6020   4.376   2.314   2.825
 1707SOL    HW2 6021   4.454   2.247   2.698
 1708SOL     OW 6022   4.799   6.037   1.620
 1708SOL    HW1 6023   4.823   6.127   1.582
 1708SOL    HW2 6024   4.876   6.002   1.673
 1709SOL     OW 6025   3.582   6.849   2.905
 1709SOL    HW1 6026   3.542   6.940   2.906
 1709SOL    HW2 6027   3.537   6.792   2.973
 1710SOL     OW 6028   4.192   4.866   3.153
 1710SOL    HW1 6029   4.245   4.854   3.237
 1710SOL    HW2 6030   4.205   4.958   3.118
 1711SOL     OW 6031   1.723   5.677   4.545
 1711SOL    HW1 6032   1.629   5.692   4.514
 1711SOL    HW2 6033   1.779   5.756   4.521
 1712SOL     OW 6034   6.898   1.920   5.021
 1712SOL    HW1 6035   6.846   1.929   4.937
 1712SOL    HW2 6036   6.901   1.824   5.049
 1713SOL     OW 6037   4.854   2.210   2.250
 1713SOL    HW1 6038   4.950   2.186   2.240
 1713SOL    HW2 6039   4.797   2.131   2.224
 1714SOL     OW 6040   4.036   1.614   5.800
 1714SOL    HW1 6041   4.001   1.541   5.858
 1714SOL    HW2 6042   4.120   1.650   5.840
 1715SOL     OW 6043   2.393   6.103   3.580
 1715SOL    HW1 6044   2.396   6.003   3.580
 1715SOL    HW2 6045   2.337   6.135   3.656
 1716SOL     OW 6046   4.088   0.027   4.092
 1716SOL    HW1 6047   4.048   0.015   4.183
 1716SOL    HW2 6048   4.185   0.001   4.094
 1717SOL     OW 6049   3.381   5.953   4.956
 1717SOL    HW1 6050   3.474   5.954   4.995
 1717SOL    HW2 6051   3.315   5.929   5.027
 1718SOL     OW 6052   3.041   1.563   2.336
 1718SOL    HW1 6053   2.970   1.523   2.279
 1718SOL    HW2 6054   3.005   1.581   2.428
 1719SOL     OW 6055   2.068   3.125   0.823
 1719SOL    HW1 6056   2.007   3.197   0.855
 1719SOL    HW2 6057   2.071   3.052   0.891
 1720SOL     OW 6058   7.000   3.036   6.594
 1720SOL    HW1 6059   0.030   2.991   6.663
 1720SOL    HW2 6060   0.023   3.117   6.559
 1721SOL     OW 6061   1.978   6.596   1.524
 1721SOL    HW1 6062   2.000   6.691   1.547
 1721SOL    HW2 6063   2.037   6.535   1.578
 1722SOL     OW 6064   3.541   1.677   3.763
 1722SOL    HW1 6065   3.584   1.765   3.783
 1722SOL    HW2 6066   3.535   1.664   3.664
 1723SOL     OW 6067   5.343   2.516   6.982
 1723SOL    HW1 6068   5.347   2.532   6.884
 1723SOL    HW2 6069   5.378   2.596   0.005
 1724SOL     OW 6070   0.534   2.819   2.095
 1724SOL    HW1 6071   0.461   2.796   2.030
 1724SOL    HW2 6072   0.535   2.918   2.109
 1725SOL     OW 6073   1.612   4.797   6.296
 1725SOL    HW1 6074   1.558   4.872   6.334
 1725SOL    HW2 6075   1.693   4.834   6.251
 1726SOL     OW 6076   5.437   4.047   4.254
 1726SOL    HW1 6077   5.502   4.120   4.232
 1726SOL    HW2 6078   5.382   4.073   4.334
 1727SOL     OW 6079   4.104   3.655   3.564
 1727SOL    HW1 6080   4.058   3.646   3.653
 1727SOL    HW2 6081   4.060   3.727   3.511
 1728SOL     OW 6082   5.921   4.984   5.443
 1728SOL    HW1 6083   5.916   5.046   5.522
 1728SOL    HW2 6084   5.843   4.921   5.445
 1729SOL     OW 6085   2.148   3.852   3.338
 1729SOL    HW1 6086   2.181   3.945   3.324
 1729SOL    HW2 6087   2.144   3.805   3.250
 1730SOL     OW 6088   2.615   0.412   4.937
 1730SOL    HW1 6089   2.627   0.511   4.928
 1730SOL    HW2 6090   2.547   0.381   4.871
 1731SOL     OW 6091   0.229   4.330   3.709
 1731SOL    HW1 6092   0.172   4.412   3.698
 1731SOL    HW2 6093   0.206   4.265   3.637
 1732SOL     OW 6094   2.269   4.787   6.084
 1732SOL    HW1 6095   2.263   4.775   6.183
 1732SOL    HW2 6096   2.178   4.783   6.044
 1733SOL     OW 6097   1.827   3.940   1.368
 1733SOL    HW1 6098   1.800   3.863   1.312
 1733SOL    HW2 6099   1.855   3.908   1.459
 1734SOL     OW 6100   5.062   2.759   1.163
 1734SOL    HW1 6101   5.044   2.820   1.086
 1734SOL    HW2 6102   5.079   2.814   1.245
 1735SOL     OW 6103   4.488   5.522   6.478
 1735SOL    HW1 6104   4.537   5.435   6.484
 1735SOL    HW2 6105   4.502   5.574   6.561
 1736SOL     OW 6106   3.812   3.775   1.221
 1736SOL    HW1 6107   3.907   3.802   1.206
 1736SOL    HW2 6108   3.808   3.704   1.291
 1737SOL     OW 6109   5.108   6.950   4.544
 1737SOL    HW1 6110   5.183   6.963   4.610
 1737SOL    HW2 6111   5.032   7.010   4.568
 1738SOL     OW 6112   2.482   2.271   4.636
 1738SOL    HW1 6113   2.462   2.178   4.668
 1738SOL    HW2 6114   2.496   2.331   4.714
 1739SOL     OW 6115   6.849   1.351   4.333
 1739SOL    HW1 6116   6.841   1.292   4.413
 1739SOL    HW2 6117   6.864   1.294   4.252
 1740SOL     OW 6118   0.204   2.439   5.342
 1740SOL    HW1 6119   0.267   2.457   5.418
 1740SOL    HW2 6120   0.255   2.443   5.256
 1741SOL     OW 6121   2.411   0.852   4.396
 1741SOL    HW1 6122   2.344   0.802   4.342
 1741SOL    HW2 6123   2.371   0.875   4.485
 1742SOL     OW 6124   5.744   0.317   5.352
 1742SOL    HW1 6125   5.669   0.382   5.361
 1742SOL    HW2 6126   5.742   0.276   5.261
 1743SOL     OW 6127   0.694   1.382   2.428
 1743SOL    HW1 6128   0.607   1.412   2.389
 1743SOL    HW2 6129   0.690   1.283   2.445
 1744SOL     OW 6130   6.363   3.463   3.148
 1744SOL    HW1 6131   6.422   3.540   3.174
 1744SOL    HW2 6132   6.316   3.428   3.229
 1745SOL     OW 6133   5.584   6.221   2.641
 1745SOL    HW1 6134   5.607   6.125   2.651
 1745SOL    HW2 6135   5.653   6.266   2.583
 1746SOL     OW 6136   1.711   4.557   4.226
 1746SOL    HW1 6137   1.745   4.648   4.249
 1746SOL    HW2 6138   1.675   4.558   4.132
 1747SOL     OW 6139   4.336   1.258   2.564
 1747SOL    HW1 6140   4.407   1.329   2.565
 1747SOL    HW2 6141   4.246   1.299   2.577
 1748SOL     OW 6142   6.811   1.930   4.756
 1748SOL    HW1 6143   6.753   1.975   4.688
 1748SOL    HW2 6144   6.907   1.956   4.740
 1749SOL     OW 6145   1.995   6.792   5.909
 1749SOL    HW1 6146   2.008   6.884   5.947
 1749SOL    HW2 6147   2.053   6.781   5.828
 1750SOL     OW 6148   5.527   6.997   4.153
 1750SOL    HW1 6149   5.566   6.997   4.245
 1750SOL    HW2 6150   5.474   0.055   4.140
 1751SOL     OW 6151   4.772   1.714   4.803
 1751SOL    HW1 6152   4.836   1.638   4.819
 1751SOL    HW2 6153   4.750   1.718   4.706
 1752SOL     OW 6154   6.128   0.898   2.010
 1752SOL    HW1 6155   6.049   0.837   1.995
 1752SOL    HW2 6156   6.149   0.946   1.925
 1753SOL     OW 6157   6.817   0.679   1.477
 1753SOL    HW1 6158   6.844   0.669   1.573
 1753SOL    HW2 6159   6.881   0.631   1.418
 1754SOL     OW 6160   2.187   4.871   6.501
 1754SOL    HW1 6161   2.101   4.922   6.494
 1754SOL    HW2 6162   2.256   4.929   6.543
 1755SOL     OW 6163   6.896   5.237   6.876
 1755SOL    HW1 6164   6.985   5.192   6.870
 1755SOL    HW2 6165   6.825   5.172   6.847
 1756SOL     OW 6166   4.179   5.531   5.942
 1756SOL    HW1 6167   4.153   5.572   5.855
 1756SOL    HW2 6168   4.274   5.552   5.962
 1757SOL     OW 6169   3.422   5.724   4.768
 1757SOL    HW1 6170   3.462   5.787   4.834
 1757SOL    HW2 6171   3.457   5.744   4.676
 1758SOL     OW 6172   1.838   1.202   4.076
 1758SOL    HW1 6173   1.738   1.196   4.071
 1758SOL    HW2 6174   1.865   1.298   4.088
 1759SOL     OW 6175   2.429   6.604   5.558
 1759SOL    HW1 6176   2.514   6.646   5.590
 1759SOL    HW2 6177   2.450   6.529   5.496
 1760SOL     OW 6178   5.989   0.980   3.568
 1760SOL    HW1 6179   5.916   1.049   3.562
 1760SOL    HW2 6180   6.046   0.999   3.648
 1761SOL     OW 6181   0.660   1.178   1.960
 1761SOL    HW1 6182   0.578   1.217   1.919
 1761SOL    HW2 6183   0.740   1.231   1.933
 1762SOL     OW 6184   0.255   1.623   4.747
 1762SOL    HW1 6185   0.354   1.640   4.744
 1762SOL    HW2 6186   0.218   1.656   4.833
 1763SOL     OW 6187   0.833   4.725   4.388
 1763SOL    HW1 6188   0.786   4.745   4.474
 1763SOL    HW2 6189   0.870   4.809   4.349
 1764SOL     OW 6190   1.792   3.016   2.068
 1764SOL    HW1 6191   1.834   3.060   1.989
 1764SOL    HW2 6192   1.732   2.942   2.037
 1765SOL     OW 6193   3.583   0.752   1.765
 1765SOL    HW1 6194   3.573   0.837   1.816
 1765SOL    HW2 6195   3.647   0.692   1.813
 1766SOL     OW 6196   5.791   4.395   3.948
 1766SOL    HW1 6197   5.725   4.392   3.873
 1766SOL    HW2 6198   5.863   4.462   3.927
 1767SOL     OW 6199   0.763   4.539   3.809
 1767SOL    HW1 6200   0.671   4.578   3.808
 1767SOL    HW2 6201   0.763   4.453   3.859
 1768SOL     OW 6202   3.274   1.225   0.256
 1768SOL    HW1 6203   3.253   1.129   0.237
 1768SOL    HW2 6204   3.346   1.230   0.326
 1769SOL     OW 6205   6.041   1.311   6.884
 1769SOL    HW1 6206   6.075   1.405   6.883
 1769SOL    HW2 6207   5.958   1.305   6.829
 1770SOL     OW 6208   0.301   4.686   4.983
 1770SOL    HW1 6209   0.224   4.665   5.042
 1770SOL    HW2 6210   0.386   4.686   5.036
 1771SOL     OW 6211   1.613   5.504   0.467
 1771SOL    HW1 6212   1.667   5.439   0.521
 1771SOL    HW2 6213   1.517   5.478   0.468
 1772SOL     OW 6214   3.539   5.557   3.474
 1772SOL    HW1 6215   3.497   5.568   3.383
 1772SOL    HW2 6216   3.467   5.548   3.543
 1773SOL     OW 6217   1.926   2.352   6.050
 1773SOL    HW1 6218   2.005   2.408   6.076
 1773SOL    HW2 6219   1.845   2.411   6.041
 1774SOL     OW 6220   5.450   6.671   1.405
 1774SOL    HW1 6221   5.541   6.631   1.402
 1774SOL    HW2 6222   5.448   6.745   1.472
 1775SOL     OW 6223   1.834   5.333   6.056
 1775SOL    HW1 6224   1.826   5.410   6.118
 1775SOL    HW2 6225   1.755   5.330   5.995
 1776SOL     OW 6226   5.046   0.294   6.120
 1776SOL    HW1 6227   5.109   0.367   6.095
 1776SOL    HW2 6228   5.003   0.316   6.208
 1777SOL     OW 6229   3.213   6.956   6.501
 1777SOL    HW1 6230   3.302   6.992   6.473
 1777SOL    HW2 6231   3.201   6.969   6.599
 1778SOL     OW 6232   4.943   2.157   4.496
 1778SOL    HW1 6233   4.956   2.199   4.406
 1778SOL    HW2 6234   5.014   2.191   4.558
 1779SOL     OW 6235   5.171   0.490   5.938
 1779SOL    HW1 6236   5.220   0.540   6.010
 1779SOL    HW2 6237   5.158   0.549   5.859
 1780SOL     OW 6238   1.661   3.335   5.689
 1780SOL    HW1 6239   1.675   3.415   5.747
 1780SOL    HW2 6240   1.747   3.311   5.643
 1781SOL     OW 6241   5.612   6.411   5.134
 1781SOL    HW1 6242   5.612   6.493   5.192
 1781SOL    HW2 6243   5.559   6.339   5.178
 1782SOL     OW 6244   2.453   1.030   2.789
 1782SOL    HW1 6245   2.411   0.966   2.725
 1782SOL    HW2 6246   2.479   1.114   2.741
 1783SOL     OW 6247   3.111   3.812   6.530
 1783SOL    HW1 6248   3.031   3.752   6.535
 1783SOL    HW2 6249   3.183   3.778   6.590
 1784SOL     OW 6250   2.161   1.527   1.448
 1784SOL    HW1 6251   2.169   1.427   1.442
 1784SOL    HW2 6252   2.193   1.557   1.538
 1785SOL     OW 6253   6.251   6.770   4.202
 1785SOL    HW1 6254   6.310   6.850   4.202
 1785SOL    HW2 6255   6.274   6.711   4.124
 1786SOL     OW 6256   2.199   5.029   6.951
 1786SOL    HW1 6257   2.126   5.028   7.020
 1786SOL    HW2 6258   2.162   5.065   6.865
 1787SOL     OW 6259   2.432   1.904   6.134
 1787SOL    HW1 6260   2.333   1.896   6.150
 1787SOL    HW2 6261   2.473   1.814   6.137
 1788SOL     OW 6262   4.872   3.852   6.689
 1788SOL    HW1 6263   4.835   3.940   6.718
 1788SOL    HW2 6264   4.798   3.793   6.656
 1789SOL     OW 6265   5.775   3.096   1.621
 1789SOL    HW1 6266   5.820   3.052   1.544
 1789SOL    HW2 6267   5.832   3.172   1.653
 1790SOL     OW 6268   2.826   1.110   4.340
 1790SOL    HW1 6269   2.812   1.021   4.297
 1790SOL    HW2 6270   2.867   1.174   4.275
 1791SOL     OW 6271   7.011   1.466   3.746
 1791SOL    HW1 6272   7.018   1.509   3.656
 1791SOL    HW2 6273   6.983   1.371   3.735
 1792SOL     OW 6274   0.141   1.448   4.586
 1792SOL    HW1 6275   0.184   1.515   4.646
 1792SOL    HW2 6276   0.070   1.493   4.531
 1793SOL     OW 6277   6.764   1.738   4.454
 1793SOL    HW1 6278   6.726   1.787   4.532
 1793SOL    HW2 6279   6.693   1.727   4.384
 1794SOL     OW 6280   5.501   6.555   5.506
 1794SOL    HW1 6281   5.533   6.473   5.553
 1794SOL    HW2 6282   5.499   6.631   5.571
 1795SOL     OW 6283   6.437   4.926   1.885
 1795SOL    HW1 6284   6.517   4.873   1.856
 1795SOL    HW2 6285   6.467   5.018   1.910
 1796SOL     OW 6286   2.570   1.500   5.906
 1796SOL    HW1 6287   2.563   1.533   5.812
 1796SOL    HW2 6288   2.651   1.539   5.950
 1797SOL     OW 6289   1.137   6.945   5.776
 1797SOL    HW1 6290   1.069   6.961   5.705
 1797SOL    HW2 6291   1.204   7.019   5.776
 1798SOL     OW 6292   3.387   3.089   4.893
 1798SOL    HW1 6293   3.291   3.074   4.914
 1798SOL    HW2 6294   3.430   3.002   4.868
 1799SOL     OW 6295   4.793   2.783   6.690
 1799SOL    HW1 6296   4.821   2.716   6.759
 1799SOL    HW2 6297   4.699   2.765   6.663
 1800SOL     OW 6298   4.969   5.032   3.608
 1800SOL    HW1 6299   4.914   5.048   3.526
 1800SOL    HW2 6300   4.914   4.980   3.675
 1801SOL     OW 6301   0.701   1.722   2.095
 1801SOL    HW1 6302   0.622   1.707   2.035
 1801SOL    HW2 6303   0.770   1.775   2.046
 1802SOL     OW 6304   6.115   6.006   3.249
 1802SOL    HW1 6305   6.135   6.050   3.162
 1802SOL    HW2 6306   6.199   5.970   3.289
 1803SOL     OW 6307   0.204   6.988   2.043
 1803SOL    HW1 6308   0.239   0.006   2.126
 1803SOL    HW2 6309   0.276   6.983   1.975
 1804SOL     OW 6310   3.766   3.221   4.838
 1804SOL    HW1 6311   3.677   3.242   4.796
 1804SOL    HW2 6312   3.817   3.306   4.850
 1805SOL     OW 6313   0.791   5.585   5.915
 1805SOL    HW1 6314   0.705   5.574   5.864
 1805SOL    HW2 6315   0.855   5.513   5.888
 1806SOL     OW 6316   0.772   2.828   1.939
 1806SOL    HW1 6317   0.731   2.768   2.008
 1806SOL    HW2 6318   0.700   2.861   1.877
 1807SOL     OW 6319   5.416   2.891   6.802
 1807SOL    HW1 6320   5.361   2.875   6.883
 1807SOL    HW2 6321   5.509   2.916   6.829
 1808SOL     OW 6322   6.071   3.649   4.761
 1808SOL    HW1 6323   6.034   3.711   4.692
 1808SOL    HW2 6324   6.130   3.581   4.718
 1809SOL     OW 6325   3.227   1.914   5.597
 1809SOL    HW1 6326   3.208   1.917   5.499
 1809SOL    HW2 6327   3.160   1.855   5.642
 1810SOL     OW 6328   1.026   0.871   5.227
 1810SOL    HW1 6329   1.055   0.810   5.153
 1810SOL    HW2 6330   1.019   0.964   5.193
 1811SOL     OW 6331   5.291   4.691   1.881
 1811SOL    HW1 6332   5.227   4.616   1.901
 1811SOL    HW2 6333   5.333   4.675   1.792
 1812SOL     OW 6334   3.932   6.466   6.256
 1812SOL    HW1 6335   4.005   6.399   6.267
 1812SOL    HW2 6336   3.969   6.552   6.220
 1813SOL     OW 6337   5.298   4.898   2.324
 1813SOL    HW1 6338   5.201   4.888   2.347
 1813SOL    HW2 6339   5.309   4.890   2.225
 1814SOL     OW 6340   6.117   0.406   0.794
 1814SOL    HW1 6341   6.096   0.309   0.800
 1814SOL    HW2 6342   6.128   0.432   0.698
 1815SOL     OW 6343   6.489   6.983   2.697
 1815SOL    HW1 6344   6.406   6.940   2.732
 1815SOL    HW2 6345   6.521   6.933   2.616
 1816SOL     OW 6346   3.709   5.100   6.177
 1816SOL    HW1 6347   3.793   5.107   6.231
 1816SOL    HW2 6348   3.727   5.049   6.093
 1817SOL     OW 6349   3.417   1.189   2.968
 1817SOL    HW1 6350   3.428   1.274   3.019
 1817SOL    HW2 6351   3.446   1.112   3.024
 1818SOL     OW 6352   1.581   6.802   0.137
 1818SOL    HW1 6353   1.509   6.834   0.198
 1818SOL    HW2 6354   1.658   6.766   0.190
 1819SOL     OW 6355   1.714   5.076   2.080
 1819SOL    HW1 6356   1.677   5.068   1.988
 1819SOL    HW2 6357   1.784   5.007   2.095
 1820SOL     OW 6358   3.692   0.238   2.855
 1820SOL    HW1 6359   3.778   0.240   2.906
 1820SOL    HW2 6360   3.707   0.271   2.762
 1821SOL     OW 6361   3.273   0.848   2.006
 1821SOL    HW1 6362   3.247   0.871   2.100
 1821SOL    HW2 6363   3.365   0.882   1.988
 1822SOL     OW 6364   1.214   3.377   1.507
 1822SOL    HW1 6365   1.127   3.376   1.557
 1822SOL    HW2 6366   1.285   3.334   1.563
 1823SOL     OW 6367   3.140   5.864   2.904
 1823SOL    HW1 6368   3.051   5.834   2.870
 1823SOL    HW2 6369   3.192   5.906   2.829
 1824SOL     OW 6370   4.020   3.688   0.439
 1824SOL    HW1 6371   4.063   3.639   0.514
 1824SOL    HW2 6372   4.088   3.707   0.368
 1825SOL     OW 6373   0.326   2.999   4.719
 1825SOL    HW1 6374   0.394   3.035   4.656
 1825SOL    HW2 6375   0.360   3.006   4.813
 1826SOL     OW 6376   3.072   1.164   0.945
 1826SOL    HW1 6377   3.135   1.123   1.011
 1826SOL    HW2 6378   3.005   1.220   0.994
 1827SOL     OW 6379   5.244   5.643   1.216
 1827SOL    HW1 6380   5.195   5.724   1.184
 1827SOL    HW2 6381   5.182   5.587   1.272
 1828SOL     OW 6382   1.898   3.132   6.430
 1828SOL    HW1 6383   1.816   3.088   6.393
 1828SOL    HW2 6384   1.893   3.133   6.530
 1829SOL     OW 6385   3.986   6.779   3.932
 1829SOL    HW1 6386   4.032   6.861   3.965
 1829SOL    HW2 6387   4.036   6.740   3.854
 1830SOL     OW 6388   5.949   6.695   5.149
 1830SOL    HW1 6389   5.864   6.698   5.201
 1830SOL    HW2 6390   5.929   6.679   5.053
 1831SOL     OW 6391   5.174   5.845   2.893
 1831SOL    HW1 6392   5.172   5.941   2.921
 1831SOL    HW2 6393   5.094   5.798   2.930
 1832SOL     OW 6394   3.220   2.982   0.044
 1832SOL    HW1 6395   3.123   2.964   0.024
 1832SOL    HW2 6396   3.275   2.961   6.990
 1833SOL     OW 6397   5.405   0.545   1.222
 1833SOL    HW1 6398   5.480   0.610   1.214
 1833SOL    HW2 6399   5.357   0.538   1.134
 1834SOL     OW 6400   2.362   3.476   1.343
 1834SOL    HW1 6401   2.383   3.573   1.333
 1834SOL    HW2 6402   2.444   3.426   1.369
 1835SOL     OW 6403   1.122   4.852   1.357
 1835SOL    HW1 6404   1.059   4.778   1.381
 1835SOL    HW2 6405   1.080   4.940   1.378
 1836SOL     OW 6406   5.463   2.567   2.118
 1836SOL    HW1 6407   5.433   2.613   2.034
 1836SOL    HW2 6408   5.401   2.491   2.138
 1837SOL     OW 6409   1.786   0.318   6.045
 1837SOL    HW1 6410   1.713   0.366   6.094
 1837SOL    HW2 6411   1.747   0.240   5.997
 1838SOL     OW 6412   6.179   0.562   6.347
 1838SOL    HW1 6413   6.107   0.626   6.321
 1838SOL    HW2 6414   6.137   0.482   6.391
 1839SOL     OW 6415   6.271   0.819   6.245
 1839SOL    HW1 6416   6.203   0.893   6.243
 1839SOL    HW2 6417   6.228   0.734   6.215
 1840SOL     OW 6418   4.028   0.575   2.481
 1840SOL    HW1 6419   4.050   0.644   2.412
 1840SOL    HW2 6420   4.032   0.484   2.440
 1841SOL     OW 6421   2.184   0.162   3.117
 1841SOL    HW1 6422   2.194   0.134   3.021
 1841SOL    HW2 6423   2.225   0.093   3.176
 1842SOL     OW 6424   0.819   5.515   0.859
 1842SOL    HW1 6425   0.896   5.526   0.922
 1842SOL    HW2 6426   0.733   5.529   0.910
 1843SOL     OW 6427   4.978   0.372   4.202
 1843SOL    HW1 6428   4.944   0.441   4.266
 1843SOL    HW2 6429   5.061   0.405   4.159
 1844SOL     OW 6430   4.671   1.571   5.476
 1844SOL    HW1 6431   4.709   1.510   5.547
 1844SOL    HW2 6432   4.739   1.640   5.451
 1845SOL     OW 6433   3.127   7.016   3.958
 1845SOL    HW1 6434   3.038   0.020   3.993
 1845SOL    HW2 6435   3.190   7.002   4.034
 1846SOL     OW 6436   4.988   1.071   3.457
 1846SOL    HW1 6437   4.927   0.992   3.457
 1846SOL    HW2 6438   5.002   1.103   3.363
 1847SOL     OW 6439   1.369   0.143   5.062
 1847SOL    HW1 6440   1.271   0.164   5.062
 1847SOL    HW2 6441   1.383   0.048   5.089
 1848SOL     OW 6442   1.566   6.521   4.106
 1848SOL    HW1 6443   1.652   6.485   4.068
 1848SOL    HW2 6444   1.587   6.591   4.174
 1849SOL     OW 6445   4.672   2.478   1.360
 1849SOL    HW1 6446   4.629   2.512   1.276
 1849SOL    HW2 6447   4.602   2.459   1.428
 1850SOL     OW 6448   6.035   1.723   2.668
 1850SOL    HW1 6449   6.022   1.784   2.745
 1850SOL    HW2 6450   6.045   1.776   2.584
 1851SOL     OW 6451   0.682   3.537   6.988
 1851SOL    HW1 6452   0.589   3.567   6.965
 1851SOL    HW2 6453   0.678   3.458   0.024
 1852SOL     OW 6454   0.506   4.838   1.832
 1852SOL    HW1 6455   0.471   4.863   1.742
 1852SOL    HW2 6456   0.604   4.818   1.826
 1853SOL     OW 6457   0.252   2.574   3.137
 1853SOL    HW1 6458   0.211   2.539   3.053
 1853SOL    HW2 6459   0.350   2.557   3.136
 1854SOL     OW 6460   1.202   5.225   3.034
 1854SOL    HW1 6461   1.138   5.162   2.990
 1854SOL    HW2 6462   1.151   5.299   3.079
 1855SOL     OW 6463   5.208   3.220   5.335
 1855SOL    HW1 6464   5.302   3.228   5.304
 1855SOL    HW2 6465   5.189   3.292   5.402
 1856SOL     OW 6466   3.900   3.376   6.275
 1856SOL    HW1 6467   3.848   3.455   6.307
 1856SOL    HW2 6468   3.972   3.354   6.341
 1857SOL     OW 6469   4.678   1.501   0.155
 1857SOL    HW1 6470   4.746   1.530   0.222
 1857SOL    HW2 6471   4.724   1.465   0.074
 1858SOL     OW 6472   5.948   2.956   3.314
 1858SOL    HW1 6473   5.918   2.925   3.224
 1858SOL    HW2 6474   5.901   2.904   3.385
 1859SOL     OW 6475   4.857   1.656   3.518
 1859SOL    HW1 6476   4.776   1.637   3.573
 1859SOL    HW2 6477   4.909   1.572   3.507
 1860SOL     OW 6478   0.688   1.937   5.796
 1860SOL    HW1 6479   0.694   1.840   5.823
 1860SOL    HW2 6480   0.716   1.947   5.701
 1861SOL     OW 6481   4.939   0.570   3.274
 1861SOL    HW1 6482   4.921   0.632   3.350
 1861SOL    HW2 6483   4.855   0.525   3.246
 1862SOL     OW 6484   1.353   6.791   6.600
 1862SOL    HW1 6485   1.370   6.708   6.654
 1862SOL    HW2 6486   1.264   6.783   6.555
 1863SOL     OW 6487   7.010   3.101   1.567
 1863SOL    HW1 6488   0.018   3.074   1.657
 1863SOL    HW2 6489   6.921   3.147   1.578
 1864SOL     OW 6490   3.685   5.739   3.920
 1864SOL    HW1 6491   3.755   5.674   3.889
 1864SOL    HW2 6492   3.627   5.765   3.842
 1865SOL     OW 6493   3.453   0.890   1.386
 1865SOL    HW1 6494   3.396   0.808   1.383
 1865SOL    HW2 6495   3.403   0.966   1.344
 1866SOL     OW 6496   6.462   4.850   3.640
 1866SOL    HW1 6497   6.384   4.807   3.596
 1866SOL    HW2 6498   6.494   4.926   3.584
 1867SOL     OW 6499   2.187   3.326   1.200
 1867SOL    HW1 6500   2.253   3.376   1.256
 1867SOL    HW2 6501   2.150   3.386   1.129
 1868SOL     OW 6502   5.063   3.505   5.687
 1868SOL    HW1 6503   5.019   3.446   5.755
 1868SOL    HW2 6504   5.024   3.597   5.693
 1869SOL     OW 6505   5.843   3.167   4.085
 1869SOL    HW1 6506   5.836   3.142   3.989
 1869SOL    HW2 6507   5.864   3.086   4.140
 1870SOL     OW 6508   1.116   3.288   4.769
 1870SOL    HW1 6509   1.049   3.225   4.730
 1870SOL    HW2 6510   1.069   3.372   4.797
 1871SOL     OW 6511   6.596   6.525   0.292
 1871SOL    HW1 6512   6.614   6.616   0.254
 1871SOL    HW2 6513   6.562   6.534   0.385
 1872SOL     OW 6514   3.995   2.111   0.388
 1872SOL    HW1 6515   3.906   2.101   0.343
 1872SOL    HW2 6516   4.014   2.029   0.442
 1873SOL     OW 6517   6.184   0.828   5.155
 1873SOL    HW1 6518   6.175   0.826   5.056
 1873SOL    HW2 6519   6.277   0.801   5.181
 1874SOL     OW 6520   1.024   0.982   6.898
 1874SOL    HW1 6521   1.029   1.059   6.963
 1874SOL    HW2 6522   1.045   0.897   6.946
 1875SOL     OW 6523   6.354   6.439   0.500
 1875SOL    HW1 6524   6.298   6.516   0.530
 1875SOL    HW2 6525   6.435   6.431   0.559
 1876SOL     OW 6526   5.053   6.607   6.147
 1876SOL    HW1 6527   5.104   6.683   6.105
 1876SOL    HW2 6528   5.086   6.520   6.111
 1877SOL     OW 6529   0.486   1.855   3.076
 1877SOL    HW1 6530   0.489   1.762   3.038
 1877SOL    HW2 6531   0.578   1.894   3.076
 1878SOL     OW 6532   6.982   4.143   3.181
 1878SOL    HW1 6533   6.950   4.164   3.273
 1878SOL    HW2 6534   0.026   4.072   3.185
 1879SOL     OW 6535   2.546   5.396   3.875
 1879SOL    HW1 6536   2.642   5.381   3.898
 1879SOL    HW2 6537   2.538   5.475   3.815
 1880SOL     OW 6538   1.093   2.722   3.162
 1880SOL    HW1 6539   1.131   2.798   3.109
 1880SOL    HW2 6540   1.031   2.669   3.104
 1881SOL     OW 6541   1.045   1.851   3.477
 1881SOL    HW1 6542   1.025   1.798   3.560
 1881SOL    HW2 6543   0.965   1.903   3.451
 1882SOL     OW 6544   0.818   5.286   6.817
 1882SOL    HW1 6545   0.904   5.330   6.792
 1882SOL    HW2 6546   0.770   5.257   6.735
 1883SOL     OW 6547   0.825   3.450   3.469
 1883SOL    HW1 6548   0.837   3.355   3.495
 1883SOL    HW2 6549   0.744   3.488   3.516
 1884SOL     OW 6550   5.397   1.219   1.461
 1884SOL    HW1 6551   5.397   1.309   1.506
 1884SOL    HW2 6552   5.359   1.228   1.369
 1885SOL     OW 6553   6.972   2.041   0.638
 1885SOL    HW1 6554   6.933   2.087   0.719
 1885SOL    HW2 6555   0.021   2.096   0.602
 1886SOL     OW 6556   2.093   2.175   0.464
 1886SOL    HW1 6557   2.073   2.226   0.381
 1886SOL    HW2 6558   2.106   2.078   0.441
 1887SOL     OW 6559   0.443   4.076   5.827
 1887SOL    HW1 6560   0.434   4.171   5.796
 1887SOL    HW2 6561   0.538   4.047   5.817
 1888SOL     OW 6562   2.478   1.672   6.518
 1888SOL    HW1 6563   2.445   1.629   6.602
 1888SOL    HW2 6564   2.440   1.764   6.511
 1889SOL     OW 6565   4.280   3.687   6.320
 1889SOL    HW1 6566   4.282   3.590   6.294
 1889SOL    HW2 6567   4.334   3.700   6.403
 1890SOL     OW 6568   1.501   5.576   6.219
 1890SOL    HW1 6569   1.493   5.675   6.211
 1890SOL    HW2 6570   1.517   5.537   6.128
 1891SOL     OW 6571   5.118   2.794   4.133
 1891SOL    HW1 6572   5.028   2.768   4.166
 1891SOL    HW2 6573   5.109   2.849   4.050
 1892SOL     OW 6574   3.697   6.528   1.197
 1892SOL    HW1 6575   3.638   6.586   1.140
 1892SOL    HW2 6576   3.692   6.434   1.165
 1893SOL     OW 6577   3.740   2.101   4.928
 1893SOL    HW1 6578   3.649   2.121   4.964
 1893SOL    HW2 6579   3.740   2.111   4.828
 1894SOL     OW 6580   4.530   3.196   1.462
 1894SOL    HW1 6581   4.612   3.206   1.405
 1894SOL    HW2 6582   4.451   3.178   1.404
 1895SOL     OW 6583   6.428   0.422   2.477
 1895SOL    HW1 6584   6.392   0.364   2.549
 1895SOL    HW2 6585   6.372   0.412   2.395
 1896SOL     OW 6586   6.902   1.102   2.943
 1896SOL    HW1 6587   6.901   1.085   3.042
 1896SOL    HW2 6588   6.835   1.173   2.921
 1897SOL     OW 6589   6.334   5.267   2.986
 1897SOL    HW1 6590   6.404   5.202   3.014
 1897SOL    HW2 6591   6.362   5.312   2.901
 1898SOL     OW 6592   3.731   6.205   1.771
 1898SOL    HW1 6593   3.746   6.299   1.741
 1898SOL    HW2 6594   3.773   6.142   1.705
 1899SOL     OW 6595   1.293   3.078   2.718
 1899SOL    HW1 6596   1.246   3.073   2.630
 1899SOL    HW2 6597   1.228   3.105   2.789
 1900SOL     OW 6598   1.306   0.317   5.913
 1900SOL    HW1 6599   1.277   0.234   5.866
 1900SOL    HW2 6600   1.272   0.317   6.007
 1901SOL     OW 6601   2.364   1.184   1.012
 1901SOL    HW1 6602   2.394   1.090   1.030
 1901SOL    HW2 6603   2.354   1.197   0.914
 1902SOL     OW 6604   1.763   2.409   5.008
 1902SOL    HW1 6605   1.845   2.418   4.951
 1902SOL    HW2 6606   1.745   2.312   5.025
 1903SOL     OW 6607   6.644   3.664   3.879
 1903SOL    HW1 6608   6.714   3.596   3.902
 1903SOL    HW2 6609   6.587   3.629   3.804
 1904SOL     OW 6610   6.795   0.327   4.052
 1904SOL    HW1 6611   6.807   0.416   4.008
 1904SOL    HW2 6612   6.882   0.299   4.092
 1905SOL     OW 6613   0.366   2.347   4.044
 1905SOL    HW1 6614   0.447   2.312   4.091
 1905SOL    HW2 6615   0.289   2.346   4.107
 1906SOL     OW 6616   2.522   6.929   5.587
 1906SOL    HW1 6617   2.590   6.859   5.604
 1906SOL    HW2 6618   2.513   6.944   5.488
 1907SOL     OW 6619   3.468   6.943   3.621
 1907SOL    HW1 6620   3.459   6.909   3.715
 1907SOL    HW2 6621   3.553   6.909   3.581
 1908SOL     OW 6622   4.537   0.965   4.894
 1908SOL    HW1 6623   4.528   0.974   4.994
 1908SOL    HW2 6624   4.592   0.884   4.873
 1909SOL     OW 6625   1.571   4.470   3.301
 1909SOL    HW1 6626   1.498   4.538   3.292
 1909SOL    HW2 6627   1.537   4.381   3.271
 1910SOL     OW 6628   5.852   2.170   6.280
 1910SOL    HW1 6629   5.854   2.119   6.194
 1910SOL    HW2 6630   5.761   2.161   6.321
 1911SOL     OW 6631   5.664   1.514   5.734
 1911SOL    HW1 6632   5.645   1.549   5.642
 1911SOL    HW2 6633   5.759   1.481   5.738
 1912SOL     OW 6634   3.921   6.533   2.145
 1912SOL    HW1 6635   3.914   6.613   2.085
 1912SOL    HW2 6636   3.933   6.451   2.089
 1913SOL     OW 6637   2.246   6.200   5.241
 1913SOL    HW1 6638   2.304   6.120   5.260
 1913SOL    HW2 6639   2.270   6.238   5.152
 1914SOL     OW 6640   2.792   2.657   6.966
 1914SOL    HW1 6641   2.720   2.720   6.938
 1914SOL    HW2 6642   2.802   2.585   6.897
 1915SOL     OW 6643   3.334   1.410   5.336
 1915SOL    HW1 6644   3.298   1.402   5.243
 1915SOL    HW2 6645   3.430   1.383   5.337
 1916SOL     OW 6646   3.840   5.670   0.532
 1916SOL    HW1 6647   3.744   5.684   0.556
 1916SOL    HW2 6648   3.847   5.594   0.467
 1917SOL     OW 6649   4.164   3.411   4.701
 1917SOL    HW1 6650   4.163   3.386   4.604
 1917SOL    HW2 6651   4.236   3.360   4.748
 1918SOL     OW 6652   6.721   6.546   6.625
 1918SOL    HW1 6653   6.768   6.551   6.713
 1918SOL    HW2 6654   6.687   6.453   6.611
 1919SOL     OW 6655   1.514   6.516   2.442
 1919SOL    HW1 6656   1.439   6.453   2.461
 1919SOL    HW2 6657   1.518   6.533   2.343
 1920SOL     OW 6658   0.340   4.911   3.372
 1920SOL    HW1 6659   0.401   4.918   3.293
 1920SOL    HW2 6660   0.295   4.999   3.387
 1921SOL     OW 6661   0.757   4.272   0.430
 1921SOL    HW1 6662   0.750   4.356   0.485
 1921SOL    HW2 6663   0.767   4.297   0.333
 1922SOL     OW 6664   3.684   3.963   1.408
 1922SOL    HW1 6665   3.732   3.921   1.330
 1922SOL    HW2 6666   3.733   3.940   1.492
 1923SOL     OW 6667   2.806   1.056   0.067
 1923SOL    HW1 6668   2.728   1.110   0.035
 1923SOL    HW2 6669   2.888   1.081   0.016
 1924SOL     OW 6670   5.397   5.543   2.469
 1924SOL    HW1 6671   5.371   5.479   2.541
 1924SOL    HW2 6672   5.446   5.494   2.397
 1925SOL     OW 6673   2.884   3.454   1.887
 1925SOL    HW1 6674   2.971   3.488   1.851
 1925SOL    HW2 6675   2.890   3.448   1.986
 1926SOL     OW 6676   0.874   6.990   4.102
 1926SOL    HW1 6677   0.872   6.894   4.130
 1926SOL    HW2 6678   0.883   0.023   4.183
 1927SOL     OW 6679   3.172   5.274   6.436
 1927SOL    HW1 6680   3.109   5.220   6.381
 1927SOL    HW2 6681   3.266   5.246   6.418
 1928SOL     OW 6682   6.763   3.402   6.143
 1928SOL    HW1 6683   6.727   3.446   6.225
 1928SOL    HW2 6684   6.693   3.343   6.103
 1929SOL     OW 6685   0.676   5.815   1.140
 1929SOL    HW1 6686   0.729   5.826   1.223
 1929SOL    HW2 6687   0.732   5.840   1.061
 1930SOL     OW 6688   4.238   4.151   6.761
 1930SOL    HW1 6689   4.226   4.062   6.804
 1930SOL    HW2 6690   4.239   4.140   6.661
 1931SOL     OW 6691   0.277   3.323   3.941
 1931SOL    HW1 6692   0.195   3.340   3.996
 1931SOL    HW2 6693   0.285   3.226   3.921
 1932SOL     OW 6694   5.064   4.167   2.369
 1932SOL    HW1 6695   5.022   4.153   2.279
 1932SOL    HW2 6696   5.043   4.089   2.428
 1933SOL     OW 6697   3.153   4.506   0.526
 1933SOL    HW1 6698   3.065   4.498   0.572
 1933SOL    HW2 6699   3.189   4.415   0.508
 1934SOL     OW 6700   0.294   0.620   5.541
 1934SOL    HW1 6701   0.247   0.693   5.591
 1934SOL    HW2 6702   0.227   0.553   5.509
 1935SOL     OW 6703   3.492   0.328   5.147
 1935SOL    HW1 6704   3.408   0.291   5.185
 1935SOL    HW2 6705   3.470   0.392   5.073
 1936SOL     OW 6706   5.915   3.964   3.906
 1936SOL    HW1 6707   5.867   3.885   3.944
 1936SOL    HW2 6708   5.904   3.965   3.807
 1937SOL     OW 6709   4.410   6.645   1.335
 1937SOL    HW1 6710   4.499   6.688   1.346
 1937SOL    HW2 6711   4.379   6.656   1.241
 1938SOL     OW 6712   4.077   1.301   2.917
 1938SOL    HW1 6713   4.141   1.356   2.863
 1938SOL    HW2 6714   4.054   1.218   2.866
 1939SOL     OW 6715   0.287   6.449   4.592
 1939SOL    HW1 6716   0.371   6.477   4.639
 1939SOL    HW2 6717   0.212   6.443   4.658
 1940SOL     OW 6718   5.035   4.960   6.050
 1940SOL    HW1 6719   5.101   4.922   6.115
 1940SOL    HW2 6720   5.008   5.051   6.079
 1941SOL     OW 6721   0.210   3.677   3.367
 1941SOL    HW1 6722   0.195   3.585   3.330
 1941SOL    HW2 6723   0.126   3.711   3.409
 1942SOL     OW 6724   6.385   0.564   2.964
 1942SOL    HW1 6725   6.318   0.547   3.036
 1942SOL    HW2 6726   6.380   0.660   2.935
 1943SOL     OW 6727   3.235   6.136   2.498
 1943SOL    HW1 6728   3.232   6.060   2.434
 1943SOL    HW2 6729   3.163   6.202   2.477
 1944SOL     OW 6730   5.351   2.304   6.584
 1944SOL    HW1 6731   5.414   2.248   6.637
 1944SOL    HW2 6732   5.344   2.267   6.491
 1945SOL     OW 6733   3.871   6.065   2.417
 1945SOL    HW1 6734   3.808   6.017   2.478
 1945SOL    HW2 6735   3.930   5.999   2.370
 1946SOL     OW 6736   6.127   0.853   0.891
 1946SOL    HW1 6737   6.202   0.822   0.949
 1946SOL    HW2 6738   6.063   0.777   0.877
 1947SOL     OW 6739   4.878   6.592   3.912
 1947SOL    HW1 6740   4.912   6.569   3.821
 1947SOL    HW2 6741   4.799   6.652   3.904
 1948SOL     OW 6742   6.217   5.825   4.045
 1948SOL    HW1 6743   6.152   5.791   3.976
 1948SOL    HW2 6744   6.297   5.864   3.999
 1949SOL     OW 6745   4.449   4.472   5.581
 1949SOL    HW1 6746   4.511   4.502   5.509
 1949SOL    HW2 6747   4.469   4.377   5.606
 1950SOL     OW 6748   3.280   3.965   1.033
 1950SOL    HW1 6749   3.331   4.048   1.014
 1950SOL    HW2 6750   3.186   3.975   0.999
 1951SOL     OW 6751   6.213   3.968   0.781
 1951SOL    HW1 6752   6.306   4.003   0.794
 1951SOL    HW2 6753   6.205   3.878   0.823
 1952SOL     OW 6754   3.547   2.517   0.232
 1952SOL    HW1 6755   3.506   2.582   0.296
 1952SOL    HW2 6756   3.612   2.564   0.173
 1953SOL     OW 6757   6.535   2.925   0.145
 1953SOL    HW1 6758   6.587   2.873   0.077
 1953SOL    HW2 6759   6.543   2.881   0.234
 1954SOL     OW 6760   5.633   1.002   4.170
 1954SOL    HW1 6761   5.568   1.070   4.206
 1954SOL    HW2 6762   5.610   0.912   4.205
 1955SOL     OW 6763   1.716   1.130   2.636
 1955SOL    HW1 6764   1.799   1.183   2.652
 1955SOL    HW2 6765   1.694   1.078   2.718
 1956SOL     OW 6766   5.813   0.370   2.349
 1956SOL    HW1 6767   5.893   0.352   2.406
 1956SOL    HW2 6768   5.820   0.319   2.264
 1957SOL     OW 6769   6.514   5.378   4.892
 1957SOL    HW1 6770   6.548   5.310   4.957
 1957SOL    HW2 6771   6.456   5.332   4.824
 1958SOL     OW 6772   6.145   2.781   3.562
 1958SOL    HW1 6773   6.095   2.836   3.629
 1958SOL    HW2 6774   6.242   2.806   3.564
 1959SOL     OW 6775   0.128   1.750   6.283
 1959SOL    HW1 6776   0.153   1.659   6.318
 1959SOL    HW2 6777   0.156   1.820   6.349
 1960SOL     OW 6778   7.021   4.019   0.905
 1960SOL    HW1 6779   7.018   3.938   0.846
 1960SOL    HW2 6780   6.932   4.064   0.906
 1961SOL     OW 6781   5.956   4.731   4.508
 1961SOL    HW1 6782   5.916   4.691   4.591
 1961SOL    HW2 6783   5.885   4.780   4.457
 1962SOL     OW 6784   2.704   6.635   3.341
 1962SOL    HW1 6785   2.770   6.639   3.416
 1962SOL    HW2 6786   2.713   6.547   3.294
 1963SOL     OW 6787   0.689   0.819   1.225
 1963SOL    HW1 6788   0.706   0.721   1.230
 1963SOL    HW2 6789   0.690   0.857   1.318
 1964SOL     OW 6790   4.451   3.076   1.673
 1964SOL    HW1 6791   4.512   3.068   1.752
 1964SOL    HW2 6792   4.499   3.120   1.597
 1965SOL     OW 6793   1.068   3.570   3.516
 1965SOL    HW1 6794   1.075   3.614   3.606
 1965SOL    HW2 6795   0.983   3.518   3.511
 1966SOL     OW 6796   6.824   5.662   5.710
 1966SOL    HW1 6797   6.851   5.738   5.769
 1966SOL    HW2 6798   6.730   5.677   5.677
 1967SOL     OW 6799   4.710   2.294   4.854
 1967SOL    HW1 6800   4.641   2.364   4.872
 1967SOL    HW2 6801   4.683   2.242   4.773
 1968SOL     OW 6802   3.529   6.114   0.393
 1968SOL    HW1 6803   3.491   6.181   0.330
 1968SOL    HW2 6804   3.487   6.025   0.376
 1969SOL     OW 6805   0.653   1.852   1.692
 1969SOL    HW1 6806   0.571   1.879   1.743
 1969SOL    HW2 6807   0.658   1.752   1.687
 1970SOL     OW 6808   2.249   0.314   5.764
 1970SOL    HW1 6809   2.275   0.229   5.717
 1970SOL    HW2 6810   2.155   0.338   5.740
 1971SOL     OW 6811   6.679   6.913   6.335
 1971SOL    HW1 6812   6.602   6.977   6.335
 1971SOL    HW2 6813   6.763   6.963   6.353
 1972SOL     OW 6814   5.901   2.419   2.728
 1972SOL    HW1 6815   5.998   2.443   2.723
 1972SOL    HW2 6816   5.852   2.461   2.652
 1973SOL     OW 6817   2.314   3.608   0.377
 1973SOL    HW1 6818   2.395   3.629   0.432
 1973SOL    HW2 6819   2.272   3.524   0.412
 1974SOL     OW 6820   6.158   6.321   4.145
 1974SOL    HW1 6821   6.215   6.310   4.064
 1974SOL    HW2 6822   6.123   6.415   4.149
 1975SOL     OW 6823   2.531   1.435   2.962
 1975SOL    HW1 6824   2.591   1.355   2.957
 1975SOL    HW2 6825   2.500   1.459   2.870
 1976SOL     OW 6826   0.501   5.468   0.204
 1976SOL    HW1 6827   0.596   5.447   0.223
 1976SOL    HW2 6828   0.496   5.540   0.134
 1977SOL     OW 6829   1.222   3.587   3.307
 1977SOL    HW1 6830   1.157   3.570   3.233
 1977SOL    HW2 6831   1.174   3.584   3.395
 1978SOL     OW 6832   0.807   1.028   3.739
 1978SOL    HW1 6833   0.728   1.021   3.800
 1978SOL    HW2 6834   0.841   0.936   3.719
 1979SOL     OW 6835   6.212   4.201   5.408
 1979SOL    HW1 6836   6.295   4.146   5.406
 1979SOL    HW2 6837   6.144   4.162   5.345
 1980SOL     OW 6838   2.943   0.832   6.270
 1980SOL    HW1 6839   2.852   0.835   6.230
 1980SOL    HW2 6840   2.935   0.840   6.370
 1981SOL     OW 6841   6.458   2.325   2.605
 1981SOL    HW1 6842   6.464   2.422   2.630
 1981SOL    HW2 6843   6.375   2.286   2.645
 1982SOL     OW 6844   0.212   4.028   5.040
 1982SOL    HW1 6845   0.270   4.004   5.118
 1982SOL    HW2 6846   0.164   4.114   5.058
 1983SOL     OW 6847   0.636   1.335   3.038
 1983SOL    HW1 6848   0.596   1.274   3.106
 1983SOL    HW2 6849   0.736   1.331   3.045
 1984SOL     OW 6850   5.492   1.343   4.549
 1984SOL    HW1 6851   5.564   1.404   4.516
 1984SOL    HW2 6852   5.533   1.267   4.600
 1985SOL     OW 6853   1.125   0.070   2.599
 1985SOL    HW1 6854   1.071   0.020   2.531
 1985SOL    HW2 6855   1.156   0.007   2.670
 1986SOL     OW 6856   1.358   0.396   6.933
 1986SOL    HW1 6857   1.375   0.384   6.835
 1986SOL    HW2 6858   1.445   0.407   6.981
 1987SOL     OW 6859   0.986   3.034   0.867
 1987SOL    HW1 6860   1.053   2.979   0.816
 1987SOL    HW2 6861   0.944   2.977   0.939
 1988SOL     OW 6862   4.920   4.953   1.047
 1988SOL    HW1 6863   4.896   4.983   1.139
 1988SOL    HW2 6864   4.839   4.955   0.989
 1989SOL     OW 6865   2.149   6.821   4.885
 1989SOL    HW1 6866   2.120   6.845   4.978
 1989SOL    HW2 6867   2.216   6.747   4.889
 1990SOL     OW 6868   3.001   6.345   0.696
 1990SOL    HW1 6869   2.929   6.363   0.628
 1990SOL    HW2 6870   3.086   6.321   0.649
 1991SOL     OW 6871   3.950   5.108   6.327
 1991SOL    HW1 6872   3.990   5.198   6.342
 1991SOL    HW2 6873   4.004   5.058   6.259
 1992SOL     OW 6874   0.568   6.996   6.680
 1992SOL    HW1 6875   0.575   0.065   6.709
 1992SOL    HW2 6876   0.659   6.958   6.665
 1993SOL     OW 6877   3.764   3.696   4.360
 1993SOL    HW1 6878   3.858   3.679   4.391
 1993SOL    HW2 6879   3.700   3.642   4.416
 1994SOL     OW 6880   1.312   1.990   0.389
 1994SOL    HW1 6881   1.259   2.061   0.344
 1994SOL    HW2 6882   1.299   1.995   0.488
 1995SOL     OW 6883   6.246   2.062   1.980
 1995SOL    HW1 6884   6.319   2.005   1.943
 1995SOL    HW2 6885   6.212   2.124   1.908
 1996SOL     OW 6886   2.610   4.070   0.795
 1996SOL    HW1 6887   2.676   4.095   0.725
 1996SOL    HW2 6888   2.533   4.022   0.752
 1997SOL     OW 6889   4.680   0.392   5.120
 1997SOL    HW1 6890   4.693   0.342   5.206
 1997SOL    HW2 6891   4.588   0.433   5.119
 1998SOL     OW 6892   3.304   3.965   6.360
 1998SOL    HW1 6893   3.217   3.947   6.405
 1998SOL    HW2 6894   3.342   3.880   6.324
 1999SOL     OW 6895   3.328   6.516   1.549
 1999SOL    HW1 6896   3.348   6.485   1.642
 1999SOL    HW2 6897   3.414   6.527   1.499
 2000SOL     OW 6898   3.988   1.817   5.223
 2000SOL    HW1 6899   4.002   1.916   5.230
 2000SOL    HW2 6900   4.068   1.769   5.258
 2001SOL     OW 6901   3.409   1.745   1.837
 2001SOL    HW1 6902   3.422   1.656   1.795
 2001SOL    HW2 6903   3.437   1.817   1.772
 2002SOL     OW 6904   1.159   5.331   6.244
 2002SOL    HW1 6905   1.183   5.334   6.147
 2002SOL    HW2 6906   1.060   5.319   6.253
 2003SOL     OW 6907   6.255   6.764   3.406
 2003SOL    HW1 6908   6.285   6.845   3.455
 2003SOL    HW2 6909   6.196   6.790   3.330
 2004SOL     OW 6910   4.480   1.556   5.285
 2004SOL    HW1 6911   4.433   1.468   5.280
 2004SOL    HW2 6912   4.566   1.545   5.335
 2005SOL     OW 6913   0.864   4.519   6.720
 2005SOL    HW1 6914   0.954   4.538   6.759
 2005SOL    HW2 6915   0.875   4.462   6.638
 2006SOL     OW 6916   5.754   4.942   4.079
 2006SOL    HW1 6917   5.756   5.033   4.037
 2006SOL    HW2 6918   5.771   4.950   4.177
 2007SOL     OW 6919   4.118   4.953   0.970
 2007SOL    HW1 6920   4.145   5.022   1.037
 2007SOL    HW2 6921   4.090   4.998   0.885
 2008SOL     OW 6922   1.327   5.647   3.079
 2008SOL    HW1 6923   1.382   5.706   3.019
 2008SOL    HW2 6924   1.320   5.556   3.038
 2009SOL     OW 6925   6.119   7.016   1.686
 2009SOL    HW1 6926   6.186   6.994   1.615
 2009SOL    HW2 6927   6.054   0.058   1.650
 2010SOL     OW 6928   1.761   1.597   1.378
 2010SOL    HW1 6929   1.785   1.630   1.469
 2010SOL    HW2 6930   1.832   1.626   1.313
 2011SOL     OW 6931   6.399   1.320   5.063
 2011SOL    HW1 6932   6.355   1.287   4.979
 2011SOL    HW2 6933   6.498   1.325   5.049
 2012SOL     OW 6934   1.196   2.929   1.616
 2012SOL    HW1 6935   1.280   2.973   1.586
 2012SOL    HW2 6936   1.215   2.834   1.641
 2013SOL     OW 6937   6.133   0.916   2.945
 2013SOL    HW1 6938   6.062   0.899   3.013
 2013SOL    HW2 6939   6.095   0.969   2.869
 2014SOL     OW 6940   2.128   5.347   3.090
 2014SOL    HW1 6941   2.068   5.373   3.166
 2014SOL    HW2 6942   2.075   5.295   3.023
 2015SOL     OW 6943   2.171   2.342   0.635
 2015SOL    HW1 6944   2.098   2.410   0.645
 2015SOL    HW2 6945   2.151   2.282   0.558
 2016SOL     OW 6946   1.150   5.352   5.002
 2016SOL    HW1 6947   1.129   5.264   4.959
 2016SOL    HW2 6948   1.249   5.363   5.010
 2017SOL     OW 6949   2.407   6.926   4.204
 2017SOL    HW1 6950   2.453   6.981   4.274
 2017SOL    HW2 6951   2.421   6.829   4.225
 2018SOL     OW 6952   5.882   6.920   6.300
 2018SOL    HW1 6953   5.876   6.820   6.296
 2018SOL    HW2 6954   5.885   6.956   6.207
 2019SOL     OW 6955   4.877   2.471   2.336
 2019SOL    HW1 6956   4.789   2.497   2.375
 2019SOL    HW2 6957   4.881   2.372   2.325
 2020SOL     OW 6958   0.859   5.490   5.381
 2020SOL    HW1 6959   0.950   5.532   5.386
 2020SOL    HW2 6960   0.790   5.562   5.380
 2021SOL     OW 6961   2.322   5.540   3.068
 2021SOL    HW1 6962   2.388   5.530   2.994
 2021SOL    HW2 6963   2.259   5.462   3.067
 2022SOL     OW 6964   1.781   3.157   3.007
 2022SOL    HW1 6965   1.836   3.132   3.087
 2022SOL    HW2 6966   1.750   3.074   2.961
 2023SOL     OW 6967   6.167   1.273   6.556
 2023SOL    HW1 6968   6.262   1.297   6.537
 2023SOL    HW2 6969   6.111   1.356   6.556
 2024SOL     OW 6970   6.767   7.016   3.260
 2024SOL    HW1 6971   6.832   6.946   3.289
 2024SOL    HW2 6972   6.812   0.080   3.260
 2025SOL     OW 6973   2.147   2.708   2.140
 2025SOL    HW1 6974   2.075   2.639   2.131
 2025SOL    HW2 6975   2.141   2.773   2.064
 2026SOL     OW 6976   1.141   2.769   5.990
 2026SOL    HW1 6977   1.106   2.862   5.987
 2026SOL    HW2 6978   1.211   2.762   6.061
 2027SOL     OW 6979   0.957   1.557   0.734
 2027SOL    HW1 6980   0.904   1.480   0.769
 2027SOL    HW2 6981   0.981   1.540   0.639
 2028SOL     OW 6982   3.017   1.163   6.270
 2028SOL    HW1 6983   2.994   1.077   6.224
 2028SOL    HW2 6984   2.936   1.200   6.314
 2029SOL     OW 6985   6.872   0.838   0.827
 2029SOL    HW1 6986   6.964   0.847   0.866
 2029SOL    HW2 6987   6.815   0.784   0.890
 2030SOL     OW 6988   2.279   0.764   3.290
 2030SOL    HW1 6989   2.324   0.786   3.204
 2030SOL    HW2 6990   2.318   0.818   3.364
 2031SOL     OW 6991   5.783   6.181   2.063
 2031SOL    HW1 6992   5.882   6.166   2.071
 2031SOL    HW2 6993   5.759   6.268   2.104
 2032SOL     OW 6994   3.971   6.802   2.061
 2032SOL    HW1 6995   4.031   6.849   2.125
 2032SOL    HW2 6996   3.887   6.854   2.049
 2033SOL     OW 6997   3.701   3.854   6.669
 2033SOL    HW1 6998   3.674   3.780   6.731
 2033SOL    HW2 6999   3.636   3.929   6.678
 2034SOL     OW 7000   3.232   6.770   4.345
 2034SOL    HW1 7001   3.155   6.740   4.289
 2034SOL    HW2 7002   3.269   6.692   4.395
 2035SOL     OW 7003   0.233   0.457   2.035
 2035SOL    HW1 7004   0.325   0.434   2.067
 2035SOL    HW2 7005   0.166   0.400   2.082
 2036SOL     OW 7006   1.352   5.431   2.908
 2036SOL    HW1 7007   1.302   5.346   2.919
 2036SOL    HW2 7008   1.369   5.447   2.811
 2037SOL     OW 7009   0.707   2.989   5.845
 2037SOL    HW1 7010   0.778   3.054   5.871
 2037SOL    HW2 7011   0.741   2.928   5.774
 2038SOL     OW 7012   1.720   2.032   0.077
 2038SOL    HW1 7013   1.654   2.100   0.108
 2038SOL    HW2 7014   1.774   2.070   0.002
 2039SOL     OW 7015   0.275   5.180   2.708
 2039SOL    HW1 7016   0.260   5.082   2.695
 2039SOL    HW2 7017   0.294   5.199   2.804
 2040SOL     OW 7018   3.907   3.127   5.115
 2040SOL    HW1 7019   3.895   3.029   5.095
 2040SOL    HW2 7020   3.817   3.169   5.128
 2041SOL     OW 7021   6.491   5.553   5.936
 2041SOL    HW1 7022   6.416   5.590   5.990
 2041SOL    HW2 7023   6.537   5.480   5.987
 2042SOL     OW 7024   5.813   4.699   6.815
 2042SOL    HW1 7025   5.730   4.646   6.802
 2042SOL    HW2 7026   5.812   4.778   6.754
 2043SOL     OW 7027   6.427   4.407   3.030
 2043SOL    HW1 7028   6.457   4.374   2.941
 2043SOL    HW2 7029   6.328   4.393   3.039
 2044SOL     OW 7030   4.880   0.012   1.745
 2044SOL    HW1 7031   4.922   0.103   1.747
 2044SOL    HW2 7032   4.826   0.002   1.661
 2045SOL     OW 7033   2.865   4.736   3.969
 2045SOL    HW1 7034   2.791   4.677   4.002
 2045SOL    HW2 7035   2.911   4.691   3.892
 2046SOL     OW 7036   0.395   1.503   3.971
 2046SOL    HW1 7037   0.439   1.552   4.046
 2046SOL    HW2 7038   0.466   1.463   3.912
 2047SOL     OW 7039   5.116   2.263   0.274
 2047SOL    HW1 7040   5.093   2.172   0.307
 2047SOL    HW2 7041   5.186   2.303   0.333
 2048SOL     OW 7042   1.901   5.688   0.565
 2048SOL    HW1 7043   1.938   5.617   0.625
 2048SOL    HW2 7044   1.849   5.645   0.491
 2049SOL     OW 7045   4.983   1.736   6.483
 2049SOL    HW1 7046   4.895   1.723   6.437
 2049SOL    HW2 7047   5.001   1.834   6.493
 2050SOL     OW 7048   0.554   3.171   2.831
 2050SOL    HW1 7049   0.511   3.085   2.805
 2050SOL    HW2 7050   0.506   3.210   2.910
 2051SOL     OW 7051   0.957   5.936   1.104
 2051SOL    HW1 7052   0.947   5.897   1.196
 2051SOL    HW2 7053   0.960   6.036   1.110
 2052SOL     OW 7054   0.726   4.177   0.851
 2052SOL    HW1 7055   0.657   4.123   0.899
 2052SOL    HW2 7056   0.815   4.132   0.858
 2053SOL     OW 7057   5.527   6.963   5.229
 2053SOL    HW1 7058   5.597   6.976   5.299
 2053SOL    HW2 7059   5.523   6.866   5.204
 2054SOL     OW 7060   4.104   3.156   2.001
 2054SOL    HW1 7061   4.023   3.098   2.009
 2054SOL    HW2 7062   4.147   3.165   2.090
 2055SOL     OW 7063   6.237   3.385   3.366
 2055SOL    HW1 7064   6.143   3.375   3.332
 2055SOL    HW2 7065   6.271   3.297   3.398
 2056SOL     OW 7066   2.396   0.387   3.166
 2056SOL    HW1 7067   2.483   0.339   3.172
 2056SOL    HW2 7068   2.330   0.329   3.117
 2057SOL     OW 7069   5.263   3.255   3.778
 2057SOL    HW1 7070   5.253   3.200   3.861
 2057SOL    HW2 7071   5.191   3.231   3.714
 2058SOL     OW 7072   0.751   1.902   3.071
 2058SOL    HW1 7073   0.838   1.903   3.121
 2058SOL    HW2 7074   0.748   1.822   3.011
 2059SOL     OW 7075   2.504   6.190   5.982
 2059SOL    HW1 7076   2.566   6.143   6.045
 2059SOL    HW2 7077   2.518   6.155   5.889
 2060SOL     OW 7078   5.729   4.693   0.927
 2060SOL    HW1 7079   5.720   4.607   0.978
 2060SOL    HW2 7080   5.691   4.681   0.835
 2061SOL     OW 7081   0.422   2.260   2.828
 2061SOL    HW1 7082   0.358   2.184   2.819
 2061SOL    HW2 7083   0.447   2.271   2.924
 2062SOL     OW 7084   6.151   7.026   3.513
 2062SOL    HW1 7085   6.183   6.994   3.602
 2062SOL    HW2 7086   6.056   0.030   3.522
 2063SOL     OW 7087   1.836   6.967   6.263
 2063SOL    HW1 7088   1.910   7.015   6.217
 2063SOL    HW2 7089   1.770   6.935   6.196
 2064SOL     OW 7090   0.778   2.776   5.702
 2064SOL    HW1 7091   0.837   2.791   5.623
 2064SOL    HW2 7092   0.815   2.701   5.758
 2065SOL     OW 7093   6.726   2.810   4.620
 2065SOL    HW1 7094   6.671   2.872   4.564
 2065SOL    HW2 7095   6.812   2.855   4.644
 2066SOL     OW 7096   0.866   5.745   3.305
 2066SOL    HW1 7097   0.779   5.696   3.317
 2066SOL    HW2 7098   0.901   5.728   3.213
 2067SOL     OW 7099   6.965   5.349   0.900
 2067SOL    HW1 7100   7.000   5.256   0.898
 2067SOL    HW2 7101   6.933   5.371   0.992
 2068SOL     OW 7102   1.496   1.454   5.192
 2068SOL    HW1 7103   1.571   1.517   5.173
 2068SOL    HW2 7104   1.484   1.446   5.291
 2069SOL     OW 7105   0.865   3.387   3.159
 2069SOL    HW1 7106   0.782   3.384   3.215
 2069SOL    HW2 7107   0.922   3.308   3.180
 2070SOL     OW 7108   1.434   0.678   1.911
 2070SOL    HW1 7109   1.454   0.713   2.003
 2070SOL    HW2 7110   1.335   0.676   1.898
 2071SOL     OW 7111   5.639   6.057   5.390
 2071SOL    HW1 7112   5.713   5.997   5.358
 2071SOL    HW2 7113   5.594   6.016   5.469
 2072SOL     OW 7114   4.213   0.135   2.581
 2072SOL    HW1 7115   4.176   0.125   2.673
 2072SOL    HW2 7116   4.295   0.192   2.583
 2073SOL     OW 7117   3.995   6.764   4.517
 2073SOL    HW1 7118   4.060   6.719   4.456
 2073SOL    HW2 7119   4.038   6.845   4.557
 2074SOL     OW 7120   1.538   2.925   0.357
 2074SOL    HW1 7121   1.553   2.847   0.297
 2074SOL    HW2 7122   1.590   2.914   0.441
 2075SOL     OW 7123   5.384   3.135   1.321
 2075SOL    HW1 7124   5.363   3.231   1.301
 2075SOL    HW2 7125   5.436   3.096   1.245
 2076SOL     OW 7126   5.350   6.996   6.511
 2076SOL    HW1 7127   5.296   6.943   6.445
 2076SOL    HW2 7128   5.395   6.934   6.574
 2077SOL     OW 7129   5.633   2.856   2.274
 2077SOL    HW1 7130   5.561   2.812   2.220
 2077SOL    HW2 7131   5.596   2.883   2.363
 2078SOL     OW 7132   1.160   5.586   6.183
 2078SOL    HW1 7133   1.080   5.541   6.222
 2078SOL    HW2 7134   1.243   5.534   6.205
 2079SOL     OW 7135   5.235   1.832   3.680
 2079SOL    HW1 7136   5.295   1.829   3.600
 2079SOL    HW2 7137   5.271   1.898   3.746
 2080SOL     OW 7138   1.710   0.922   4.636
 2080SOL    HW1 7139   1.654   0.950   4.714
 2080SOL    HW2 7140   1.676   0.835   4.600
 2081SOL     OW 7141   1.449   5.459   4.120
 2081SOL    HW1 7142   1.469   5.556   4.132
 2081SOL    HW2 7143   1.367   5.448   4.064
 2082SOL     OW 7144   0.180   6.910   3.377
 2082SOL    HW1 7145   0.169   6.953   3.287
 2082SOL    HW2 7146   0.090   6.899   3.420
 2083SOL     OW 7147   5.822   4.914   6.611
 2083SOL    HW1 7148   5.739   4.886   6.562
 2083SOL    HW2 7149   5.889   4.950   6.545
 2084SOL     OW 7150   1.498   3.839   3.912
 2084SOL    HW1 7151   1.416   3.879   3.953
 2084SOL    HW2 7152   1.503   3.864   3.815
 2085SOL     OW 7153   4.465   0.584   6.615
 2085SOL    HW1 7154   4.392   0.567   6.681
 2085SOL    HW2 7155   4.551   0.599   6.663
 2086SOL     OW 7156   4.209   6.660   5.686
 2086SOL    HW1 7157   4.132   6.620   5.737
 2086SOL    HW2 7158   4.259   6.723   5.745
 2087SOL     OW 7159   4.875   0.407   1.514
 2087SOL    HW1 7160   4.904   0.502   1.507
 2087SOL    HW2 7161   4.851   0.372   1.423
 2088SOL     OW 7162   2.955   6.079   0.179
 2088SOL    HW1 7163   2.907   6.006   0.227
 2088SOL    HW2 7164   2.951   6.063   0.080
 2089SOL     OW 7165   5.608   2.124   6.437
 2089SOL    HW1 7166   5.599   2.033   6.477
 2089SOL    HW2 7167   5.518   2.164   6.422
 2090SOL     OW 7168   3.504   3.243   5.942
 2090SOL    HW1 7169   3.520   3.243   5.844
 2090SOL    HW2 7170   3.407   3.224   5.961
 2091SOL     OW 7171   0.017   5.802   0.627
 2091SOL    HW1 7172   0.080   5.770   0.698
 2091SOL    HW2 7173   0.068   5.816   0.542
 2092SOL     OW 7174   5.779   4.248   6.975
 2092SOL    HW1 7175   5.742   4.214   6.889
 2092SOL    HW2 7176   5.712   4.232   0.022
 2093SOL     OW 7177   2.478   2.139   1.405
 2093SOL    HW1 7178   2.546   2.091   1.461
 2093SOL    HW2 7179   2.507   2.233   1.391
 2094SOL     OW 7180   5.602   1.773   0.955
 2094SOL    HW1 7181   5.558   1.862   0.940
 2094SOL    HW2 7182   5.532   1.704   0.975
 2095SOL     OW 7183   5.658   0.040   4.785
 2095SOL    HW1 7184   5.668   0.100   4.706
 2095SOL    HW2 7185   5.586   0.075   4.845
 2096SOL     OW 7186   4.917   4.311   2.590
 2096SOL    HW1 7187   4.911   4.382   2.661
 2096SOL    HW2 7188   4.994   4.331   2.530
 2097SOL     OW 7189   2.796   2.899   6.758
 2097SOL    HW1 7190   2.828   2.899   6.663
 2097SOL    HW2 7191   2.708   2.850   6.763
 2098SOL     OW 7192   4.235   5.982   2.731
 2098SOL    HW1 7193   4.218   5.982   2.830
 2098SOL    HW2 7194   4.312   5.921   2.711
 2099SOL     OW 7195   2.307   3.099   6.014
 2099SOL    HW1 7196   2.290   3.173   5.950
 2099SOL    HW2 7197   2.259   3.017   5.984
 2100SOL     OW 7198   4.517   2.726   6.187
 2100SOL    HW1 7199   4.435   2.677   6.155
 2100SOL    HW2 7200   4.585   2.660   6.217
 2101SOL     OW 7201   1.332   6.279   2.478
 2101SOL    HW1 7202   1.328   6.220   2.398
 2101SOL    HW2 7203   1.252   6.264   2.535
 2102SOL     OW 7204   6.653   4.619   2.017
 2102SOL    HW1 7205   6.639   4.690   2.086
 2102SOL    HW2 7206   6.615   4.533   2.050
 2103SOL     OW 7207   3.986   4.543   5.565
 2103SOL    HW1 7208   4.075   4.497   5.565
 2103SOL    HW2 7209   3.916   4.481   5.601
 2104SOL     OW 7210   2.059   3.846   1.105
 2104SOL    HW1 7211   2.075   3.870   1.200
 2104SOL    HW2 7212   1.982   3.899   1.070
 2105SOL     OW 7213   5.110   5.836   5.517
 2105SOL    HW1 7214   5.023   5.886   5.518
 2105SOL    HW2 7215   5.119   5.789   5.429
 2106SOL     OW 7216   4.535   4.098   1.174
 2106SOL    HW1 7217   4.628   4.081   1.206
 2106SOL    HW2 7218   4.494   4.170   1.229
 2107SOL     OW 7219   4.948   2.395   5.261
 2107SOL    HW1 7220   4.994   2.329   5.320
 2107SOL    HW2 7221   4.917   2.349   5.177
 2108SOL     OW 7222   6.551   5.955   5.062
 2108SOL    HW1 7223   6.602   5.872   5.084
 2108SOL    HW2 7224   6.453   5.937   5.072
 2109SOL     OW 7225   4.134   6.403   2.426
 2109SOL    HW1 7226   4.127   6.495   2.388
 2109SOL    HW2 7227   4.057   6.386   2.488
 2110SOL     OW 7228   2.478   1.925   7.019
 2110SOL    HW1 7229   2.441   1.915   6.927
 2110SOL    HW2 7230   2.515   1.838   0.025
 2111SOL     OW 7231   1.102   2.495   6.858
 2111SOL    HW1 7232   1.039   2.565   6.825
 2111SOL    HW2 7233   1.068   2.458   6.945
 2112SOL     OW 7234   5.192   3.594   0.254
 2112SOL    HW1 7235   5.244   3.528   0.308
 2112SOL    HW2 7236   5.192   3.566   0.158
 2113SOL     OW 7237   1.887   2.065   5.385
 2113SOL    HW1 7238   1.947   2.006   5.331
 2113SOL    HW2 7239   1.920   2.160   5.380
 2114SOL     OW 7240   1.602   2.533   0.111
 2114SOL    HW1 7241   1.530   2.595   0.143
 2114SOL    HW2 7242   1.571   2.487   0.027
 2115SOL     OW 7243   2.089   3.462   2.759
 2115SOL    HW1 7244   2.135   3.434   2.674
 2115SOL    HW2 7245   2.080   3.383   2.819
 2116SOL     OW 7246   6.979   5.072   3.098
 2116SOL    HW1 7247   7.012   5.022   3.178
 2116SOL    HW2 7248   0.005   5.045   3.017
 2117SOL     OW 7249   0.117   5.495   1.746
 2117SOL    HW1 7250   0.202   5.501   1.799
 2117SOL    HW2 7251   0.075   5.586   1.740
 2118SOL     OW 7252   5.855   3.539   1.812
 2118SOL    HW1 7253   5.835   3.584   1.725
 2118SOL    HW2 7254   5.942   3.573   1.847
 2119SOL     OW 7255   1.463   6.084   1.055
 2119SOL    HW1 7256   1.428   6.173   1.082
 2119SOL    HW2 7257   1.386   6.021   1.041
 2120SOL     OW 7258   6.497   5.281   4.164
 2120SOL    HW1 7259   6.452   5.201   4.204
 2120SOL    HW2 7260   6.530   5.259   4.073
 2121SOL     OW 7261   1.362   3.960   5.696
 2121SOL    HW1 7262   1.397   4.002   5.780
 2121SOL    HW2 7263   1.417   3.989   5.618
 2122SOL     OW 7264   5.541   3.960   6.427
 2122SOL    HW1 7265   5.510   3.923   6.514
 2122SOL    HW2 7266   5.636   3.990   6.435
 2123SOL     OW 7267   6.552   5.929   1.935
 2123SOL    HW1 7268   6.635   5.891   1.975
 2123SOL    HW2 7269   6.566   5.943   1.837
 2124SOL     OW 7270   2.692   1.876   1.902
 2124SOL    HW1 7271   2.712   1.974   1.895
 2124SOL    HW2 7272   2.778   1.825   1.909
 2125SOL     OW 7273   1.854   0.548   2.187
 2125SOL    HW1 7274   1.763   0.513   2.208
 2125SOL    HW2 7275   1.924   0.489   2.228
 2126SOL     OW 7276   3.577   1.457   6.533
 2126SOL    HW1 7277   3.503   1.471   6.467
 2126SOL    HW2 7278   3.586   1.538   6.592
 2127SOL     OW 7279   0.555   3.303   4.823
 2127SOL    HW1 7280   0.464   3.330   4.853
 2127SOL    HW2 7281   0.587   3.364   4.751
 2128SOL     OW 7282   6.875   3.245   3.677
 2128SOL    HW1 7283   6.894   3.343   3.671
 2128SOL    HW2 7284   6.931   3.197   3.610
 2129SOL     OW 7285   4.316   3.662   5.272
 2129SOL    HW1 7286   4.250   3.593   5.301
 2129SOL    HW2 7287   4.279   3.713   5.194
 2130SOL     OW 7288   3.277   0.439   2.166
 2130SOL    HW1 7289   3.341   0.486   2.226
 2130SOL    HW2 7290   3.276   0.341   2.188
 2131SOL     OW 7291   5.904   0.679   1.273
 2131SOL    HW1 7292   5.919   0.655   1.369
 2131SOL    HW2 7293   5.977   0.639   1.217
 2132SOL     OW 7294   3.416   0.556   1.547
 2132SOL    HW1 7295   3.476   0.492   1.595
 2132SOL    HW2 7296   3.404   0.639   1.603
 2133SOL     OW 7297   3.137   2.909   0.771
 2133SOL    HW1 7298   3.128   2.842   0.845
 2133SOL    HW2 7299   3.228   2.904   0.732
 2134SOL     OW 7300   6.965   1.927   6.660
 2134SOL    HW1 7301   6.878   1.933   6.612
 2134SOL    HW2 7302   6.967   1.845   6.717
 2135SOL     OW 7303   1.403   3.410   4.419
 2135SOL    HW1 7304   1.346   3.329   4.432
 2135SOL    HW2 7305   1.371   3.484   4.478
 2136SOL     OW 7306   1.666   3.521   3.361
 2136SOL    HW1 7307   1.717   3.436   3.356
 2136SOL    HW2 7308   1.573   3.507   3.328
 2137SOL     OW 7309   2.771   5.315   4.924
 2137SOL    HW1 7310   2.743   5.354   4.837
 2137SOL    HW2 7311   2.691   5.300   4.982
 2138SOL     OW 7312   6.633   0.233   2.961
 2138SOL    HW1 7313   6.686   0.313   2.934
 2138SOL    HW2 7314   6.536   0.258   2.967
 2139SOL     OW 7315   3.917   0.771   3.592
 2139SOL    HW1 7316   3.817   0.762   3.587
 2139SOL    HW2 7317   3.941   0.866   3.612
 2140SOL     OW 7318   3.713   6.594   3.817
 2140SOL    HW1 7319   3.788   6.530   3.801
 2140SOL    HW2 7320   3.701   6.607   3.916
 2141SOL     OW 7321   6.543   3.549   2.385
 2141SOL    HW1 7322   6.586   3.636   2.362
 2141SOL    HW2 7323   6.446   3.563   2.403
 2142SOL     OW 7324   1.834   1.407   2.799
 2142SOL    HW1 7325   1.746   1.383   2.841
 2142SOL    HW2 7326   1.888   1.461   2.864
 2143SOL     OW 7327   3.334   4.399   1.440
 2143SOL    HW1 7328   3.235   4.409   1.443
 2143SOL    HW2 7329   3.377   4.472   1.493
 2144SOL     OW 7330   0.995   5.745   3.731
 2144SOL    HW1 7331   1.072   5.777   3.787
 2144SOL    HW2 7332   0.909   5.770   3.776
 2145SOL     OW 7333   4.690   6.129   3.942
 2145SOL    HW1 7334   4.659   6.074   4.020
 2145SOL    HW2 7335   4.615   6.142   3.878
 2146SOL     OW 7336   2.330   3.967   1.847
 2146SOL    HW1 7337   2.313   3.978   1.944
 2146SOL    HW2 7338   2.344   4.057   1.805
 2147SOL     OW 7339   6.679   1.198   5.884
 2147SOL    HW1 7340   6.687   1.297   5.884
 2147SOL    HW2 7341   6.674   1.164   5.790
 2148SOL     OW 7342   6.236   2.942   5.586
 2148SOL    HW1 7343   6.279   3.030   5.565
 2148SOL    HW2 7344   6.290   2.868   5.546
 2149SOL     OW 7345   3.256   1.761   1.198
 2149SOL    HW1 7346   3.164   1.771   1.236
 2149SOL    HW2 7347   3.281   1.844   1.147
 2150SOL     OW 7348   2.486   2.531   1.999
 2150SOL    HW1 7349   2.503   2.535   2.097
 2150SOL    HW2 7350   2.572   2.516   1.950
 2151SOL     OW 7351   1.234   0.180   5.337
 2151SOL    HW1 7352   1.228   0.084   5.364
 2151SOL    HW2 7353   1.194   0.191   5.246
 2152SOL     OW 7354   2.914   5.970   2.071
 2152SOL    HW1 7355   2.874   5.969   1.979
 2152SOL    HW2 7356   2.925   6.065   2.101
 2153SOL     OW 7357   4.520   1.411   3.014
 2153SOL    HW1 7358   4.487   1.381   3.103
 2153SOL    HW2 7359   4.593   1.350   2.983
 2154SOL     OW 7360   5.163   1.185   5.165
 2154SOL    HW1 7361   5.084   1.168   5.223
 2154SOL    HW2 7362   5.133   1.213   5.074
 2155SOL     OW 7363   2.877   5.655   0.493
 2155SOL    HW1 7364   2.947   5.653   0.565
 2155SOL    HW2 7365   2.787   5.667   0.534
 2156SOL     OW 7366   1.520   2.036   5.012
 2156SOL    HW1 7367   1.526   1.946   4.968
 2156SOL    HW2 7368   1.432   2.045   5.057
 2157SOL     OW 7369   6.115   0.127   2.864
 2157SOL    HW1 7370   6.201   0.177   2.853
 2157SOL    HW2 7371   6.081   0.139   2.957
 2158SOL     OW 7372   3.350   5.962   0.970
 2158SOL    HW1 7373   3.276   6.008   1.020
 2158SOL    HW2 7374   3.429   5.950   1.030
 2159SOL     OW 7375   1.153   6.581   5.369
 2159SOL    HW1 7376   1.185   6.506   5.427
 2159SOL    HW2 7377   1.061   6.561   5.336
 2160SOL     OW 7378   4.302   4.014   0.130
 2160SOL    HW1 7379   4.238   3.948   0.092
 2160SOL    HW2 7380   4.283   4.105   0.092
 2161SOL     OW 7381   5.428   5.155   2.371
 2161SOL    HW1 7382   5.420   5.195   2.279
 2161SOL    HW2 7383   5.398   5.060   2.369
 2162SOL     OW 7384   2.547   0.692   2.198
 2162SOL    HW1 7385   2.475   0.739   2.146
 2162SOL    HW2 7386   2.599   0.633   2.136
 2163SOL     OW 7387   1.645   5.043   6.078
 2163SOL    HW1 7388   1.581   4.994   6.019
 2163SOL    HW2 7389   1.596   5.105   6.138
 2164SOL     OW 7390   1.705   2.503   6.692
 2164SOL    HW1 7391   1.743   2.596   6.694
 2164SOL    HW2 7392   1.705   2.466   6.785
 2165SOL     OW 7393   0.179   2.086   2.772
 2165SOL    HW1 7394   0.122   2.007   2.747
 2165SOL    HW2 7395   0.162   2.110   2.868
 2166SOL     OW 7396   1.285   2.334   5.217
 2166SOL    HW1 7397   1.260   2.251   5.168
 2166SOL    HW2 7398   1.385   2.344   5.218
 2167SOL     OW 7399   1.544   2.229   3.193
 2167SOL    HW1 7400   1.577   2.188   3.108
 2167SOL    HW2 7401   1.524   2.157   3.259
 2168SOL     OW 7402   0.552   2.326   3.657
 2168SOL    HW1 7403   0.619   2.330   3.583
 2168SOL    HW2 7404   0.591   2.278   3.735
 2169SOL     OW 7405   5.257   1.625   0.001
 2169SOL    HW1 7406   5.346   1.585   7.005
 2169SOL    HW2 7407   5.185   1.558   7.009
 2170SOL     OW 7408   6.983   4.102   5.394
 2170SOL    HW1 7409   0.044   4.148   5.411
 2170SOL    HW2 7410   6.984   4.062   5.303
 2171SOL     OW 7411   6.969   5.470   1.156
 2171SOL    HW1 7412   6.949   5.393   1.216
 2171SOL    HW2 7413   0.040   5.495   1.165
 2172SOL     OW 7414   1.927   2.309   6.715
 2172SOL    HW1 7415   1.986   2.247   6.661
 2172SOL    HW2 7416   1.870   2.363   6.653
 2173SOL     OW 7417   3.789   0.966   5.283
 2173SOL    HW1 7418   3.764   0.884   5.230
 2173SOL    HW2 7419   3.845   1.026   5.226
 2174SOL     OW 7420   5.543   5.883   5.123
 2174SOL    HW1 7421   5.614   5.938   5.080
 2174SOL    HW2 7422   5.579   5.842   5.207
 2175SOL     OW 7423   2.134   3.035   4.659
 2175SOL    HW1 7424   2.167   3.129   4.670
 2175SOL    HW2 7425   2.040   3.036   4.624
 2176SOL     OW 7426   6.410   2.207   0.831
 2176SOL    HW1 7427   6.411   2.134   0.763
 2176SOL    HW2 7428   6.477   2.187   0.903
 2177SOL     OW 7429   6.969   2.044   3.824
 2177SOL    HW1 7430   6.942   1.965   3.879
 2177SOL    HW2 7431   0.043   2.050   3.823
 2178SOL     OW 7432   2.265   2.007   1.523
 2178SOL    HW1 7433   2.328   2.058   1.465
 2178SOL    HW2 7434   2.300   2.004   1.617
 2179SOL     OW 7435   2.107   5.364   5.037
 2179SOL    HW1 7436   2.039   5.433   5.060
 2179SOL    HW2 7437   2.060   5.280   5.009
 2180SOL     OW 7438   1.808   2.300   1.670
 2180SOL    HW1 7439   1.766   2.236   1.604
 2180SOL    HW2 7440   1.901   2.271   1.689
 2181SOL     OW 7441   4.991   4.847   4.358
 2181SOL    HW1 7442   4.904   4.799   4.363
 2181SOL    HW2 7443   5.064   4.788   4.394
 2182SOL     OW 7444   1.691   3.899   4.115
 2182SOL    HW1 7445   1.641   3.851   4.042
 2182SOL    HW2 7446   1.750   3.834   4.163
 2183SOL     OW 7447   2.655   4.274   5.665
 2183SOL    HW1 7448   2.754   4.262   5.669
 2183SOL    HW2 7449   2.627   4.293   5.571
 2184SOL     OW 7450   3.848   1.573   6.483
 2184SOL    HW1 7451   3.879   1.478   6.479
 2184SOL    HW2 7452   3.776   1.587   6.414
 2185SOL     OW 7453   0.266   0.935   1.168
 2185SOL    HW1 7454   0.271   1.033   1.184
 2185SOL    HW2 7455   0.347   0.904   1.119
 2186SOL     OW 7456   0.471   5.988   1.722
 2186SOL    HW1 7457   0.431   6.030   1.804
 2186SOL    HW2 7458   0.398   5.958   1.661
 2187SOL     OW 7459   6.620   6.334   3.052
 2187SOL    HW1 7460   6.641   6.356   2.957
 2187SOL    HW2 7461   6.624   6.235   3.064
 2188SOL     OW 7462   0.132   5.944   4.782
 2188SOL    HW1 7463   0.142   5.930   4.683
 2188SOL    HW2 7464   0.062   6.014   4.798
 2189SOL     OW 7465   1.912   6.304   0.638
 2189SOL    HW1 7466   1.986   6.345   0.584
 2189SOL    HW2 7467   1.862   6.377   0.685
 2190SOL     OW 7468   0.379   3.532   2.226
 2190SOL    HW1 7469   0.354   3.541   2.130
 2190SOL    HW2 7470   0.327   3.598   2.280
 2191SOL     OW 7471   3.184   2.164   6.877
 2191SOL    HW1 7472   3.094   2.135   6.845
 2191SOL    HW2 7473   3.254   2.137   6.811
 2192SOL     OW 7474   4.950   1.166   2.614
 2192SOL    HW1 7475   4.993   1.101   2.552
 2192SOL    HW2 7476   4.987   1.258   2.597
 2193SOL     OW 7477   5.428   5.638   0.185
 2193SOL    HW1 7478   5.495   5.580   0.138
 2193SOL    HW2 7479   5.342   5.638   0.135
 2194SOL     OW 7480   2.447   4.432   5.511
 2194SOL    HW1 7481   2.415   4.380   5.591
 2194SOL    HW2 7482   2.368   4.469   5.462
 2195SOL     OW 7483   0.489   0.254   4.708
 2195SOL    HW1 7484   0.489   0.354   4.703
 2195SOL    HW2 7485   0.557   0.218   4.644
 2196SOL     OW 7486   3.228   6.938   5.138
 2196SOL    HW1 7487   3.161   7.012   5.136
 2196SOL    HW2 7488   3.281   6.942   5.223
 2197SOL     OW 7489   3.072   3.754   0.287
 2197SOL    HW1 7490   3.065   3.659   0.255
 2197SOL    HW2 7491   3.146   3.761   0.354
 2198SOL     OW 7492   5.517   0.675   0.349
 2198SOL    HW1 7493   5.613   0.677   0.378
 2198SOL    HW2 7494   5.485   0.580   0.347
 2199SOL     OW 7495   4.722   0.793   3.281
 2199SOL    HW1 7496   4.776   0.790   3.366
 2199SOL    HW2 7497   4.630   0.760   3.299
 2200SOL     OW 7498   2.909   1.825   5.094
 2200SOL    HW1 7499   2.933   1.853   5.001
 2200SOL    HW2 7500   2.912   1.725   5.100
 2201SOL     OW 7501   6.913   2.848   3.116
 2201SOL    HW1 7502   6.929   2.751   3.131
 2201SOL    HW2 7503   6.986   2.885   3.059
 2202SOL     OW 7504   2.775   5.738   2.396
 2202SOL    HW1 7505   2.731   5.748   2.307
 2202SOL    HW2 7506   2.866   5.778   2.392
 2203SOL     OW 7507   1.628   2.484   0.952
 2203SOL    HW1 7508   1.656   2.499   0.857
 2203SOL    HW2 7509   1.687   2.538   1.013
 2204SOL     OW 7510   4.039   1.532   1.916
 2204SOL    HW1 7511   3.996   1.567   1.833
 2204SOL    HW2 7512   4.104   1.599   1.951
 2205SOL     OW 7513   0.872   0.056   5.993
 2205SOL    HW1 7514   0.839   7.025   6.068
 2205SOL    HW2 7515   0.822   0.034   5.909
 2206SOL     OW 7516   3.183   4.920   6.533
 2206SOL    HW1 7517   3.169   4.974   6.450
 2206SOL    HW2 7518   3.233   4.836   6.510
 2207SOL     OW 7519   3.122   4.652   6.603
 2207SOL    HW1 7520   3.028   4.643   6.635
 2207SOL    HW2 7521   3.158   4.741   6.632
 2208SOL     OW 7522   1.667   6.235   3.103
 2208SOL    HW1 7523   1.760   6.206   3.125
 2208SOL    HW2 7524   1.670   6.324   3.058
 2209SOL     OW 7525   1.424   6.250   5.263
 2209SOL    HW1 7526   1.337   6.212   5.294
 2209SOL    HW2 7527   1.472   6.291   5.340
 2210SOL     OW 7528   6.637   4.883   4.618
 2210SOL    HW1 7529   6.691   4.943   4.560
 2210SOL    HW2 7530   6.664   4.788   4.602
 2211SOL     OW 7531   6.233   0.399   1.057
 2211SOL    HW1 7532   6.182   0.400   0.971
 2211SOL    HW2 7533   6.169   0.394   1.134
 2212SOL     OW 7534   2.228   5.865   6.839
 2212SOL    HW1 7535   2.143   5.833   6.797
 2212SOL    HW2 7536   2.211   5.951   6.887
 2213SOL     OW 7537   3.458   2.351   5.622
 2213SOL    HW1 7538   3.506   2.272   5.660
 2213SOL    HW2 7539   3.386   2.380   5.685
 2214SOL     OW 7540   3.657   3.308   5.143
 2214SOL    HW1 7541   3.694   3.400   5.134
 2214SOL    HW2 7542   3.560   3.308   5.119
 2215SOL     OW 7543   6.195   0.997   0.460
 2215SOL    HW1 7544   6.210   1.054   0.540
 2215SOL    HW2 7545   6.270   1.009   0.395
 2216SOL     OW 7546   1.561   0.888   6.242
 2216SOL    HW1 7547   1.569   0.972   6.295
 2216SOL    HW2 7548   1.585   0.809   6.299
 2217SOL     OW 7549   4.242   6.771   1.701
 2217SOL    HW1 7550   4.249   6.698   1.632
 2217SOL    HW2 7551   4.260   6.859   1.658
 2218SOL     OW 7552   6.750   5.791   0.024
 2218SOL    HW1 7553   6.684   5.864   0.037
 2218SOL    HW2 7554   6.718   5.730   6.978
 2219SOL     OW 7555   5.309   1.804   1.412
 2219SOL    HW1 7556   5.291   1.819   1.509
 2219SOL    HW2 7557   5.234   1.842   1.358
 2220SOL     OW 7558   1.836   6.953   5.157
 2220SOL    HW1 7559   1.821   6.898   5.075
 2220SOL    HW2 7560   1.810   0.022   5.138
 2221SOL     OW 7561   6.196   1.141   5.592
 2221SOL    HW1 7562   6.244   1.220   5.553
 2221SOL    HW2 7563   6.185   1.071   5.522
 2222SOL     OW 7564   4.827   0.884   0.035
 2222SOL    HW1 7565   4.857   0.902   0.129
 2222SOL    HW2 7566   4.746   0.825   0.037
 2223SOL     OW 7567   5.698   0.686   4.894
 2223SOL    HW1 7568   5.730   0.777   4.867
 2223SOL    HW2 7569   5.621   0.695   4.957
 2224SOL     OW 7570   0.224   3.696   0.675
 2224SOL    HW1 7571   0.225   3.726   0.580
 2224SOL    HW2 7572   0.193   3.601   0.680
 2225SOL     OW 7573   6.712   6.213   3.536
 2225SOL    HW1 7574   6.690   6.309   3.520
 2225SOL    HW2 7575   6.790   6.187   3.478
 2226SOL     OW 7576   3.640   4.850   0.863
 2226SOL    HW1 7577   3.699   4.887   0.935
 2226SOL    HW2 7578   3.582   4.923   0.827
 2227SOL     OW 7579   5.166   3.623   6.994
 2227SOL    HW1 7580   5.163   3.581   6.903
 2227SOL    HW2 7581   5.223   3.705   6.991
 2228SOL     OW 7582   3.710   4.697   1.148
 2228SOL    HW1 7583   3.665   4.703   1.237
 2228SOL    HW2 7584   3.674   4.619   1.097
 2229SOL     OW 7585   4.624   2.709   5.002
 2229SOL    HW1 7586   4.704   2.678   5.054
 2229SOL    HW2 7587   4.647   2.715   4.905
 2230SOL     OW 7588   5.712   6.695   6.900
 2230SOL    HW1 7589   5.660   6.610   6.909
 2230SOL    HW2 7590   5.719   6.719   6.803
 2231SOL     OW 7591   0.650   0.903   1.834
 2231SOL    HW1 7592   0.632   0.991   1.877
 2231SOL    HW2 7593   0.564   0.855   1.819
 2232SOL     OW 7594   0.723   2.753   5.134
 2232SOL    HW1 7595   0.802   2.710   5.089
 2232SOL    HW2 7596   0.714   2.717   5.227
 2233SOL     OW 7597   2.072   3.851   0.098
 2233SOL    HW1 7598   2.120   3.763   0.109
 2233SOL    HW2 7599   2.003   3.860   0.169
 2234SOL     OW 7600   4.138   1.819   1.767
 2234SOL    HW1 7601   4.178   1.778   1.849
 2234SOL    HW2 7602   4.073   1.754   1.726
 2235SOL     OW 7603   2.838   6.843   1.200
 2235SOL    HW1 7604   2.838   6.922   1.261
 2235SOL    HW2 7605   2.926   6.795   1.206
 2236SOL     OW 7606   1.773   4.389   6.113
 2236SOL    HW1 7607   1.834   4.427   6.043
 2236SOL    HW2 7608   1.702   4.456   6.135
 2237SOL     OW 7609   5.933   4.574   3.778
 2237SOL    HW1 7610   5.928   4.589   3.679
 2237SOL    HW2 7611   5.945   4.661   3.824
 2238SOL     OW 7612   4.629   4.777   1.614
 2238SOL    HW1 7613   4.595   4.687   1.641
 2238SOL    HW2 7614   4.639   4.780   1.514
 2239SOL     OW 7615   4.183   5.165   3.949
 2239SOL    HW1 7616   4.192   5.122   3.859
 2239SOL    HW2 7617   4.086   5.171   3.974
 2240SOL     OW 7618   4.871   5.899   3.883
 2240SOL    HW1 7619   4.831   5.979   3.929
 2240SOL    HW2 7620   4.854   5.906   3.785
 2241SOL     OW 7621   0.317   5.679   3.442
 2241SOL    HW1 7622   0.355   5.587   3.443
 2241SOL    HW2 7623   0.238   5.682   3.504
 2242SOL     OW 7624   5.231   2.862   2.886
 2242SOL    HW1 7625   5.315   2.917   2.886
 2242SOL    HW2 7626   5.174   2.889   2.809
 2243SOL     OW 7627   1.373   6.814   6.256
 2243SOL    HW1 7628   1.371   6.895   6.314
 2243SOL    HW2 7629   1.435   6.829   6.179
 2244SOL     OW 7630   1.661   6.912   1.790
 2244SOL    HW1 7631   1.584   6.850   1.804
 2244SOL    HW2 7632   1.664   6.940   1.693
 2245SOL     OW 7633   0.549   2.718   1.045
 2245SOL    HW1 7634   0.530   2.620   1.041
 2245SOL    HW2 7635   0.621   2.735   1.112
 2246SOL     OW 7636   1.105   2.012   4.875
 2246SOL    HW1 7637   1.046   1.931   4.878
 2246SOL    HW2 7638   1.195   1.986   4.840
 2247SOL     OW 7639   3.625   3.174   4.093
 2247SOL    HW1 7640   3.540   3.131   4.124
 2247SOL    HW2 7641   3.695   3.105   4.081
 2248SOL     OW 7642   5.492   4.143   5.771
 2248SOL    HW1 7643   5.552   4.064   5.758
 2248SOL    HW2 7644   5.408   4.130   5.719
 2249SOL     OW 7645   6.168   6.406   2.994
 2249SOL    HW1 7646   6.163   6.452   2.905
 2249SOL    HW2 7647   6.239   6.450   3.050
 2250SOL     OW 7648   4.286   3.888   6.106
 2250SOL    HW1 7649   4.252   3.835   6.184
 2250SOL    HW2 7650   4.235   3.974   6.099
 2251SOL     OW 7651   5.292   0.440   6.760
 2251SOL    HW1 7652   5.299   0.341   6.773
 2251SOL    HW2 7653   5.283   0.484   6.849
 2252SOL     OW 7654   4.763   2.866   2.251
 2252SOL    HW1 7655   4.676   2.896   2.291
 2252SOL    HW2 7656   4.786   2.923   2.173
 2253SOL     OW 7657   0.923   3.865   6.691
 2253SOL    HW1 7658   1.008   3.837   6.736
 2253SOL    HW2 7659   0.922   3.964   6.680
 2254SOL     OW 7660   3.506   2.721   5.672
 2254SOL    HW1 7661   3.532   2.677   5.758
 2254SOL    HW2 7662   3.549   2.673   5.596
 2255SOL     OW 7663   4.571   3.057   6.142
 2255SOL    HW1 7664   4.490   3.111   6.120
 2255SOL    HW2 7665   4.574   2.976   6.083
 2256SOL     OW 7666   5.355   5.915   1.569
 2256SOL    HW1 7667   5.401   5.877   1.489
 2256SOL    HW2 7668   5.318   6.005   1.547
 2257SOL     OW 7669   0.267   1.869   4.566
 2257SOL    HW1 7670   0.247   1.805   4.641
 2257SOL    HW2 7671   0.245   1.825   4.479
 2258SOL     OW 7672   1.080   5.327   5.567
 2258SOL    HW1 7673   1.081   5.408   5.508
 2258SOL    HW2 7674   1.039   5.351   5.656
 2259SOL     OW 7675   5.453   3.867   6.666
 2259SOL    HW1 7676   5.410   3.881   6.755
 2259SOL    HW2 7677   5.398   3.803   6.612
 2260SOL     OW 7678   5.981   4.059   1.836
 2260SOL    HW1 7679   6.008   4.114   1.757
 2260SOL    HW2 7680   6.058   4.000   1.863
 2261SOL     OW 7681   6.408   5.827   0.146
 2261SOL    HW1 7682   6.321   5.780   0.162
 2261SOL    HW2 7683   6.404   5.918   0.186
 2262SOL     OW 7684   5.863   1.288   3.261
 2262SOL    HW1 7685   5.874   1.262   3.165
 2262SOL    HW2 7686   5.930   1.238   3.317
 2263SOL     OW 7687   3.363   5.410   0.116
 2263SOL    HW1 7688   3.364   5.374   0.209
 2263SOL    HW2 7689   3.287   5.370   0.065
 2264SOL     OW 7690   2.578   4.401   0.286
 2264SOL    HW1 7691   2.628   4.331   0.235
 2264SOL    HW2 7692   2.540   4.360   0.370
 2265SOL     OW 7693   0.473   0.686   4.446
 2265SOL    HW1 7694   0.534   0.627   4.392
 2265SOL    HW2 7695   0.525   0.763   4.483
 2266SOL     OW 7696   4.929   1.825   0.095
 2266SOL    HW1 7697   4.833   1.853   0.100
 2266SOL    HW2 7698   4.958   1.821   7.026
 2267SOL     OW 7699   4.977   2.413   4.890
 2267SOL    HW1 7700   5.030   2.334   4.919
 2267SOL    HW2 7701   4.886   2.384   4.860
 2268SOL     OW 7702   6.381   3.608   6.942
 2268SOL    HW1 7703   6.301   3.606   6.882
 2268SOL    HW2 7704   6.402   3.515   6.972
 2269SOL     OW 7705   5.970   5.517   5.259
 2269SOL    HW1 7706   5.935   5.444   5.319
 2269SOL    HW2 7707   6.043   5.566   5.306
 2270SOL     OW 7708   3.305   2.654   6.039
 2270SOL    HW1 7709   3.333   2.733   5.986
 2270SOL    HW2 7710   3.372   2.637   6.112
 2271SOL     OW 7711   5.657   3.722   0.749
 2271SOL    HW1 7712   5.574   3.690   0.702
 2271SOL    HW2 7713   5.722   3.646   0.757
 2272SOL     OW 7714   5.954   2.588   6.181
 2272SOL    HW1 7715   5.985   2.584   6.087
 2272SOL    HW2 7716   5.868   2.538   6.190
 2273SOL     OW 7717   1.586   0.491   2.093
 2273SOL    HW1 7718   1.634   0.463   2.010
 2273SOL    HW2 7719   1.495   0.525   2.069
 2274SOL     OW 7720   0.020   2.465   6.415
 2274SOL    HW1 7721   0.021   2.565   6.407
 2274SOL    HW2 7722   6.953   2.434   6.432
 2275SOL     OW 7723   6.230   0.478   3.974
 2275SOL    HW1 7724   6.323   0.445   3.987
 2275SOL    HW2 7725   6.165   0.403   3.989
 2276SOL     OW 7726   2.560   4.898   0.788
 2276SOL    HW1 7727   2.619   4.906   0.707
 2276SOL    HW2 7728   2.466   4.880   0.759
 2277SOL     OW 7729   3.891   4.138   4.902
 2277SOL    HW1 7730   3.869   4.158   4.806
 2277SOL    HW2 7731   3.934   4.218   4.944
 2278SOL     OW 7732   6.393   5.010   4.183
 2278SOL    HW1 7733   6.480   4.966   4.202
 2278SOL    HW2 7734   6.321   4.941   4.178
 2279SOL     OW 7735   5.255   6.343   4.728
 2279SOL    HW1 7736   5.334   6.361   4.670
 2279SOL    HW2 7737   5.211   6.258   4.699
 2280SOL     OW 7738   6.595   6.979   4.595
 2280SOL    HW1 7739   6.522   6.925   4.553
 2280SOL    HW2 7740   6.679   6.926   4.597
 2281SOL     OW 7741   3.643   1.284   2.562
 2281SOL    HW1 7742   3.621   1.225   2.484
 2281SOL    HW2 7743   3.629   1.380   2.536
 2282SOL     OW 7744   4.996   0.213   4.456
 2282SOL    HW1 7745   4.914   0.161   4.432
 2282SOL    HW2 7746   5.052   0.227   4.375
 2283SOL     OW 7747   0.385   4.485   1.690
 2283SOL    HW1 7748   0.316   4.550   1.657
 2283SOL    HW2 7749   0.352   4.443   1.776
 2284SOL     OW 7750   1.143   2.466   6.537
 2284SOL    HW1 7751   1.058   2.482   6.587
 2284SOL    HW2 7752   1.197   2.397   6.584
 2285SOL     OW 7753   2.527   1.997   0.458
 2285SOL    HW1 7754   2.597   1.977   0.526
 2285SOL    HW2 7755   2.442   1.950   0.482
 2286SOL     OW 7756   0.112   0.513   4.248
 2286SOL    HW1 7757   0.034   0.501   4.310
 2286SOL    HW2 7758   0.150   0.604   4.259
 2287SOL     OW 7759   1.248   0.988   2.987
 2287SOL    HW1 7760   1.307   1.016   2.911
 2287SOL    HW2 7761   1.292   0.915   3.038
 2288SOL     OW 7762   6.023   5.385   4.618
 2288SOL    HW1 7763   5.935   5.409   4.577
 2288SOL    HW2 7764   6.071   5.319   4.561
 2289SOL     OW 7765   0.789   4.827   1.811
 2289SOL    HW1 7766   0.816   4.901   1.872
 2289SOL    HW2 7767   0.821   4.847   1.718
 2290SOL     OW 7768   1.124   4.508   1.181
 2290SOL    HW1 7769   1.185   4.434   1.207
 2290SOL    HW2 7770   1.177   4.593   1.171
 2291SOL     OW 7771   2.564   2.648   6.290
 2291SOL    HW1 7772   2.595   2.553   6.294
 2291SOL    HW2 7773   2.473   2.656   6.332
 2292SOL     OW 7774   5.930   2.066   5.008
 2292SOL    HW1 7775   5.950   1.974   5.043
 2292SOL    HW2 7776   5.880   2.058   4.922
 2293SOL     OW 7777   5.417   0.003   1.308
 2293SOL    HW1 7778   5.397   7.005   1.403
 2293SOL    HW2 7779   5.451   6.948   1.260
 2294SOL     OW 7780   3.061   1.141   6.563
 2294SOL    HW1 7781   3.011   1.210   6.512
 2294SOL    HW2 7782   3.005   1.058   6.571
 2295SOL     OW 7783   0.461   2.520   2.770
 2295SOL    HW1 7784   0.413   2.436   2.797
 2295SOL    HW2 7785   0.447   2.536   2.673
 2296SOL     OW 7786   3.783   5.569   1.448
 2296SOL    HW1 7787   3.794   5.479   1.407
 2296SOL    HW2 7788   3.790   5.562   1.547
 2297SOL     OW 7789   4.775   4.782   5.672
 2297SOL    HW1 7790   4.721   4.719   5.728
 2297SOL    HW2 7791   4.868   4.788   5.709
 2298SOL     OW 7792   4.139   3.366   1.608
 2298SOL    HW1 7793   4.099   3.386   1.698
 2298SOL    HW2 7794   4.238   3.381   1.612
 2299SOL     OW 7795   4.250   5.388   5.292
 2299SOL    HW1 7796   4.323   5.442   5.251
 2299SOL    HW2 7797   4.285   5.299   5.321
 2300SOL     OW 7798   2.476   6.139   1.537
 2300SOL    HW1 7799   2.414   6.069   1.575
 2300SOL    HW2 7800   2.438   6.172   1.451
 2301SOL     OW 7801   3.365   2.871   2.773
 2301SOL    HW1 7802   3.285   2.930   2.766
 2301SOL    HW2 7803   3.410   2.886   2.861
 2302SOL     OW 7804   3.778   0.307   0.641
 2302SOL    HW1 7805   3.837   0.269   0.570
 2302SOL    HW2 7806   3.714   0.372   0.601
 2303SOL     OW 7807   2.814   3.282   6.291
 2303SOL    HW1 7808   2.810   3.337   6.374
 2303SOL    HW2 7809   2.762   3.198   6.304
 2304SOL     OW 7810   4.619   6.712   3.353
 2304SOL    HW1 7811   4.624   6.634   3.415
 2304SOL    HW2 7812   4.633   6.796   3.405
 2305SOL     OW 7813   2.532   6.793   2.584
 2305SOL    HW1 7814   2.471   6.809   2.662
 2305SOL    HW2 7815   2.578   6.878   2.559
 2306SOL     OW 7816   2.948   5.139   2.075
 2306SOL    HW1 7817   3.033   5.112   2.028
 2306SOL    HW2 7818   2.971   5.185   2.161
 2307SOL     OW 7819   6.642   3.979   3.014
 2307SOL    HW1 7820   6.683   4.060   2.972
 2307SOL    HW2 7821   6.687   3.961   3.102
 2308SOL     OW 7822   1.326   5.278   1.279
 2308SOL    HW1 7823   1.354   5.186   1.250
 2308SOL    HW2 7824   1.289   5.328   1.200
 2309SOL     OW 7825   1.872   1.002   6.774
 2309SOL    HW1 7826   1.912   0.914   6.801
 2309SOL    HW2 7827   1.788   1.017   6.825
 2310SOL     OW 7828   5.238   6.478   0.532
 2310SOL    HW1 7829   5.152   6.429   0.520
 2310SOL    HW2 7830   5.314   6.415   0.513
 2311SOL     OW 7831   1.977   6.643   1.258
 2311SOL    HW1 7832   1.973   6.743   1.253
 2311SOL    HW2 7833   1.973   6.615   1.354
 2312SOL     OW 7834   4.150   6.310   2.984
 2312SOL    HW1 7835   4.193   6.395   2.953
 2312SOL    HW2 7836   4.217   6.236   2.978
 2313SOL     OW 7837   6.103   6.220   1.178
 2313SOL    HW1 7838   6.054   6.197   1.094
 2313SOL    HW2 7839   6.194   6.179   1.176
 2314SOL     OW 7840   6.046   7.003   4.004
 2314SOL    HW1 7841   5.951   6.971   4.004
 2314SOL    HW2 7842   6.076   7.017   4.098
 2315SOL     OW 7843   4.879   3.635   6.285
 2315SOL    HW1 7844   4.786   3.638   6.247
 2315SOL    HW2 7845   4.935   3.575   6.229
 2316SOL     OW 7846   3.760   1.089   4.003
 2316SOL    HW1 7847   3.684   1.114   4.063
 2316SOL    HW2 7848   3.774   0.990   4.007
 2317SOL     OW 7849   0.445   5.966   3.591
 2317SOL    HW1 7850   0.404   5.889   3.541
 2317SOL    HW2 7851   0.392   6.049   3.575
 2318SOL     OW 7852   1.991   2.709   4.388
 2318SOL    HW1 7853   1.966   2.666   4.474
 2318SOL    HW2 7854   2.076   2.761   4.399
 2319SOL     OW 7855   2.003   4.551   4.143
 2319SOL    HW1 7856   1.976   4.630   4.198
 2319SOL    HW2 7857   1.926   4.487   4.136
 2320SOL     OW 7858   0.891   2.381   4.779
 2320SOL    HW1 7859   0.948   2.330   4.714
 2320SOL    HW2 7860   0.841   2.452   4.730
 2321SOL     OW 7861   2.227   0.395   0.138
 2321SOL    HW1 7862   2.281   0.479   0.128
 2321SOL    HW2 7863   2.133   0.417   0.161
 2322SOL     OW 7864   2.412   1.464   3.876
 2322SOL    HW1 7865   2.449   1.384   3.922
 2322SOL    HW2 7866   2.487   1.518   3.838
 2323SOL     OW 7867   2.669   4.979   1.859
 2323SOL    HW1 7868   2.677   4.978   1.959
 2323SOL    HW2 7869   2.733   4.912   1.821
 2324SOL     OW 7870   6.487   6.734   1.449
 2324SOL    HW1 7871   6.493   6.755   1.351
 2324SOL    HW2 7872   6.411   6.671   1.464
 2325SOL     OW 7873   1.535   5.104   1.437
 2325SOL    HW1 7874   1.618   5.050   1.421
 2325SOL    HW2 7875   1.459   5.064   1.386
 2326SOL     OW 7876   2.850   5.494   6.004
 2326SOL    HW1 7877   2.810   5.499   5.912
 2326SOL    HW2 7878   2.869   5.586   6.037
 2327SOL     OW 7879   6.737   2.313   3.900
 2327SOL    HW1 7880   6.788   2.297   3.984
 2327SOL    HW2 7881   6.796   2.292   3.821
 2328SOL     OW 7882   3.104   2.197   2.554
 2328SOL    HW1 7883   3.103   2.208   2.454
 2328SOL    HW2 7884   3.011   2.176   2.586
 2329SOL     OW 7885   1.358   3.853   5.283
 2329SOL    HW1 7886   1.414   3.849   5.365
 2329SOL    HW2 7887   1.287   3.922   5.294
 2330SOL     OW 7888   0.543   4.266   1.559
 2330SOL    HW1 7889   0.641   4.280   1.573
 2330SOL    HW2 7890   0.492   4.341   1.601
 2331SOL     OW 7891   5.494   5.053   0.777
 2331SOL    HW1 7892   5.471   5.064   0.680
 2331SOL    HW2 7893   5.411   5.028   0.828
 2332SOL     OW 7894   4.657   2.066   5.088
 2332SOL    HW1 7895   4.620   2.155   5.058
 2332SOL    HW2 7896   4.581   2.005   5.112
 2333SOL     OW 7897   0.784   5.206   2.855
 2333SOL    HW1 7898   0.720   5.194   2.931
 2333SOL    HW2 7899   0.734   5.218   2.770
 2334SOL     OW 7900   2.486   0.087   6.934
 2334SOL    HW1 7901   2.533   0.141   7.004
 2334SOL    HW2 7902   2.539   0.088   6.850
 2335SOL     OW 7903   5.509   0.780   3.127
 2335SOL    HW1 7904   5.492   0.870   3.087
 2335SOL    HW2 7905   5.524   0.713   3.055
 2336SOL     OW 7906   4.452   2.427   4.907
 2336SOL    HW1 7907   4.366   2.385   4.936
 2336SOL    HW2 7908   4.459   2.518   4.947
 2337SOL     OW 7909   4.560   0.793   3.049
 2337SOL    HW1 7910   4.625   0.803   3.124
 2337SOL    HW2 7911   4.553   0.879   3.000
 2338SOL     OW 7912   1.499   1.964   6.194
 2338SOL    HW1 7913   1.477   1.929   6.103
 2338SOL    HW2 7914   1.522   2.061   6.188
 2339SOL     OW 7915   3.944   3.937   5.113
 2339SOL    HW1 7916   3.896   3.993   5.047
 2339SOL    HW2 7917   4.019   3.889   5.068
 2340SOL     OW 7918   5.594   4.322   0.313
 2340SOL    HW1 7919   5.545   4.268   0.244
 2340SOL    HW2 7920   5.660   4.382   0.267
 2341SOL     OW 7921   4.916   4.494   1.143
 2341SOL    HW1 7922   4.920   4.400   1.177
 2341SOL    HW2 7923   4.984   4.506   1.070
 2342SOL     OW 7924   0.528   6.832   5.151
 2342SOL    HW1 7925   0.547   6.753   5.092
 2342SOL    HW2 7926   0.602   6.842   5.218
 2343SOL     OW 7927   2.606   6.067   2.746
 2343SOL    HW1 7928   2.555   6.041   2.664
 2343SOL    HW2 7929   2.556   6.139   2.794
 2344SOL     OW 7930   1.727   0.667   1.078
 2344SOL    HW1 7931   1.736   0.764   1.054
 2344SOL    HW2 7932   1.691   0.659   1.171
 2345SOL     OW 7933   3.413   5.497   5.284
 2345SOL    HW1 7934   3.344   5.463   5.347
 2345SOL    HW2 7935   3.488   5.431   5.277
 2346SOL     OW 7936   5.227   2.565   4.805
 2346SOL    HW1 7937   5.265   2.473   4.813
 2346SOL    HW2 7938   5.140   2.570   4.853
 2347SOL     OW 7939   2.500   3.239   1.708
 2347SOL    HW1 7940   2.470   3.256   1.614
 2347SOL    HW2 7941   2.458   3.307   1.769
 2348SOL     OW 7942   3.605   6.181   3.196
 2348SOL    HW1 7943   3.547   6.159   3.117
 2348SOL    HW2 7944   3.608   6.280   3.209
 2349SOL     OW 7945   0.698   4.706   6.076
 2349SOL    HW1 7946   0.748   4.657   6.004
 2349SOL    HW2 7947   0.602   4.714   6.049
 2350SOL     OW 7948   4.814   6.972   6.250
 2350SOL    HW1 7949   4.824   6.936   6.157
 2350SOL    HW2 7950   4.750   0.022   6.249
 2351SOL     OW 7951   3.614   5.431   2.595
 2351SOL    HW1 7952   3.610   5.428   2.695
 2351SOL    HW2 7953   3.534   5.384   2.557
 2352SOL     OW 7954   1.222   3.882   2.055
 2352SOL    HW1 7955   1.246   3.979   2.056
 2352SOL    HW2 7956   1.277   3.834   1.987
 2353SOL     OW 7957   3.093   4.679   5.304
 2353SOL    HW1 7958   3.037   4.761   5.314
 2353SOL    HW2 7959   3.038   4.608   5.259
 2354SOL     OW 7960   2.652   1.947   6.379
 2354SOL    HW1 7961   2.552   1.937   6.372
 2354SOL    HW2 7962   2.687   1.989   6.296
 2355SOL     OW 7963   0.987   5.450   6.694
 2355SOL    HW1 7964   0.971   5.546   6.714
 2355SOL    HW2 7965   1.080   5.438   6.661
 2356SOL     OW 7966   2.226   4.225   0.791
 2356SOL    HW1 7967   2.296   4.153   0.782
 2356SOL    HW2 7968   2.215   4.272   0.704
 2357SOL     OW 7969   4.561   5.105   4.035
 2357SOL    HW1 7970   4.636   5.067   4.090
 2357SOL    HW2 7971   4.587   5.101   3.938
 2358SOL     OW 7972   2.775   4.995   5.553
 2358SOL    HW1 7973   2.841   5.045   5.497
 2358SOL    HW2 7974   2.760   5.043   5.639
 2359SOL     OW 7975   6.888   1.048   5.966
 2359SOL    HW1 7976   6.945   1.100   6.030
 2359SOL    HW2 7977   6.814   1.107   5.933
 2360SOL     OW 7978   5.253   5.822   5.944
 2360SOL    HW1 7979   5.186   5.888   5.979
 2360SOL    HW2 7980   5.209   5.733   5.932
 2361SOL     OW 7981   2.652   0.964   5.213
 2361SOL    HW1 7982   2.589   0.991   5.139
 2361SOL    HW2 7983   2.670   1.043   5.272
 2362SOL     OW 7984   2.860   0.779   4.931
 2362SOL    HW1 7985   2.957   0.754   4.939
 2362SOL    HW2 7986   2.853   0.872   4.893
 2363SOL     OW 7987   4.236   2.637   5.633
 2363SOL    HW1 7988   4.196   2.546   5.647
 2363SOL    HW2 7989   4.170   2.695   5.584
 2364SOL     OW 7990   0.744   2.390   3.205
 2364SOL    HW1 7991   0.702   2.321   3.147
 2364SOL    HW2 7992   0.827   2.425   3.161
 2365SOL     OW 7993   6.324   2.374   6.187
 2365SOL    HW1 7994   6.385   2.389   6.110
 2365SOL    HW2 7995   6.297   2.461   6.227
 2366SOL     OW 7996   1.413   4.309   5.901
 2366SOL    HW1 7997   1.438   4.396   5.943
 2366SOL    HW2 7998   1.445   4.306   5.806
 2367SOL     OW 7999   3.680   3.663   6.902
 2367SOL    HW1 8000   3.714   3.580   6.946
 2367SOL    HW2 8001   3.585   3.678   6.927
 2368SOL     OW 8002   5.232   6.855   3.093
 2368SOL    HW1 8003   5.264   6.811   3.010
 2368SOL    HW2 8004   5.308   6.870   3.155
 2369SOL     OW 8005   2.023   2.588   5.433
 2369SOL    HW1 8006   1.958   2.590   5.357
 2369SOL    HW2 8007   2.013   2.671   5.488
 2370SOL     OW 8008   4.724   4.127   6.755
 2370SOL    HW1 8009   4.805   4.159   6.706
 2370SOL    HW2 8010   4.645   4.127   6.693
 2371SOL     OW 8011   0.706   6.068   1.349
 2371SOL    HW1 8012   0.787   6.107   1.306
 2371SOL    HW2 8013   0.729   6.032   1.439
 2372SOL     OW 8014   0.280   2.183   1.411
 2372SOL    HW1 8015   0.269   2.282   1.421
 2372SOL    HW2 8016   0.363   2.154   1.457
 2373SOL     OW 8017   0.247   6.990   7.005
 2373SOL    HW1 8018   0.321   6.955   6.947
 2373SOL    HW2 8019   0.164   6.937   6.987
 2374SOL     OW 8020   6.296   0.556   3.580
 2374SOL    HW1 8021   6.263   0.593   3.667
 2374SOL    HW2 8022   6.316   0.459   3.590
 2375SOL     OW 8023   1.852   6.471   4.529
 2375SOL    HW1 8024   1.919   6.398   4.545
 2375SOL    HW2 8025   1.877   6.523   4.448
 2376SOL     OW 8026   5.683   2.110   4.273
 2376SOL    HW1 8027   5.619   2.182   4.301
 2376SOL    HW2 8028   5.675   2.094   4.175
 2377SOL     OW 8029   3.341   4.141   2.841
 2377SOL    HW1 8030   3.318   4.067   2.905
 2377SOL    HW2 8031   3.310   4.228   2.878
 2378SOL     OW 8032   4.732   2.322   7.011
 2378SOL    HW1 8033   4.715   2.280   6.922
 2378SOL    HW2 8034   4.738   2.421   7.000
 2379SOL     OW 8035   6.512   1.925   6.733
 2379SOL    HW1 8036   6.511   2.021   6.760
 2379SOL    HW2 8037   6.591   1.879   6.773
 2380SOL     OW 8038   7.000   6.748   5.537
 2380SOL    HW1 8039   7.019   6.653   5.563
 2380SOL    HW2 8040   0.051   6.784   5.484
 2381SOL     OW 8041   2.067   4.030   4.087
 2381SOL    HW1 8042   1.969   4.035   4.066
 2381SOL    HW2 8043   2.120   4.038   4.003
 2382SOL     OW 8044   2.275   5.357   3.553
 2382SOL    HW1 8045   2.202   5.425   3.554
 2382SOL    HW2 8046   2.332   5.370   3.473
 2383SOL     OW 8047   5.877   6.393   6.920
 2383SOL    HW1 8048   5.934   6.466   6.957
 2383SOL    HW2 8049   5.784   6.427   6.907
 2384SOL     OW 8050   6.363   6.339   2.220
 2384SOL    HW1 8051   6.425   6.282   2.273
 2384SOL    HW2 8052   6.392   6.339   2.124
 2385SOL     OW 8053   6.220   6.649   1.403
 2385SOL    HW1 8054   6.166   6.588   1.345
 2385SOL    HW2 8055   6.159   6.699   1.465
 2386SOL     OW 8056   5.198   4.592   4.027
 2386SOL    HW1 8057   5.272   4.603   3.960
 2386SOL    HW2 8058   5.237   4.562   4.114
 2387SOL     OW 8059   0.197   1.936   3.626
 2387SOL    HW1 8060   0.221   1.950   3.722
 2387SOL    HW2 8061   0.234   2.011   3.571
 2388SOL     OW 8062   1.139   2.166   3.794
 2388SOL    HW1 8063   1.207   2.123   3.734
 2388SOL    HW2 8064   1.145   2.127   3.885
 2389SOL     OW 8065   5.267   3.277   3.479
 2389SOL    HW1 8066   5.359   3.262   3.515
 2389SOL    HW2 8067   5.238   3.195   3.428
 2390SOL     OW 8068   3.038   3.965   4.298
 2390SOL    HW1 8069   2.975   3.887   4.296
 2390SOL    HW2 8070   3.058   3.995   4.205
 2391SOL     OW 8071   4.310   4.165   5.783
 2391SOL    HW1 8072   4.327   4.067   5.794
 2391SOL    HW2 8073   4.372   4.201   5.713
 2392SOL     OW 8074   3.655   6.880   5.164
 2392SOL    HW1 8075   3.607   6.938   5.099
 2392SOL    HW2 8076   3.753   6.898   5.160
 2393SOL     OW 8077   4.240   4.839   0.193
 2393SOL    HW1 8078   4.231   4.938   0.181
 2393SOL    HW2 8079   4.216   4.793   0.107
 2394SOL     OW 8080   1.718   3.167   4.294
 2394SOL    HW1 8081   1.789   3.155   4.224
 2394SOL    HW2 8082   1.641   3.217   4.255
 2395SOL     OW 8083   6.286   2.683   0.747
 2395SOL    HW1 8084   6.219   2.733   0.803
 2395SOL    HW2 8085   6.254   2.589   0.734
 2396SOL     OW 8086   4.279   5.284   0.813
 2396SOL    HW1 8087   4.254   5.332   0.729
 2396SOL    HW2 8088   4.342   5.341   0.865
 2397SOL     OW 8089   0.210   3.885   7.012
 2397SOL    HW1 8090   0.134   3.820   7.017
 2397SOL    HW2 8091   0.175   3.974   6.983
 2398SOL     OW 8092   3.241   4.152   6.172
 2398SOL    HW1 8093   3.142   4.164   6.169
 2398SOL    HW2 8094   3.265   4.086   6.243
 2399SOL     OW 8095   5.410   1.639   2.655
 2399SOL    HW1 8096   5.391   1.642   2.753
 2399SOL    HW2 8097   5.400   1.545   2.622
 2400SOL     OW 8098   3.888   5.116   0.070
 2400SOL    HW1 8099   3.877   5.017   0.065
 2400SOL    HW2 8100   3.807   5.157   0.110
 2401SOL     OW 8101   4.408   0.606   6.330
 2401SOL    HW1 8102   4.445   0.588   6.421
 2401SOL    HW2 8103   4.309   0.614   6.336
 2402SOL     OW 8104   0.913   1.879   4.222
 2402SOL    HW1 8105   0.970   1.816   4.274
 2402SOL    HW2 8106   0.971   1.929   4.157
 2403SOL     OW 8107   2.771   2.524   0.337
 2403SOL    HW1 8108   2.811   2.472   0.262
 2403SOL    HW2 8109   2.808   2.491   0.424
 2404SOL     OW 8110   5.924   1.163   1.763
 2404SOL    HW1 8111   5.910   1.254   1.723
 2404SOL    HW2 8112   5.911   1.168   1.862
 2405SOL     OW 8113   3.217   3.385   3.263
 2405SOL    HW1 8114   3.253   3.362   3.353
 2405SOL    HW2 8115   3.118   3.370   3.261
 2406SOL     OW 8116   1.639   6.804   3.412
 2406SOL    HW1 8117   1.541   6.798   3.426
 2406SOL    HW2 8118   1.658   6.867   3.336
 2407SOL     OW 8119   5.549   2.456   2.546
 2407SOL    HW1 8120   5.470   2.514   2.567
 2407SOL    HW2 8121   5.520   2.361   2.536
 2408SOL     OW 8122   3.746   4.934   3.162
 2408SOL    HW1 8123   3.716   4.963   3.071
 2408SOL    HW2 8124   3.823   4.871   3.153
 2409SOL     OW 8125   1.671   2.638   1.436
 2409SOL    HW1 8126   1.609   2.625   1.514
 2409SOL    HW2 8127   1.717   2.552   1.416
 2410SOL     OW 8128   4.937   2.183   6.285
 2410SOL    HW1 8129   4.958   2.278   6.306
 2410SOL    HW2 8130   4.983   2.156   6.200
 2411SOL     OW 8131   4.660   5.356   5.823
 2411SOL    HW1 8132   4.726   5.305   5.767
 2411SOL    HW2 8133   4.658   5.452   5.794
 2412SOL     OW 8134   3.615   4.724   0.237
 2412SOL    HW1 8135   3.573   4.633   0.236
 2412SOL    HW2 8136   3.648   4.746   0.145
 2413SOL     OW 8137   6.677   2.147   0.027
 2413SOL    HW1 8138   6.722   2.061   0.049
 2413SOL    HW2 8139   6.584   2.146   0.065
 2414SOL     OW 8140   5.218   4.209   1.917
 2414SOL    HW1 8141   5.257   4.123   1.949
 2414SOL    HW2 8142   5.186   4.198   1.823
 2415SOL     OW 8143   1.010   6.660   1.046
 2415SOL    HW1 8144   1.018   6.569   1.087
 2415SOL    HW2 8145   0.918   6.696   1.064
 2416SOL     OW 8146   3.702   2.042   5.235
 2416SOL    HW1 8147   3.604   2.062   5.228
 2416SOL    HW2 8148   3.745   2.052   5.146
 2417SOL     OW 8149   4.074   3.544   6.000
 2417SOL    HW1 8150   3.996   3.482   5.992
 2417SOL    HW2 8151   4.093   3.586   5.912
 2418SOL     OW 8152   3.024   3.830   3.876
 2418SOL    HW1 8153   3.065   3.895   3.939
 2418SOL    HW2 8154   3.048   3.855   3.782
 2419SOL     OW 8155   0.578   6.490   3.849
 2419SOL    HW1 8156   0.637   6.432   3.791
 2419SOL    HW2 8157   0.482   6.469   3.829
 2420SOL     OW 8158   3.636   1.537   2.127
 2420SOL    HW1 8159   3.543   1.574   2.122
 2420SOL    HW2 8160   3.634   1.439   2.106
 2421SOL     OW 8161   2.731   1.258   4.715
 2421SOL    HW1 8162   2.681   1.227   4.634
 2421SOL    HW2 8163   2.671   1.315   4.771
 2422SOL     OW 8164   6.164   0.566   2.220
 2422SOL    HW1 8165   6.158   0.660   2.256
 2422SOL    HW2 8166   6.074   0.538   2.186
 2423SOL     OW 8167   1.674   6.356   3.772
 2423SOL    HW1 8168   1.712   6.380   3.861
 2423SOL    HW2 8169   1.579   6.385   3.766
 2424SOL     OW 8170   5.911   6.009   6.144
 2424SOL    HW1 8171   5.980   6.037   6.076
 2424SOL    HW2 8172   5.923   5.912   6.166
 2425SOL     OW 8173   6.307   0.124   4.410
 2425SOL    HW1 8174   6.270   0.087   4.495
 2425SOL    HW2 8175   6.353   0.051   4.360
 2426SOL     OW 8176   0.529   4.735   3.807
 2426SOL    HW1 8177   0.444   4.787   3.815
 2426SOL    HW2 8178   0.510   4.645   3.767
 2427SOL     OW 8179   5.958   5.378   6.815
 2427SOL    HW1 8180   6.011   5.306   6.771
 2427SOL    HW2 8181   6.009   5.414   6.893
 2428SOL     OW 8182   0.137   0.315   3.279
 2428SOL    HW1 8183   0.194   0.270   3.347
 2428SOL    HW2 8184   0.053   0.348   3.321
 2429SOL     OW 8185   6.737   5.872   4.777
 2429SOL    HW1 8186   6.817   5.850   4.721
 2429SOL    HW2 8187   6.689   5.788   4.801
 2430SOL     OW 8188   6.197   2.213   1.008
 2430SOL    HW1 8189   6.132   2.142   0.980
 2430SOL    HW2 8190   6.280   2.205   0.953
 2431SOL     OW 8191   3.590   0.355   1.848
 2431SOL    HW1 8192   3.614   0.373   1.943
 2431SOL    HW2 8193   3.506   0.301   1.844
 2432SOL     OW 8194   3.611   6.454   3.223
 2432SOL    HW1 8195   3.675   6.500   3.160
 2432SOL    HW2 8196   3.609   6.503   3.310
 2433SOL     OW 8197   3.405   6.177   0.820
 2433SOL    HW1 8198   3.399   6.089   0.866
 2433SOL    HW2 8199   3.386   6.250   0.885
 2434SOL     OW 8200   4.695   1.282   3.577
 2434SOL    HW1 8201   4.699   1.277   3.477
 2434SOL    HW2 8202   4.784   1.258   3.616
 2435SOL     OW 8203   4.689   5.751   6.046
 2435SOL    HW1 8204   4.663   5.848   6.039
 2435SOL    HW2 8205   4.757   5.740   6.119
 2436SOL     OW 8206   1.773   6.372   1.179
 2436SOL    HW1 8207   1.867   6.358   1.148
 2436SOL    HW2 8208   1.750   6.469   1.172
 2437SOL     OW 8209   3.993   6.173   1.039
 2437SOL    HW1 8210   3.938   6.191   0.957
 2437SOL    HW2 8211   4.035   6.258   1.071
 2438SOL     OW 8212   3.719   1.510   5.738
 2438SOL    HW1 8213   3.766   1.510   5.826
 2438SOL    HW2 8214   3.785   1.530   5.665
 2439SOL     OW 8215   1.199   4.212   6.964
 2439SOL    HW1 8216   1.222   4.162   6.881
 2439SOL    HW2 8217   1.273   4.274   6.987
 2440SOL     OW 8218   3.817   6.413   4.840
 2440SOL    HW1 8219   3.728   6.452   4.864
 2440SOL    HW2 8220   3.843   6.442   4.748
 2441SOL     OW 8221   6.857   0.699   0.188
 2441SOL    HW1 8222   6.942   0.659   0.222
 2441SOL    HW2 8223   6.790   0.701   0.262
 2442SOL     OW 8224   6.732   5.888   4.212
 2442SOL    HW1 8225   6.689   5.968   4.255
 2442SOL    HW2 8226   6.695   5.804   4.252
 2443SOL     OW 8227   3.164   6.715   6.407
 2443SOL    HW1 8228   3.214   6.656   6.470
 2443SOL    HW2 8229   3.164   6.809   6.442
 2444SOL     OW 8230   3.806   4.642   6.239
 2444SOL    HW1 8231   3.835   4.593   6.321
 2444SOL    HW2 8232   3.886   4.667   6.185
 2445SOL     OW 8233   0.118   0.915   1.935
 2445SOL    HW1 8234   0.019   0.906   1.929
 2445SOL    HW2 8235   0.141   0.999   1.985
 2446SOL     OW 8236   0.188   3.288   4.264
 2446SOL    HW1 8237   0.159   3.259   4.172
 2446SOL    HW2 8238   0.279   3.328   4.259
 2447SOL     OW 8239   2.513   0.968   1.001
 2447SOL    HW1 8240   2.587   1.029   0.973
 2447SOL    HW2 8241   2.523   0.879   0.955
 2448SOL     OW 8242   0.878   0.323   5.223
 2448SOL    HW1 8243   0.879   0.399   5.289
 2448SOL    HW2 8244   0.801   0.334   5.161
 2449SOL     OW 8245   0.123   4.387   2.476
 2449SOL    HW1 8246   0.056   4.325   2.434
 2449SOL    HW2 8247   0.088   4.420   2.564
 2450SOL     OW 8248   2.954   4.828   4.204
 2450SOL    HW1 8249   2.913   4.795   4.289
 2450SOL    HW2 8250   2.913   4.781   4.126
 2451SOL     OW 8251   0.537   0.557   4.186
 2451SOL    HW1 8252   0.546   0.645   4.138
 2451SOL    HW2 8253   0.628   0.523   4.210
 2452SOL     OW 8254   2.256   2.230   3.241
 2452SOL    HW1 8255   2.305   2.220   3.154
 2452SOL    HW2 8256   2.300   2.175   3.311
 2453SOL     OW 8257   6.802   3.816   1.157
 2453SOL    HW1 8258   6.883   3.874   1.164
 2453SOL    HW2 8259   6.828   3.720   1.168
 2454SOL     OW 8260   3.756   1.340   0.418
 2454SOL    HW1 8261   3.747   1.428   0.372
 2454SOL    HW2 8262   3.690   1.335   0.493
 2455SOL     OW 8263   5.585   6.723   0.713
 2455SOL    HW1 8264   5.555   6.686   0.801
 2455SOL    HW2 8265   5.515   6.785   0.677
 2456SOL     OW 8266   5.885   0.783   0.129
 2456SOL    HW1 8267   5.903   0.867   0.181
 2456SOL    HW2 8268   5.838   0.717   0.187
 2457SOL     OW 8269   5.988   6.117   6.957
 2457SOL    HW1 8270   5.964   6.214   6.950
 2457SOL    HW2 8271   5.979   6.087   0.026
 2458SOL     OW 8272   2.710   5.493   4.132
 2458SOL    HW1 8273   2.754   5.495   4.222
 2458SOL    HW2 8274   2.694   5.586   4.100
 2459SOL     OW 8275   2.778   6.366   0.532
 2459SOL    HW1 8276   2.713   6.438   0.508
 2459SOL    HW2 8277   2.842   6.352   0.456
 2460SOL     OW 8278   2.627   0.839   1.738
 2460SOL    HW1 8279   2.718   0.823   1.700
 2460SOL    HW2 8280   2.558   0.827   1.667
 2461SOL     OW 8281   3.996   0.283   2.808
 2461SOL    HW1 8282   3.987   0.184   2.811
 2461SOL    HW2 8283   4.035   0.316   2.894
 2462SOL     OW 8284   2.652   5.130   0.203
 2462SOL    HW1 8285   2.702   5.213   0.179
 2462SOL    HW2 8286   2.566   5.127   0.152
 2463SOL     OW 8287   6.212   2.404   3.832
 2463SOL    HW1 8288   6.142   2.350   3.877
 2463SOL    HW2 8289   6.292   2.347   3.812
 2464SOL     OW 8290   1.653   4.478   1.853
 2464SOL    HW1 8291   1.694   4.442   1.937
 2464SOL    HW2 8292   1.720   4.537   1.807
 2465SOL     OW 8293   0.473   6.359   1.599
 2465SOL    HW1 8294   0.428   6.445   1.623
 2465SOL    HW2 8295   0.407   6.300   1.552
 2466SOL     OW 8296   3.829   1.574   2.377
 2466SOL    HW1 8297   3.928   1.588   2.379
 2466SOL    HW2 8298   3.803   1.530   2.291
 2467SOL     OW 8299   5.333   1.393   5.243
 2467SOL    HW1 8300   5.281   1.307   5.243
 2467SOL    HW2 8301   5.384   1.401   5.329
 2468SOL     OW 8302   5.468   6.340   2.353
 2468SOL    HW1 8303   5.472   6.410   2.283
 2468SOL    HW2 8304   5.561   6.318   2.383
 2469SOL     OW 8305   3.558   4.494   5.308
 2469SOL    HW1 8306   3.494   4.468   5.381
 2469SOL    HW2 8307   3.573   4.593   5.310
 2470SOL     OW 8308   3.543   4.271   5.635
 2470SOL    HW1 8309   3.468   4.335   5.617
 2470SOL    HW2 8310   3.516   4.180   5.603
 2471SOL     OW 8311   2.429   6.741   0.989
 2471SOL    HW1 8312   2.498   6.679   1.027
 2471SOL    HW2 8313   2.339   6.716   1.025
 2472SOL     OW 8314   4.725   1.454   3.963
 2472SOL    HW1 8315   4.824   1.439   3.964
 2472SOL    HW2 8316   4.697   1.481   3.871
 2473SOL     OW 8317   1.744   3.973   5.140
 2473SOL    HW1 8318   1.813   4.045   5.144
 2473SOL    HW2 8319   1.701   3.972   5.050
 2474SOL     OW 8320   0.293   5.396   0.364
 2474SOL    HW1 8321   0.381   5.406   0.317
 2474SOL    HW2 8322   0.227   5.460   0.325
 2475SOL     OW 8323   4.588   1.093   0.741
 2475SOL    HW1 8324   4.542   1.179   0.718
 2475SOL    HW2 8325   4.616   1.095   0.837
 2476SOL     OW 8326   1.109   2.863   3.792
 2476SOL    HW1 8327   1.186   2.907   3.746
 2476SOL    HW2 8328   1.064   2.930   3.852
 2477SOL     OW 8329   6.325   0.703   2.585
 2477SOL    HW1 8330   6.270   0.767   2.532
 2477SOL    HW2 8331   6.335   0.618   2.533
 2478SOL     OW 8332   5.574   0.045   2.479
 2478SOL    HW1 8333   5.659   0.074   2.437
 2478SOL    HW2 8334   5.555   0.103   2.559
 2479SOL     OW 8335   1.516   3.577   1.250
 2479SOL    HW1 8336   1.587   3.611   1.312
 2479SOL    HW2 8337   1.426   3.599   1.288
 2480SOL     OW 8338   5.730   4.420   1.046
 2480SOL    HW1 8339   5.748   4.322   1.038
 2480SOL    HW2 8340   5.646   4.434   1.099
 2481SOL     OW 8341   2.761   6.851   0.043
 2481SOL    HW1 8342   2.805   6.762   0.051
 2481SOL    HW2 8343   2.743   6.871   6.973
 2482SOL     OW 8344   5.447   2.824   5.318
 2482SOL    HW1 8345   5.518   2.755   5.331
 2482SOL    HW2 8346   5.374   2.809   5.384
 2483SOL     OW 8347   2.146   1.034   6.645
 2483SOL    HW1 8348   2.052   1.060   6.624
 2483SOL    HW2 8349   2.204   1.055   6.567
 2484SOL     OW 8350   2.143   0.549   0.586
 2484SOL    HW1 8351   2.150   0.557   0.486
 2484SOL    HW2 8352   2.088   0.624   0.623
 2485SOL     OW 8353   4.621   4.485   2.034
 2485SOL    HW1 8354   4.623   4.527   1.943
 2485SOL    HW2 8355   4.604   4.387   2.024
 2486SOL     OW 8356   3.412   5.229   2.550
 2486SOL    HW1 8357   3.325   5.277   2.544
 2486SOL    HW2 8358   3.452   5.221   2.459
 2487SOL     OW 8359   3.522   5.295   6.227
 2487SOL    HW1 8360   3.588   5.236   6.181
 2487SOL    HW2 8361   3.445   5.314   6.166
 2488SOL     OW 8362   2.199   3.852   2.311
 2488SOL    HW1 8363   2.234   3.767   2.272
 2488SOL    HW2 8364   2.223   3.928   2.252
 2489SOL     OW 8365   2.385   5.199   3.774
 2489SOL    HW1 8366   2.451   5.257   3.822
 2489SOL    HW2 8367   2.355   5.246   3.691
 2490SOL     OW 8368   6.712   5.658   0.926
 2490SOL    HW1 8369   6.653   5.593   0.973
 2490SOL    HW2 8370   6.735   5.623   0.835
 2491SOL     OW 8371   2.532   6.261   2.179
 2491SOL    HW1 8372   2.506   6.263   2.083
 2491SOL    HW2 8373   2.479   6.330   2.229
 2492SOL     OW 8374   4.135   2.980   6.945
 2492SOL    HW1 8375   4.099   3.073   6.939
 2492SOL    HW2 8376   4.232   2.983   6.971
 2493SOL     OW 8377   5.630   0.472   3.018
 2493SOL    HW1 8378   5.622   0.374   2.998
 2493SOL    HW2 8379   5.712   0.488   3.073
 2494SOL     OW 8380   5.738   3.459   2.517
 2494SOL    HW1 8381   5.702   3.550   2.495
 2494SOL    HW2 8382   5.815   3.438   2.456
 2495SOL     OW 8383   5.246   0.050   4.755
 2495SOL    HW1 8384   5.220   0.113   4.681
 2495SOL    HW2 8385   5.241   0.097   4.843
 2496SOL     OW 8386   1.035   4.809   6.456
 2496SOL    HW1 8387   1.076   4.898   6.435
 2496SOL    HW2 8388   0.943   4.804   6.417
 2497SOL     OW 8389   6.610   1.521   0.733
 2497SOL    HW1 8390   6.536   1.528   0.667
 2497SOL    HW2 8391   6.664   1.605   0.732
 2498SOL     OW 8392   2.991   2.209   3.391
 2498SOL    HW1 8393   2.945   2.275   3.450
 2498SOL    HW2 8394   3.036   2.139   3.447
 2499SOL     OW 8395   5.381   1.489   4.792
 2499SOL    HW1 8396   5.319   1.552   4.745
 2499SOL    HW2 8397   5.436   1.441   4.725
 2500SOL     OW 8398   4.496   3.265   5.804
 2500SOL    HW1 8399   4.549   3.243   5.723
 2500SOL    HW2 8400   4.449   3.183   5.837
 2501SOL     OW 8401   0.022   5.470   6.988
 2501SOL    HW1 8402   0.066   5.535   6.925
 2501SOL    HW2 8403   0.068   5.382   6.981
 2502SOL     OW 8404   2.741   6.235   3.391
 2502SOL    HW1 8405   2.679   6.170   3.347
 2502SOL    HW2 8406   2.833   6.197   3.392
 2503SOL     OW 8407   3.415   6.061   5.632
 2503SOL    HW1 8408   3.431   6.094   5.540
 2503SOL    HW2 8409   3.494   6.083   5.690
 2504SOL     OW 8410   2.975   6.011   5.072
 2504SOL    HW1 8411   3.064   5.975   5.101
 2504SOL    HW2 8412   2.907   5.938   5.075
 2505SOL     OW 8413   1.473   6.629   4.627
 2505SOL    HW1 8414   1.486   6.533   4.604
 2505SOL    HW2 8415   1.529   6.686   4.567
 2506SOL     OW 8416   6.587   3.165   6.375
 2506SOL    HW1 8417   6.661   3.100   6.391
 2506SOL    HW2 8418   6.553   3.154   6.282
 2507SOL     OW 8419   6.715   4.195   0.384
 2507SOL    HW1 8420   6.629   4.223   0.342
 2507SOL    HW2 8421   6.740   4.104   0.351
 2508SOL     OW 8422   2.723   1.639   2.374
 2508SOL    HW1 8423   2.773   1.723   2.393
 2508SOL    HW2 8424   2.759   1.565   2.432
 2509SOL     OW 8425   5.509   2.953   2.942
 2509SOL    HW1 8426   5.573   3.014   2.989
 2509SOL    HW2 8427   5.465   3.002   2.867
 2510SOL     OW 8428   3.536   4.195   0.882
 2510SOL    HW1 8429   3.455   4.236   0.923
 2510SOL    HW2 8430   3.522   4.182   0.784
 2511SOL     OW 8431   2.172   2.010   4.653
 2511SOL    HW1 8432   2.178   2.088   4.716
 2511SOL    HW2 8433   2.195   2.039   4.561
 2512SOL     OW 8434   5.606   5.122   5.482
 2512SOL    HW1 8435   5.669   5.200   5.487
 2512SOL    HW2 8436   5.651   5.041   5.521
 2513SOL     OW 8437   1.504   2.682   5.981
 2513SOL    HW1 8438   1.550   2.770   5.983
 2513SOL    HW2 8439   1.425   2.684   6.043
 2514SOL     OW 8440   0.436   3.403   4.294
 2514SOL    HW1 8441   0.465   3.498   4.289
 2514SOL    HW2 8442   0.509   3.344   4.261
 2515SOL     OW 8443   1.362   6.379   0.566
 2515SOL    HW1 8444   1.290   6.318   0.600
 2515SOL    HW2 8445   1.449   6.354   0.607
 2516SOL     OW 8446   6.249   6.265   2.734
 2516SOL    HW1 8447   6.288   6.202   2.668
 2516SOL    HW2 8448   6.274   6.236   2.827
 2517SOL     OW 8449   1.895   5.720   5.498
 2517SOL    HW1 8450   1.942   5.772   5.570
 2517SOL    HW2 8451   1.913   5.762   5.410
 2518SOL     OW 8452   2.000   3.309   0.409
 2518SOL    HW1 8453   1.940   3.288   0.331
 2518SOL    HW2 8454   1.956   3.377   0.467
 2519SOL     OW 8455   4.997   5.095   4.484
 2519SOL    HW1 8456   5.001   5.026   4.411
 2519SOL    HW2 8457   5.082   5.092   4.536
 2520SOL     OW 8458   0.788   3.345   1.056
 2520SOL    HW1 8459   0.849   3.321   1.132
 2520SOL    HW2 8460   0.830   3.418   1.002
 2521SOL     OW 8461   1.329   6.458   5.556
 2521SOL    HW1 8462   1.417   6.420   5.525
 2521SOL    HW2 8463   1.335   6.558   5.559
 2522SOL     OW 8464   1.030   3.100   5.632
 2522SOL    HW1 8465   0.960   3.045   5.588
 2522SOL    HW2 8466   1.096   3.130   5.564
 2523SOL     OW 8467   0.655   3.345   1.397
 2523SOL    HW1 8468   0.754   3.340   1.383
 2523SOL    HW2 8469   0.608   3.315   1.314
 2524SOL     OW 8470   0.417   6.223   4.252
 2524SOL    HW1 8471   0.494   6.218   4.314
 2524SOL    HW2 8472   0.426   6.303   4.193
 2525SOL     OW 8473   1.392   2.533   4.533
 2525SOL    HW1 8474   1.325   2.585   4.479
 2525SOL    HW2 8475   1.473   2.589   4.549
 2526SOL     OW 8476   0.896   3.847   5.842
 2526SOL    HW1 8477   0.973   3.868   5.782
 2526SOL    HW2 8478   0.844   3.930   5.859
 2527SOL     OW 8479   5.013   0.004   5.069
 2527SOL    HW1 8480   5.049   0.059   4.993
 2527SOL    HW2 8481   4.914   0.013   5.072
 2528SOL     OW 8482   6.000   4.481   1.008
 2528SOL    HW1 8483   5.906   4.478   1.041
 2528SOL    HW2 8484   6.047   4.560   1.049
 2529SOL     OW 8485   5.796   5.381   6.387
 2529SOL    HW1 8486   5.781   5.368   6.289
 2529SOL    HW2 8487   5.740   5.315   6.438
 2530SOL     OW 8488   1.216   6.055   5.015
 2530SOL    HW1 8489   1.198   6.066   5.113
 2530SOL    HW2 8490   1.190   5.962   4.987
 2531SOL     OW 8491   5.423   5.341   4.576
 2531SOL    HW1 8492   5.514   5.310   4.605
 2531SOL    HW2 8493   5.391   5.412   4.639
 2532SOL     OW 8494   0.413   5.956   0.441
 2532SOL    HW1 8495   0.443   5.887   0.374
 2532SOL    HW2 8496   0.468   6.039   0.430
 2533SOL     OW 8497   5.224   6.494   4.187
 2533SOL    HW1 8498   5.308   6.440   4.199
 2533SOL    HW2 8499   5.197   6.493   4.091
 2534SOL     OW 8500   2.264   0.500   3.366
 2534SOL    HW1 8501   2.283   0.452   3.281
 2534SOL    HW2 8502   2.247   0.597   3.347
 2535SOL     OW 8503   2.417   2.181   6.735
 2535SOL    HW1 8504   2.427   2.231   6.820
 2535SOL    HW2 8505   2.321   2.156   6.721
 2536SOL     OW 8506   0.874   2.022   3.835
 2536SOL    HW1 8507   0.927   2.018   3.920
 2536SOL    HW2 8508   0.935   2.042   3.759
 2537SOL     OW 8509   5.091   6.130   0.234
 2537SOL    HW1 8510   5.166   6.169   0.181
 2537SOL    HW2 8511   5.118   6.122   0.330
 2538SOL     OW 8512   1.941   4.183   5.180
 2538SOL    HW1 8513   2.023   4.141   5.218
 2538SOL    HW2 8514   1.956   4.208   5.085
 2539SOL     OW 8515   3.799   0.159   5.900
 2539SOL    HW1 8516   3.713   0.141   5.948
 2539SOL    HW2 8517   3.808   0.257   5.885
 2540SOL     OW 8518   4.932   0.536   0.806
 2540SOL    HW1 8519   4.919   0.535   0.707
 2540SOL    HW2 8520   5.018   0.488   0.828
 2541SOL     OW 8521   1.588   0.481   6.161
 2541SOL    HW1 8522   1.521   0.478   6.236
 2541SOL    HW2 8523   1.556   0.545   6.091
 2542SOL     OW 8524   3.752   2.099   4.658
 2542SOL    HW1 8525   3.767   2.046   4.575
 2542SOL    HW2 8526   3.674   2.160   4.646
 2543SOL     OW 8527   2.329   0.859   2.643
 2543SOL    HW1 8528   2.289   0.900   2.561
 2543SOL    HW2 8529   2.270   0.785   2.675
 2544SOL     OW 8530   0.414   4.972   2.271
 2544SOL    HW1 8531   0.317   4.982   2.294
 2544SOL    HW2 8532   0.429   4.995   2.175
 2545SOL     OW 8533   1.466   0.564   1.573
 2545SOL    HW1 8534   1.471   0.480   1.627
 2545SOL    HW2 8535   1.475   0.643   1.633
 2546SOL     OW 8536   5.907   3.057   1.208
 2546SOL    HW1 8537   5.967   3.093   1.279
 2546SOL    HW2 8538   5.847   3.129   1.174
 2547SOL     OW 8539   5.223   5.606   7.018
 2547SOL    HW1 8540   5.157   5.531   7.019
 2547SOL    HW2 8541   5.272   5.606   6.930
 2548SOL     OW 8542   2.530   0.731   5.303
 2548SOL    HW1 8543   2.581   0.809   5.270
 2548SOL    HW2 8544   2.454   0.712   5.241
 2549SOL     OW 8545   2.063   2.002   1.855
 2549SOL    HW1 8546   2.147   1.952   1.835
 2549SOL    HW2 8547   2.049   2.007   1.954
 2550SOL     OW 8548   5.874   1.331   6.593
 2550SOL    HW1 8549   5.928   1.247   6.587
 2550SOL    HW2 8550   5.786   1.312   6.635
 2551SOL     OW 8551   3.156   5.849   0.241
 2551SOL    HW1 8552   3.175   5.853   0.143
 2551SOL    HW2 8553   3.134   5.755   0.267
 2552SOL     OW 8554   1.719   5.311   6.555
 2552SOL    HW1 8555   1.635   5.356   6.527
 2552SOL    HW2 8556   1.782   5.305   6.477
 2553SOL     OW 8557   3.236   3.217   6.082
 2553SOL    HW1 8558   3.179   3.175   6.011
 2553SOL    HW2 8559   3.205   3.311   6.098
 2554SOL     OW 8560   1.533   5.739   6.734
 2554SOL    HW1 8561   1.615   5.692   6.700
 2554SOL    HW2 8562   1.485   5.680   6.798
 2555SOL     OW 8563   6.008   6.199   6.573
 2555SOL    HW1 8564   5.918   6.214   6.531
 2555SOL    HW2 8565   6.059   6.134   6.517
 2556SOL     OW 8566   4.296   6.144   0.891
 2556SOL    HW1 8567   4.273   6.241   0.892
 2556SOL    HW2 8568   4.216   6.091   0.862
 2557SOL     OW 8569   2.537   1.287   6.578
 2557SOL    HW1 8570   2.489   1.202   6.557
 2557SOL    HW2 8571   2.480   1.343   6.638
 2558SOL     OW 8572   4.077   3.849   4.886
 2558SOL    HW1 8573   4.172   3.844   4.856
 2558SOL    HW2 8574   4.019   3.804   4.819
 2559SOL     OW 8575   6.230   3.070   3.866
 2559SOL    HW1 8576   6.226   2.971   3.860
 2559SOL    HW2 8577   6.178   3.111   3.791
 2560SOL     OW 8578   5.118   3.500   3.770
 2560SOL    HW1 8579   5.161   3.410   3.775
 2560SOL    HW2 8580   5.169   3.565   3.826
 2561SOL     OW 8581   3.374   0.732   3.840
 2561SOL    HW1 8582   3.450   0.673   3.866
 2561SOL    HW2 8583   3.369   0.737   3.740
 2562SOL     OW 8584   2.423   5.387   3.316
 2562SOL    HW1 8585   2.503   5.444   3.337
 2562SOL    HW2 8586   2.380   5.420   3.232
 2563SOL     OW 8587   3.671   1.259   5.860
 2563SOL    HW1 8588   3.681   1.346   5.811
 2563SOL    HW2 8589   3.739   1.254   5.933
 2564SOL     OW 8590   1.637   6.425   0.122
 2564SOL    HW1 8591   1.696   6.366   0.068
 2564SOL    HW2 8592   1.576   6.476   0.062
 2565SOL     OW 8593   0.452   0.799   0.753
 2565SOL    HW1 8594   0.511   0.750   0.690
 2565SOL    HW2 8595   0.359   0.803   0.716
 2566SOL     OW 8596   1.383   6.612   0.792
 2566SOL    HW1 8597   1.364   6.696   0.742
 2566SOL    HW2 8598   1.401   6.538   0.728
 2567SOL     OW 8599   1.401   1.417   1.780
 2567SOL    HW1 8600   1.459   1.440   1.702
 2567SOL    HW2 8601   1.361   1.501   1.818
 2568SOL     OW 8602   3.366   0.038   0.488
 2568SOL    HW1 8603   3.428   0.076   0.419
 2568SOL    HW2 8604   3.414   6.993   0.540
 2569SOL     OW 8605   2.191   1.527   2.348
 2569SOL    HW1 8606   2.279   1.526   2.300
 2569SOL    HW2 8607   2.207   1.525   2.447
 2570SOL     OW 8608   4.791   6.651   6.181
 2570SOL    HW1 8609   4.887   6.656   6.154
 2570SOL    HW2 8610   4.734   6.691   6.109
 2571SOL     OW 8611   3.140   3.129   4.189
 2571SOL    HW1 8612   3.089   3.090   4.266
 2571SOL    HW2 8613   3.151   3.227   4.204
 2572SOL     OW 8614   1.593   6.315   0.689
 2572SOL    HW1 8615   1.661   6.275   0.628
 2572SOL    HW2 8616   1.610   6.284   0.783
 2573SOL     OW 8617   6.568   1.389   1.949
 2573SOL    HW1 8618   6.657   1.363   1.988
 2573SOL    HW2 8619   6.529   1.463   2.002
 2574SOL     OW 8620   6.368   3.307   0.416
 2574SOL    HW1 8621   6.279   3.331   0.378
 2574SOL    HW2 8622   6.363   3.306   0.516
 2575SOL     OW 8623   5.050   3.546   1.694
 2575SOL    HW1 8624   5.149   3.548   1.704
 2575SOL    HW2 8625   5.026   3.483   1.619
 2576SOL     OW 8626   4.142   6.592   3.769
 2576SOL    HW1 8627   4.082   6.513   3.782
 2576SOL    HW2 8628   4.185   6.586   3.679
 2577SOL     OW 8629   5.097   0.412   3.483
 2577SOL    HW1 8630   5.049   0.373   3.562
 2577SOL    HW2 8631   5.047   0.492   3.450
 2578SOL     OW 8632   4.240   3.067   5.592
 2578SOL    HW1 8633   4.179   3.017   5.531
 2578SOL    HW2 8634   4.332   3.028   5.588
 2579SOL     OW 8635   1.234   1.690   4.637
 2579SOL    HW1 8636   1.311   1.630   4.615
 2579SOL    HW2 8637   1.186   1.714   4.552
 2580SOL     OW 8638   1.657   2.972   6.508
 2580SOL    HW1 8639   1.606   3.049   6.471
 2580SOL    HW2 8640   1.686   2.993   6.602
 2581SOL     OW 8641   5.703   4.604   1.883
 2581SOL    HW1 8642   5.708   4.551   1.968
 2581SOL    HW2 8643   5.760   4.560   1.813
 2582SOL     OW 8644   1.947   4.775   2.766
 2582SOL    HW1 8645   1.929   4.837   2.842
 2582SOL    HW2 8646   2.040   4.790   2.733
 2583SOL     OW 8647   1.779   1.000   1.314
 2583SOL    HW1 8648   1.751   1.096   1.305
 2583SOL    HW2 8649   1.718   0.943   1.259
 2584SOL     OW 8650   3.801   5.703   0.131
 2584SOL    HW1 8651   3.863   5.627   0.148
 2584SOL    HW2 8652   3.710   5.681   0.166
 2585SOL     OW 8653   3.611   0.738   0.066
 2585SOL    HW1 8654   3.584   0.647   0.035
 2585SOL    HW2 8655   3.706   0.735   0.099
 2586SOL     OW 8656   4.798   1.935   4.440
 2586SOL    HW1 8657   4.784   1.874   4.518
 2586SOL    HW2 8658   4.842   2.019   4.472
 2587SOL     OW 8659   6.863   1.199   4.576
 2587SOL    HW1 8660   6.902   1.228   4.663
 2587SOL    HW2 8661   6.920   1.127   4.537
 2588SOL     OW 8662   4.690   0.447   0.080
 2588SOL    HW1 8663   4.660   0.408   7.018
 2588SOL    HW2 8664   4.711   0.372   0.143
 2589SOL     OW 8665   0.499   6.378   5.473
 2589SOL    HW1 8666   0.528   6.282   5.473
 2589SOL    HW2 8667   0.547   6.427   5.545
 2590SOL     OW 8668   3.377   6.372   2.494
 2590SOL    HW1 8669   3.340   6.283   2.519
 2590SOL    HW2 8670   3.399   6.373   2.397
 2591SOL     OW 8671   5.914   5.907   2.374
 2591SOL    HW1 8672   5.902   5.944   2.466
 2591SOL    HW2 8673   5.825   5.897   2.330
 2592SOL     OW 8674   2.793   6.916   0.915
 2592SOL    HW1 8675   2.870   6.933   0.852
 2592SOL    HW2 8676   2.825   6.923   1.009
 2593SOL     OW 8677   3.206   6.617   2.133
 2593SOL    HW1 8678   3.137   6.680   2.170
 2593SOL    HW2 8679   3.296   6.642   2.168
 2594SOL     OW 8680   0.050   6.044   5.815
 2594SOL    HW1 8681   0.043   6.136   5.855
 2594SOL    HW2 8682   0.123   6.044   5.746
 2595SOL     OW 8683   6.220   1.605   5.698
 2595SOL    HW1 8684   6.314   1.614   5.732
 2595SOL    HW2 8685   6.159   1.585   5.775
 2596SOL     OW 8686   4.014   2.300   1.893
 2596SOL    HW1 8687   4.036   2.260   1.982
 2596SOL    HW2 8688   3.921   2.337   1.895
 2597SOL     OW 8689   1.765   4.368   0.310
 2597SOL    HW1 8690   1.675   4.336   0.339
 2597SOL    HW2 8691   1.783   4.459   0.348
 2598SOL     OW 8692   6.032   1.410   4.532
 2598SOL    HW1 8693   6.003   1.315   4.540
 2598SOL    HW2 8694   6.023   1.440   4.437
 2599SOL     OW 8695   3.299   6.257   0.602
 2599SOL    HW1 8696   3.339   6.248   0.694
 2599SOL    HW2 8697   3.283   6.166   0.564
 2600SOL     OW 8698   4.894   3.716   4.678
 2600SOL    HW1 8699   4.906   3.627   4.634
 2600SOL    HW2 8700   4.863   3.702   4.772
 2601SOL     OW 8701   3.182   1.492   0.026
 2601SOL    HW1 8702   3.264   1.485   6.996
 2601SOL    HW2 8703   3.193   1.567   0.092
 2602SOL     OW 8704   6.630   4.973   3.847
 2602SOL    HW1 8705   6.550   4.937   3.799
 2602SOL    HW2 8706   6.616   5.070   3.865
 2603SOL     OW 8707   2.395   2.536   1.628
 2603SOL    HW1 8708   2.469   2.599   1.651
 2603SOL    HW2 8709   2.360   2.558   1.537
 2604SOL     OW 8710   5.432   1.235   2.844
 2604SOL    HW1 8711   5.413   1.274   2.754
 2604SOL    HW2 8712   5.502   1.290   2.890
 2605SOL     OW 8713   3.332   5.179   3.547
 2605SOL    HW1 8714   3.375   5.229   3.622
 2605SOL    HW2 8715   3.342   5.081   3.563
 2606SOL     OW 8716   6.706   4.749   0.491
 2606SOL    HW1 8717   6.778   4.681   0.507
 2606SOL    HW2 8718   6.670   4.781   0.579
 2607SOL     OW 8719   0.570   1.754   6.230
 2607SOL    HW1 8720   0.656   1.760   6.281
 2607SOL    HW2 8721   0.570   1.819   6.155
 2608SOL     OW 8722   3.819   5.585   2.515
 2608SOL    HW1 8723   3.732   5.537   2.531
 2608SOL    HW2 8724   3.820   5.670   2.568
 2609SOL     OW 8725   0.465   2.788   1.377
 2609SOL    HW1 8726   0.498   2.870   1.424
 2609SOL    HW2 8727   0.411   2.815   1.298
 2610SOL     OW 8728   6.781   5.011   4.438
 2610SOL    HW1 8729   6.872   5.052   4.431
 2610SOL    HW2 8730   6.744   4.996   4.347
 2611SOL     OW 8731   5.797   0.156   1.387
 2611SOL    HW1 8732   5.799   0.087   1.315
 2611SOL    HW2 8733   5.715   0.211   1.378
 2612SOL     OW 8734   0.044   6.100   6.192
 2612SOL    HW1 8735   0.072   6.045   6.114
 2612SOL    HW2 8736   0.035   6.042   6.273
 2613SOL     OW 8737   3.072   6.476   1.145
 2613SOL    HW1 8738   3.082   6.403   1.078
 2613SOL    HW2 8739   3.036   6.558   1.100
 2614SOL     OW 8740   6.620   6.644   6.364
 2614SOL    HW1 8741   6.648   6.607   6.453
 2614SOL    HW2 8742   6.655   6.737   6.354
 2615SOL     OW 8743   5.959   4.685   2.671
 2615SOL    HW1 8744   6.046   4.711   2.630
 2615SOL    HW2 8745   5.965   4.591   2.705
 2616SOL     OW 8746   3.901   3.655   3.773
 2616SOL    HW1 8747   3.862   3.703   3.695
 2616SOL    HW2 8748   3.898   3.715   3.854
 2617SOL     OW 8749   3.868   6.530   1.396
 2617SOL    HW1 8750   3.803   6.528   1.320
 2617SOL    HW2 8751   3.879   6.437   1.432
 2618SOL     OW 8752   0.306   6.346   3.821
 2618SOL    HW1 8753   0.285   6.300   3.734
 2618SOL    HW2 8754   0.359   6.284   3.879
 2619SOL     OW 8755   2.843   1.536   3.454
 2619SOL    HW1 8756   2.768   1.474   3.475
 2619SOL    HW2 8757   2.930   1.491   3.472
 2620SOL     OW 8758   0.782   5.964   3.444
 2620SOL    HW1 8759   0.765   5.936   3.538
 2620SOL    HW2 8760   0.787   5.883   3.385
 2621SOL     OW 8761   2.325   6.181   3.107
 2621SOL    HW1 8762   2.283   6.248   3.169
 2621SOL    HW2 8763   2.255   6.118   3.074
 2622SOL     OW 8764   2.733   2.117   0.034
 2622SOL    HW1 8765   2.736   2.018   0.046
 2622SOL    HW2 8766   2.639   2.149   0.048
 2623SOL     OW 8767   3.369   1.894   4.816
 2623SOL    HW1 8768   3.464   1.864   4.825
 2623SOL    HW2 8769   3.351   1.920   4.722
 2624SOL     OW 8770   6.531   3.370   4.872
 2624SOL    HW1 8771   6.591   3.303   4.916
 2624SOL    HW2 8772   6.579   3.411   4.794
 2625SOL     OW 8773   2.457   2.714   6.063
 2625SOL    HW1 8774   2.500   2.692   6.151
 2625SOL    HW2 8775   2.469   2.812   6.044
 2626SOL     OW 8776   0.777   0.709   4.809
 2626SOL    HW1 8777   0.825   0.795   4.791
 2626SOL    HW2 8778   0.679   0.726   4.812
 2627SOL     OW 8779   0.271   0.513   4.906
 2627SOL    HW1 8780   0.305   0.500   4.813
 2627SOL    HW2 8781   0.312   0.445   4.967
 2628SOL     OW 8782   2.628   5.593   6.832
 2628SOL    HW1 8783   2.711   5.633   6.871
 2628SOL    HW2 8784   2.594   5.521   6.892
 2629SOL     OW 8785   3.209   3.895   1.760
 2629SOL    HW1 8786   3.183   3.821   1.698
 2629SOL    HW2 8787   3.132   3.959   1.770
 2630SOL     OW 8788   3.014   1.803   3.491
 2630SOL    HW1 8789   2.933   1.745   3.478
 2630SOL    HW2 8790   3.043   1.840   3.403
 2631SOL     OW 8791   4.777   0.879   4.418
 2631SOL    HW1 8792   4.692   0.832   4.398
 2631SOL    HW2 8793   4.839   0.872   4.340
 2632SOL     OW 8794   2.749   2.042   6.600
 2632SOL    HW1 8795   2.696   2.027   6.516
 2632SOL    HW2 8796   2.744   1.961   6.658
 2633SOL     OW 8797   5.837   1.980   5.705
 2633SOL    HW1 8798   5.762   2.045   5.716
 2633SOL    HW2 8799   5.840   1.918   5.783
 2634SOL     OW 8800   2.076   4.339   2.541
 2634SOL    HW1 8801   2.154   4.289   2.578
 2634SOL    HW2 8802   2.001   4.274   2.525
 2635SOL     OW 8803   5.651   6.153   4.420
 2635SOL    HW1 8804   5.659   6.194   4.511
 2635SOL    HW2 8805   5.689   6.215   4.352
 2636SOL     OW 8806   4.678   0.756   5.331
 2636SOL    HW1 8807   4.740   0.697   5.383
 2636SOL    HW2 8808   4.597   0.775   5.386
 2637SOL     OW 8809   6.296   1.418   3.884
 2637SOL    HW1 8810   6.291   1.426   3.784
 2637SOL    HW2 8811   6.343   1.333   3.909
 2638SOL     OW 8812   0.024   6.758   2.938
 2638SOL    HW1 8813   7.007   6.839   2.899
 2638SOL    HW2 8814   0.005   6.754   3.036
 2639SOL     OW 8815   1.130   0.095   1.967
 2639SOL    HW1 8816   1.064   0.076   1.894
 2639SOL    HW2 8817   1.083   0.097   2.055
 2640SOL     OW 8818   6.768   6.126   5.056
 2640SOL    HW1 8819   6.845   6.076   5.096
 2640SOL    HW2 8820   6.685   6.072   5.066
 2641SOL     OW 8821   4.974   2.721   2.379
 2641SOL    HW1 8822   4.913   2.793   2.345
 2641SOL    HW2 8823   4.947   2.633   2.339
 2642SOL     OW 8824   5.087   7.000   4.272
 2642SOL    HW1 8825   5.156   0.046   4.272
 2642SOL    HW2 8826   5.072   6.967   4.365
 2643SOL     OW 8827   1.596   5.098   3.235
 2643SOL    HW1 8828   1.548   5.122   3.151
 2643SOL    HW2 8829   1.567   5.007   3.266
 2644SOL     OW 8830   6.495   4.864   6.081
 2644SOL    HW1 8831   6.578   4.851   6.135
 2644SOL    HW2 8832   6.422   4.808   6.118
 2645SOL     OW 8833   4.368   5.798   4.180
 2645SOL    HW1 8834   4.435   5.800   4.254
 2645SOL    HW2 8835   4.395   5.729   4.113
 2646SOL     OW 8836   5.916   0.088   6.654
 2646SOL    HW1 8837   6.012   0.078   6.628
 2646SOL    HW2 8838   5.910   0.106   6.752
 2647SOL     OW 8839   5.981   0.474   1.571
 2647SOL    HW1 8840   5.986   0.470   1.671
 2647SOL    HW2 8841   6.030   0.555   1.538
 2648SOL     OW 8842   0.209   0.523   3.134
 2648SOL    HW1 8843   0.306   0.529   3.111
 2648SOL    HW2 8844   0.194   0.446   3.196
 2649SOL     OW 8845   5.394   3.341   6.096
 2649SOL    HW1 8846   5.339   3.398   6.036
 2649SOL    HW2 8847   5.341   3.318   6.178
 2650SOL     OW 8848   0.992   3.776   4.278
 2650SOL    HW1 8849   0.911   3.769   4.336
 2650SOL    HW2 8850   0.992   3.865   4.232
 2651SOL     OW 8851   0.073   2.101   6.999
 2651SOL    HW1 8852   0.104   2.010   0.001
 2651SOL    HW2 8853   0.046   2.153   0.054
 2652SOL     OW 8854   2.934   3.614   3.626
 2652SOL    HW1 8855   2.838   3.629   3.652
 2652SOL    HW2 8856   2.983   3.701   3.625
 2653SOL     OW 8857   4.951   6.828   5.370
 2653SOL    HW1 8858   5.021   6.757   5.369
 2653SOL    HW2 8859   4.867   6.792   5.331
 2654SOL     OW 8860   4.514   4.336   1.335
 2654SOL    HW1 8861   4.600   4.384   1.352
 2654SOL    HW2 8862   4.481   4.296   1.420
 2655SOL     OW 8863   5.103   4.723   4.575
 2655SOL    HW1 8864   5.062   4.671   4.650
 2655SOL    HW2 8865   5.090   4.821   4.592
 2656SOL     OW 8866   4.051   4.882   4.357
 2656SOL    HW1 8867   4.019   4.903   4.264
 2656SOL    HW2 8868   4.133   4.936   4.377
 2657SOL     OW 8869   2.823   4.227   6.654
 2657SOL    HW1 8870   2.742   4.182   6.689
 2657SOL    HW2 8871   2.815   4.239   6.555
 2658SOL     OW 8872   5.089   3.888   0.560
 2658SOL    HW1 8873   5.005   3.923   0.601
 2658SOL    HW2 8874   5.077   3.876   0.462
 2659SOL     OW 8875   6.165   2.540   4.769
 2659SOL    HW1 8876   6.161   2.556   4.670
 2659SOL    HW2 8877   6.127   2.450   4.790
 2660SOL     OW 8878   0.744   1.415   0.867
 2660SOL    HW1 8879   0.650   1.384   0.878
 2660SOL    HW2 8880   0.801   1.375   0.940
 2661SOL     OW 8881   2.225   6.655   1.145
 2661SOL    HW1 8882   2.261   6.588   1.210
 2661SOL    HW2 8883   2.127   6.639   1.131
 2662SOL     OW 8884   4.292   0.573   5.482
 2662SOL    HW1 8885   4.195   0.586   5.500
 2662SOL    HW2 8886   4.305   0.492   5.424
 2663SOL     OW 8887   2.665   3.940   1.367
 2663SOL    HW1 8888   2.672   3.912   1.462
 2663SOL    HW2 8889   2.572   3.928   1.335
 2664SOL     OW 8890   3.776   4.157   4.663
 2664SOL    HW1 8891   3.698   4.218   4.648
 2664SOL    HW2 8892   3.821   4.138   4.575
 2665SOL     OW 8893   2.822   2.492   5.333
 2665SOL    HW1 8894   2.760   2.508   5.410
 2665SOL    HW2 8895   2.897   2.432   5.361
 2666SOL     OW 8896   4.848   3.708   1.844
 2666SOL    HW1 8897   4.826   3.642   1.916
 2666SOL    HW2 8898   4.920   3.669   1.786
 2667SOL     OW 8899   1.556   6.287   4.271
 2667SOL    HW1 8900   1.569   6.202   4.220
 2667SOL    HW2 8901   1.560   6.364   4.208
 2668SOL     OW 8902   6.092   3.193   3.647
 2668SOL    HW1 8903   6.075   3.289   3.668
 2668SOL    HW2 8904   6.015   3.156   3.594
 2669SOL     OW 8905   3.278   4.825   5.147
 2669SOL    HW1 8906   3.353   4.830   5.213
 2669SOL    HW2 8907   3.211   4.758   5.178
 2670SOL     OW 8908   5.855   1.847   6.332
 2670SOL    HW1 8909   5.859   1.928   6.275
 2670SOL    HW2 8910   5.861   1.873   6.429
 2671SOL     OW 8911   3.419   5.408   6.651
 2671SOL    HW1 8912   3.439   5.398   6.749
 2671SOL    HW2 8913   3.455   5.329   6.602
 2672SOL     OW 8914   6.630   5.188   6.731
 2672SOL    HW1 8915   6.538   5.228   6.723
 2672SOL    HW2 8916   6.640   5.114   6.665
 2673SOL     OW 8917   6.193   2.061   3.514
 2673SOL    HW1 8918   6.121   2.101   3.570
 2673SOL    HW2 8919   6.250   2.001   3.570
 2674SOL     OW 8920   1.617   4.139   3.830
 2674SOL    HW1 8921   1.612   4.072   3.755
 2674SOL    HW2 8922   1.650   4.226   3.793
 2675SOL     OW 8923   6.423   5.060   4.689
 2675SOL    HW1 8924   6.355   5.023   4.752
 2675SOL    HW2 8925   6.472   4.984   4.645
 2676SOL     OW 8926   4.513   1.276   1.677
 2676SOL    HW1 8927   4.511   1.370   1.643
 2676SOL    HW2 8928   4.500   1.276   1.776
 2677SOL     OW 8929   3.159   4.424   6.930
 2677SOL    HW1 8930   3.206   4.435   7.018
 2677SOL    HW2 8931   3.065   4.459   6.938
 2678SOL     OW 8932   6.966   4.872   1.361
 2678SOL    HW1 8933   0.026   4.861   1.311
 2678SOL    HW2 8934   6.972   4.825   1.449
 2679SOL     OW 8935   3.600   5.364   0.768
 2679SOL    HW1 8936   3.677   5.307   0.796
 2679SOL    HW2 8937   3.591   5.362   0.668
 2680SOL     OW 8938   1.047   1.859   0.934
 2680SOL    HW1 8939   0.962   1.834   0.887
 2680SOL    HW2 8940   1.080   1.946   0.897
 2681SOL     OW 8941   1.412   2.382   4.204
 2681SOL    HW1 8942   1.480   2.438   4.157
 2681SOL    HW2 8943   1.322   2.425   4.197
 2682SOL     OW 8944   5.498   3.762   2.693
 2682SOL    HW1 8945   5.407   3.790   2.661
 2682SOL    HW2 8946   5.495   3.749   2.792
 2683SOL     OW 8947   1.613   4.086   6.848
 2683SOL    HW1 8948   1.707   4.070   6.876
 2683SOL    HW2 8949   1.551   4.052   6.919
 2684SOL     OW 8950   4.608   5.434   1.519
 2684SOL    HW1 8951   4.599   5.343   1.560
 2684SOL    HW2 8952   4.529   5.490   1.544
 2685SOL     OW 8953   6.142   5.973   6.460
 2685SOL    HW1 8954   6.235   5.941   6.481
 2685SOL    HW2 8955   6.090   5.897   6.421
 2686SOL     OW 8956   1.601   1.382   5.583
 2686SOL    HW1 8957   1.515   1.364   5.535
 2686SOL    HW2 8958   1.620   1.308   5.647
 2687SOL     OW 8959   4.494   4.463   2.609
 2687SOL    HW1 8960   4.414   4.480   2.551
 2687SOL    HW2 8961   4.556   4.400   2.562
 2688SOL     OW 8962   4.739   5.722   6.962
 2688SOL    HW1 8963   4.801   5.791   6.925
 2688SOL    HW2 8964   4.667   5.767   7.014
 2689SOL     OW 8965   2.095   2.637   3.759
 2689SOL    HW1 8966   2.022   2.583   3.717
 2689SOL    HW2 8967   2.098   2.728   3.718
 2690SOL     OW 8968   3.263   3.768   4.246
 2690SOL    HW1 8969   3.319   3.715   4.182
 2690SOL    HW2 8970   3.168   3.767   4.216
 2691SOL     OW 8971   1.109   5.607   2.178
 2691SOL    HW1 8972   1.020   5.563   2.163
 2691SOL    HW2 8973   1.120   5.683   2.115
 2692SOL     OW 8974   4.139   4.720   3.590
 2692SOL    HW1 8975   4.186   4.683   3.510
 2692SOL    HW2 8976   4.162   4.666   3.671
 2693SOL     OW 8977   2.010   4.132   3.058
 2693SOL    HW1 8978   1.986   4.045   3.015
 2693SOL    HW2 8979   1.941   4.155   3.127
 2694SOL     OW 8980   4.207   6.798   2.719
 2694SOL    HW1 8981   4.107   6.796   2.709
 2694SOL    HW2 8982   4.250   6.799   2.629
 2695SOL     OW 8983   5.583   0.808   2.561
 2695SOL    HW1 8984   5.548   0.770   2.475
 2695SOL    HW2 8985   5.593   0.734   2.628
 2696SOL     OW 8986   3.770   3.558   5.123
 2696SOL    HW1 8987   3.713   3.637   5.103
 2696SOL    HW2 8988   3.808   3.567   5.216
 2697SOL     OW 8989   3.767   1.324   3.352
 2697SOL    HW1 8990   3.788   1.300   3.258
 2697SOL    HW2 8991   3.668   1.320   3.366
 2698SOL     OW 8992   2.108   5.469   0.440
 2698SOL    HW1 8993   2.169   5.398   0.404
 2698SOL    HW2 8994   2.133   5.557   0.400
 2699SOL     OW 8995   3.619   6.230   0.619
 2699SOL    HW1 8996   3.571   6.183   0.693
 2699SOL    HW2 8997   3.581   6.201   0.532
 2700SOL     OW 8998   2.119   4.171   1.490
 2700SOL    HW1 8999   2.126   4.214   1.401
 2700SOL    HW2 9000   2.031   4.193   1.532
 2701SOL     OW 9001   3.020   0.488   6.777
 2701SOL    HW1 9002   3.016   0.478   6.877
 2701SOL    HW2 9003   3.094   0.432   6.741
 2702SOL     OW 9004   0.852   2.845   2.723
 2702SOL    HW1 9005   0.811   2.850   2.814
 2702SOL    HW2 9006   0.937   2.793   2.728
 2703SOL     OW 9007   2.176   0.356   2.549
 2703SOL    HW1 9008   2.093   0.386   2.595
 2703SOL    HW2 9009   2.251   0.419   2.571
 2704SOL     OW 9010   0.198   6.266   0.767
 2704SOL    HW1 9011   0.141   6.274   0.685
 2704SOL    HW2 9012   0.150   6.214   0.837
 2705SOL     OW 9013   1.481   5.830   4.470
 2705SOL    HW1 9014   1.426   5.912   4.485
 2705SOL    HW2 9015   1.527   5.836   4.382
 2706SOL     OW 9016   0.489   0.502   1.373
 2706SOL    HW1 9017   0.467   0.598   1.385
 2706SOL    HW2 9018   0.454   0.450   1.451
 2707SOL     OW 9019   2.327   1.109   5.089
 2707SOL    HW1 9020   2.375   1.107   5.177
 2707SOL    HW2 9021   2.230   1.091   5.104
 2708SOL     OW 9022   1.071   2.121   0.798
 2708SOL    HW1 9023   0.983   2.167   0.790
 2708SOL    HW2 9024   1.114   2.145   0.885
 2709SOL     OW 9025   5.430   6.395   0.237
 2709SOL    HW1 9026   5.452   6.314   0.292
 2709SOL    HW2 9027   5.369   6.368   0.162
 2710SOL     OW 9028   0.650   3.489   2.560
 2710SOL    HW1 9029   0.647   3.390   2.573
 2710SOL    HW2 9030   0.725   3.528   2.614
 2711SOL     OW 9031   2.410   1.297   3.553
 2711SOL    HW1 9032   2.364   1.236   3.618
 2711SOL    HW2 9033   2.410   1.256   3.462
 2712SOL     OW 9034   3.254   4.952   1.149
 2712SOL    HW1 9035   3.298   4.894   1.080
 2712SOL    HW2 9036   3.300   4.938   1.237
 2713SOL     OW 9037   2.191   2.211   4.862
 2713SOL    HW1 9038   2.102   2.246   4.891
 2713SOL    HW2 9039   2.263   2.273   4.893
 2714SOL     OW 9040   4.682   2.030   0.067
 2714SOL    HW1 9041   4.618   2.037   7.016
 2714SOL    HW2 9042   4.740   2.112   0.069
 2715SOL     OW 9043   5.477   0.734   0.064
 2715SOL    HW1 9044   5.522   0.656   0.020
 2715SOL    HW2 9045   5.464   0.714   0.161
 2716SOL     OW 9046   5.296   5.114   2.716
 2716SOL    HW1 9047   5.261   5.180   2.650
 2716SOL    HW2 9048   5.346   5.163   2.788
 2717SOL     OW 9049   2.380   5.070   2.400
 2717SOL    HW1 9050   2.461   5.129   2.396
 2717SOL    HW2 9051   2.379   5.010   2.321
 2718SOL     OW 9052   1.705   3.628   5.455
 2718SOL    HW1 9053   1.681   3.685   5.376
 2718SOL    HW2 9054   1.692   3.681   5.539
 2719SOL     OW 9055   6.287   5.778   1.360
 2719SOL    HW1 9056   6.343   5.722   1.422
 2719SOL    HW2 9057   6.194   5.743   1.359
 2720SOL     OW 9058   1.980   6.239   2.585
 2720SOL    HW1 9059   1.911   6.225   2.514
 2720SOL    HW2 9060   1.934   6.249   2.674
 2721SOL     OW 9061   3.308   0.604   4.218
 2721SOL    HW1 9062   3.304   0.553   4.132
 2721SOL    HW2 9063   3.221   0.651   4.233
 2722SOL     OW 9064   6.674   5.653   2.132
 2722SOL    HW1 9065   6.726   5.732   2.099
 2722SOL    HW2 9066   6.652   5.666   2.228
 2723SOL     OW 9067   1.289   6.560   5.868
 2723SOL    HW1 9068   1.222   6.486   5.871
 2723SOL    HW2 9069   1.337   6.565   5.956
 2724SOL     OW 9070   2.421   0.004   6.311
 2724SOL    HW1 9071   2.470   6.963   6.366
 2724SOL    HW2 9072   2.457   0.003   6.218
 2725SOL     OW 9073   6.174   4.675   4.358
 2725SOL    HW1 9074   6.250   4.736   4.381
 2725SOL    HW2 9075   6.093   4.700   4.411
 2726SOL     OW 9076   0.016   3.972   1.187
 2726SOL    HW1 9077   0.095   3.940   1.240
 2726SOL    HW2 9078   0.034   3.957   1.090
 2727SOL     OW 9079   0.588   4.928   3.173
 2727SOL    HW1 9080   0.662   4.892   3.115
 2727SOL    HW2 9081   0.512   4.958   3.115
 2728SOL     OW 9082   3.607   7.011   6.101
 2728SOL    HW1 9083   3.663   6.952   6.160
 2728SOL    HW2 9084   3.602   6.971   6.010
 2729SOL     OW 9085   6.353   5.807   1.105
 2729SOL    HW1 9086   6.320   5.803   1.199
 2729SOL    HW2 9087   6.452   5.817   1.104
 2730SOL     OW 9088   1.706   5.370   1.898
 2730SOL    HW1 9089   1.662   5.337   1.815
 2730SOL    HW2 9090   1.637   5.410   1.959
 2731SOL     OW 9091   3.887   3.293   2.187
 2731SOL    HW1 9092   3.933   3.211   2.222
 2731SOL    HW2 9093   3.955   3.365   2.172
 2732SOL     OW 9094   5.577   3.231   2.258
 2732SOL    HW1 9095   5.481   3.255   2.264
 2732SOL    HW2 9096   5.632   3.314   2.251
 2733SOL     OW 9097   0.404   0.040   4.853
 2733SOL    HW1 9098   0.427   0.114   4.790
 2733SOL    HW2 9099   0.466   6.989   4.837
 2734SOL     OW 9100   2.397   5.994   1.934
 2734SOL    HW1 9101   2.358   5.954   2.016
 2734SOL    HW2 9102   2.409   6.093   1.947
 2735SOL     OW 9103   1.099   3.451   2.783
 2735SOL    HW1 9104   1.008   3.455   2.825
 2735SOL    HW2 9105   1.139   3.543   2.780
 2736SOL     OW 9106   4.355   6.971   4.560
 2736SOL    HW1 9107   4.400   0.033   4.544
 2736SOL    HW2 9108   4.368   6.945   4.656
 2737SOL     OW 9109   3.861   3.650   5.396
 2737SOL    HW1 9110   3.822   3.741   5.379
 2737SOL    HW2 9111   3.806   3.603   5.465
 2738SOL     OW 9112   5.972   4.822   3.914
 2738SOL    HW1 9113   5.960   4.890   3.842
 2738SOL    HW2 9114   5.912   4.843   3.991
 2739SOL     OW 9115   6.410   5.080   0.434
 2739SOL    HW1 9116   6.508   5.063   0.444
 2739SOL    HW2 9117   6.384   5.073   0.338
 2740SOL     OW 9118   6.195   3.737   2.231
 2740SOL    HW1 9119   6.183   3.830   2.197
 2740SOL    HW2 9120   6.146   3.673   2.172
 2741SOL     OW 9121   6.887   1.269   5.535
 2741SOL    HW1 9122   6.815   1.217   5.490
 2741SOL    HW2 9123   6.959   1.291   5.469
 2742SOL     OW 9124   1.833   4.546   6.659
 2742SOL    HW1 9125   1.782   4.501   6.732
 2742SOL    HW2 9126   1.795   4.520   6.571
 2743SOL     OW 9127   6.404   5.235   2.252
 2743SOL    HW1 9128   6.446   5.148   2.277
 2743SOL    HW2 9129   6.465   5.310   2.280
 2744SOL     OW 9130   4.605   1.850   0.290
 2744SOL    HW1 9131   4.555   1.772   0.253
 2744SOL    HW2 9132   4.637   1.907   0.214
 2745SOL     OW 9133   0.891   6.451   6.718
 2745SOL    HW1 9134   0.899   6.452   6.619
 2745SOL    HW2 9135   0.889   6.356   6.751
 2746SOL     OW 9136   2.779   2.044   3.766
 2746SOL    HW1 9137   2.799   2.124   3.709
 2746SOL    HW2 9138   2.690   2.056   3.810
 2747SOL     OW 9139   5.251   3.499   5.920
 2747SOL    HW1 9140   5.301   3.585   5.909
 2747SOL    HW2 9141   5.205   3.476   5.834
 2748SOL     OW 9142   4.059   1.692   0.965
 2748SOL    HW1 9143   4.093   1.786   0.976
 2748SOL    HW2 9144   3.962   1.689   0.986
 2749SOL     OW 9145   5.972   4.326   3.663
 2749SOL    HW1 9146   5.926   4.403   3.707
 2749SOL    HW2 9147   6.069   4.328   3.684
 2750SOL     OW 9148   0.514   4.923   1.310
 2750SOL    HW1 9149   0.436   4.941   1.371
 2750SOL    HW2 9150   0.485   4.863   1.236
 2751SOL     OW 9151   0.470   6.303   0.669
 2751SOL    HW1 9152   0.422   6.243   0.733
 2751SOL    HW2 9153   0.406   6.333   0.598
 2752SOL     OW 9154   4.886   4.617   4.976
 2752SOL    HW1 9155   4.798   4.665   4.980
 2752SOL    HW2 9156   4.911   4.602   4.881
 2753SOL     OW 9157   1.393   7.018   6.428
 2753SOL    HW1 9158   1.473   0.052   6.433
 2753SOL    HW2 9159   1.388   6.963   6.511
 2754SOL     OW 9160   6.531   0.953   3.971
 2754SOL    HW1 9161   6.581   1.012   4.035
 2754SOL    HW2 9162   6.568   0.966   3.879
 2755SOL     OW 9163   2.937   6.716   3.550
 2755SOL    HW1 9164   2.876   6.767   3.611
 2755SOL    HW2 9165   3.010   6.673   3.603
 2756SOL     OW 9166   5.809   4.181   5.195
 2756SOL    HW1 9167   5.761   4.146   5.275
 2756SOL    HW2 9168   5.745   4.229   5.136
 2757SOL     OW 9169   2.160   1.287   6.165
 2757SOL    HW1 9170   2.100   1.308   6.242
 2757SOL    HW2 9171   2.220   1.365   6.147
 2758SOL     OW 9172   5.245   6.380   3.481
 2758SOL    HW1 9173   5.312   6.454   3.476
 2758SOL    HW2 9174   5.257   6.329   3.566
 2759SOL     OW 9175   4.455   5.792   5.459
 2759SOL    HW1 9176   4.370   5.764   5.502
 2759SOL    HW2 9177   4.453   5.769   5.362
 2760SOL     OW 9178   6.744   5.435   2.706
 2760SOL    HW1 9179   6.769   5.381   2.625
 2760SOL    HW2 9180   6.750   5.377   2.787
 2761SOL     OW 9181   1.989   4.238   4.589
 2761SOL    HW1 9182   2.085   4.262   4.607
 2761SOL    HW2 9183   1.986   4.148   4.546
 2762SOL     OW 9184   1.765   1.802   6.876
 2762SOL    HW1 9185   1.672   1.766   6.887
 2762SOL    HW2 9186   1.766   1.899   6.898
 2763SOL     OW 9187   4.552   2.301   5.195
 2763SOL    HW1 9188   4.626   2.307   5.262
 2763SOL    HW2 9189   4.544   2.388   5.147
 2764SOL     OW 9190   6.973   6.113   2.212
 2764SOL    HW1 9191   6.982   6.189   2.147
 2764SOL    HW2 9192   0.038   6.084   2.242
 2765SOL     OW 9193   6.924   0.274   0.865
 2765SOL    HW1 9194   6.955   0.261   0.770
 2765SOL    HW2 9195   6.908   0.372   0.881
 2766SOL     OW 9196   3.772   2.459   6.334
 2766SOL    HW1 9197   3.852   2.444   6.393
 2766SOL    HW2 9198   3.713   2.528   6.374
 2767SOL     OW 9199   6.395   5.312   6.700
 2767SOL    HW1 9200   6.441   5.372   6.635
 2767SOL    HW2 9201   6.317   5.268   6.655
 2768SOL     OW 9202   4.520   0.917   0.516
 2768SOL    HW1 9203   4.434   0.931   0.466
 2768SOL    HW2 9204   4.509   0.949   0.610
 2769SOL     OW 9205   2.846   4.315   6.393
 2769SOL    HW1 9206   2.750   4.343   6.389
 2769SOL    HW2 9207   2.904   4.393   6.370
 2770SOL     OW 9208   4.384   5.196   5.415
 2770SOL    HW1 9209   4.302   5.140   5.423
 2770SOL    HW2 9210   4.408   5.234   5.505
 2771SOL     OW 9211   5.783   0.612   4.663
 2771SOL    HW1 9212   5.772   0.640   4.759
 2771SOL    HW2 9213   5.848   0.537   4.658
 2772SOL     OW 9214   3.369   1.125   1.281
 2772SOL    HW1 9215   3.325   1.171   1.358
 2772SOL    HW2 9216   3.350   1.175   1.197
 2773SOL     OW 9217   6.645   2.703   4.185
 2773SOL    HW1 9218   6.662   2.643   4.107
 2773SOL    HW2 9219   6.732   2.740   4.218
 2774SOL     OW 9220   4.991   3.156   2.951
 2774SOL    HW1 9221   5.007   3.058   2.964
 2774SOL    HW2 9222   4.943   3.170   2.865
 2775SOL     OW 9223   6.267   3.254   4.121
 2775SOL    HW1 9224   6.197   3.271   4.190
 2775SOL    HW2 9225   6.309   3.164   4.138
 2776SOL     OW 9226   5.242   4.291   5.571
 2776SOL    HW1 9227   5.181   4.340   5.634
 2776SOL    HW2 9228   5.238   4.193   5.591
 2777SOL     OW 9229   2.684   1.778   1.209
 2777SOL    HW1 9230   2.677   1.831   1.124
 2777SOL    HW2 9231   2.694   1.681   1.187
 2778SOL     OW 9232   1.457   6.251   6.656
 2778SOL    HW1 9233   1.473   6.225   6.561
 2778SOL    HW2 9234   1.451   6.351   6.663
 2779SOL     OW 9235   5.511   6.863   1.581
 2779SOL    HW1 9236   5.490   6.812   1.664
 2779SOL    HW2 9237   5.588   6.925   1.599
 2780SOL     OW 9238   6.916   0.291   6.022
 2780SOL    HW1 9239   6.918   0.371   6.082
 2780SOL    HW2 9240   6.827   0.286   5.977
 2781SOL     OW 9241   6.165   0.595   3.137
 2781SOL    HW1 9242   6.090   0.561   3.194
 2781SOL    HW2 9243   6.144   0.688   3.106
 2782SOL     OW 9244   4.636   1.392   4.795
 2782SOL    HW1 9245   4.549   1.433   4.771
 2782SOL    HW2 9246   4.655   1.406   4.892
 2783SOL     OW 9247   6.838   3.923   1.613
 2783SOL    HW1 9248   6.878   3.839   1.577
 2783SOL    HW2 9249   6.846   3.996   1.545
 2784SOL     OW 9250   3.391   1.036   2.432
 2784SOL    HW1 9251   3.380   1.110   2.498
 2784SOL    HW2 9252   3.456   1.063   2.362
 2785SOL     OW 9253   5.275   2.327   0.473
 2785SOL    HW1 9254   5.325   2.245   0.447
 2785SOL    HW2 9255   5.333   2.386   0.529
 2786SOL     OW 9256   6.529   6.950   1.884
 2786SOL    HW1 9257   6.575   6.917   1.802
 2786SOL    HW2 9258   6.512   0.022   1.876
 2787SOL     OW 9259   6.272   6.460   5.663
 2787SOL    HW1 9260   6.233   6.485   5.574
 2787SOL    HW2 9261   6.205   6.477   5.735
 2788SOL     OW 9262   2.466   6.419   5.852
 2788SOL    HW1 9263   2.496   6.349   5.917
 2788SOL    HW2 9264   2.459   6.379   5.760
 2789SOL     OW 9265   1.860   1.736   3.533
 2789SOL    HW1 9266   1.952   1.761   3.503
 2789SOL    HW2 9267   1.815   1.816   3.572
 2790SOL     OW 9268   3.593   5.268   1.189
 2790SOL    HW1 9269   3.648   5.243   1.269
 2790SOL    HW2 9270   3.594   5.193   1.123
 2791SOL     OW 9271   1.056   4.354   2.341
 2791SOL    HW1 9272   1.011   4.268   2.362
 2791SOL    HW2 9273   0.987   4.425   2.328
 2792SOL     OW 9274   3.242   1.025   4.345
 2792SOL    HW1 9275   3.287   0.975   4.419
 2792SOL    HW2 9276   3.297   1.019   4.262
 2793SOL     OW 9277   5.063   3.700   2.175
 2793SOL    HW1 9278   5.147   3.685   2.228
 2793SOL    HW2 9279   5.013   3.614   2.166
 2794SOL     OW 9280   6.751   2.390   5.914
 2794SOL    HW1 9281   6.775   2.295   5.892
 2794SOL    HW2 9282   6.685   2.423   5.846
 2795SOL     OW 9283   0.577   4.183   1.109
 2795SOL    HW1 9284   0.562   4.150   1.202
 2795SOL    HW2 9285   0.556   4.110   1.044
 2796SOL     OW 9286   0.125   5.744   3.617
 2796SOL    HW1 9287   0.152   5.775   3.708
 2796SOL    HW2 9288   0.025   5.745   3.610
 2797SOL     OW 9289   5.252   5.246   5.431
 2797SOL    HW1 9290   5.223   5.324   5.486
 2797SOL    HW2 9291   5.351   5.233   5.441
 2798SOL     OW 9292   5.863   5.515   2.625
 2798SOL    HW1 9293   5.869   5.458   2.543
 2798SOL    HW2 9294   5.769   5.548   2.635
 2799SOL     OW 9295   5.512   5.995   6.131
 2799SOL    HW1 9296   5.563   6.082   6.129
 2799SOL    HW2 9297   5.424   6.009   6.175
 2800SOL     OW 9298   5.639   0.024   5.951
 2800SOL    HW1 9299   5.627   0.088   5.875
 2800SOL    HW2 9300   5.558   0.025   6.009
 2801SOL     OW 9301   0.471   5.698   5.780
 2801SOL    HW1 9302   0.373   5.689   5.799
 2801SOL    HW2 9303   0.511   5.607   5.770
 2802SOL     OW 9304   6.471   6.322   5.414
 2802SOL    HW1 9305   6.530   6.313   5.495
 2802SOL    HW2 9306   6.402   6.249   5.415
 2803SOL     OW 9307   3.652   5.116   5.581
 2803SOL    HW1 9308   3.618   5.021   5.582
 2803SOL    HW2 9309   3.601   5.170   5.649
 2804SOL     OW 9310   0.335   3.715   4.579
 2804SOL    HW1 9311   0.293   3.711   4.488
 2804SOL    HW2 9312   0.263   3.711   4.648
 2805SOL     OW 9313   5.792   3.637   2.780
 2805SOL    HW1 9314   5.715   3.605   2.835
 2805SOL    HW2 9315   5.807   3.575   2.703
 2806SOL     OW 9316   2.019   3.878   6.074
 2806SOL    HW1 9317   2.067   3.855   5.989
 2806SOL    HW2 9318   2.067   3.952   6.120
 2807SOL     OW 9319   4.553   0.216   3.091
 2807SOL    HW1 9320   4.613   0.287   3.126
 2807SOL    HW2 9321   4.458   0.242   3.108
 2808SOL     OW 9322   6.299   5.480   0.739
 2808SOL    HW1 9323   6.358   5.426   0.678
 2808SOL    HW2 9324   6.219   5.511   0.688
 2809SOL     OW 9325   5.390   2.066   1.616
 2809SOL    HW1 9326   5.303   2.115   1.607
 2809SOL    HW2 9327   5.430   2.052   1.526
 2810SOL     OW 9328   2.047   5.676   2.961
 2810SOL    HW1 9329   2.004   5.736   3.029
 2810SOL    HW2 9330   2.123   5.626   3.003
 2811SOL     OW 9331   0.734   1.722   2.856
 2811SOL    HW1 9332   0.660   1.667   2.895
 2811SOL    HW2 9333   0.740   1.702   2.758
 2812SOL     OW 9334   6.041   3.590   0.954
 2812SOL    HW1 9335   6.118   3.649   0.932
 2812SOL    HW2 9336   5.984   3.634   1.024
 2813SOL     OW 9337   0.574   2.044   0.119
 2813SOL    HW1 9338   0.589   1.949   0.144
 2813SOL    HW2 9339   0.496   2.051   0.058
 2814SOL     OW 9340   3.443   4.009   5.518
 2814SOL    HW1 9341   3.481   3.918   5.534
 2814SOL    HW2 9342   3.343   4.005   5.525
 2815SOL     OW 9343   6.408   5.094   6.335
 2815SOL    HW1 9344   6.399   4.998   6.309
 2815SOL    HW2 9345   6.438   5.100   6.430
 2816SOL     OW 9346   6.523   6.207   4.611
 2816SOL    HW1 9347   6.459   6.196   4.535
 2816SOL    HW2 9348   6.522   6.124   4.667
 2817SOL     OW 9349   3.287   1.179   2.691
 2817SOL    HW1 9350   3.198   1.136   2.674
 2817SOL    HW2 9351   3.306   1.180   2.789
 2818SOL     OW 9352   6.934   1.455   2.285
 2818SOL    HW1 9353   6.941   1.410   2.373
 2818SOL    HW2 9354   6.932   1.554   2.298
 2819SOL     OW 9355   1.292   0.395   2.175
 2819SOL    HW1 9356   1.267   0.323   2.241
 2819SOL    HW2 9357   1.265   0.366   2.083
 2820SOL     OW 9358   0.978   1.987   2.261
 2820SOL    HW1 9359   1.051   1.965   2.197
 2820SOL    HW2 9360   0.922   2.061   2.224
 2821SOL     OW 9361   2.721   4.854   6.119
 2821SOL    HW1 9362   2.736   4.866   6.021
 2821SOL    HW2 9363   2.805   4.825   6.163
 2822SOL     OW 9364   4.103   2.335   0.034
 2822SOL    HW1 9365   4.186   2.292   7.023
 2822SOL    HW2 9366   4.124   2.379   0.121
 2823SOL     OW 9367   6.351   0.663   6.990
 2823SOL    HW1 9368   6.318   0.656   6.896
 2823SOL    HW2 9369   6.355   0.760   7.016
 2824SOL     OW 9370   2.022   2.271   5.378
 2824SOL    HW1 9371   2.026   2.354   5.321
 2824SOL    HW2 9372   2.114   2.244   5.403
 2825SOL     OW 9373   5.483   0.388   5.954
 2825SOL    HW1 9374   5.444   0.336   6.029
 2825SOL    HW2 9375   5.410   0.424   5.896
 2826SOL     OW 9376   3.008   3.484   6.497
 2826SOL    HW1 9377   3.094   3.495   6.447
 2826SOL    HW2 9378   2.938   3.542   6.455
 2827SOL     OW 9379   0.063   1.050   6.677
 2827SOL    HW1 9380   0.035   0.955   6.689
 2827SOL    HW2 9381   0.031   1.083   6.588
 2828SOL     OW 9382   2.216   3.472   0.786
 2828SOL    HW1 9383   2.258   3.546   0.733
 2828SOL    HW2 9384   2.254   3.384   0.756
 2829SOL     OW 9385   3.089   3.030   3.527
 2829SOL    HW1 9386   3.050   3.038   3.435
 2829SOL    HW2 9387   3.075   3.115   3.577
 2830SOL     OW 9388   3.440   3.976   5.180
 2830SOL    HW1 9389   3.375   4.040   5.221
 2830SOL    HW2 9390   3.521   4.026   5.149
 2831SOL     OW 9391   1.071   3.088   2.906
 2831SOL    HW1 9392   1.015   3.170   2.909
 2831SOL    HW2 9393   1.043   3.031   2.828
 2832SOL     OW 9394   0.985   2.689   1.759
 2832SOL    HW1 9395   0.972   2.668   1.856
 2832SOL    HW2 9396   0.900   2.725   1.720
 2833SOL     OW 9397   2.386   1.923   2.055
 2833SOL    HW1 9398   2.474   1.885   2.086
 2833SOL    HW2 9399   2.321   1.848   2.042
 2834SOL     OW 9400   3.941   5.810   4.386
 2834SOL    HW1 9401   3.998   5.835   4.464
 2834SOL    HW2 9402   3.999   5.789   4.308
 2835SOL     OW 9403   0.947   6.736   0.491
 2835SOL    HW1 9404   1.025   6.675   0.501
 2835SOL    HW2 9405   0.963   6.800   0.416
 2836SOL     OW 9406   1.613   6.274   1.620
 2836SOL    HW1 9407   1.644   6.202   1.558
 2836SOL    HW2 9408   1.654   6.361   1.594
 2837SOL     OW 9409   5.580   4.544   2.664
 2837SOL    HW1 9410   5.639   4.525   2.586
 2837SOL    HW2 9411   5.532   4.631   2.649
 2838SOL     OW 9412   4.836   3.907   0.657
 2838SOL    HW1 9413   4.799   3.814   0.645
 2838SOL    HW2 9414   4.781   3.956   0.725
 2839SOL     OW 9415   0.269   3.007   2.322
 2839SOL    HW1 9416   0.259   2.983   2.226
 2839SOL    HW2 9417   0.329   3.087   2.330
 2840SOL     OW 9418   1.766   5.796   2.562
 2840SOL    HW1 9419   1.771   5.758   2.655
 2840SOL    HW2 9420   1.683   5.850   2.552
 2841SOL     OW 9421   5.978   2.282   6.756
 2841SOL    HW1 9422   5.989   2.244   6.664
 2841SOL    HW2 9423   6.061   2.264   6.809
 2842SOL     OW 9424   0.657   5.886   4.855
 2842SOL    HW1 9425   0.752   5.878   4.825
 2842SOL    HW2 9426   0.601   5.923   4.781
 2843SOL     OW 9427   2.427   1.499   2.221
 2843SOL    HW1 9428   2.484   1.576   2.190
 2843SOL    HW2 9429   2.485   1.420   2.239
 2844SOL     OW 9430   5.792   5.411   1.170
 2844SOL    HW1 9431   5.729   5.349   1.217
 2844SOL    HW2 9432   5.879   5.364   1.154
 2845SOL     OW 9433   5.162   3.172   2.421
 2845SOL    HW1 9434   5.065   3.148   2.432
 2845SOL    HW2 9435   5.215   3.089   2.404
 2846SOL     OW 9436   3.221   0.508   0.738
 2846SOL    HW1 9437   3.141   0.451   0.755
 2846SOL    HW2 9438   3.295   0.480   0.798
 2847SOL     OW 9439   4.935   3.957   2.597
 2847SOL    HW1 9440   4.883   3.998   2.522
 2847SOL    HW2 9441   4.897   3.987   2.684
 2848SOL     OW 9442   2.589   2.624   5.850
 2848SOL    HW1 9443   2.688   2.624   5.864
 2848SOL    HW2 9444   2.543   2.652   5.934
 2849SOL     OW 9445   3.514   1.093   1.602
 2849SOL    HW1 9446   3.485   1.044   1.520
 2849SOL    HW2 9447   3.437   1.102   1.665
 2850SOL     OW 9448   2.253   6.955   3.283
 2850SOL    HW1 9449   2.230   6.862   3.311
 2850SOL    HW2 9450   2.322   6.952   3.210
 2851SOL     OW 9451   4.725   3.284   6.780
 2851SOL    HW1 9452   4.695   3.299   6.874
 2851SOL    HW2 9453   4.759   3.191   6.770
 2852SOL     OW 9454   6.366   4.063   0.365
 2852SOL    HW1 9455   6.278   4.036   0.404
 2852SOL    HW2 9456   6.426   4.097   0.437
 2853SOL     OW 9457   0.920   3.045   0.132
 2853SOL    HW1 9458   0.832   3.048   0.181
 2853SOL    HW2 9459   0.934   3.131   0.084
 2854SOL     OW 9460   3.593   0.719   6.354
 2854SOL    HW1 9461   3.573   0.813   6.330
 2854SOL    HW2 9462   3.630   0.671   6.275
 2855SOL     OW 9463   1.273   2.705   4.983
 2855SOL    HW1 9464   1.314   2.782   4.935
 2855SOL    HW2 9465   1.328   2.623   4.967
 2856SOL     OW 9466   1.445   3.073   4.186
 2856SOL    HW1 9467   1.512   3.019   4.136
 2856SOL    HW2 9468   1.431   3.033   4.277
 2857SOL     OW 9469   0.232   2.884   0.852
 2857SOL    HW1 9470   0.214   2.794   0.814
 2857SOL    HW2 9471   0.327   2.888   0.885
 2858SOL     OW 9472   5.236   6.396   2.053
 2858SOL    HW1 9473   5.220   6.307   2.094
 2858SOL    HW2 9474   5.169   6.461   2.088
 2859SOL     OW 9475   5.734   6.538   0.336
 2859SOL    HW1 9476   5.719   6.633   0.308
 2859SOL    HW2 9477   5.677   6.478   0.279
 2860SOL     OW 9478   2.194   6.850   2.384
 2860SOL    HW1 9479   2.175   6.902   2.301
 2860SOL    HW2 9480   2.285   6.810   2.378
 2861SOL     OW 9481   3.195   5.843   5.096
 2861SOL    HW1 9482   3.214   5.791   5.180
 2861SOL    HW2 9483   3.195   5.781   5.018
 2862SOL     OW 9484   4.446   2.403   2.016
 2862SOL    HW1 9485   4.543   2.380   2.023
 2862SOL    HW2 9486   4.436   2.486   1.961
 2863SOL     OW 9487   4.934   1.779   6.849
 2863SOL    HW1 9488   4.950   1.707   6.781
 2863SOL    HW2 9489   5.003   1.850   6.839
 2864SOL     OW 9490   5.126   2.882   0.722
 2864SOL    HW1 9491   5.041   2.883   0.775
 2864SOL    HW2 9492   5.118   2.943   0.644
 2865SOL     OW 9493   4.457   6.480   3.865
 2865SOL    HW1 9494   4.496   6.469   3.956
 2865SOL    HW2 9495   4.386   6.551   3.866
 2866SOL     OW 9496   5.547   3.788   0.381
 2866SOL    HW1 9497   5.512   3.777   0.474
 2866SOL    HW2 9498   5.573   3.699   0.344
 2867SOL     OW 9499   6.018   6.391   2.630
 2867SOL    HW1 9500   6.072   6.334   2.692
 2867SOL    HW2 9501   6.059   6.387   2.538
 2868SOL     OW 9502   1.380   1.378   5.429
 2868SOL    HW1 9503   1.349   1.286   5.451
 2868SOL    HW2 9504   1.304   1.442   5.439
 2869SOL     OW 9505   6.393   0.668   3.361
 2869SOL    HW1 9506   6.342   0.647   3.444
 2869SOL    HW2 9507   6.356   0.616   3.284
 2870SOL     OW 9508   0.520   2.128   6.513
 2870SOL    HW1 9509   0.498   2.180   6.596
 2870SOL    HW2 9510   0.473   2.040   6.515
 2871SOL     OW 9511   6.296   0.381   0.318
 2871SOL    HW1 9512   6.320   0.288   0.292
 2871SOL    HW2 9513   6.220   0.413   0.262
 2872SOL     OW 9514   2.764   1.841   0.891
 2872SOL    HW1 9515   2.799   1.886   0.808
 2872SOL    HW2 9516   2.669   1.867   0.905
 2873SOL     OW 9517   6.820   6.587   2.343
 2873SOL    HW1 9518   6.784   6.509   2.292
 2873SOL    HW2 9519   6.896   6.556   2.401
 2874SOL     OW 9520   4.071   6.562   3.154
 2874SOL    HW1 9521   4.079   6.589   3.250
 2874SOL    HW2 9522   4.125   6.479   3.139
 2875SOL     OW 9523   4.241   6.537   2.823
 2875SOL    HW1 9524   4.280   6.459   2.774
 2875SOL    HW2 9525   4.240   6.617   2.763
 2876SOL     OW 9526   1.458   6.770   2.593
 2876SOL    HW1 9527   1.437   6.681   2.552
 2876SOL    HW2 9528   1.422   6.843   2.534
 2877SOL     OW 9529   1.813   0.682   6.094
 2877SOL    HW1 9530   1.756   0.608   6.130
 2877SOL    HW2 9531   1.904   0.646   6.073
 2878SOL     OW 9532   3.172   3.636   5.111
 2878SOL    HW1 9533   3.157   3.538   5.102
 2878SOL    HW2 9534   3.255   3.652   5.165
 2879SOL     OW 9535   4.869   5.291   5.598
 2879SOL    HW1 9536   4.849   5.242   5.514
 2879SOL    HW2 9537   4.911   5.229   5.664
 2880SOL     OW 9538   6.965   1.767   3.907
 2880SOL    HW1 9539   0.022   1.714   3.923
 2880SOL    HW2 9540   6.925   1.742   3.819
 2881SOL     OW 9541   3.364   5.869   6.760
 2881SOL    HW1 9542   3.316   5.855   6.674
 2881SOL    HW2 9543   3.394   5.965   6.767
 2882SOL     OW 9544   6.792   6.136   1.310
 2882SOL    HW1 9545   6.743   6.216   1.344
 2882SOL    HW2 9546   6.749   6.102   1.227
 2883SOL     OW 9547   5.788   6.706   3.661
 2883SOL    HW1 9548   5.760   6.616   3.629
 2883SOL    HW2 9549   5.887   6.706   3.678
 2884SOL     OW 9550   6.559   5.847   2.376
 2884SOL    HW1 9551   6.644   5.900   2.375
 2884SOL    HW2 9552   6.481   5.909   2.384
 2885SOL     OW 9553   1.291   2.301   4.626
 2885SOL    HW1 9554   1.319   2.385   4.579
 2885SOL    HW2 9555   1.191   2.300   4.636
 2886SOL     OW 9556   2.304   3.950   6.142
 2886SOL    HW1 9557   2.351   3.862   6.134
 2886SOL    HW2 9558   2.259   3.955   6.232
 2887SOL     OW 9559   0.179   6.290   5.030
 2887SOL    HW1 9560   0.097   6.269   5.082
 2887SOL    HW2 9561   0.248   6.219   5.045
 2888SOL     OW 9562   0.409   4.671   6.916
 2888SOL    HW1 9563   0.334   4.641   6.976
 2888SOL    HW2 9564   0.394   4.634   6.824
 2889SOL     OW 9565   3.187   6.712   2.645
 2889SOL    HW1 9566   3.160   6.759   2.728
 2889SOL    HW2 9567   3.156   6.617   2.648
 2890SOL     OW 9568   1.766   5.873   1.054
 2890SOL    HW1 9569   1.702   5.848   0.981
 2890SOL    HW2 9570   1.804   5.964   1.036
 2891SOL     OW 9571   1.156   3.242   3.562
 2891SOL    HW1 9572   1.162   3.312   3.491
 2891SOL    HW2 9573   1.191   3.280   3.648
 2892SOL     OW 9574   5.466   2.759   1.542
 2892SOL    HW1 9575   5.398   2.727   1.608
 2892SOL    HW2 9576   5.476   2.858   1.549
 2893SOL     OW 9577   1.237   5.450   4.386
 2893SOL    HW1 9578   1.287   5.422   4.303
 2893SOL    HW2 9579   1.301   5.492   4.450
 2894SOL     OW 9580   1.689   3.681   1.480
 2894SOL    HW1 9581   1.606   3.709   1.530
 2894SOL    HW2 9582   1.770   3.714   1.528
 2895SOL     OW 9583   4.706   0.740   6.414
 2895SOL    HW1 9584   4.749   0.667   6.360
 2895SOL    HW2 9585   4.622   0.705   6.456
 2896SOL     OW 9586   3.899   0.457   5.282
 2896SOL    HW1 9587   3.943   0.381   5.331
 2896SOL    HW2 9588   3.810   0.475   5.322
 2897SOL     OW 9589   3.848   4.991   2.634
 2897SOL    HW1 9590   3.754   4.959   2.640
 2897SOL    HW2 9591   3.893   4.948   2.556
 2898SOL     OW 9592   5.068   4.132   3.775
 2898SOL    HW1 9593   5.112   4.044   3.794
 2898SOL    HW2 9594   5.079   4.192   3.855
 2899SOL     OW 9595   6.398   2.239   0.374
 2899SOL    HW1 9596   6.487   2.224   0.417
 2899SOL    HW2 9597   6.333   2.271   0.442
 2900SOL     OW 9598   3.805   4.518   6.470
 2900SOL    HW1 9599   3.874   4.447   6.481
 2900SOL    HW2 9600   3.719   4.487   6.513
 2901SOL     OW 9601   1.952   5.009   3.526
 2901SOL    HW1 9602   1.861   5.030   3.562
 2901SOL    HW2 9603   1.956   4.913   3.497
 2902SOL     OW 9604   6.572   5.033   3.478
 2902SOL    HW1 9605   6.539   5.072   3.392
 2902SOL    HW2 9606   6.617   5.105   3.532
 2903SOL     OW 9607   4.153   6.513   0.574
 2903SOL    HW1 9608   4.138   6.433   0.632
 2903SOL    HW2 9609   4.217   6.575   0.619
 2904SOL     OW 9610   3.055   5.569   5.207
 2904SOL    HW1 9611   3.052   5.571   5.107
 2904SOL    HW2 9612   2.996   5.496   5.241
 2905SOL     OW 9613   1.506   3.910   4.328
 2905SOL    HW1 9614   1.583   3.926   4.266
 2905SOL    HW2 9615   1.426   3.882   4.274
 2906SOL     OW 9616   5.283   6.190   2.660
 2906SOL    HW1 9617   5.227   6.271   2.678
 2906SOL    HW2 9618   5.378   6.208   2.688
 2907SOL     OW 9619   0.520   1.689   4.127
 2907SOL    HW1 9620   0.569   1.699   4.041
 2907SOL    HW2 9621   0.564   1.747   4.197
 2908SOL     OW 9622   5.413   6.578   3.454
 2908SOL    HW1 9623   5.503   6.559   3.493
 2908SOL    HW2 9624   5.399   6.676   3.446
 2909SOL     OW 9625   1.897   6.172   3.794
 2909SOL    HW1 9626   1.802   6.189   3.768
 2909SOL    HW2 9627   1.904   6.175   3.894
 2910SOL     OW 9628   6.824   0.791   3.569
 2910SOL    HW1 9629   6.864   0.703   3.594
 2910SOL    HW2 9630   6.785   0.784   3.477
 2911SOL     OW 9631   1.723   5.211   4.009
 2911SOL    HW1 9632   1.691   5.244   4.097
 2911SOL    HW2 9633   1.691   5.273   3.937
 2912SOL     OW 9634   6.263   6.324   6.669
 2912SOL    HW1 9635   6.176   6.275   6.665
 2912SOL    HW2 9636   6.329   6.271   6.724
 2913SOL     OW 9637   3.169   5.036   1.910
 2913SOL    HW1 9638   3.151   4.938   1.918
 2913SOL    HW2 9639   3.162   5.064   1.814
 2914SOL     OW 9640   5.953   6.097   0.947
 2914SOL    HW1 9641   5.867   6.054   0.973
 2914SOL    HW2 9642   6.025   6.028   0.941
 2915SOL     OW 9643   2.637   1.840   3.546
 2915SOL    HW1 9644   2.670   1.819   3.453
 2915SOL    HW2 9645   2.684   1.920   3.581
 2916SOL     OW 9646   1.509   5.236   0.279
 2916SOL    HW1 9647   1.590   5.179   0.291
 2916SOL    HW2 9648   1.436   5.182   0.237
 2917SOL     OW 9649   3.341   0.434   4.653
 2917SOL    HW1 9650   3.340   0.421   4.554
 2917SOL    HW2 9651   3.431   0.412   4.690
 2918SOL     OW 9652   5.919   3.883   5.916
 2918SOL    HW1 9653   5.905   3.982   5.904
 2918SOL    HW2 9654   5.885   3.835   5.835
 2919SOL     OW 9655   6.489   0.385   3.368
 2919SOL    HW1 9656   6.517   0.477   3.339
 2919SOL    HW2 9657   6.489   0.381   3.468
 2920SOL     OW 9658   3.651   0.090   1.541
 2920SOL    HW1 9659   3.748   0.073   1.522
 2920SOL    HW2 9660   3.640   0.184   1.573
 2921SOL     OW 9661   0.680   6.867   5.654
 2921SOL    HW1 9662   0.684   6.849   5.752
 2921SOL    HW2 9663   0.614   6.941   5.637
 2922SOL     OW 9664   4.154   5.952   1.374
 2922SOL    HW1 9665   4.216   6.030   1.363
 2922SOL    HW2 9666   4.095   5.945   1.294
 2923SOL     OW 9667   6.990   5.411   3.986
 2923SOL    HW1 9668   0.039   5.477   3.997
 2923SOL    HW2 9669   7.000   5.338   4.054
 2924SOL     OW 9670   0.204   2.324   4.824
 2924SOL    HW1 9671   0.217   2.230   4.794
 2924SOL    HW2 9672   0.171   2.379   4.747
 2925SOL     OW 9673   6.062   2.254   0.569
 2925SOL    HW1 9674   6.008   2.203   0.636
 2925SOL    HW2 9675   6.036   2.224   0.477
 2926SOL     OW 9676   5.867   2.000   6.070
 2926SOL    HW1 9677   5.831   1.923   6.016
 2926SOL    HW2 9678   5.967   2.002   6.062
 2927SOL     OW 9679   1.820   3.907   0.753
 2927SOL    HW1 9680   1.744   3.964   0.784
 2927SOL    HW2 9681   1.830   3.828   0.815
 2928SOL     OW 9682   6.419   1.315   6.810
 2928SOL    HW1 9683   6.464   1.309   6.721
 2928SOL    HW2 9684   6.328   1.275   6.803
 2929SOL     OW 9685   2.327   2.596   5.703
 2929SOL    HW1 9686   2.414   2.615   5.750
 2929SOL    HW2 9687   2.294   2.679   5.659
 2930SOL     OW 9688   5.104   6.164   5.119
 2930SOL    HW1 9689   5.189   6.205   5.087
 2930SOL    HW2 9690   5.065   6.221   5.191
 2931SOL     OW 9691   4.841   4.974   6.948
 2931SOL    HW1 9692   4.852   4.984   6.849
 2931SOL    HW2 9693   4.749   5.002   6.974
 2932SOL     OW 9694   0.708   5.835   1.775
 2932SOL    HW1 9695   0.714   5.750   1.722
 2932SOL    HW2 9696   0.612   5.861   1.786
 2933SOL     OW 9697   1.202   6.563   2.138
 2933SOL    HW1 9698   1.233   6.526   2.051
 2933SOL    HW2 9699   1.242   6.653   2.152
 2934SOL     OW 9700   5.414   2.732   0.623
 2934SOL    HW1 9701   5.316   2.719   0.613
 2934SOL    HW2 9702   5.437   2.827   0.604
 2935SOL     OW 9703   6.540   2.626   6.282
 2935SOL    HW1 9704   6.599   2.561   6.234
 2935SOL    HW2 9705   6.496   2.686   6.216
 2936SOL     OW 9706   4.015   6.358   0.761
 2936SOL    HW1 9707   3.999   6.287   0.692
 2936SOL    HW2 9708   3.932   6.413   0.772
 2937SOL     OW 9709   5.081   5.306   1.187
 2937SOL    HW1 9710   5.076   5.211   1.215
 2937SOL    HW2 9711   5.112   5.311   1.092
 2938SOL     OW 9712   6.304   4.972   0.675
 2938SOL    HW1 9713   6.318   5.007   0.582
 2938SOL    HW2 9714   6.373   5.012   0.736
 2939SOL     OW 9715   2.177   0.785   1.771
 2939SOL    HW1 9716   2.201   0.698   1.814
 2939SOL    HW2 9717   2.143   0.769   1.679
 2940SOL     OW 9718   5.812   5.337   5.440
 2940SOL    HW1 9719   5.896   5.368   5.484
 2940SOL    HW2 9720   5.738   5.400   5.464
 2941SOL     OW 9721   2.065   1.938   3.492
 2941SOL    HW1 9722   2.117   1.855   3.471
 2941SOL    HW2 9723   2.121   2.001   3.545
 2942SOL     OW 9724   3.931   2.187   0.998
 2942SOL    HW1 9725   4.026   2.183   0.967
 2942SOL    HW2 9726   3.920   2.124   1.075
 2943SOL     OW 9727   5.604   4.439   3.745
 2943SOL    HW1 9728   5.557   4.351   3.744
 2943SOL    HW2 9729   5.543   4.510   3.780
 2944SOL     OW 9730   2.397   6.074   3.950
 2944SOL    HW1 9731   2.496   6.085   3.952
 2944SOL    HW2 9732   2.374   5.980   3.926
 2945SOL     OW 9733   4.730   2.599   2.058
 2945SOL    HW1 9734   4.763   2.672   1.998
 2945SOL    HW2 9735   4.696   2.639   2.143
 2946SOL     OW 9736   2.313   4.360   5.768
 2946SOL    HW1 9737   2.215   4.376   5.754
 2946SOL    HW2 9738   2.326   4.283   5.830
 2947SOL     OW 9739   0.542   5.598   0.946
 2947SOL    HW1 9740   0.456   5.607   0.995
 2947SOL    HW2 9741   0.556   5.678   0.887
 2948SOL     OW 9742   6.810   4.492   4.345
 2948SOL    HW1 9743   6.899   4.448   4.360
 2948SOL    HW2 9744   6.746   4.425   4.308
 2949SOL     OW 9745   0.382   5.227   0.110
 2949SOL    HW1 9746   0.455   5.210   0.045
 2949SOL    HW2 9747   0.408   5.302   0.171
 2950SOL     OW 9748   5.889   5.977   4.014
 2950SOL    HW1 9749   5.939   5.992   4.099
 2950SOL    HW2 9750   5.938   5.911   3.956
 2951SOL     OW 9751   5.312   1.983   2.367
 2951SOL    HW1 9752   5.278   1.919   2.436
 2951SOL    HW2 9753   5.313   1.939   2.277
 2952SOL     OW 9754   0.064   6.480   5.700
 2952SOL    HW1 9755   0.097   6.413   5.634
 2952SOL    HW2 9756   0.142   6.528   5.741
 2953SOL     OW 9757   6.482   4.191   3.241
 2953SOL    HW1 9758   6.461   4.252   3.164
 2953SOL    HW2 9759   6.457   4.097   3.216
 2954SOL     OW 9760   0.211   4.488   0.461
 2954SOL    HW1 9761   0.275   4.558   0.492
 2954SOL    HW2 9762   0.166   4.446   0.540
 2955SOL     OW 9763   0.495   4.485   1.087
 2955SOL    HW1 9764   0.518   4.516   1.180
 2955SOL    HW2 9765   0.468   4.389   1.090
 2956SOL     OW 9766   6.242   5.591   3.355
 2956SOL    HW1 9767   6.243   5.497   3.321
 2956SOL    HW2 9768   6.215   5.653   3.282
 2957SOL     OW 9769   5.018   4.646   1.381
 2957SOL    HW1 9770   4.963   4.729   1.379
 2957SOL    HW2 9771   4.988   4.585   1.307
 2958SOL     OW 9772   2.139   4.654   2.988
 2958SOL    HW1 9773   2.049   4.682   3.022
 2958SOL    HW2 9774   2.150   4.555   3.000
 2959SOL     OW 9775   5.307   2.948   2.379
 2959SOL    HW1 9776   5.286   2.851   2.366
 2959SOL    HW2 9777   5.398   2.957   2.418
 2960SOL     OW 9778   3.383   0.196   6.515
 2960SOL    HW1 9779   3.452   0.137   6.474
 2960SOL    HW2 9780   3.429   0.273   6.560
 2961SOL     OW 9781   6.083   4.852   3.212
 2961SOL    HW1 9782   6.114   4.944   3.188
 2961SOL    HW2 9783   6.073   4.797   3.130
 2962SOL     OW 9784   4.892   6.118   3.544
 2962SOL    HW1 9785   4.904   6.201   3.490
 2962SOL    HW2 9786   4.925   6.134   3.637
 2963SOL     OW 9787   0.746   1.221   0.184
 2963SOL    HW1 9788   0.767   1.236   0.280
 2963SOL    HW2 9789   0.650   1.243   0.167
 2964SOL     OW 9790   0.828   1.670   5.963
 2964SOL    HW1 9791   0.910   1.629   5.923
 2964SOL    HW2 9792   0.751   1.608   5.952
 2965SOL     OW 9793   0.540   1.080   4.694
 2965SOL    HW1 9794   0.449   1.121   4.708
 2965SOL    HW2 9795   0.608   1.133   4.744
 2966SOL     OW 9796   5.038   5.916   3.385
 2966SOL    HW1 9797   5.006   5.983   3.452
 2966SOL    HW2 9798   4.969   5.845   3.373
 2967SOL     OW 9799   6.397   0.731   5.388
 2967SOL    HW1 9800   6.329   0.777   5.445
 2967SOL    HW2 9801   6.360   0.645   5.354
 2968SOL     OW 9802   0.507   2.420   0.504
 2968SOL    HW1 9803   0.479   2.335   0.549
 2968SOL    HW2 9804   0.574   2.400   0.432
 2969SOL     OW 9805   4.717   2.864   3.840
 2969SOL    HW1 9806   4.691   2.769   3.859
 2969SOL    HW2 9807   4.794   2.890   3.898
 2970SOL     OW 9808   2.585   3.242   5.312
 2970SOL    HW1 9809   2.549   3.164   5.262
 2970SOL    HW2 9810   2.511   3.309   5.326
 2971SOL     OW 9811   5.264   4.021   0.725
 2971SOL    HW1 9812   5.359   4.003   0.700
 2971SOL    HW2 9813   5.204   3.960   0.673
 2972SOL     OW 9814   6.067   5.340   6.386
 2972SOL    HW1 9815   5.977   5.382   6.401
 2972SOL    HW2 9816   6.064   5.244   6.412
 2973SOL     OW 9817   4.955   6.721   1.976
 2973SOL    HW1 9818   4.931   6.631   1.940
 2973SOL    HW2 9819   5.029   6.760   1.921
 2974SOL     OW 9820   7.000   4.550   3.929
 2974SOL    HW1 9821   0.068   4.581   3.940
 2974SOL    HW2 9822   6.951   4.612   3.868
 2975SOL     OW 9823   5.340   4.271   4.004
 2975SOL    HW1 9824   5.246   4.305   3.999
 2975SOL    HW2 9825   5.369   4.240   3.913
 2976SOL     OW 9826   5.358   1.933   2.684
 2976SOL    HW1 9827   5.347   1.876   2.766
 2976SOL    HW2 9828   5.322   1.885   2.604
 2977SOL     OW 9829   0.727   0.799   2.453
 2977SOL    HW1 9830   0.642   0.817   2.403
 2977SOL    HW2 9831   0.786   0.739   2.400
 2978SOL     OW 9832   3.954   4.628   0.453
 2978SOL    HW1 9833   3.872   4.615   0.508
 2978SOL    HW2 9834   3.935   4.603   0.358
 2979SOL     OW 9835   3.261   1.758   4.057
 2979SOL    HW1 9836   3.330   1.759   3.985
 2979SOL    HW2 9837   3.290   1.818   4.131
 2980SOL     OW 9838   2.085   5.584   6.021
 2980SOL    HW1 9839   2.103   5.642   5.942
 2980SOL    HW2 9840   2.116   5.491   6.001
 2981SOL     OW 9841   2.011   1.091   0.324
 2981SOL    HW1 9842   2.007   1.184   0.288
 2981SOL    HW2 9843   2.098   1.050   0.300
 2982SOL     OW 9844   2.299   6.255   1.256
 2982SOL    HW1 9845   2.372   6.223   1.196
 2982SOL    HW2 9846   2.318   6.348   1.287
 2983SOL     OW 9847   6.424   2.214   1.659
 2983SOL    HW1 9848   6.435   2.255   1.750
 2983SOL    HW2 9849   6.495   2.144   1.645
 2984SOL     OW 9850   5.354   5.410   6.743
 2984SOL    HW1 9851   5.432   5.469   6.761
 2984SOL    HW2 9852   5.361   5.327   6.798
 2985SOL     OW 9853   1.779   1.642   4.771
 2985SOL    HW1 9854   1.860   1.698   4.788
 2985SOL    HW2 9855   1.773   1.621   4.674
 2986SOL     OW 9856   3.639   4.062   2.627
 2986SOL    HW1 9857   3.615   3.965   2.620
 2986SOL    HW2 9858   3.672   4.081   2.719
 2987SOL     OW 9859   1.623   1.168   4.543
 2987SOL    HW1 9860   1.552   1.195   4.608
 2987SOL    HW2 9861   1.663   1.081   4.572
 2988SOL     OW 9862   1.936   6.759   2.240
 2988SOL    HW1 9863   1.991   6.841   2.258
 2988SOL    HW2 9864   1.859   6.782   2.181
 2989SOL     OW 9865   5.265   4.550   5.380
 2989SOL    HW1 9866   5.175   4.537   5.337
 2989SOL    HW2 9867   5.280   4.479   5.449
 2990SOL     OW 9868   4.575   2.228   4.314
 2990SOL    HW1 9869   4.535   2.211   4.404
 2990SOL    HW2 9870   4.517   2.187   4.243
 2991SOL     OW 9871   6.297   3.083   6.039
 2991SOL    HW1 9872   6.280   3.170   6.085
 2991SOL    HW2 9873   6.365   3.031   6.091
 2992SOL     OW 9874   1.455   5.076   4.390
 2992SOL    HW1 9875   1.470   5.118   4.480
 2992SOL    HW2 9876   1.506   5.127   4.321
 2993SOL     OW 9877   0.757   5.076   1.295
 2993SOL    HW1 9878   0.737   5.169   1.264
 2993SOL    HW2 9879   0.677   5.018   1.284
 2994SOL     OW 9880   3.955   6.155   0.576
 2994SOL    HW1 9881   3.884   6.099   0.534
 2994SOL    HW2 9882   4.007   6.202   0.505
 2995SOL     OW 9883   3.883   0.560   7.004
 2995SOL    HW1 9884   3.898   0.508   6.920
 2995SOL    HW2 9885   3.830   0.505   0.042
 2996SOL     OW 9886   0.603   1.984   5.279
 2996SOL    HW1 9887   0.682   2.038   5.246
 2996SOL    HW2 9888   0.519   2.028   5.249
 2997SOL     OW 9889   5.011   0.269   3.218
 2997SOL    HW1 9890   5.019   0.330   3.140
 2997SOL    HW2 9891   5.055   0.310   3.298
 2998SOL     OW 9892   4.763   6.513   3.165
 2998SOL    HW1 9893   4.739   6.475   3.255
 2998SOL    HW2 9894   4.772   6.612   3.173
 2999SOL     OW 9895   2.351   5.378   5.702
 2999SOL    HW1 9896   2.357   5.317   5.781
 2999SOL    HW2 9897   2.371   5.327   5.618
 3000SOL     OW 9898   2.791   3.902   6.455
 3000SOL    HW1 9899   2.879   3.925   6.414
 3000SOL    HW2 9900   2.787   3.804   6.472
 3001SOL     OW 9901   6.287   1.744   6.727
 3001SOL    HW1 9902   6.196   1.767   6.693
 3001SOL    HW2 9903   6.340   1.828   6.739
 3002SOL     OW 9904   3.112   2.109   0.466
 3002SOL    HW1 9905   3.053   2.146   0.537
 3002SOL    HW2 9906   3.055   2.072   0.392
 3003SOL     OW 9907   1.025   6.479   0.814
 3003SOL    HW1 9908   1.080   6.400   0.841
 3003SOL    HW2 9909   1.085   6.556   0.794
 3004SOL     OW 9910   1.465   4.675   2.792
 3004SOL    HW1 9911   1.486   4.578   2.810
 3004SOL    HW2 9912   1.407   4.682   2.711
 3005SOL     OW 9913   1.415   3.094   6.676
 3005SOL    HW1 9914   1.469   3.142   6.607
 3005SOL    HW2 9915   1.351   3.158   6.720
 3006SOL     OW 9916   5.618   1.884   5.144
 3006SOL    HW1 9917   5.676   1.865   5.065
 3006SOL    HW2 9918   5.533   1.831   5.137
 3007SOL     OW 9919   4.808   4.717   0.885
 3007SOL    HW1 9920   4.786   4.751   0.976
 3007SOL    HW2 9921   4.875   4.777   0.842
 3008SOL     OW 9922   2.672   2.387   6.280
 3008SOL    HW1 9923   2.759   2.342   6.262
 3008SOL    HW2 9924   2.597   2.329   6.247
 3009SOL     OW 9925   6.999   3.219   2.716
 3009SOL    HW1 9926   6.976   3.163   2.795
 3009SOL    HW2 9927   6.916   3.244   2.667
 3010SOL     OW 9928   2.795   5.603   3.784
 3010SOL    HW1 9929   2.746   5.615   3.871
 3010SOL    HW2 9930   2.874   5.544   3.799
 3011SOL     OW 9931   6.319   1.317   1.897
 3011SOL    HW1 9932   6.417   1.338   1.895
 3011SOL    HW2 9933   6.295   1.263   1.816
 3012SOL     OW 9934   2.574   3.072   0.267
 3012SOL    HW1 9935   2.667   3.071   0.302
 3012SOL    HW2 9936   2.571   3.026   0.178
 3013SOL     OW 9937   5.741   5.097   3.412
 3013SOL    HW1 9938   5.673   5.148   3.463
 3013SOL    HW2 9939   5.723   4.999   3.421
 3014SOL     OW 9940   5.058   2.209   6.037
 3014SOL    HW1 9941   5.066   2.231   5.940
 3014SOL    HW2 9942   5.066   2.110   6.050
 3015SOL     OW 9943   1.618   2.031   0.442
 3015SOL    HW1 9944   1.571   1.943   0.441
 3015SOL    HW2 9945   1.660   2.045   0.532
 3016SOL     OW 9946   3.307   6.965   4.175
 3016SOL    HW1 9947   3.303   6.879   4.227
 3016SOL    HW2 9948   3.400   6.980   4.143
 3017SOL     OW 9949   5.664   5.667   2.444
 3017SOL    HW1 9950   5.676   5.763   2.471
 3017SOL    HW2 9951   5.566   5.648   2.432
 3018SOL     OW 9952   3.147   0.252   6.699
 3018SOL    HW1 9953   3.230   0.234   6.646
 3018SOL    HW2 9954   3.072   0.273   6.636
 3019SOL     OW 9955   0.606   0.263   6.644
 3019SOL    HW1 9956   0.524   0.309   6.678
 3019SOL    HW2 9957   0.680   0.330   6.633
 3020SOL     OW 9958   3.871   3.130   0.898
 3020SOL    HW1 9959   3.859   3.216   0.947
 3020SOL    HW2 9960   3.893   3.149   0.802
 3021SOL     OW 9961   2.724   0.302   4.462
 3021SOL    HW1 9962   2.799   0.305   4.396
 3021SOL    HW2 9963   2.693   0.395   4.481
 3022SOL     OW 9964   4.294   5.154   4.737
 3022SOL    HW1 9965   4.195   5.168   4.749
 3022SOL    HW2 9966   4.319   5.174   4.642
 3023SOL     OW 9967   4.213   6.912   3.273
 3023SOL    HW1 9968   4.204   6.860   3.188
 3023SOL    HW2 9969   4.296   6.968   3.269
 3024SOL     OW 9970   5.905   6.329   4.802
 3024SOL    HW1 9971   5.955   6.309   4.886
 3024SOL    HW2 9972   5.832   6.395   4.822
 3025SOL     OW 9973   4.069   5.896   1.629
 3025SOL    HW1 9974   4.122   5.911   1.546
 3025SOL    HW2 9975   3.978   5.862   1.605
 3026SOL     OW 9976   0.183   1.463   6.432
 3026SOL    HW1 9977   0.092   1.467   6.390
 3026SOL    HW2 9978   0.182   1.395   6.505
 3027SOL     OW 9979   3.635   1.896   2.310
 3027SOL    HW1 9980   3.624   1.815   2.369
 3027SOL    HW2 9981   3.582   1.884   2.226
 3028SOL     OW 9982   1.193   3.987   5.973
 3028SOL    HW1 9983   1.290   3.965   5.966
 3028SOL    HW2 9984   1.142   3.905   5.999
 3029SOL     OW 9985   1.214   3.292   4.150
 3029SOL    HW1 9986   1.230   3.247   4.062
 3029SOL    HW2 9987   1.168   3.229   4.212
 3030SOL     OW 9988   1.646   4.102   0.798
 3030SOL    HW1 9989   1.724   4.163   0.793
 3030SOL    HW2 9990   1.562   4.153   0.778
 3031SOL     OW 9991   0.191   4.762   1.164
 3031SOL    HW1 9992   0.201   4.787   1.260
 3031SOL    HW2 9993   0.280   4.768   1.118
 3032SOL     OW 9994   2.413   6.835   1.297
 3032SOL    HW1 9995   2.481   6.800   1.361
 3032SOL    HW2 9996   2.406   6.774   1.218
 3033SOL     OW 9997   6.182   0.846   2.286
 3033SOL    HW1 9998   6.259   0.905   2.312
 3033SOL    HW2 9999   6.155   0.867   2.192
 3034SOL     OW10000   0.596   6.379   3.524
 3034SOL    HW110001   0.510   6.430   3.519
 3034SOL    HW210002   0.593   6.303   3.458
 3035SOL     OW10003   0.951   3.446   6.069
 3035SOL    HW110004   0.858   3.482   6.061
 3035SOL    HW210005   0.985   3.461   6.161
 3036SOL     OW10006   1.496   1.692   5.882
 3036SOL    HW110007   1.538   1.656   5.798
 3036SOL    HW210008   1.529   1.785   5.898
 3037SOL     OW10009   6.328   5.078   5.740
 3037SOL    HW110010   6.420   5.086   5.777
 3037SOL    HW210011   6.278   5.007   5.791
 3038SOL     OW10012   4.937   4.536   5.443
 3038SOL    HW110013   4.981   4.567   5.358
 3038SOL    HW210014   4.842   4.570   5.445
 3039SOL     OW10015   0.564   3.079   0.595
 3039SOL    HW110016   0.516   3.117   0.516
 3039SOL    HW210017   0.662   3.074   0.576
 3040SOL     OW10018   3.395   5.162   5.482
 3040SOL    HW110019   3.357   5.243   5.526
 3040SOL    HW210020   3.332   5.086   5.490
 3041SOL     OW10021   1.314   4.579   5.803
 3041SOL    HW110022   1.285   4.663   5.758
 3041SOL    HW210023   1.413   4.567   5.792
 3042SOL     OW10024   6.136   6.121   3.007
 3042SOL    HW110025   6.056   6.097   2.952
 3042SOL    HW210026   6.138   6.220   3.020
 3043SOL     OW10027   2.729   3.805   1.605
 3043SOL    HW110028   2.724   3.710   1.637
 3043SOL    HW210029   2.812   3.817   1.550
 3044SOL     OW10030   3.264   5.847   5.611
 3044SOL    HW110031   3.231   5.832   5.518
 3044SOL    HW210032   3.312   5.935   5.616
 3045SOL     OW10033   5.346   6.713   2.910
 3045SOL    HW110034   5.366   6.668   2.997
 3045SOL    HW210035   5.300   6.648   2.849
 3046SOL     OW10036   3.517   0.316   6.768
 3046SOL    HW110037   3.478   0.259   6.840
 3046SOL    HW210038   3.614   0.294   6.757
 3047SOL     OW10039   5.851   0.004   1.151
 3047SOL    HW110040   5.833   6.956   1.087
 3047SOL    HW210041   5.867   0.089   1.101
 3048SOL     OW10042   4.725   2.254   0.547
 3048SOL    HW110043   4.720   2.277   0.450
 3048SOL    HW210044   4.816   2.276   0.582
 3049SOL     OW10045   1.776   6.956   3.210
 3049SOL    HW110046   1.845   7.014   3.254
 3049SOL    HW210047   1.728   7.008   3.140
 3050SOL     OW10048   3.274   2.025   1.641
 3050SOL    HW110049   3.259   2.113   1.686
 3050SOL    HW210050   3.186   1.979   1.626
 3051SOL     OW10051   1.999   6.612   6.332
 3051SOL    HW110052   1.943   6.675   6.385
 3051SOL    HW210053   2.074   6.578   6.388
 3052SOL     OW10054   4.866   5.795   2.079
 3052SOL    HW110055   4.883   5.890   2.105
 3052SOL    HW210056   4.772   5.786   2.046
 3053SOL     OW10057   6.972   3.402   1.382
 3053SOL    HW110058   0.032   3.360   1.412
 3053SOL    HW210059   6.931   3.451   1.459
 3054SOL     OW10060   5.761   1.738   1.813
 3054SOL    HW110061   5.832   1.776   1.754
 3054SOL    HW210062   5.782   1.758   1.909
 3055SOL     OW10063   5.245   0.271   5.180
 3055SOL    HW110064   5.274   0.208   5.252
 3055SOL    HW210065   5.192   0.221   5.111
 3056SOL     OW10066   0.123   0.917   5.449
 3056SOL    HW110067   0.083   0.830   5.477
 3056SOL    HW210068   0.145   0.971   5.530
 3057SOL     OW10069   4.833   5.248   4.304
 3057SOL    HW110070   4.830   5.185   4.226
 3057SOL    HW210071   4.876   5.202   4.382
 3058SOL     OW10072   6.287   4.464   0.900
 3058SOL    HW110073   6.228   4.494   0.825
 3058SOL    HW210074   6.346   4.540   0.928
 3059SOL     OW10075   2.658   1.328   3.664
 3059SOL    HW110076   2.654   1.425   3.686
 3059SOL    HW210077   2.571   1.300   3.623
 3060SOL     OW10078   2.229   5.236   0.340
 3060SOL    HW110079   2.316   5.285   0.351
 3060SOL    HW210080   2.244   5.139   0.354
 3061SOL     OW10081   5.878   5.832   5.607
 3061SOL    HW110082   5.834   5.886   5.679
 3061SOL    HW210083   5.919   5.750   5.648
 3062SOL     OW10084   1.855   6.547   0.749
 3062SOL    HW110085   1.869   6.633   0.699
 3062SOL    HW210086   1.859   6.565   0.847
 3063SOL     OW10087   1.776   4.481   1.414
 3063SOL    HW110088   1.757   4.411   1.346
 3063SOL    HW210089   1.744   4.450   1.504
 3064SOL     OW10090   4.905   3.624   0.339
 3064SOL    HW110091   4.986   3.617   0.396
 3064SOL    HW210092   4.885   3.720   0.321
 3065SOL     OW10093   1.011   2.083   6.489
 3065SOL    HW110094   1.100   2.105   6.447
 3065SOL    HW210095   0.950   2.162   6.479
 3066SOL     OW10096   5.432   4.991   0.253
 3066SOL    HW110097   5.367   4.977   0.178
 3066SOL    HW210098   5.524   5.001   0.216
 3067SOL     OW10099   3.122   1.064   0.006
 3067SOL    HW110100   3.103   1.070   6.934
 3067SOL    HW210101   3.097   1.151   0.050
 3068SOL     OW10102   6.860   6.462   1.823
 3068SOL    HW110103   6.822   6.551   1.849
 3068SOL    HW210104   6.791   6.407   1.777
 3069SOL     OW10105   6.615   6.353   2.737
 3069SOL    HW110106   6.628   6.451   2.746
 3069SOL    HW210107   6.518   6.333   2.720
 3070SOL     OW10108   2.703   0.816   6.904
 3070SOL    HW110109   2.788   0.869   6.914
 3070SOL    HW210110   2.625   0.874   6.927
 3071SOL     OW10111   6.398   5.890   3.864
 3071SOL    HW110112   6.389   5.986   3.836
 3071SOL    HW210113   6.492   5.873   3.893
 3072SOL     OW10114   2.250   5.664   6.361
 3072SOL    HW110115   2.195   5.724   6.302
 3072SOL    HW210116   2.193   5.590   6.397
 3073SOL     OW10117   6.790   4.049   2.583
 3073SOL    HW110118   6.753   4.037   2.491
 3073SOL    HW210119   6.721   4.092   2.641
 3074SOL     OW10120   0.190   4.181   0.828
 3074SOL    HW110121   0.129   4.126   0.885
 3074SOL    HW210122   0.272   4.129   0.807
 3075SOL     OW10123   2.681   5.556   3.362
 3075SOL    HW110124   2.732   5.483   3.316
 3075SOL    HW210125   2.737   5.639   3.365
 3076SOL     OW10126   6.595   1.844   4.144
 3076SOL    HW110127   6.692   1.823   4.156
 3076SOL    HW210128   6.583   1.896   4.059
 3077SOL     OW10129   5.427   4.411   1.863
 3077SOL    HW110130   5.351   4.345   1.865
 3077SOL    HW210131   5.512   4.364   1.843
 3078SOL     OW10132   6.748   3.350   2.560
 3078SOL    HW110133   6.752   3.429   2.498
 3078SOL    HW210134   6.764   3.380   2.654
 3079SOL     OW10135   2.873   2.183   3.026
 3079SOL    HW110136   2.847   2.279   3.017
 3079SOL    HW210137   2.885   2.143   2.935
 3080SOL     OW10138   6.034   4.617   2.121
 3080SOL    HW110139   6.022   4.708   2.160
 3080SOL    HW210140   6.112   4.616   2.060
 3081SOL     OW10141   0.519   4.620   5.671
 3081SOL    HW110142   0.614   4.618   5.639
 3081SOL    HW210143   0.461   4.575   5.603
 3082SOL     OW10144   1.462   5.754   4.104
 3082SOL    HW110145   1.547   5.775   4.151
 3082SOL    HW210146   1.385   5.789   4.157
 3083SOL     OW10147   2.980   6.491   3.248
 3083SOL    HW110148   3.075   6.461   3.246
 3083SOL    HW210149   2.930   6.449   3.172
 3084SOL     OW10150   6.482   4.623   3.471
 3084SOL    HW110151   6.494   4.602   3.374
 3084SOL    HW210152   6.409   4.564   3.508
 3085SOL     OW10153   6.127   4.715   0.318
 3085SOL    HW110154   6.214   4.710   0.367
 3085SOL    HW210155   6.116   4.635   0.259
 3086SOL     OW10156   5.117   1.186   6.954
 3086SOL    HW110157   5.017   1.194   6.957
 3086SOL    HW210158   5.144   1.097   6.989
 3087SOL     OW10159   2.495   6.747   3.556
 3087SOL    HW110160   2.524   6.717   3.465
 3087SOL    HW210161   2.409   6.701   3.580
 3088SOL     OW10162   1.742   3.425   5.040
 3088SOL    HW110163   1.652   3.427   4.996
 3088SOL    HW210164   1.741   3.360   5.116
 3089SOL     OW10165   4.276   2.383   4.564
 3089SOL    HW110166   4.350   2.322   4.537
 3089SOL    HW210167   4.308   2.478   4.560
 3090SOL     OW10168   2.718   0.973   2.059
 3090SOL    HW110169   2.637   0.966   2.001
 3090SOL    HW210170   2.749   1.068   2.061
 3091SOL     OW10171   1.193   1.161   0.698
 3091SOL    HW110172   1.109   1.162   0.645
 3091SOL    HW210173   1.241   1.074   0.684
 3092SOL     OW10174   5.666   0.075   0.766
 3092SOL    HW110175   5.662   0.101   0.669
 3092SOL    HW210176   5.749   0.022   0.783
 3093SOL     OW10177   5.326   5.700   6.369
 3093SOL    HW110178   5.425   5.699   6.352
 3093SOL    HW210179   5.291   5.606   6.365
 3094SOL     OW10180   2.619   7.021   4.053
 3094SOL    HW110181   2.649   6.941   4.001
 3094SOL    HW210182   2.536   6.998   4.105
 3095SOL     OW10183   2.392   3.605   5.571
 3095SOL    HW110184   2.454   3.638   5.643
 3095SOL    HW210185   2.417   3.646   5.484
 3096SOL     OW10186   0.977   5.134   5.420
 3096SOL    HW110187   1.013   5.226   5.435
 3096SOL    HW210188   0.878   5.133   5.434
 3097SOL     OW10189   5.731   3.367   6.808
 3097SOL    HW110190   5.679   3.411   6.735
 3097SOL    HW210191   5.729   3.423   6.890
 3098SOL     OW10192   1.653   3.397   1.450
 3098SOL    HW110193   1.687   3.487   1.478
 3098SOL    HW210194   1.574   3.372   1.506
 3099SOL     OW10195   1.084   6.103   3.964
 3099SOL    HW110196   1.019   6.040   4.005
 3099SOL    HW210197   1.038   6.191   3.947
 3100SOL     OW10198   6.434   6.159   3.763
 3100SOL    HW110199   6.534   6.152   3.765
 3100SOL    HW210200   6.402   6.168   3.669
 3101SOL     OW10201   4.902   5.720   6.208
 3101SOL    HW110202   4.927   5.647   6.272
 3101SOL    HW210203   4.969   5.793   6.213
 3102SOL     OW10204   6.514   6.797   1.162
 3102SOL    HW110205   6.543   6.862   1.092
 3102SOL    HW210206   6.560   6.709   1.147
 3103SOL     OW10207   4.191   1.136   1.057
 3103SOL    HW110208   4.173   1.056   1.000
 3103SOL    HW210209   4.140   1.128   1.143
 3104SOL     OW10210   4.022   0.573   5.935
 3104SOL    HW110211   4.030   0.670   5.912
 3104SOL    HW210212   4.095   0.548   5.998
 3105SOL     OW10213   5.112   3.340   1.464
 3105SOL    HW110214   5.074   3.267   1.407
 3105SOL    HW210215   5.191   3.380   1.418
 3106SOL     OW10216   4.761   6.481   5.072
 3106SOL    HW110217   4.771   6.568   5.120
 3106SOL    HW210218   4.842   6.465   5.014
 3107SOL     OW10219   3.866   0.996   4.815
 3107SOL    HW110220   3.785   1.023   4.763
 3107SOL    HW210221   3.848   1.005   4.913
 3108SOL     OW10222   2.263   5.562   4.908
 3108SOL    HW110223   2.216   5.486   4.954
 3108SOL    HW210224   2.227   5.649   4.943
 3109SOL     OW10225   6.039   0.274   4.026
 3109SOL    HW110226   6.058   0.264   3.928
 3109SOL    HW210227   6.055   0.186   4.071
 3110SOL     OW10228   1.387   4.363   3.112
 3110SOL    HW110229   1.388   4.272   3.071
 3110SOL    HW210230   1.413   4.431   3.043
 3111SOL     OW10231   0.010   4.907   3.335
 3111SOL    HW110232   6.952   4.948   3.370
 3111SOL    HW210233   0.087   4.935   3.393
 3112SOL     OW10234   2.980   3.230   0.972
 3112SOL    HW110235   2.921   3.185   0.906
 3112SOL    HW210236   3.051   3.167   1.003
 3113SOL     OW10237   3.573   5.831   2.606
 3113SOL    HW110238   3.648   5.894   2.626
 3113SOL    HW210239   3.572   5.757   2.673
 3114SOL     OW10240   3.522   1.777   0.441
 3114SOL    HW110241   3.553   1.685   0.414
 3114SOL    HW210242   3.485   1.824   0.361
 3115SOL     OW10243   3.906   4.958   5.960
 3115SOL    HW110244   3.895   4.865   5.995
 3115SOL    HW210245   3.991   4.998   5.996
 3116SOL     OW10246   6.889   2.348   7.015
 3116SOL    HW110247   6.802   2.300   0.003
 3116SOL    HW210248   6.924   2.327   6.924
 3117SOL     OW10249   4.514   3.552   5.633
 3117SOL    HW110250   4.498   3.454   5.645
 3117SOL    HW210251   4.510   3.574   5.536
 3118SOL     OW10252   0.691   5.629   2.569
 3118SOL    HW110253   0.653   5.538   2.550
 3118SOL    HW210254   0.732   5.630   2.659
 3119SOL     OW10255   2.446   2.348   6.967
 3119SOL    HW110256   2.508   2.413   7.012
 3119SOL    HW210257   2.352   2.379   6.980
 3120SOL     OW10258   2.412   0.483   5.646
 3120SOL    HW110259   2.393   0.426   5.566
 3120SOL    HW210260   2.354   0.453   5.722
 3121SOL     OW10261   5.728   1.592   4.696
 3121SOL    HW110262   5.652   1.647   4.660
 3121SOL    HW210263   5.692   1.520   4.755
 3122SOL     OW10264   5.145   5.223   5.182
 3122SOL    HW110265   5.179   5.269   5.264
 3122SOL    HW210266   5.110   5.291   5.118
 3123SOL     OW10267   2.179   1.491   2.623
 3123SOL    HW110268   2.135   1.563   2.678
 3123SOL    HW210269   2.139   1.403   2.645
 3124SOL     OW10270   4.674   0.455   4.342
 3124SOL    HW110271   4.707   0.438   4.249
 3124SOL    HW210272   4.723   0.396   4.406
 3125SOL     OW10273   1.500   3.159   5.045
 3125SOL    HW110274   1.482   3.244   4.995
 3125SOL    HW210275   1.599   3.149   5.056
 3126SOL     OW10276   5.359   4.505   5.098
 3126SOL    HW110277   5.452   4.522   5.067
 3126SOL    HW210278   5.345   4.547   5.187
 3127SOL     OW10279   2.162   2.010   6.627
 3127SOL    HW110280   2.105   2.023   6.546
 3127SOL    HW210281   2.124   1.937   6.683
 3128SOL     OW10282   3.501   1.131   0.470
 3128SOL    HW110283   3.466   1.152   0.561
 3128SOL    HW210284   3.484   1.035   0.448
 3129SOL     OW10285   5.824   3.521   0.803
 3129SOL    HW110286   5.905   3.519   0.861
 3129SOL    HW210287   5.848   3.491   0.710
 3130SOL     OW10288   2.242   4.629   2.071
 3130SOL    HW110289   2.300   4.547   2.070
 3130SOL    HW210290   2.189   4.633   1.987
 3131SOL     OW10291   0.949   3.947   2.109
 3131SOL    HW110292   1.033   3.895   2.122
 3131SOL    HW210293   0.902   3.957   2.196
 3132SOL     OW10294   5.001   5.162   6.787
 3132SOL    HW110295   5.038   5.184   6.877
 3132SOL    HW210296   4.951   5.241   6.751
 3133SOL     OW10297   3.643   0.702   3.592
 3133SOL    HW110298   3.630   0.769   3.665
 3133SOL    HW210299   3.559   0.693   3.539
 3134SOL     OW10300   4.483   4.832   0.684
 3134SOL    HW110301   4.504   4.753   0.625
 3134SOL    HW210302   4.396   4.816   0.730
 3135SOL     OW10303   4.969   0.330   5.776
 3135SOL    HW110304   5.036   0.379   5.831
 3135SOL    HW210305   5.015   0.264   5.717
 3136SOL     OW10306   5.361   6.757   2.574
 3136SOL    HW110307   5.450   6.712   2.580
 3136SOL    HW210308   5.295   6.706   2.630
 3137SOL     OW10309   6.725   6.389   3.810
 3137SOL    HW110310   6.692   6.345   3.726
 3137SOL    HW210311   6.733   6.487   3.795
 3138SOL     OW10312   5.844   5.569   3.489
 3138SOL    HW110313   5.795   5.513   3.555
 3138SOL    HW210314   5.905   5.512   3.435
 3139SOL     OW10315   3.634   4.973   1.199
 3139SOL    HW110316   3.663   4.877   1.192
 3139SOL    HW210317   3.570   4.983   1.275
 3140SOL     OW10318   6.305   6.199   5.788
 3140SOL    HW110319   6.321   6.140   5.709
 3140SOL    HW210320   6.292   6.294   5.757
 3141SOL     OW10321   0.714   0.146   6.404
 3141SOL    HW110322   0.684   0.184   6.491
 3141SOL    HW210323   0.814   0.142   6.402
 3142SOL     OW10324   3.021   0.172   2.627
 3142SOL    HW110325   2.965   0.255   2.623
 3142SOL    HW210326   3.098   0.187   2.689
 3143SOL     OW10327   5.944   1.220   0.111
 3143SOL    HW110328   5.935   1.276   0.029
 3143SOL    HW210329   6.036   1.181   0.115
 3144SOL     OW10330   4.603   3.831   0.977
 3144SOL    HW110331   4.504   3.834   0.996
 3144SOL    HW210332   4.631   3.917   0.934
 3145SOL     OW10333   1.997   6.519   2.138
 3145SOL    HW110334   1.980   6.602   2.191
 3145SOL    HW210335   1.976   6.535   2.042
 3146SOL     OW10336   0.911   1.411   4.552
 3146SOL    HW110337   0.975   1.335   4.557
 3146SOL    HW210338   0.820   1.375   4.529
 3147SOL     OW10339   3.009   5.102   7.019
 3147SOL    HW110340   3.012   5.062   6.927
 3147SOL    HW210341   2.959   5.041   0.054
 3148SOL     OW10342   6.779   6.696   3.998
 3148SOL    HW110343   6.689   6.652   3.988
 3148SOL    HW210344   6.811   6.727   3.909
 3149SOL     OW10345   2.937   1.105   6.813
 3149SOL    HW110346   2.981   1.130   6.726
 3149SOL    HW210347   2.840   1.126   6.808
 3150SOL     OW10348   6.981   5.939   5.147
 3150SOL    HW110349   0.046   5.970   5.174
 3150SOL    HW210350   6.988   5.888   5.061
 3151SOL     OW10351   0.525   1.520   5.460
 3151SOL    HW110352   0.465   1.502   5.382
 3151SOL    HW210353   0.522   1.617   5.483
 3152SOL     OW10354   0.734   4.523   0.520
 3152SOL    HW110355   0.773   4.583   0.590
 3152SOL    HW210356   0.645   4.558   0.493
 3153SOL     OW10357   6.367   5.779   0.781
 3153SOL    HW110358   6.359   5.690   0.736
 3153SOL    HW210359   6.461   5.793   0.812
 3154SOL     OW10360   6.718   1.839   0.088
 3154SOL    HW110361   6.626   1.830   0.126
 3154SOL    HW210362   6.785   1.823   0.161
 3155SOL     OW10363   6.487   4.740   0.314
 3155SOL    HW110364   6.426   4.701   0.383
 3155SOL    HW210365   6.563   4.786   0.359
 3156SOL     OW10366   2.961   3.379   2.150
 3156SOL    HW110367   2.962   3.280   2.134
 3156SOL    HW210368   3.013   3.399   2.233
 3157SOL     OW10369   1.629   1.680   5.624
 3157SOL    HW110370   1.663   1.744   5.555
 3157SOL    HW210371   1.634   1.587   5.588
 3158SOL     OW10372   2.773   1.323   3.991
 3158SOL    HW110373   2.712   1.247   3.970
 3158SOL    HW210374   2.794   1.373   3.907
 3159SOL     OW10375   5.844   0.162   6.400
 3159SOL    HW110376   5.868   0.132   6.492
 3159SOL    HW210377   5.863   0.088   6.335
 3160SOL     OW10378   1.492   5.850   6.142
 3160SOL    HW110379   1.504   5.826   6.045
 3160SOL    HW210380   1.572   5.903   6.172
 3161SOL     OW10381   2.445   2.505   2.732
 3161SOL    HW110382   2.487   2.510   2.822
 3161SOL    HW210383   2.514   2.476   2.665
 3162SOL     OW10384   1.105   6.079   1.767
 3162SOL    HW110385   1.158   5.995   1.778
 3162SOL    HW210386   1.118   6.115   1.675
 3163SOL     OW10387   4.385   3.764   6.557
 3163SOL    HW110388   4.475   3.797   6.530
 3163SOL    HW210389   4.395   3.675   6.603
 3164SOL     OW10390   3.836   5.510   1.007
 3164SOL    HW110391   3.841   5.580   0.936
 3164SOL    HW210392   3.756   5.526   1.065
 3165SOL     OW10393   2.142   6.141   1.064
 3165SOL    HW110394   2.172   6.183   1.150
 3165SOL    HW210395   2.143   6.210   0.992
 3166SOL     OW10396   4.093   2.014   3.435
 3166SOL    HW110397   4.146   1.993   3.353
 3166SOL    HW210398   4.149   2.066   3.499
 3167SOL     OW10399   5.490   4.256   0.916
 3167SOL    HW110400   5.459   4.162   0.907
 3167SOL    HW210401   5.586   4.258   0.944
 3168SOL     OW10402   5.419   3.392   6.833
 3168SOL    HW110403   5.441   3.311   6.780
 3168SOL    HW210404   5.330   3.428   6.803
 3169SOL     OW10405   2.006   4.439   3.698
 3169SOL    HW110406   2.005   4.372   3.624
 3169SOL    HW210407   1.974   4.396   3.783
 3170SOL     OW10408   4.083   5.850   2.051
 3170SOL    HW110409   4.161   5.791   2.028
 3170SOL    HW210410   4.007   5.830   1.991
 3171SOL     OW10411   6.744   2.004   2.257
 3171SOL    HW110412   6.672   1.935   2.251
 3171SOL    HW210413   6.703   2.095   2.266
 3172SOL     OW10414   6.325   5.476   6.931
 3172SOL    HW110415   6.356   5.421   6.854
 3172SOL    HW210416   6.328   5.573   6.906
 3173SOL     OW10417   3.299   2.428   0.124
 3173SOL    HW110418   3.246   2.513   0.129
 3173SOL    HW210419   3.388   2.443   0.167
 3174SOL     OW10420   3.170   2.665   0.105
 3174SOL    HW110421   3.150   2.644   0.009
 3174SOL    HW210422   3.093   2.714   0.146
 3175SOL     OW10423   5.842   1.423   1.664
 3175SOL    HW110424   5.771   1.489   1.639
 3175SOL    HW210425   5.883   1.385   1.581
 3176SOL     OW10426   0.775   3.839   4.997
 3176SOL    HW110427   0.718   3.758   4.980
 3176SOL    HW210428   0.866   3.824   4.958
 3177SOL     OW10429   5.075   4.325   3.975
 3177SOL    HW110430   4.979   4.300   3.977
 3177SOL    HW210431   5.087   4.414   4.019
 3178SOL     OW10432   6.505   2.800   0.379
 3178SOL    HW110433   6.476   2.830   0.469
 3178SOL    HW210434   6.605   2.787   0.378
 3179SOL     OW10435   0.940   2.179   2.027
 3179SOL    HW110436   0.893   2.234   1.958
 3179SOL    HW210437   0.959   2.088   1.989
 3180SOL     OW10438   5.316   0.140   0.582
 3180SOL    HW110439   5.241   0.202   0.556
 3180SOL    HW210440   5.364   0.177   0.661
 3181SOL     OW10441   6.643   2.062   3.490
 3181SOL    HW110442   6.737   2.043   3.461
 3181SOL    HW210443   6.596   2.114   3.419
 3182SOL     OW10444   2.278   0.269   6.838
 3182SOL    HW110445   2.342   0.198   6.866
 3182SOL    HW210446   2.328   0.354   6.821
 3183SOL     OW10447   4.758   4.213   2.177
 3183SOL    HW110448   4.691   4.195   2.104
 3183SOL    HW210449   4.848   4.230   2.136
 3184SOL     OW10450   0.764   2.952   2.498
 3184SOL    HW110451   0.746   2.872   2.441
 3184SOL    HW210452   0.812   2.924   2.581
 3185SOL     OW10453   4.384   5.853   6.850
 3185SOL    HW110454   4.367   5.761   6.886
 3185SOL    HW210455   4.465   5.891   6.894
 3186SOL     OW10456   3.273   1.954   0.815
 3186SOL    HW110457   3.180   1.986   0.797
 3186SOL    HW210458   3.301   1.986   0.906
 3187SOL     OW10459   4.660   5.367   0.787
 3187SOL    HW110460   4.648   5.343   0.691
 3187SOL    HW210461   4.724   5.443   0.795
 3188SOL     OW10462   1.352   6.913   4.117
 3188SOL    HW110463   1.400   6.983   4.171
 3188SOL    HW210464   1.420   6.857   4.069
 3189SOL     OW10465   1.423   2.461   1.193
 3189SOL    HW110466   1.485   2.503   1.127
 3189SOL    HW210467   1.422   2.515   1.277
 3190SOL     OW10468   0.127   5.137   0.792
 3190SOL    HW110469   0.204   5.158   0.732
 3190SOL    HW210470   0.139   5.045   0.830
 3191SOL     OW10471   4.819   5.566   1.498
 3191SOL    HW110472   4.867   5.529   1.577
 3191SOL    HW210473   4.727   5.526   1.493
 3192SOL     OW10474   0.472   3.527   1.731
 3192SOL    HW110475   0.378   3.493   1.723
 3192SOL    HW210476   0.501   3.565   1.643
 3193SOL     OW10477   3.875   1.208   6.093
 3193SOL    HW110478   3.831   1.251   6.172
 3193SOL    HW210479   3.948   1.147   6.124
 3194SOL     OW10480   1.845   1.823   6.194
 3194SOL    HW110481   1.857   1.912   6.151
 3194SOL    HW210482   1.760   1.822   6.248
 3195SOL     OW10483   1.659   0.722   3.098
 3195SOL    HW110484   1.674   0.690   3.005
 3195SOL    HW210485   1.624   0.646   3.154
 3196SOL     OW10486   0.491   1.213   0.074
 3196SOL    HW110487   0.467   1.249   7.010
 3196SOL    HW210488   0.425   1.144   0.102
 3197SOL     OW10489   2.721   6.736   4.482
 3197SOL    HW110490   2.765   6.713   4.569
 3197SOL    HW210491   2.789   6.777   4.421
 3198SOL     OW10492   6.529   2.751   3.463
 3198SOL    HW110493   6.593   2.807   3.517
 3198SOL    HW210494   6.578   2.673   3.426
 3199SOL     OW10495   5.164   3.778   2.761
 3199SOL    HW110496   5.082   3.724   2.784
 3199SOL    HW210497   5.157   3.810   2.667
 3200SOL     OW10498   5.384   3.070   2.751
 3200SOL    HW110499   5.411   3.161   2.720
 3200SOL    HW210500   5.296   3.045   2.710
 3201SOL     OW10501   6.729   4.630   3.556
 3201SOL    HW110502   6.735   4.668   3.648
 3201SOL    HW210503   6.634   4.622   3.529
 3202SOL     OW10504   1.398   5.028   1.183
 3202SOL    HW110505   1.412   5.037   1.084
 3202SOL    HW210506   1.323   4.965   1.200
 3203SOL     OW10507   5.591   2.227   0.369
 3203SOL    HW110508   5.553   2.295   0.306
 3203SOL    HW210509   5.600   2.139   0.321
 3204SOL     OW10510   4.275   6.766   3.042
 3204SOL    HW110511   4.216   6.696   3.002
 3204SOL    HW210512   4.292   6.838   2.974
 3205SOL     OW10513   5.377   2.559   5.636
 3205SOL    HW110514   5.459   2.599   5.677
 3205SOL    HW210515   5.403   2.482   5.578
 3206SOL     OW10516   1.863   4.967   0.594
 3206SOL    HW110517   1.912   4.879   0.588
 3206SOL    HW210518   1.876   5.017   0.508
 3207SOL     OW10519   1.360   0.869   6.509
 3207SOL    HW110520   1.328   0.963   6.525
 3207SOL    HW210521   1.460   0.868   6.513
 3208SOL     OW10522   4.535   6.576   6.093
 3208SOL    HW110523   4.553   6.600   6.188
 3208SOL    HW210524   4.582   6.491   6.070
 3209SOL     OW10525   3.443   4.947   3.816
 3209SOL    HW110526   3.391   5.033   3.819
 3209SOL    HW210527   3.386   4.876   3.773
 3210SOL     OW10528   1.434   4.250   0.669
 3210SOL    HW110529   1.366   4.283   0.735
 3210SOL    HW210530   1.467   4.328   0.615
 3211SOL     OW10531   1.377   3.995   0.606
 3211SOL    HW110532   1.409   4.089   0.620
 3211SOL    HW210533   1.406   3.938   0.682
 3212SOL     OW10534   2.969   6.718   1.444
 3212SOL    HW110535   3.006   6.625   1.441
 3212SOL    HW210536   2.918   6.731   1.529
 3213SOL     OW10537   1.631   0.156   0.856
 3213SOL    HW110538   1.669   0.083   0.912
 3213SOL    HW210539   1.680   0.161   0.769
 3214SOL     OW10540   4.556   5.930   0.705
 3214SOL    HW110541   4.601   5.909   0.618
 3214SOL    HW210542   4.474   5.984   0.689
 3215SOL     OW10543   0.317   3.824   1.087
 3215SOL    HW110544   0.287   3.753   1.024
 3215SOL    HW210545   0.386   3.881   1.043
 3216SOL     OW10546   6.051   5.580   0.653
 3216SOL    HW110547   6.022   5.486   0.673
 3216SOL    HW210548   5.973   5.634   0.625
 3217SOL     OW10549   0.227   5.428   2.337
 3217SOL    HW110550   0.274   5.360   2.280
 3217SOL    HW210551   0.232   5.518   2.293
 3218SOL     OW10552   5.052   2.565   3.559
 3218SOL    HW110553   5.099   2.479   3.541
 3218SOL    HW210554   4.979   2.579   3.492
 3219SOL     OW10555   0.758   1.607   3.678
 3219SOL    HW110556   0.752   1.510   3.656
 3219SOL    HW210557   0.853   1.635   3.683
 3220SOL     OW10558   0.287   4.973   5.985
 3220SOL    HW110559   0.233   5.057   5.982
 3220SOL    HW210560   0.361   4.979   5.918
 3221SOL     OW10561   3.979   0.166   1.857
 3221SOL    HW110562   3.988   0.080   1.807
 3221SOL    HW210563   3.980   0.147   1.955
 3222SOL     OW10564   2.708   1.260   2.896
 3222SOL    HW110565   2.798   1.292   2.866
 3222SOL    HW210566   2.712   1.162   2.915
 3223SOL     OW10567   2.551   6.966   6.077
 3223SOL    HW110568   2.459   6.937   6.053
 3223SOL    HW210569   2.596   7.006   5.998
 3224SOL     OW10570   4.991   3.056   5.232
 3224SOL    HW110571   5.022   2.961   5.235
 3224SOL    HW210572   5.065   3.116   5.262
 3225SOL     OW10573   5.152   2.678   5.722
 3225SOL    HW110574   5.183   2.751   5.783
 3225SOL    HW210575   5.231   2.639   5.674
 3226SOL     OW10576   2.225   0.892   2.389
 3226SOL    HW110577   2.316   0.890   2.347
 3226SOL    HW210578   2.165   0.949   2.333
 3227SOL     OW10579   2.954   3.305   6.898
 3227SOL    HW110580   2.960   3.273   6.804
 3227SOL    HW210581   2.885   3.377   6.904
 3228SOL     OW10582   0.367   3.628   1.290
 3228SOL    HW110583   0.284   3.573   1.304
 3228SOL    HW210584   0.341   3.724   1.275
 3229SOL     OW10585   3.631   0.522   5.654
 3229SOL    HW110586   3.535   0.520   5.682
 3229SOL    HW210587   3.640   0.478   5.564
 3230SOL     OW10588   2.282   4.508   5.301
 3230SOL    HW110589   2.310   4.597   5.265
 3230SOL    HW210590   2.291   4.439   5.230
 3231SOL     OW10591   2.852   0.122   1.874
 3231SOL    HW110592   2.864   0.053   1.945
 3231SOL    HW210593   2.867   0.213   1.913
 3232SOL     OW10594   4.849   6.730   4.777
 3232SOL    HW110595   4.796   6.724   4.692
 3232SOL    HW210596   4.865   6.638   4.812
 3233SOL     OW10597   6.740   2.597   0.945
 3233SOL    HW110598   6.824   2.542   0.952
 3233SOL    HW210599   6.736   2.640   0.856
 3234SOL     OW10600   0.732   2.614   6.855
 3234SOL    HW110601   0.644   2.658   6.841
 3234SOL    HW210602   0.775   2.651   6.938
 3235SOL     OW10603   6.995   0.353   1.611
 3235SOL    HW110604   0.046   0.386   1.665
 3235SOL    HW210605   6.910   0.386   1.651
 3236SOL     OW10606   1.449   3.910   0.023
 3236SOL    HW110607   1.352   3.915   0.001
 3236SOL    HW210608   1.473   3.817   0.050
 3237SOL     OW10609   5.833   1.515   3.404
 3237SOL    HW110610   5.846   1.430   3.353
 3237SOL    HW210611   5.908   1.578   3.382
 3238SOL     OW10612   6.988   5.304   0.363
 3238SOL    HW110613   6.934   5.370   0.413
 3238SOL    HW210614   0.040   5.350   0.320
 3239SOL     OW10615   6.522   1.479   2.281
 3239SOL    HW110616   6.586   1.409   2.250
 3239SOL    HW210617   6.472   1.445   2.361
 3240SOL     OW10618   0.046   6.351   6.290
 3240SOL    HW110619   0.050   6.266   6.237
 3240SOL    HW210620   0.115   6.348   6.363
 3241SOL     OW10621   4.836   0.650   5.096
 3241SOL    HW110622   4.795   0.725   5.147
 3241SOL    HW210623   4.790   0.565   5.119
 3242SOL     OW10624   4.615   4.467   6.870
 3242SOL    HW110625   4.519   4.440   6.876
 3242SOL    HW210626   4.662   4.408   6.805
 3243SOL     OW10627   4.347   5.068   6.876
 3243SOL    HW110628   4.291   5.092   6.796
 3243SOL    HW210629   4.293   5.010   6.937
 3244SOL     OW10630   4.876   5.679   0.271
 3244SOL    HW110631   4.896   5.766   0.224
 3244SOL    HW210632   4.798   5.635   0.227
 3245SOL     OW10633   5.409   3.527   4.300
 3245SOL    HW110634   5.391   3.511   4.203
 3245SOL    HW210635   5.429   3.440   4.346
 3246SOL     OW10636   6.377   0.294   2.890
 3246SOL    HW110637   6.378   0.394   2.900
 3246SOL    HW210638   6.368   0.271   2.793
 3247SOL     OW10639   5.937   4.449   2.804
 3247SOL    HW110640   5.869   4.383   2.836
 3247SOL    HW210641   6.026   4.427   2.843
 3248SOL     OW10642   5.600   3.218   1.794
 3248SOL    HW110643   5.638   3.139   1.746
 3248SOL    HW210644   5.504   3.230   1.767
 3249SOL     OW10645   3.444   4.106   3.986
 3249SOL    HW110646   3.543   4.116   3.995
 3249SOL    HW210647   3.398   4.163   4.053
 3250SOL     OW10648   5.634   0.628   2.746
 3250SOL    HW110649   5.731   0.648   2.735
 3250SOL    HW210650   5.620   0.572   2.828
 3251SOL     OW10651   3.624   0.894   3.760
 3251SOL    HW110652   3.659   0.888   3.853
 3251SOL    HW210653   3.535   0.939   3.760
 3252SOL     OW10654   2.628   0.790   2.636
 3252SOL    HW110655   2.533   0.808   2.610
 3252SOL    HW210656   2.678   0.754   2.557
 3253SOL     OW10657   4.649   3.849   1.710
 3253SOL    HW110658   4.674   3.941   1.678
 3253SOL    HW210659   4.726   3.810   1.761
 3254SOL     OW10660   5.005   5.988   6.292
 3254SOL    HW110661   5.055   5.944   6.366
 3254SOL    HW210662   4.924   6.034   6.329
 3255SOL     OW10663   4.679   6.962   0.301
 3255SOL    HW110664   4.759   6.991   0.248
 3255SOL    HW210665   4.709   6.907   0.380
 3256SOL     OW10666   3.905   1.367   0.899
 3256SOL    HW110667   3.812   1.331   0.902
 3256SOL    HW210668   3.929   1.407   0.987
 3257SOL     OW10669   1.175   1.886   2.084
 3257SOL    HW110670   1.235   1.931   2.017
 3257SOL    HW210671   1.230   1.831   2.146
 3258SOL     OW10672   4.743   6.148   2.394
 3258SOL    HW110673   4.719   6.066   2.342
 3258SOL    HW210674   4.706   6.141   2.487
 3259SOL     OW10675   5.143   4.797   5.103
 3259SOL    HW110676   5.188   4.851   5.032
 3259SOL    HW210677   5.159   4.700   5.085
 3260SOL     OW10678   1.171   2.593   1.141
 3260SOL    HW110679   1.240   2.533   1.181
 3260SOL    HW210680   1.152   2.668   1.204
 3261SOL     OW10681   5.622   0.833   1.569
 3261SOL    HW110682   5.533   0.841   1.524
 3261SOL    HW210683   5.695   0.848   1.503
 3262SOL     OW10684   3.334   1.792   2.333
 3262SOL    HW110685   3.317   1.856   2.408
 3262SOL    HW210686   3.376   1.709   2.371
 3263SOL     OW10687   2.423   1.211   3.280
 3263SOL    HW110688   2.370   1.209   3.195
 3263SOL    HW210689   2.485   1.133   3.282
 3264SOL     OW10690   0.964   5.095   0.804
 3264SOL    HW110691   0.911   5.164   0.755
 3264SOL    HW210692   1.031   5.055   0.742
 3265SOL     OW10693   4.811   0.853   6.690
 3265SOL    HW110694   4.728   0.870   6.636
 3265SOL    HW210695   4.890   0.851   6.628
 3266SOL     OW10696   1.749   4.388   0.031
 3266SOL    HW110697   1.824   4.346   7.007
 3266SOL    HW210698   1.776   4.403   0.126
 3267SOL     OW10699   3.051   6.438   1.435
 3267SOL    HW110700   3.062   6.471   1.341
 3267SOL    HW210701   3.140   6.439   1.481
 3268SOL     OW10702   2.058   3.957   1.741
 3268SOL    HW110703   2.025   4.039   1.695
 3268SOL    HW210704   2.153   3.971   1.771
 3269SOL     OW10705   4.933   5.814   2.415
 3269SOL    HW110706   4.874   5.770   2.348
 3269SOL    HW210707   4.876   5.855   2.487
 3270SOL     OW10708   1.313   4.244   6.177
 3270SOL    HW110709   1.318   4.255   6.077
 3270SOL    HW210710   1.321   4.148   6.200
 3271SOL     OW10711   5.571   3.556   1.923
 3271SOL    HW110712   5.581   3.652   1.949
 3271SOL    HW210713   5.654   3.526   1.874
 3272SOL     OW10714   2.873   4.490   5.950
 3272SOL    HW110715   2.970   4.511   5.940
 3272SOL    HW210716   2.860   4.425   6.024
 3273SOL     OW10717   6.170   5.701   0.160
 3273SOL    HW110718   6.125   5.622   0.117
 3273SOL    HW210719   6.112   5.737   0.233
 3274SOL     OW10720   5.613   1.416   0.995
 3274SOL    HW110721   5.555   1.353   1.047
 3274SOL    HW210722   5.698   1.370   0.970
 3275SOL     OW10723   5.613   1.210   0.164
 3275SOL    HW110724   5.707   1.177   0.155
 3275SOL    HW210725   5.558   1.175   0.088
 3276SOL     OW10726   3.454   5.645   6.487
 3276SOL    HW110727   3.430   5.564   6.541
 3276SOL    HW210728   3.405   5.725   6.523
 3277SOL     OW10729   3.815   6.840   0.341
 3277SOL    HW110730   3.732   6.818   0.393
 3277SOL    HW210731   3.889   6.779   0.368
 3278SOL     OW10732   0.992   0.917   5.860
 3278SOL    HW110733   0.963   0.935   5.954
 3278SOL    HW210734   0.951   0.984   5.799
 3279SOL     OW10735   4.739   0.264   0.294
 3279SOL    HW110736   4.761   0.303   0.384
 3279SOL    HW210737   4.768   0.168   0.291
 3280SOL     OW10738   4.899   4.422   4.286
 3280SOL    HW110739   4.863   4.329   4.287
 3280SOL    HW210740   4.833   4.484   4.244
 3281SOL     OW10741   1.531   5.013   1.802
 3281SOL    HW110742   1.553   5.084   1.736
 3281SOL    HW210743   1.434   5.019   1.826
 3282SOL     OW10744   0.091   5.139   4.974
 3282SOL    HW110745   0.170   5.181   5.018
 3282SOL    HW210746   0.008   5.189   4.999
 3283SOL     OW10747   3.573   0.652   1.108
 3283SOL    HW110748   3.617   0.614   1.190
 3283SOL    HW210749   3.639   0.711   1.060
 3284SOL     OW10750   0.521   5.405   6.590
 3284SOL    HW110751   0.603   5.348   6.590
 3284SOL    HW210752   0.474   5.397   6.502
 3285SOL     OW10753   4.310   2.315   3.398
 3285SOL    HW110754   4.306   2.272   3.488
 3285SOL    HW210755   4.377   2.389   3.399
 3286SOL     OW10756   3.404   3.218   2.562
 3286SOL    HW110757   3.498   3.247   2.581
 3286SOL    HW210758   3.363   3.184   2.646
 3287SOL     OW10759   0.595   0.416   0.155
 3287SOL    HW110760   0.689   0.403   0.123
 3287SOL    HW210761   0.574   0.347   0.224
 3288SOL     OW10762   1.657   6.116   6.873
 3288SOL    HW110763   1.620   6.133   6.781
 3288SOL    HW210764   1.689   6.021   6.879
 3289SOL     OW10765   2.646   0.676   4.841
 3289SOL    HW110766   2.573   0.744   4.832
 3289SOL    HW210767   2.729   0.719   4.876
 3290SOL     OW10768   0.398   5.663   1.585
 3290SOL    HW110769   0.328   5.615   1.532
 3290SOL    HW210770   0.474   5.689   1.525
 3291SOL     OW10771   2.035   7.024   6.862
 3291SOL    HW110772   2.024   0.089   6.901
 3291SOL    HW210773   1.986   7.019   6.775
 3292SOL     OW10774   0.192   0.768   0.659
 3292SOL    HW110775   0.131   0.690   0.671
 3292SOL    HW210776   0.197   0.792   0.562
 3293SOL     OW10777   0.164   4.272   1.519
 3293SOL    HW110778   0.079   4.239   1.478
 3293SOL    HW210779   0.206   4.198   1.572
 3294SOL     OW10780   5.927   2.263   5.943
 3294SOL    HW110781   5.901   2.252   6.039
 3294SOL    HW210782   5.969   2.178   5.911
 3295SOL     OW10783   1.366   2.525   2.328
 3295SOL    HW110784   1.453   2.510   2.281
 3295SOL    HW210785   1.341   2.622   2.321
 3296SOL     OW10786   1.235   6.921   3.031
 3296SOL    HW110787   1.284   6.837   3.058
 3296SOL    HW210788   1.139   6.913   3.057
 3297SOL     OW10789   3.096   1.588   5.715
 3297SOL    HW110790   3.184   1.560   5.677
 3297SOL    HW210791   3.026   1.520   5.692
 3298SOL     OW10792   6.105   2.006   5.616
 3298SOL    HW110793   6.006   2.023   5.624
 3298SOL    HW210794   6.121   1.942   5.541
 3299SOL     OW10795   3.495   5.742   2.926
 3299SOL    HW110796   3.593   5.722   2.919
 3299SOL    HW210797   3.479   5.838   2.904
 3300SOL     OW10798   0.408   1.175   5.263
 3300SOL    HW110799   0.374   1.233   5.188
 3300SOL    HW210800   0.456   1.096   5.225
 3301SOL     OW10801   1.967   3.098   3.549
 3301SOL    HW110802   1.980   3.124   3.453
 3301SOL    HW210803   1.987   3.177   3.608
 3302SOL     OW10804   0.656   4.985   5.264
 3302SOL    HW110805   0.677   5.050   5.191
 3302SOL    HW210806   0.563   5.002   5.297
 3303SOL     OW10807   3.604   3.817   1.040
 3303SOL    HW110808   3.673   3.785   1.106
 3303SOL    HW210809   3.514   3.783   1.067
 3304SOL     OW10810   1.594   5.431   4.759
 3304SOL    HW110811   1.604   5.332   4.772
 3304SOL    HW210812   1.542   5.449   4.676
 3305SOL     OW10813   2.203   1.259   2.262
 3305SOL    HW110814   2.141   1.203   2.317
 3305SOL    HW210815   2.188   1.356   2.283
 3306SOL     OW10816   2.392   5.493   4.666
 3306SOL    HW110817   2.330   5.446   4.603
 3306SOL    HW210818   2.349   5.499   4.756
 3307SOL     OW10819   7.003   5.746   6.773
 3307SOL    HW110820   6.944   5.666   6.766
 3307SOL    HW210821   6.955   5.818   6.824
 3308SOL     OW10822   2.870   6.160   1.325
 3308SOL    HW110823   2.953   6.173   1.378
 3308SOL    HW210824   2.820   6.081   1.360
 3309SOL     OW10825   6.677   5.578   3.666
 3309SOL    HW110826   6.604   5.601   3.602
 3309SOL    HW210827   6.637   5.555   3.755
 3310SOL     OW10828   0.314   4.005   5.294
 3310SOL    HW110829   0.407   4.023   5.327
 3310SOL    HW210830   0.256   3.979   5.371
 3311SOL     OW10831   3.956   3.697   0.874
 3311SOL    HW110832   3.859   3.705   0.898
 3311SOL    HW210833   3.977   3.758   0.797
 3312SOL     OW10834   4.582   4.609   5.797
 3312SOL    HW110835   4.503   4.574   5.747
 3312SOL    HW210836   4.551   4.677   5.864
 3313SOL     OW10837   1.089   6.368   3.637
 3313SOL    HW110838   1.011   6.409   3.589
 3313SOL    HW210839   1.168   6.366   3.576
 3314SOL     OW10840   2.574   1.243   2.664
 3314SOL    HW110841   2.524   1.319   2.622
 3314SOL    HW210842   2.606   1.270   2.755
 3315SOL     OW10843   6.414   4.472   4.168
 3315SOL    HW110844   6.422   4.570   4.150
 3315SOL    HW210845   6.329   4.437   4.128
 3316SOL     OW10846   5.249   0.860   5.700
 3316SOL    HW110847   5.189   0.781   5.710
 3316SOL    HW210848   5.205   0.928   5.643
 3317SOL     OW10849   4.852   2.789   1.894
 3317SOL    HW110850   4.777   2.771   1.830
 3317SOL    HW210851   4.827   2.865   1.953
 3318SOL     OW10852   2.011   1.694   1.278
 3318SOL    HW110853   2.071   1.625   1.319
 3318SOL    HW210854   2.024   1.781   1.325
 3319SOL     OW10855   6.237   1.930   3.826
 3319SOL    HW110856   6.239   1.846   3.880
 3319SOL    HW210857   6.271   1.912   3.734
 3320SOL     OW10858   6.656   0.653   5.200
 3320SOL    HW110859   6.679   0.563   5.163
 3320SOL    HW210860   6.661   0.649   5.300
 3321SOL     OW10861   4.610   1.505   0.494
 3321SOL    HW110862   4.605   1.582   0.430
 3321SOL    HW210863   4.602   1.419   0.443
 3322SOL     OW10864   6.723   2.855   1.084
 3322SOL    HW110865   6.701   2.758   1.077
 3322SOL    HW210866   6.799   2.868   1.147
 3323SOL     OW10867   3.286   2.999   0.505
 3323SOL    HW110868   3.336   3.005   0.419
 3323SOL    HW210869   3.187   3.003   0.486
 3324SOL     OW10870   4.207   5.090   6.480
 3324SOL    HW110871   4.149   5.009   6.482
 3324SOL    HW210872   4.262   5.089   6.396
 3325SOL     OW10873   0.027   3.672   6.164
 3325SOL    HW110874   0.047   3.617   6.083
 3325SOL    HW210875   0.102   3.663   6.230
 3326SOL     OW10876   5.197   1.796   2.526
 3326SOL    HW110877   5.136   1.782   2.448
 3326SOL    HW210878   5.236   1.709   2.555
 3327SOL     OW10879   3.499   5.569   1.598
 3327SOL    HW110880   3.508   5.593   1.694
 3327SOL    HW210881   3.574   5.611   1.546
 3328SOL     OW10882   4.393   2.078   0.362
 3328SOL    HW110883   4.473   2.038   0.317
 3328SOL    HW210884   4.376   2.031   0.449
 3329SOL     OW10885   5.688   0.219   4.604
 3329SOL    HW110886   5.713   0.253   4.695
 3329SOL    HW210887   5.651   0.294   4.549
 3330SOL     OW10888   6.328   4.711   1.625
 3330SOL    HW110889   6.242   4.761   1.629
 3330SOL    HW210890   6.321   4.628   1.680
 3331SOL     OW10891   2.502   2.859   1.392
 3331SOL    HW110892   2.492   2.866   1.491
 3331SOL    HW210893   2.412   2.860   1.349
 3332SOL     OW10894   5.517   5.562   6.924
 3332SOL    HW110895   5.442   5.627   6.926
 3332SOL    HW210896   5.596   5.603   6.877
 3333SOL     OW10897   4.428   4.637   6.432
 3333SOL    HW110898   4.379   4.552   6.416
 3333SOL    HW210899   4.399   4.676   6.519
 3334SOL     OW10900   2.651   4.051   1.684
 3334SOL    HW110901   2.669   3.954   1.700
 3334SOL    HW210902   2.730   4.093   1.638
 3335SOL     OW10903   4.746   6.313   5.357
 3335SOL    HW110904   4.737   6.228   5.305
 3335SOL    HW210905   4.656   6.343   5.388
 3336SOL     OW10906   2.682   6.139   4.507
 3336SOL    HW110907   2.742   6.090   4.444
 3336SOL    HW210908   2.731   6.156   4.593
 3337SOL     OW10909   2.940   3.777   2.859
 3337SOL    HW110910   2.947   3.877   2.854
 3337SOL    HW210911   3.025   3.736   2.826
 3338SOL     OW10912   5.690   2.647   1.698
 3338SOL    HW110913   5.607   2.672   1.648
 3338SOL    HW210914   5.728   2.563   1.659
 3339SOL     OW10915   6.662   0.164   6.538
 3339SOL    HW110916   6.587   0.107   6.505
 3339SOL    HW210917   6.749   0.115   6.529
 3340SOL     OW10918   3.579   0.715   2.274
 3340SOL    HW110919   3.647   0.788   2.267
 3340SOL    HW210920   3.526   0.726   2.359
 3341SOL     OW10921   1.036   5.740   3.067
 3341SOL    HW110922   1.133   5.717   3.056
 3341SOL    HW210923   1.002   5.782   2.983
 3342SOL     OW10924   2.624   0.020   4.403
 3342SOL    HW110925   2.649   0.104   4.450
 3342SOL    HW210926   2.705   6.988   4.393
 3343SOL     OW10927   5.339   2.916   0.900
 3343SOL    HW110928   5.409   2.846   0.888
 3343SOL    HW210929   5.271   2.907   0.827
 3344SOL     OW10930   5.582   3.327   4.007
 3344SOL    HW110931   5.595   3.243   3.954
 3344SOL    HW210932   5.670   3.371   4.023
 3345SOL     OW10933   1.367   3.760   6.214
 3345SOL    HW110934   1.399   3.855   6.205
 3345SOL    HW210935   1.428   3.710   6.275
 3346SOL     OW10936   1.397   0.460   0.386
 3346SOL    HW110937   1.477   0.512   0.357
 3346SOL    HW210938   1.408   0.431   0.481
 3347SOL     OW10939   0.776   3.799   4.459
 3347SOL    HW110940   0.771   3.876   4.523
 3347SOL    HW210941   0.819   3.721   4.504
 3348SOL     OW10942   3.141   3.486   3.771
 3348SOL    HW110943   3.108   3.566   3.722
 3348SOL    HW210944   3.219   3.512   3.829
 3349SOL     OW10945   0.991   5.770   2.728
 3349SOL    HW110946   1.024   5.684   2.689
 3349SOL    HW210947   0.900   5.756   2.767
 3350SOL     OW10948   1.401   2.322   5.620
 3350SOL    HW110949   1.429   2.417   5.633
 3350SOL    HW210950   1.482   2.263   5.621
 3351SOL     OW10951   5.073   0.723   2.597
 3351SOL    HW110952   5.049   0.776   2.678
 3351SOL    HW210953   5.148   0.661   2.619
 3352SOL     OW10954   0.084   2.698   0.517
 3352SOL    HW110955   0.094   2.775   0.454
 3352SOL    HW210956   0.125   2.616   0.476
 3353SOL     OW10957   1.517   5.490   2.092
 3353SOL    HW110958   1.586   5.433   2.136
 3353SOL    HW210959   1.475   5.550   2.160
 3354SOL     OW10960   4.810   2.629   5.202
 3354SOL    HW110961   4.856   2.543   5.224
 3354SOL    HW210962   4.783   2.675   5.287
 3355SOL     OW10963   1.979   1.417   0.252
 3355SOL    HW110964   2.032   1.411   0.337
 3355SOL    HW210965   1.919   1.497   0.256
 3356SOL     OW10966   1.964   4.520   5.953
 3356SOL    HW110967   1.975   4.617   5.932
 3356SOL    HW210968   2.001   4.465   5.878
 3357SOL     OW10969   2.859   4.805   1.760
 3357SOL    HW110970   2.887   4.768   1.849
 3357SOL    HW210971   2.848   4.730   1.695
 3358SOL     OW10972   5.210   0.738   0.717
 3358SOL    HW110973   5.123   0.786   0.706
 3358SOL    HW210974   5.281   0.804   0.742
 3359SOL     OW10975   6.958   0.484   3.691
 3359SOL    HW110976   6.896   0.495   3.769
 3359SOL    HW210977   6.903   0.469   3.608
 3360SOL     OW10978   0.722   1.429   6.983
 3360SOL    HW110979   0.782   1.364   0.003
 3360SOL    HW210980   0.778   1.495   6.931
 3361SOL     OW10981   0.639   4.370   3.290
 3361SOL    HW110982   0.594   4.459   3.291
 3361SOL    HW210983   0.581   4.304   3.241
 3362SOL     OW10984   3.870   1.849   3.533
 3362SOL    HW110985   3.830   1.771   3.485
 3362SOL    HW210986   3.947   1.884   3.480
 3363SOL     OW10987   6.355   0.014   0.713
 3363SOL    HW110988   6.404   0.091   0.672
 3363SOL    HW210989   6.277   7.016   0.656
 3364SOL     OW10990   1.214   4.505   3.795
 3364SOL    HW110991   1.117   4.483   3.798
 3364SOL    HW210992   1.257   4.453   3.721
 3365SOL     OW10993   0.471   2.536   5.307
 3365SOL    HW110994   0.444   2.517   5.213
 3365SOL    HW210995   0.481   2.634   5.320
 3366SOL     OW10996   6.068   0.179   5.933
 3366SOL    HW110997   5.987   0.141   5.979
 3366SOL    HW210998   6.105   0.254   5.988
 3367SOL     OW10999   3.705   2.908   1.418
 3367SOL    HW111000   3.761   2.825   1.423
 3367SOL    HW211001   3.674   2.932   1.510
 3368SOL     OW11002   0.795   5.146   5.795
 3368SOL    HW111003   0.770   5.187   5.707
 3368SOL    HW211004   0.802   5.047   5.784
 3369SOL     OW11005   3.847   2.472   5.927
 3369SOL    HW111006   3.763   2.521   5.901
 3369SOL    HW211007   3.884   2.512   6.011
 3370SOL     OW11008   6.675   5.917   6.338
 3370SOL    HW111009   6.638   5.871   6.257
 3370SOL    HW211010   6.727   5.998   6.310
 3371SOL     OW11011   1.890   3.424   2.275
 3371SOL    HW111012   1.910   3.331   2.244
 3371SOL    HW211013   1.813   3.422   2.339
 3372SOL     OW11014   0.937   1.447   1.188
 3372SOL    HW111015   1.016   1.414   1.239
 3372SOL    HW211016   0.968   1.500   1.109
 3373SOL     OW11017   6.971   1.719   3.069
 3373SOL    HW111018   7.011   1.697   3.158
 3373SOL    HW211019   6.886   1.668   3.058
 3374SOL     OW11020   1.588   6.394   4.519
 3374SOL    HW111021   1.570   6.352   4.430
 3374SOL    HW211022   1.683   6.424   4.523
 3375SOL     OW11023   5.979   5.796   6.318
 3375SOL    HW111024   6.054   5.735   6.295
 3375SOL    HW211025   5.894   5.744   6.325
 3376SOL     OW11026   4.057   3.187   3.489
 3376SOL    HW111027   4.036   3.209   3.584
 3376SOL    HW211028   4.092   3.269   3.443
 3377SOL     OW11029   0.402   6.609   4.847
 3377SOL    HW111030   0.423   6.594   4.944
 3377SOL    HW211031   0.306   6.635   4.837
 3378SOL     OW11032   6.825   1.254   0.519
 3378SOL    HW111033   6.812   1.157   0.498
 3378SOL    HW211034   6.763   1.280   0.593
 3379SOL     OW11035   6.564   6.449   6.921
 3379SOL    HW111036   6.519   6.521   6.974
 3379SOL    HW211037   6.502   6.415   6.851
 3380SOL     OW11038   5.921   6.634   6.290
 3380SOL    HW111039   5.947   6.556   6.346
 3380SOL    HW211040   6.001   6.665   6.237
 3381SOL     OW11041   1.126   2.780   1.335
 3381SOL    HW111042   1.113   2.874   1.303
 3381SOL    HW211043   1.042   2.746   1.377
 3382SOL     OW11044   0.474   1.348   0.818
 3382SOL    HW111045   0.447   1.256   0.789
 3382SOL    HW211046   0.416   1.415   0.772
 3383SOL     OW11047   4.648   6.007   2.080
 3383SOL    HW111048   4.743   6.039   2.084
 3383SOL    HW211049   4.596   6.068   2.021
 3384SOL     OW11050   2.286   3.240   5.766
 3384SOL    HW111051   2.230   3.319   5.745
 3384SOL    HW211052   2.380   3.256   5.734
 3385SOL     OW11053   6.970   2.738   4.141
 3385SOL    HW111054   0.014   2.739   4.212
 3385SOL    HW211055   7.013   2.716   4.053
 3386SOL     OW11056   6.372   3.633   6.592
 3386SOL    HW111057   6.301   3.563   6.584
 3386SOL    HW211058   6.412   3.650   6.502
 3387SOL     OW11059   3.147   1.017   3.618
 3387SOL    HW111060   3.128   1.097   3.676
 3387SOL    HW211061   3.166   1.048   3.525
 3388SOL     OW11062   5.121   3.396   2.000
 3388SOL    HW111063   5.111   3.300   1.974
 3388SOL    HW211064   5.111   3.453   1.918
 3389SOL     OW11065   5.464   4.717   5.350
 3389SOL    HW111066   5.391   4.657   5.381
 3389SOL    HW211067   5.425   4.804   5.319
 3390SOL     OW11068   5.234   4.754   5.677
 3390SOL    HW111069   5.251   4.784   5.583
 3390SOL    HW211070   5.187   4.666   5.676
 3391SOL     OW11071   4.974   3.083   4.967
 3391SOL    HW111072   4.950   3.178   4.945
 3391SOL    HW211073   4.958   3.066   5.065
 3392SOL     OW11074   2.642   6.768   3.942
 3392SOL    HW111075   2.638   6.679   3.987
 3392SOL    HW211076   2.554   6.790   3.901
 3393SOL     OW11077   0.172   6.302   7.009
 3393SOL    HW111078   0.262   6.267   0.009
 3393SOL    HW211079   0.161   6.395   0.018
 3394SOL     OW11080   6.338   3.253   1.765
 3394SOL    HW111081   6.270   3.257   1.692
 3394SOL    HW211082   6.295   3.277   1.852
 3395SOL     OW11083   5.479   3.057   3.327
 3395SOL    HW111084   5.533   3.042   3.244
 3395SOL    HW211085   5.455   2.969   3.367
 3396SOL     OW11086   4.946   1.838   3.704
 3396SOL    HW111087   4.897   1.782   3.638
 3396SOL    HW211088   5.043   1.839   3.682
 3397SOL     OW11089   2.367   0.699   5.098
 3397SOL    HW111090   2.271   0.725   5.090
 3397SOL    HW211091   2.422   0.750   5.032
 3398SOL     OW11092   0.789   0.075   5.007
 3398SOL    HW111093   0.805   0.009   5.080
 3398SOL    HW211094   0.766   0.164   5.047
 3399SOL     OW11095   5.539   4.287   4.193
 3399SOL    HW111096   5.614   4.246   4.141
 3399SOL    HW211097   5.459   4.296   4.134
 3400SOL     OW11098   4.806   2.412   6.040
 3400SOL    HW111099   4.893   2.439   5.999
 3400SOL    HW211100   4.771   2.487   6.097
 3401SOL     OW11101   6.872   3.550   1.169
 3401SOL    HW111102   6.883   3.505   1.257
 3401SOL    HW211103   6.850   3.482   1.099
 3402SOL     OW11104   3.896   6.017   6.681
 3402SOL    HW111105   3.863   5.965   6.602
 3402SOL    HW211106   3.823   6.026   6.748
 3403SOL     OW11107   3.623   6.112   4.887
 3403SOL    HW111108   3.527   6.138   4.901
 3403SOL    HW211109   3.681   6.193   4.896
 3404SOL     OW11110   4.873   1.649   0.282
 3404SOL    HW111111   4.895   1.705   0.202
 3404SOL    HW211112   4.957   1.614   0.322
 3405SOL     OW11113   0.122   3.503   4.474
 3405SOL    HW111114   0.183   3.487   4.397
 3405SOL    HW211115   0.070   3.588   4.458
 3406SOL     OW11116   0.718   4.127   2.141
 3406SOL    HW111117   0.807   4.084   2.126
 3406SOL    HW211118   0.705   4.202   2.076
 3407SOL     OW11119   1.297   5.145   6.858
 3407SOL    HW111120   1.222   5.116   6.798
 3407SOL    HW211121   1.287   5.243   6.877
 3408SOL     OW11122   4.929   3.723   5.263
 3408SOL    HW111123   4.984   3.648   5.301
 3408SOL    HW211124   4.866   3.687   5.195
 3409SOL     OW11125   3.290   6.117   6.571
 3409SOL    HW111126   3.208   6.151   6.616
 3409SOL    HW211127   3.370   6.138   6.627
 3410SOL     OW11128   6.967   6.185   0.118
 3410SOL    HW111129   0.026   6.233   0.092
 3410SOL    HW211130   6.912   6.245   0.175
 3411SOL     OW11131   0.592   3.007   1.844
 3411SOL    HW111132   0.625   3.080   1.785
 3411SOL    HW211133   0.593   3.037   1.939
 3412SOL     OW11134   4.142   2.756   6.777
 3412SOL    HW111135   4.128   2.674   6.832
 3412SOL    HW211136   4.140   2.837   6.836
 3413SOL     OW11137   5.556   1.561   0.774
 3413SOL    HW111138   5.620   1.637   0.787
 3413SOL    HW211139   5.572   1.492   0.845
 3414SOL     OW11140   1.993   0.494   5.927
 3414SOL    HW111141   1.922   0.433   5.963
 3414SOL    HW211142   1.998   0.486   5.828
 3415SOL     OW11143   1.656   3.770   4.911
 3415SOL    HW111144   1.712   3.847   4.881
 3415SOL    HW211145   1.652   3.701   4.838
 3416SOL     OW11146   0.201   5.786   0.866
 3416SOL    HW111147   0.195   5.686   0.866
 3416SOL    HW211148   0.283   5.814   0.915
 3417SOL     OW11149   0.183   5.690   2.965
 3417SOL    HW111150   0.206   5.784   2.940
 3417SOL    HW211151   0.250   5.656   3.031
 3418SOL     OW11152   3.765   0.676   4.565
 3418SOL    HW111153   3.772   0.605   4.494
 3418SOL    HW211154   3.847   0.733   4.563
 3419SOL     OW11155   3.819   5.652   4.820
 3419SOL    HW111156   3.774   5.564   4.835
 3419SOL    HW211157   3.800   5.684   4.727
 3420SOL     OW11158   5.312   3.036   4.451
 3420SOL    HW111159   5.325   3.130   4.483
 3420SOL    HW211160   5.391   3.008   4.398
 3421SOL     OW11161   5.521   0.809   5.733
 3421SOL    HW111162   5.434   0.848   5.702
 3421SOL    HW211163   5.591   0.824   5.663
 3422SOL     OW11164   2.066   0.427   1.380
 3422SOL    HW111165   2.059   0.498   1.450
 3422SOL    HW211166   2.159   0.428   1.341
 3423SOL     OW11167   1.266   4.805   6.978
 3423SOL    HW111168   1.343   4.854   6.938
 3423SOL    HW211169   1.181   4.857   6.965
 3424SOL     OW11170   2.954   6.727   1.722
 3424SOL    HW111171   3.026   6.684   1.776
 3424SOL    HW211172   2.872   6.737   1.778
 3425SOL     OW11173   5.064   4.943   2.723
 3425SOL    HW111174   5.140   5.007   2.727
 3425SOL    HW211175   5.070   4.878   2.798
 3426SOL     OW11176   3.741   2.267   0.799
 3426SOL    HW111177   3.801   2.204   0.848
 3426SOL    HW211178   3.794   2.346   0.768
 3427SOL     OW11179   6.135   0.198   0.037
 3427SOL    HW111180   6.186   0.224   6.981
 3427SOL    HW211181   6.197   0.151   0.100
 3428SOL     OW11182   2.862   4.713   0.874
 3428SOL    HW111183   2.787   4.764   0.832
 3428SOL    HW211184   2.940   4.710   0.810
 3429SOL     OW11185   0.272   2.228   0.206
 3429SOL    HW111186   0.340   2.195   0.271
 3429SOL    HW211187   0.291   2.190   0.115
 3430SOL     OW11188   0.366   6.474   5.101
 3430SOL    HW111189   0.281   6.426   5.081
 3430SOL    HW211190   0.363   6.510   5.194
 3431SOL     OW11191   0.748   6.765   1.109
 3431SOL    HW111192   0.665   6.806   1.071
 3431SOL    HW211193   0.760   6.796   1.203
 3432SOL     OW11194   1.944   2.502   6.990
 3432SOL    HW111195   1.951   2.456   6.902
 3432SOL    HW211196   1.969   2.438   0.037
 3433SOL     OW11197   0.449   0.245   6.362
 3433SOL    HW111198   0.536   0.199   6.378
 3433SOL    HW211199   0.454   0.296   6.277
 3434SOL     OW11200   4.707   1.957   0.692
 3434SOL    HW111201   4.662   1.880   0.737
 3434SOL    HW211202   4.671   2.043   0.729
 3435SOL     OW11203   0.821   1.795   0.775
 3435SOL    HW111204   0.824   1.858   0.698
 3435SOL    HW211205   0.872   1.712   0.752
 3436SOL     OW11206   3.677   5.790   6.653
 3436SOL    HW111207   3.621   5.750   6.580
 3436SOL    HW211208   3.623   5.796   6.737
 3437SOL     OW11209   1.907   1.174   5.709
 3437SOL    HW111210   1.958   1.181   5.794
 3437SOL    HW211211   1.835   1.243   5.707
 3438SOL     OW11212   1.113   2.806   6.964
 3438SOL    HW111213   1.190   2.752   6.932
 3438SOL    HW211214   1.109   2.892   6.913
 3439SOL     OW11215   1.805   6.437   4.938
 3439SOL    HW111216   1.900   6.437   4.906
 3439SOL    HW211217   1.793   6.510   5.006
 3440SOL     OW11218   3.796   3.167   1.586
 3440SOL    HW111219   3.710   3.116   1.585
 3440SOL    HW211220   3.872   3.102   1.585
 3441SOL     OW11221   5.258   0.171   4.301
 3441SOL    HW111222   5.348   0.207   4.329
 3441SOL    HW211223   5.244   0.188   4.204
 3442SOL     OW11224   3.232   5.557   2.099
 3442SOL    HW111225   3.218   5.461   2.078
 3442SOL    HW211226   3.169   5.585   2.172
 3443SOL     OW11227   5.379   6.150   1.821
 3443SOL    HW111228   5.461   6.124   1.872
 3443SOL    HW211229   5.382   6.108   1.730
 3444SOL     OW11230   5.501   5.364   0.535
 3444SOL    HW111231   5.576   5.319   0.487
 3444SOL    HW211232   5.536   5.441   0.588
 3445SOL     OW11233   6.251   5.980   4.713
 3445SOL    HW111234   6.185   5.947   4.781
 3445SOL    HW211235   6.331   6.017   4.760
 3446SOL     OW11236   6.051   0.334   2.497
 3446SOL    HW111237   6.103   0.395   2.557
 3446SOL    HW211238   6.112   0.296   2.427
 3447SOL     OW11239   5.501   5.833   0.961
 3447SOL    HW111240   5.495   5.740   0.995
 3447SOL    HW211241   5.453   5.895   1.023
 3448SOL     OW11242   3.233   0.239   1.015
 3448SOL    HW111243   3.297   0.194   1.077
 3448SOL    HW211244   3.246   0.338   1.019
 3449SOL     OW11245   6.275   6.588   3.896
 3449SOL    HW111246   6.200   6.580   3.962
 3449SOL    HW211247   6.273   6.678   3.854
 3450SOL     OW11248   6.715   2.113   6.533
 3450SOL    HW111249   6.749   2.207   6.533
 3450SOL    HW211250   6.674   2.092   6.622
 3451SOL     OW11251   2.173   6.416   1.598
 3451SOL    HW111252   2.263   6.449   1.572
 3451SOL    HW211253   2.161   6.322   1.564
 3452SOL     OW11254   5.955   0.736   6.091
 3452SOL    HW111255   5.939   0.721   6.189
 3452SOL    HW211256   5.870   0.724   6.041
 3453SOL     OW11257   6.541   5.725   5.747
 3453SOL    HW111258   6.523   5.652   5.813
 3453SOL    HW211259   6.466   5.791   5.749
 3454SOL     OW11260   1.252   2.044   6.271
 3454SOL    HW111261   1.316   1.983   6.317
 3454SOL    HW211262   1.282   2.057   6.176
 3455SOL     OW11263   2.384   1.997   4.293
 3455SOL    HW111264   2.450   1.966   4.360
 3455SOL    HW211265   2.428   2.061   4.230
 3456SOL     OW11266   5.936   5.360   2.849
 3456SOL    HW111267   5.870   5.286   2.844
 3456SOL    HW211268   5.926   5.420   2.770
 3457SOL     OW11269   3.148   5.699   3.321
 3457SOL    HW111270   3.151   5.788   3.275
 3457SOL    HW211271   3.212   5.636   3.277
 3458SOL     OW11272   4.684   0.605   1.195
 3458SOL    HW111273   4.601   0.558   1.165
 3458SOL    HW211274   4.661   0.695   1.231
 3459SOL     OW11275   5.926   3.868   2.756
 3459SOL    HW111276   6.016   3.849   2.793
 3459SOL    HW211277   5.866   3.789   2.770
 3460SOL     OW11278   2.548   3.264   6.965
 3460SOL    HW111279   2.540   3.315   0.025
 3460SOL    HW211280   2.561   3.167   6.985
 3461SOL     OW11281   4.326   6.508   4.990
 3461SOL    HW111282   4.399   6.440   4.986
 3461SOL    HW211283   4.251   6.474   5.047
 3462SOL     OW11284   0.641   3.561   2.309
 3462SOL    HW111285   0.625   3.526   2.402
 3462SOL    HW211286   0.553   3.567   2.262
 3463SOL     OW11287   1.022   3.864   2.991
 3463SOL    HW111288   0.978   3.859   2.901
 3463SOL    HW211289   1.050   3.773   3.020
 3464SOL     OW11290   6.406   3.186   6.635
 3464SOL    HW111291   6.456   3.181   6.722
 3464SOL    HW211292   6.468   3.166   6.559
 3465SOL     OW11293   2.045   2.436   2.488
 3465SOL    HW111294   2.047   2.536   2.477
 3465SOL    HW211295   2.006   2.395   2.406
 3466SOL     OW11296   0.204   4.547   0.140
 3466SOL    HW111297   0.166   4.487   0.210
 3466SOL    HW211298   0.258   4.619   0.183
 3467SOL     OW11299   1.845   2.247   0.941
 3467SOL    HW111300   1.790   2.168   0.967
 3467SOL    HW211301   1.811   2.284   0.854
 3468SOL     OW11302   5.972   6.877   2.723
 3468SOL    HW111303   5.881   6.844   2.747
 3468SOL    HW211304   5.981   6.881   2.623
 3469SOL     OW11305   4.821   0.132   3.748
 3469SOL    HW111306   4.742   0.087   3.789
 3469SOL    HW211307   4.862   0.071   3.680
 3470SOL     OW11308   6.624   2.916   1.864
 3470SOL    HW111309   6.618   3.016   1.868
 3470SOL    HW211310   6.547   2.880   1.810
 3471SOL     OW11311   4.510   4.962   4.496
 3471SOL    HW111312   4.418   5.000   4.486
 3471SOL    HW211313   4.526   4.940   4.592
 3472SOL     OW11314   2.784   1.228   3.260
 3472SOL    HW111315   2.735   1.143   3.238
 3472SOL    HW211316   2.728   1.306   3.233
 3473SOL     OW11317   6.859   2.695   1.377
 3473SOL    HW111318   6.879   2.786   1.339
 3473SOL    HW211319   6.935   2.666   1.435
 3474SOL     OW11320   1.062   4.594   2.500
 3474SOL    HW111321   1.088   4.512   2.449
 3474SOL    HW211322   1.145   4.639   2.535
 3475SOL     OW11323   1.258   4.562   4.493
 3475SOL    HW111324   1.322   4.583   4.419
 3475SOL    HW211325   1.170   4.535   4.454
 3476SOL     OW11326   1.971   1.508   3.008
 3476SOL    HW111327   2.023   1.581   2.965
 3476SOL    HW211328   1.922   1.543   3.088
 3477SOL     OW11329   1.471   5.739   1.145
 3477SOL    HW111330   1.493   5.780   1.056
 3477SOL    HW211331   1.543   5.763   1.211
 3478SOL     OW11332   2.559   5.304   5.111
 3478SOL    HW111333   2.605   5.293   5.199
 3478SOL    HW211334   2.461   5.311   5.124
 3479SOL     OW11335   0.722   0.346   3.208
 3479SOL    HW111336   0.735   0.396   3.122
 3479SOL    HW211337   0.719   0.248   3.189
 3480SOL     OW11338   0.743   6.421   4.887
 3480SOL    HW111339   0.734   6.324   4.907
 3480SOL    HW211340   0.805   6.434   4.810
 3481SOL     OW11341   4.618   0.778   0.256
 3481SOL    HW111342   4.574   0.688   0.255
 3481SOL    HW211343   4.607   0.820   0.346
 3482SOL     OW11344   6.390   1.662   2.131
 3482SOL    HW111345   6.442   1.580   2.156
 3482SOL    HW211346   6.292   1.642   2.135
 3483SOL     OW11347   4.987   1.985   1.736
 3483SOL    HW111348   5.027   1.893   1.734
 3483SOL    HW211349   4.918   1.990   1.808
 3484SOL     OW11350   1.098   3.069   6.832
 3484SOL    HW111351   1.089   3.086   6.734
 3484SOL    HW211352   1.146   3.146   6.875
 3485SOL     OW11353   2.051   1.344   4.324
 3485SOL    HW111354   2.053   1.436   4.364
 3485SOL    HW211355   1.961   1.303   4.339
 3486SOL     OW11356   2.962   0.229   3.878
 3486SOL    HW111357   2.866   0.243   3.900
 3486SOL    HW211358   3.019   0.282   3.940
 3487SOL     OW11359   6.023   2.528   5.468
 3487SOL    HW111360   6.082   2.450   5.488
 3487SOL    HW211361   5.996   2.572   5.553
 3488SOL     OW11362   6.479   0.698   4.407
 3488SOL    HW111363   6.420   0.753   4.348
 3488SOL    HW211364   6.432   0.678   4.492
 3489SOL     OW11365   4.637   6.753   1.207
 3489SOL    HW111366   4.693   6.836   1.216
 3489SOL    HW211367   4.675   6.696   1.134
 3490SOL     OW11368   4.358   4.399   0.507
 3490SOL    HW111369   4.454   4.424   0.510
 3490SOL    HW211370   4.302   4.482   0.506
 3491SOL     OW11371   4.470   2.427   5.569
 3491SOL    HW111372   4.535   2.357   5.541
 3491SOL    HW211373   4.469   2.436   5.668
 3492SOL     OW11374   6.726   4.694   1.383
 3492SOL    HW111375   6.794   4.766   1.393
 3492SOL    HW211376   6.758   4.626   1.317
 3493SOL     OW11377   5.243   3.986   5.072
 3493SOL    HW111378   5.144   3.971   5.076
 3493SOL    HW211379   5.264   4.050   4.999
 3494SOL     OW11380   3.608   0.353   1.588
 3494SOL    HW111381   3.599   0.360   1.688
 3494SOL    HW211382   3.699   0.384   1.561
 3495SOL     OW11383   5.594   4.851   1.763
 3495SOL    HW111384   5.607   4.753   1.750
 3495SOL    HW211385   5.509   4.880   1.718
 3496SOL     OW11386   6.249   4.382   1.224
 3496SOL    HW111387   6.193   4.365   1.143
 3496SOL    HW211388   6.292   4.472   1.217
 3497SOL     OW11389   3.078   1.212   3.785
 3497SOL    HW111390   3.114   1.247   3.871
 3497SOL    HW211391   3.077   1.286   3.717
 3498SOL     OW11392   2.728   2.218   1.187
 3498SOL    HW111393   2.703   2.302   1.234
 3498SOL    HW211394   2.664   2.201   1.112
 3499SOL     OW11395   4.868   3.734   3.920
 3499SOL    HW111396   4.770   3.715   3.916
 3499SOL    HW211397   4.912   3.668   3.981
 3500SOL     OW11398   1.792   3.719   5.190
 3500SOL    HW111399   1.770   3.816   5.181
 3500SOL    HW211400   1.759   3.670   5.109
 3501SOL     OW11401   1.854   5.797   4.933
 3501SOL    HW111402   1.926   5.866   4.942
 3501SOL    HW211403   1.810   5.808   4.844
 3502SOL     OW11404   6.513   2.596   2.616
 3502SOL    HW111405   6.598   2.647   2.604
 3502SOL    HW211406   6.442   2.633   2.557
 3503SOL     OW11407   6.198   6.652   5.014
 3503SOL    HW111408   6.225   6.557   5.000
 3503SOL    HW211409   6.100   6.655   5.034
 3504SOL     OW11410   2.414   1.594   1.867
 3504SOL    HW111411   2.356   1.623   1.944
 3504SOL    HW211412   2.444   1.500   1.881
 3505SOL     OW11413   5.929   4.258   4.909
 3505SOL    HW111414   5.861   4.323   4.943
 3505SOL    HW211415   5.969   4.209   4.986
 3506SOL     OW11416   4.906   5.544   5.687
 3506SOL    HW111417   4.893   5.458   5.638
 3506SOL    HW211418   4.844   5.613   5.648
 3507SOL     OW11419   1.595   0.671   0.846
 3507SOL    HW111420   1.525   0.739   0.823
 3507SOL    HW211421   1.635   0.694   0.935
 3508SOL     OW11422   2.778   2.217   5.603
 3508SOL    HW111423   2.787   2.236   5.700
 3508SOL    HW211424   2.754   2.301   5.555
 3509SOL     OW11425   5.364   0.244   6.166
 3509SOL    HW111426   5.307   0.164   6.148
 3509SOL    HW211427   5.436   0.220   6.232
 3510SOL     OW11428   1.480   2.015   2.048
 3510SOL    HW111429   1.527   1.999   2.134
 3510SOL    HW211430   1.496   1.938   1.986
 3511SOL     OW11431   2.922   5.164   0.750
 3511SOL    HW111432   2.863   5.090   0.718
 3511SOL    HW211433   3.018   5.138   0.737
 3512SOL     OW11434   0.309   4.381   1.304
 3512SOL    HW111435   0.236   4.343   1.360
 3512SOL    HW211436   0.387   4.403   1.362
 3513SOL     OW11437   5.902   2.990   0.404
 3513SOL    HW111438   5.836   2.986   0.478
 3513SOL    HW211439   5.878   3.065   0.342
 3514SOL     OW11440   0.533   1.659   1.902
 3514SOL    HW111441   0.460   1.592   1.915
 3514SOL    HW211442   0.592   1.629   1.827
 3515SOL     OW11443   5.628   5.970   2.982
 3515SOL    HW111444   5.609   5.899   2.915
 3515SOL    HW211445   5.615   5.933   3.074
 3516SOL     OW11446   4.792   0.039   0.694
 3516SOL    HW111447   4.890   0.025   0.702
 3516SOL    HW211448   4.772   0.137   0.687
 3517SOL     OW11449   1.333   2.326   0.542
 3517SOL    HW111450   1.250   2.277   0.515
 3517SOL    HW211451   1.321   2.424   0.523
 3518SOL     OW11452   5.988   2.638   4.478
 3518SOL    HW111453   5.922   2.672   4.412
 3518SOL    HW211454   5.975   2.540   4.491
 3519SOL     OW11455   1.666   0.681   6.787
 3519SOL    HW111456   1.641   0.773   6.818
 3519SOL    HW211457   1.761   0.663   6.811
 3520SOL     OW11458   3.201   4.638   6.178
 3520SOL    HW111459   3.201   4.608   6.082
 3520SOL    HW211460   3.291   4.622   6.218
 3521SOL     OW11461   4.872   2.016   6.727
 3521SOL    HW111462   4.781   2.014   6.687
 3521SOL    HW211463   4.894   1.928   6.767
 3522SOL     OW11464   0.295   4.729   1.976
 3522SOL    HW111465   0.336   4.655   2.029
 3522SOL    HW211466   0.363   4.763   1.911
 3523SOL     OW11467   1.933   5.240   6.337
 3523SOL    HW111468   1.927   5.262   6.239
 3523SOL    HW211469   1.896   5.148   6.353
 3524SOL     OW11470   4.502   1.696   1.807
 3524SOL    HW111471   4.460   1.658   1.724
 3524SOL    HW211472   4.601   1.700   1.796
 3525SOL     OW11473   1.231   4.316   3.339
 3525SOL    HW111474   1.279   4.351   3.259
 3525SOL    HW211475   1.139   4.354   3.343
 3526SOL     OW11476   2.019   6.640   4.167
 3526SOL    HW111477   1.969   6.660   4.083
 3526SOL    HW211478   1.977   6.690   4.243
 3527SOL     OW11479   6.008   2.991   6.545
 3527SOL    HW111480   6.015   3.017   6.448
 3527SOL    HW211481   6.015   2.891   6.553
 3528SOL     OW11482   0.762   5.591   4.793
 3528SOL    HW111483   0.679   5.610   4.847
 3528SOL    HW211484   0.839   5.578   4.855
 3529SOL     OW11485   4.111   0.120   0.109
 3529SOL    HW111486   4.138   0.196   0.168
 3529SOL    HW211487   4.151   0.035   0.145
 3530SOL     OW11488   0.617   5.325   2.574
 3530SOL    HW111489   0.526   5.361   2.594
 3530SOL    HW211490   0.616   5.276   2.487
 3531SOL     OW11491   5.442   2.997   0.561
 3531SOL    HW111492   5.355   3.031   0.594
 3531SOL    HW211493   5.462   3.039   0.472
 3532SOL     OW11494   3.019   0.715   1.929
 3532SOL    HW111495   2.970   0.803   1.925
 3532SOL    HW211496   3.114   0.729   1.902
 3533SOL     OW11497   1.982   1.793   2.555
 3533SOL    HW111498   1.909   1.761   2.495
 3533SOL    HW211499   1.999   1.725   2.627
 3534SOL     OW11500   5.938   0.667   6.361
 3534SOL    HW111501   5.928   0.728   6.440
 3534SOL    HW211502   5.874   0.591   6.370
 3535SOL     OW11503   1.557   5.722   0.626
 3535SOL    HW111504   1.565   5.628   0.595
 3535SOL    HW211505   1.646   5.768   0.618
 3536SOL     OW11506   2.551   2.257   3.157
 3536SOL    HW111507   2.593   2.171   3.130
 3536SOL    HW211508   2.592   2.289   3.243
 3537SOL     OW11509   3.398   5.494   1.358
 3537SOL    HW111510   3.401   5.397   1.337
 3537SOL    HW211511   3.448   5.512   1.443
 3538SOL     OW11512   0.992   0.306   6.199
 3538SOL    HW111513   0.950   0.351   6.121
 3538SOL    HW211514   1.091   0.299   6.185
 3539SOL     OW11515   5.666   3.360   5.982
 3539SOL    HW111516   5.573   3.355   6.018
 3539SOL    HW211517   5.665   3.408   5.894
 3540SOL     OW11518   2.480   2.334   5.849
 3540SOL    HW111519   2.388   2.306   5.878
 3540SOL    HW211520   2.485   2.434   5.849
 3541SOL     OW11521   1.583   2.318   6.520
 3541SOL    HW111522   1.652   2.383   6.551
 3541SOL    HW211523   1.543   2.350   6.434
 3542SOL     OW11524   1.682   4.963   2.372
 3542SOL    HW111525   1.629   5.004   2.298
 3542SOL    HW211526   1.695   4.866   2.354
 3543SOL     OW11527   0.605   2.247   5.016
 3543SOL    HW111528   0.686   2.295   4.981
 3543SOL    HW211529   0.574   2.180   4.948
 3544SOL     OW11530   2.800   3.902   6.119
 3544SOL    HW111531   2.766   3.811   6.140
 3544SOL    HW211532   2.900   3.901   6.119
 3545SOL     OW11533   4.168   5.413   0.561
 3545SOL    HW111534   4.176   5.512   0.557
 3545SOL    HW211535   4.075   5.389   0.588
 3546SOL     OW11536   0.688   3.775   3.908
 3546SOL    HW111537   0.776   3.734   3.931
 3546SOL    HW211538   0.702   3.852   3.845
 3547SOL     OW11539   6.633   4.888   5.119
 3547SOL    HW111540   6.718   4.867   5.070
 3547SOL    HW211541   6.556   4.885   5.056
 3548SOL     OW11542   5.743   0.486   5.722
 3548SOL    HW111543   5.696   0.509   5.637
 3548SOL    HW211544   5.831   0.533   5.725
 3549SOL     OW11545   6.947   4.408   5.783
 3549SOL    HW111546   0.004   4.397   5.729
 3549SOL    HW211547   6.886   4.474   5.738
 3550SOL     OW11548   5.529   3.234   3.526
 3550SOL    HW111549   5.627   3.248   3.536
 3550SOL    HW211550   5.511   3.182   3.443
 3551SOL     OW11551   3.278   1.947   2.544
 3551SOL    HW111552   3.356   2.009   2.544
 3551SOL    HW211553   3.193   2.001   2.551
 3552SOL     OW11554   6.261   6.600   1.701
 3552SOL    HW111555   6.210   6.570   1.620
 3552SOL    HW211556   6.205   6.662   1.754
 3553SOL     OW11557   4.457   5.379   0.981
 3553SOL    HW111558   4.525   5.378   0.907
 3553SOL    HW211559   4.439   5.474   1.008
 3554SOL     OW11560   4.484   2.170   1.292
 3554SOL    HW111561   4.391   2.154   1.325
 3554SOL    HW211562   4.533   2.084   1.286
 3555SOL     OW11563   0.374   4.332   3.928
 3555SOL    HW111564   0.386   4.242   3.969
 3555SOL    HW211565   0.324   4.323   3.842
 3556SOL     OW11566   4.055   1.505   4.279
 3556SOL    HW111567   4.074   1.503   4.181
 3556SOL    HW211568   4.132   1.465   4.328
 3557SOL     OW11569   1.150   1.497   4.288
 3557SOL    HW111570   1.166   1.425   4.356
 3557SOL    HW211571   1.096   1.460   4.212
 3558SOL     OW11572   1.247   6.083   2.286
 3558SOL    HW111573   1.151   6.059   2.274
 3558SOL    HW211574   1.293   6.085   2.197
 3559SOL     OW11575   0.493   6.108   5.519
 3559SOL    HW111576   0.571   6.118   5.582
 3559SOL    HW211577   0.500   6.020   5.472
 3560SOL     OW11578   1.277   5.781   2.587
 3560SOL    HW111579   1.330   5.836   2.522
 3560SOL    HW211580   1.212   5.840   2.635
 3561SOL     OW11581   4.276   4.697   4.722
 3561SOL    HW111582   4.224   4.758   4.781
 3561SOL    HW211583   4.310   4.619   4.775
 3562SOL     OW11584   4.378   1.668   3.403
 3562SOL    HW111585   4.385   1.578   3.358
 3562SOL    HW211586   4.291   1.711   3.378
 3563SOL     OW11587   5.536   1.461   0.247
 3563SOL    HW111588   5.449   1.463   0.296
 3563SOL    HW211589   5.560   1.367   0.225
 3564SOL     OW11590   1.319   4.662   3.355
 3564SOL    HW111591   1.289   4.589   3.293
 3564SOL    HW211592   1.246   4.680   3.422
 3565SOL     OW11593   2.609   5.644   4.862
 3565SOL    HW111594   2.670   5.705   4.810
 3565SOL    HW211595   2.597   5.559   4.812
 3566SOL     OW11596   0.094   3.663   5.807
 3566SOL    HW111597   0.163   3.721   5.850
 3566SOL    HW211598   0.024   3.720   5.765
 3567SOL     OW11599   0.075   2.907   6.792
 3567SOL    HW111600   7.026   2.844   6.774
 3567SOL    HW211601   0.087   2.918   6.891
 3568SOL     OW11602   4.864   5.113   4.052
 3568SOL    HW111603   4.846   5.189   3.989
 3568SOL    HW211604   4.961   5.091   4.050
 3569SOL     OW11605   1.891   1.697   5.896
 3569SOL    HW111606   1.811   1.696   5.955
 3569SOL    HW211607   1.918   1.603   5.874
 3570SOL     OW11608   5.408   0.542   5.610
 3570SOL    HW111609   5.377   0.603   5.538
 3570SOL    HW211610   5.472   0.590   5.670
 3571SOL     OW11611   0.941   5.505   4.994
 3571SOL    HW111612   0.863   5.460   5.036
 3571SOL    HW211613   1.019   5.442   4.993
 3572SOL     OW11614   5.798   3.588   3.186
 3572SOL    HW111615   5.885   3.634   3.200
 3572SOL    HW211616   5.723   3.651   3.205
 3573SOL     OW11617   0.306   5.186   3.612
 3573SOL    HW111618   0.263   5.166   3.700
 3573SOL    HW211619   0.310   5.285   3.599
 3574SOL     OW11620   0.639   3.418   0.697
 3574SOL    HW111621   0.594   3.350   0.754
 3574SOL    HW211622   0.733   3.389   0.679
 3575SOL     OW11623   5.514   5.424   2.260
 3575SOL    HW111624   5.510   5.389   2.166
 3575SOL    HW211625   5.609   5.440   2.286
 3576SOL     OW11626   0.668   2.626   6.206
 3576SOL    HW111627   0.758   2.586   6.222
 3576SOL    HW211628   0.670   2.723   6.233
 3577SOL     OW11629   1.425   1.929   6.527
 3577SOL    HW111630   1.362   1.851   6.530
 3577SOL    HW211631   1.482   1.929   6.610
 3578SOL     OW11632   3.831   1.736   0.156
 3578SOL    HW111633   3.757   1.796   0.187
 3578SOL    HW211634   3.891   1.787   0.094
 3579SOL     OW11635   0.363   2.189   3.511
 3579SOL    HW111636   0.436   2.196   3.578
 3579SOL    HW211637   0.304   2.270   3.517
 3580SOL     OW11638   6.572   3.474   1.739
 3580SOL    HW111639   6.594   3.506   1.831
 3580SOL    HW211640   6.482   3.429   1.740
 3581SOL     OW11641   1.262   5.434   3.521
 3581SOL    HW111642   1.207   5.513   3.493
 3581SOL    HW211643   1.203   5.354   3.531
 3582SOL     OW11644   1.378   3.520   6.505
 3582SOL    HW111645   1.293   3.500   6.457
 3582SOL    HW211646   1.444   3.446   6.489
 3583SOL     OW11647   1.150   4.580   6.366
 3583SOL    HW111648   1.136   4.664   6.419
 3583SOL    HW211649   1.066   4.557   6.317
 3584SOL     OW11650   5.331   4.806   6.233
 3584SOL    HW111651   5.238   4.776   6.255
 3584SOL    HW211652   5.375   4.839   6.316
 3585SOL     OW11653   3.053   1.159   4.482
 3585SOL    HW111654   2.967   1.161   4.430
 3585SOL    HW211655   3.124   1.113   4.428
 3586SOL     OW11656   6.309   1.499   4.656
 3586SOL    HW111657   6.218   1.537   4.646
 3586SOL    HW211658   6.373   1.570   4.686
 3587SOL     OW11659   2.103   4.813   5.632
 3587SOL    HW111660   2.203   4.813   5.640
 3587SOL    HW211661   2.076   4.779   5.542
 3588SOL     OW11662   1.030   2.952   5.324
 3588SOL    HW111663   1.084   3.035   5.338
 3588SOL    HW211664   0.941   2.977   5.287
 3589SOL     OW11665   5.334   0.689   5.407
 3589SOL    HW111666   5.336   0.784   5.376
 3589SOL    HW211667   5.278   0.635   5.345
 3590SOL     OW11668   0.864   3.615   0.526
 3590SOL    HW111669   0.872   3.642   0.430
 3590SOL    HW211670   0.778   3.650   0.563
 3591SOL     OW11671   5.458   4.116   6.857
 3591SOL    HW111672   5.522   4.154   6.789
 3591SOL    HW211673   5.365   4.148   6.837
 3592SOL     OW11674   0.671   5.192   1.955
 3592SOL    HW111675   0.740   5.132   1.996
 3592SOL    HW211676   0.696   5.212   1.861
 3593SOL     OW11677   0.769   5.353   5.149
 3593SOL    HW111678   0.808   5.389   5.233
 3593SOL    HW211679   0.801   5.259   5.134
 3594SOL     OW11680   5.061   6.620   3.311
 3594SOL    HW111681   5.028   6.684   3.241
 3594SOL    HW211682   5.147   6.653   3.349
 3595SOL     OW11683   4.476   6.206   6.381
 3595SOL    HW111684   4.427   6.169   6.302
 3595SOL    HW211685   4.432   6.173   6.465
 3596SOL     OW11686   6.310   3.009   2.633
 3596SOL    HW111687   6.291   3.010   2.534
 3596SOL    HW211688   6.292   2.918   2.669
 3597SOL     OW11689   1.795   2.179   5.628
 3597SOL    HW111690   1.829   2.126   5.550
 3597SOL    HW211691   1.856   2.166   5.706
 3598SOL     OW11692   0.991   5.819   6.387
 3598SOL    HW111693   0.951   5.879   6.318
 3598SOL    HW211694   1.066   5.867   6.433
 3599SOL     OW11695   5.847   2.548   6.646
 3599SOL    HW111696   5.892   2.460   6.665
 3599SOL    HW211697   5.783   2.537   6.570
 3600SOL     OW11698   0.584   3.225   1.649
 3600SOL    HW111699   0.526   3.278   1.710
 3600SOL    HW211700   0.613   3.283   1.572
 3601SOL     OW11701   5.139   3.292   6.251
 3601SOL    HW111702   5.187   3.325   6.333
 3601SOL    HW211703   5.093   3.369   6.207
 3602SOL     OW11704   1.287   3.560   0.754
 3602SOL    HW111705   1.194   3.593   0.737
 3602SOL    HW211706   1.304   3.478   0.700
 3603SOL     OW11707   3.416   1.305   3.857
 3603SOL    HW111708   3.381   1.393   3.826
 3603SOL    HW211709   3.502   1.319   3.906
 3604SOL     OW11710   6.574   6.095   3.288
 3604SOL    HW111711   6.603   6.091   3.193
 3604SOL    HW211712   6.649   6.129   3.345
 3605SOL     OW11713   6.526   4.123   4.402
 3605SOL    HW111714   6.459   4.149   4.471
 3605SOL    HW211715   6.513   4.027   4.377
 3606SOL     OW11716   0.816   0.610   4.482
 3606SOL    HW111717   0.748   0.675   4.517
 3606SOL    HW211718   0.901   0.622   4.533
 3607SOL     OW11719   5.355   5.299   1.882
 3607SOL    HW111720   5.438   5.276   1.831
 3607SOL    HW211721   5.364   5.263   1.975
 3608SOL     OW11722   4.678   2.150   4.631
 3608SOL    HW111723   4.687   2.079   4.701
 3608SOL    HW211724   4.765   2.161   4.584
 3609SOL     OW11725   1.158   0.451   4.251
 3609SOL    HW111726   1.212   0.493   4.323
 3609SOL    HW211727   1.127   0.521   4.187
 3610SOL     OW11728   1.618   6.864   6.035
 3610SOL    HW111729   1.671   6.785   6.068
 3610SOL    HW211730   1.569   6.838   5.952
 3611SOL     OW11731   4.526   4.868   4.760
 3611SOL    HW111732   4.443   4.812   4.755
 3611SOL    HW211733   4.606   4.808   4.758
 3612SOL     OW11734   0.136   0.071   0.223
 3612SOL    HW111735   0.167   0.004   0.290
 3612SOL    HW211736   0.181   0.054   0.135
 3613SOL     OW11737   4.862   4.568   2.094
 3613SOL    HW111738   4.770   4.528   2.088
 3613SOL    HW211739   4.871   4.617   2.181
 3614SOL     OW11740   3.776   3.468   0.755
 3614SOL    HW111741   3.760   3.566   0.746
 3614SOL    HW211742   3.829   3.451   0.838
 3615SOL     OW11743   4.964   3.862   6.172
 3615SOL    HW111744   5.061   3.881   6.191
 3615SOL    HW211745   4.944   3.767   6.194
 3616SOL     OW11746   0.462   1.849   6.517
 3616SOL    HW111747   0.473   1.777   6.448
 3616SOL    HW211748   0.385   1.826   6.576
 3617SOL     OW11749   4.501   1.023   0.129
 3617SOL    HW111750   4.553   0.980   0.203
 3617SOL    HW211751   4.523   0.977   0.042
 3618SOL     OW11752   2.466   2.942   5.699
 3618SOL    HW111753   2.367   2.947   5.687
 3618SOL    HW211754   2.487   2.918   5.794
 3619SOL     OW11755   6.011   2.832   4.687
 3619SOL    HW111756   6.030   2.767   4.761
 3619SOL    HW211757   6.013   2.784   4.599
 3620SOL     OW11758   6.348   5.981   5.555
 3620SOL    HW111759   6.306   6.038   5.484
 3620SOL    HW211760   6.277   5.931   5.604
 3621SOL     OW11761   3.309   2.848   5.097
 3621SOL    HW111762   3.251   2.900   5.035
 3621SOL    HW211763   3.329   2.903   5.178
 3622SOL     OW11764   0.961   1.880   6.668
 3622SOL    HW111765   0.997   1.941   6.597
 3622SOL    HW211766   0.861   1.884   6.667
 3623SOL     OW11767   6.694   6.379   4.990
 3623SOL    HW111768   6.713   6.281   5.002
 3623SOL    HW211769   6.771   6.423   4.943
 3624SOL     OW11770   1.695   6.844   2.099
 3624SOL    HW111771   1.693   6.877   2.005
 3624SOL    HW211772   1.669   6.919   2.161
 3625SOL     OW11773   0.259   3.116   6.735
 3625SOL    HW111774   0.177   3.063   6.759
 3625SOL    HW211775   0.297   3.157   6.818
 3626SOL     OW11776   1.748   2.722   5.442
 3626SOL    HW111777   1.755   2.788   5.517
 3626SOL    HW211778   1.652   2.712   5.415
 3627SOL     OW11779   3.786   3.426   1.677
 3627SOL    HW111780   3.815   3.332   1.658
 3627SOL    HW211781   3.809   3.450   1.771
 3628SOL     OW11782   1.245   1.219   2.418
 3628SOL    HW111783   1.241   1.125   2.383
 3628SOL    HW211784   1.332   1.234   2.464
 3629SOL     OW11785   0.351   1.147   5.572
 3629SOL    HW111786   0.309   1.235   5.595
 3629SOL    HW211787   0.386   1.150   5.478
 3630SOL     OW11788   5.265   2.319   4.125
 3630SOL    HW111789   5.249   2.232   4.171
 3630SOL    HW211790   5.247   2.394   4.189
 3631SOL     OW11791   1.999   0.795   3.273
 3631SOL    HW111792   2.097   0.784   3.291
 3631SOL    HW211793   1.965   0.876   3.321
 3632SOL     OW11794   5.469   5.574   0.991
 3632SOL    HW111795   5.494   5.531   1.078
 3632SOL    HW211796   5.538   5.551   0.922
 3633SOL     OW11797   4.086   2.013   5.551
 3633SOL    HW111798   4.122   2.089   5.604
 3633SOL    HW211799   4.058   1.939   5.612
 3634SOL     OW11800   1.643   5.307   5.802
 3634SOL    HW111801   1.700   5.353   5.734
 3634SOL    HW211802   1.650   5.208   5.789
 3635SOL     OW11803   3.582   0.040   1.077
 3635SOL    HW111804   3.522   6.998   1.120
 3635SOL    HW211805   3.610   0.108   1.145
 3636SOL     OW11806   7.003   6.033   0.851
 3636SOL    HW111807   0.013   5.961   0.793
 3636SOL    HW211808   0.038   6.049   0.928
 3637SOL     OW11809   0.320   2.652   1.948
 3637SOL    HW111810   0.227   2.654   1.909
 3637SOL    HW211811   0.367   2.570   1.914
 3638SOL     OW11812   0.616   4.051   3.168
 3638SOL    HW111813   0.535   4.105   3.189
 3638SOL    HW211814   0.617   3.969   3.225
 3639SOL     OW11815   4.119   5.691   0.556
 3639SOL    HW111816   4.021   5.703   0.542
 3639SOL    HW211817   4.165   5.779   0.541
 3640SOL     OW11818   4.018   1.102   0.218
 3640SOL    HW111819   4.059   1.056   0.139
 3640SOL    HW211820   3.919   1.103   0.208
 3641SOL     OW11821   5.935   3.573   2.133
 3641SOL    HW111822   5.980   3.512   2.068
 3641SOL    HW211823   5.842   3.542   2.150
 3642SOL     OW11824   5.299   2.131   6.836
 3642SOL    HW111825   5.222   2.196   6.835
 3642SOL    HW211826   5.385   2.181   6.834
 3643SOL     OW11827   2.396   5.756   4.600
 3643SOL    HW111828   2.385   5.749   4.501
 3643SOL    HW211829   2.419   5.666   4.638
 3644SOL     OW11830   1.769   1.744   1.993
 3644SOL    HW111831   1.813   1.654   2.000
 3644SOL    HW211832   1.829   1.814   2.031
 3645SOL     OW11833   1.579   2.026   3.995
 3645SOL    HW111834   1.653   2.082   4.032
 3645SOL    HW211835   1.493   2.076   4.001
 3646SOL     OW11836   1.737   4.146   5.895
 3646SOL    HW111837   1.800   4.073   5.869
 3646SOL    HW211838   1.764   4.184   5.983
 3647SOL     OW11839   2.483   6.284   6.668
 3647SOL    HW111840   2.541   6.288   6.587
 3647SOL    HW211841   2.465   6.188   6.691
 3648SOL     OW11842   4.432   5.984   2.393
 3648SOL    HW111843   4.454   5.960   2.488
 3648SOL    HW211844   4.401   6.079   2.389
 3649SOL     OW11845   6.209   3.084   1.400
 3649SOL    HW111846   6.265   3.010   1.363
 3649SOL    HW211847   6.161   3.052   1.482
 3650SOL     OW11848   6.786   5.179   1.935
 3650SOL    HW111849   6.819   5.251   1.997
 3650SOL    HW211850   6.686   5.173   1.940
 3651SOL     OW11851   0.821   0.649   4.194
 3651SOL    HW111852   0.908   0.674   4.151
 3651SOL    HW211853   0.834   0.642   4.293
 3652SOL     OW11854   6.244   0.137   3.305
 3652SOL    HW111855   6.197   0.077   3.370
 3652SOL    HW211856   6.342   0.118   3.307
 3653SOL     OW11857   0.896   1.326   2.979
 3653SOL    HW111858   0.923   1.238   3.018
 3653SOL    HW211859   0.921   1.328   2.882
 3654SOL     OW11860   4.014   4.896   0.368
 3654SOL    HW111861   4.014   4.817   0.429
 3654SOL    HW211862   4.076   4.878   0.292
 3655SOL     OW11863   3.289   0.102   3.768
 3655SOL    HW111864   3.326   0.035   3.705
 3655SOL    HW211865   3.212   0.062   3.818
 3656SOL     OW11866   0.525   5.223   1.506
 3656SOL    HW111867   0.524   5.201   1.408
 3656SOL    HW211868   0.471   5.305   1.522
 3657SOL     OW11869   5.156   5.493   5.541
 3657SOL    HW111870   5.171   5.580   5.493
 3657SOL    HW211871   5.084   5.505   5.609
 3658SOL     OW11872   2.590   4.827   6.553
 3658SOL    HW111873   2.507   4.869   6.590
 3658SOL    HW211874   2.608   4.742   6.602
 3659SOL     OW11875   2.133   2.539   6.101
 3659SOL    HW111876   2.114   2.605   6.029
 3659SOL    HW211877   2.218   2.491   6.081
 3660SOL     OW11878   5.742   6.229   3.937
 3660SOL    HW111879   5.667   6.243   3.871
 3660SOL    HW211880   5.784   6.140   3.921
 3661SOL     OW11881   0.019   0.488   4.994
 3661SOL    HW111882   0.101   0.518   4.946
 3661SOL    HW211883   0.003   0.547   5.073
 3662SOL     OW11884   4.190   0.426   4.563
 3662SOL    HW111885   4.122   0.432   4.636
 3662SOL    HW211886   4.281   0.444   4.602
 3663SOL     OW11887   1.677   2.942   0.578
 3663SOL    HW111888   1.751   3.010   0.583
 3663SOL    HW211889   1.620   2.948   0.660
 3664SOL     OW11890   4.684   2.150   1.826
 3664SOL    HW111891   4.612   2.095   1.868
 3664SOL    HW211892   4.722   2.213   1.893
 3665SOL     OW11893   1.035   6.191   4.840
 3665SOL    HW111894   1.084   6.137   4.908
 3665SOL    HW211895   0.937   6.189   4.860
 3666SOL     OW11896   1.307   4.142   2.955
 3666SOL    HW111897   1.256   4.091   3.024
 3666SOL    HW211898   1.254   4.222   2.926
 3667SOL     OW11899   0.440   1.442   3.608
 3667SOL    HW111900   0.476   1.450   3.515
 3667SOL    HW211901   0.383   1.521   3.630
 3668SOL     OW11902   1.180   1.062   1.473
 3668SOL    HW111903   1.176   1.140   1.536
 3668SOL    HW211904   1.108   0.997   1.497
 3669SOL     OW11905   5.400   1.824   3.464
 3669SOL    HW111906   5.498   1.844   3.460
 3669SOL    HW211907   5.380   1.743   3.409
 3670SOL     OW11908   2.231   5.335   6.675
 3670SOL    HW111909   2.325   5.360   6.651
 3670SOL    HW211910   2.167   5.394   6.625
 3671SOL     OW11911   0.131   1.969   4.275
 3671SOL    HW111912   0.041   1.944   4.309
 3671SOL    HW211913   0.167   1.894   4.219
 3672SOL     OW11914   4.719   1.984   2.157
 3672SOL    HW111915   4.784   1.908   2.161
 3672SOL    HW211916   4.650   1.965   2.088
 3673SOL     OW11917   3.715   5.995   6.877
 3673SOL    HW111918   3.737   6.046   6.961
 3673SOL    HW211919   3.690   5.901   6.901
 3674SOL     OW11920   1.723   5.674   5.979
 3674SOL    HW111921   1.771   5.725   5.907
 3674SOL    HW211922   1.790   5.638   6.043
 3675SOL     OW11923   1.908   2.441   4.369
 3675SOL    HW111924   1.834   2.414   4.430
 3675SOL    HW211925   1.909   2.541   4.360
 3676SOL     OW11926   6.490   4.393   2.767
 3676SOL    HW111927   6.580   4.386   2.724
 3676SOL    HW211928   6.429   4.324   2.728
 3677SOL     OW11929   2.857   6.503   4.284
 3677SOL    HW111930   2.765   6.474   4.257
 3677SOL    HW211931   2.897   6.434   4.344
 3678SOL     OW11932   1.481   1.525   4.569
 3678SOL    HW111933   1.574   1.500   4.592
 3678SOL    HW211934   1.481   1.597   4.500
 3679SOL     OW11935   6.955   0.477   3.154
 3679SOL    HW111936   0.012   0.490   3.100
 3679SOL    HW211937   6.897   0.558   3.146
 3680SOL     OW11938   5.168   2.350   3.870
 3680SOL    HW111939   5.208   2.312   3.953
 3680SOL    HW211940   5.163   2.278   3.800
 3681SOL     OW11941   0.870   1.081   6.688
 3681SOL    HW111942   0.910   1.046   6.773
 3681SOL    HW211943   0.913   1.169   6.665
 3682SOL     OW11944   5.764   2.765   0.324
 3682SOL    HW111945   5.821   2.698   0.277
 3682SOL    HW211946   5.820   2.845   0.348
 3683SOL     OW11947   0.221   1.612   4.352
 3683SOL    HW111948   0.202   1.619   4.254
 3683SOL    HW211949   0.134   1.614   4.402
 3684SOL     OW11950   1.017   5.444   0.272
 3684SOL    HW111951   0.930   5.433   0.224
 3684SOL    HW211952   1.063   5.527   0.240
 3685SOL     OW11953   2.057   5.794   6.195
 3685SOL    HW111954   2.077   5.725   6.125
 3685SOL    HW211955   2.091   5.883   6.164
 3686SOL     OW11956   6.148   4.866   4.607
 3686SOL    HW111957   6.161   4.831   4.700
 3686SOL    HW211958   6.071   4.819   4.565
 3687SOL     OW11959   3.866   6.177   4.291
 3687SOL    HW111960   3.927   6.223   4.356
 3687SOL    HW211961   3.912   6.171   4.202
 3688SOL     OW11962   6.825   2.791   0.048
 3688SOL    HW111963   6.901   2.732   0.021
 3688SOL    HW211964   6.850   2.842   0.131
 3689SOL     OW11965   1.932   0.575   5.592
 3689SOL    HW111966   1.932   0.487   5.639
 3689SOL    HW211967   1.838   0.606   5.578
 3690SOL     OW11968   3.901   5.945   0.246
 3690SOL    HW111969   3.874   5.862   0.198
 3690SOL    HW211970   3.849   5.953   0.332
 3691SOL     OW11971   2.509   1.667   0.073
 3691SOL    HW111972   2.525   1.655   0.171
 3691SOL    HW211973   2.456   1.590   0.038
 3692SOL     OW11974   6.257   5.273   5.525
 3692SOL    HW111975   6.319   5.304   5.453
 3692SOL    HW211976   6.287   5.183   5.558
 3693SOL     OW11977   2.139   2.999   3.154
 3693SOL    HW111978   2.216   2.983   3.216
 3693SOL    HW211979   2.071   2.927   3.167
 3694SOL     OW11980   0.834   6.421   2.186
 3694SOL    HW111981   0.927   6.403   2.218
 3694SOL    HW211982   0.818   6.371   2.101
 3695SOL     OW11983   5.474   2.643   1.176
 3695SOL    HW111984   5.386   2.604   1.205
 3695SOL    HW211985   5.543   2.626   1.247
 3696SOL     OW11986   3.839   0.214   4.299
 3696SOL    HW111987   3.829   0.253   4.391
 3696SOL    HW211988   3.891   0.129   4.305
 3697SOL     OW11989   0.097   5.934   2.775
 3697SOL    HW111990   0.047   6.020   2.767
 3697SOL    HW211991   0.166   5.942   2.847
 3698SOL     OW11992   2.359   0.948   3.475
 3698SOL    HW111993   2.299   1.019   3.439
 3698SOL    HW211994   2.450   0.985   3.491
 3699SOL     OW11995   1.742   1.263   3.521
 3699SOL    HW111996   1.783   1.224   3.438
 3699SOL    HW211997   1.661   1.209   3.546
 3700SOL     OW11998   1.651   4.841   4.946
 3700SOL    HW111999   1.738   4.842   4.896
 3700SOL    HW212000   1.580   4.803   4.889
 3701SOL     OW12001   1.567   0.089   3.860
 3701SOL    HW112002   1.565   0.172   3.804
 3701SOL    HW212003   1.605   0.013   3.806
 3702SOL     OW12004   5.772   6.408   3.549
 3702SOL    HW112005   5.846   6.419   3.483
 3702SOL    HW212006   5.720   6.325   3.528
 3703SOL     OW12007   6.930   0.789   6.622
 3703SOL    HW112008   6.886   0.771   6.534
 3703SOL    HW212009   7.002   0.721   6.638
 3704SOL     OW12010   3.973   2.098   1.461
 3704SOL    HW112011   3.923   2.185   1.450
 3704SOL    HW212012   3.993   2.084   1.558
 3705SOL     OW12013   5.473   4.032   4.737
 3705SOL    HW112014   5.536   4.096   4.693
 3705SOL    HW212015   5.521   3.977   4.805
 3706SOL     OW12016   0.275   3.841   6.714
 3706SOL    HW112017   0.300   3.760   6.767
 3706SOL    HW212018   0.298   3.923   6.766
 3707SOL     OW12019   5.215   5.406   4.943
 3707SOL    HW112020   5.293   5.416   4.881
 3707SOL    HW212021   5.134   5.383   4.890
 3708SOL     OW12022   5.528   6.919   1.010
 3708SOL    HW112023   5.448   6.867   0.981
 3708SOL    HW212024   5.500   7.012   1.035
 3709SOL     OW12025   3.647   6.829   1.592
 3709SOL    HW112026   3.595   6.914   1.585
 3709SOL    HW212027   3.718   6.828   1.522
 3710SOL     OW12028   6.383   5.415   5.305
 3710SOL    HW112029   6.474   5.428   5.265
 3710SOL    HW212030   6.314   5.454   5.246
 3711SOL     OW12031   1.674   5.496   5.257
 3711SOL    HW112032   1.611   5.432   5.300
 3711SOL    HW212033   1.654   5.588   5.288
 3712SOL     OW12034   0.939   5.079   6.448
 3712SOL    HW112035   0.930   5.155   6.383
 3712SOL    HW212036   0.893   4.998   6.411
 3713SOL     OW12037   0.492   0.104   5.210
 3713SOL    HW112038   0.545   0.103   5.295
 3713SOL    HW212039   0.509   0.019   5.160
 3714SOL     OW12040   5.612   5.803   6.328
 3714SOL    HW112041   5.691   5.846   6.374
 3714SOL    HW212042   5.571   5.868   6.265
 3715SOL     OW12043   1.089   4.121   2.671
 3715SOL    HW112044   1.171   4.101   2.725
 3715SOL    HW212045   1.043   4.201   2.709
 3716SOL     OW12046   5.913   6.626   4.590
 3716SOL    HW112047   5.852   6.547   4.586
 3716SOL    HW212048   6.007   6.595   4.603
 3717SOL     OW12049   5.721   0.337   0.156
 3717SOL    HW112050   5.745   0.260   0.216
 3717SOL    HW212051   5.800   0.397   0.147
 3718SOL     OW12052   6.893   0.488   0.487
 3718SOL    HW112053   6.815   0.508   0.428
 3718SOL    HW212054   6.882   0.398   0.527
 3719SOL     OW12055   4.910   2.996   0.492
 3719SOL    HW112056   4.881   2.912   0.537
 3719SOL    HW212057   4.996   2.981   0.444
 3720SOL     OW12058   5.736   2.979   0.608
 3720SOL    HW112059   5.765   2.930   0.691
 3720SOL    HW212060   5.639   3.002   0.616
 3721SOL     OW12061   6.869   5.346   1.391
 3721SOL    HW112062   6.897   5.358   1.487
 3721SOL    HW212063   6.783   5.296   1.387
 3722SOL     OW12064   5.667   6.125   1.032
 3722SOL    HW112065   5.568   6.136   1.024
 3722SOL    HW212066   5.690   6.028   1.031
 3723SOL     OW12067   5.176   5.009   0.643
 3723SOL    HW112068   5.256   5.046   0.596
 3723SOL    HW212069   5.143   5.076   0.710
 3724SOL     OW12070   1.751   4.334   5.304
 3724SOL    HW112071   1.810   4.287   5.238
 3724SOL    HW212072   1.740   4.429   5.277
 3725SOL     OW12073   0.122   5.354   6.575
 3725SOL    HW112074   0.105   5.256   6.574
 3725SOL    HW212075   0.157   5.381   6.665
 3726SOL     OW12076   5.668   3.169   6.260
 3726SOL    HW112077   5.602   3.111   6.308
 3726SOL    HW212078   5.643   3.175   6.163
 3727SOL     OW12079   6.754   2.177   5.443
 3727SOL    HW112080   6.672   2.184   5.386
 3727SOL    HW212081   6.835   2.176   5.385
 3728SOL     OW12082   1.102   3.163   6.580
 3728SOL    HW112083   1.150   3.122   6.502
 3728SOL    HW212084   1.005   3.171   6.560
 3729SOL     OW12085   1.820   1.233   4.349
 3729SOL    HW112086   1.745   1.200   4.407
 3729SOL    HW212087   1.806   1.203   4.255
 3730SOL     OW12088   3.230   5.734   5.367
 3730SOL    HW112089   3.313   5.680   5.351
 3730SOL    HW212090   3.150   5.677   5.346
 3731SOL     OW12091   0.048   1.590   0.311
 3731SOL    HW112092   0.131   1.551   0.269
 3731SOL    HW212093   0.074   1.661   0.376
 3732SOL     OW12094   2.366   2.056   0.198
 3732SOL    HW112095   2.441   2.090   0.254
 3732SOL    HW212096   2.399   2.033   0.107
 3733SOL     OW12097   1.864   2.864   3.179
 3733SOL    HW112098   1.888   2.847   3.083
 3733SOL    HW212099   1.764   2.862   3.189
 3734SOL     OW12100   5.257   0.075   0.858
 3734SOL    HW112101   5.271   7.008   0.826
 3734SOL    HW212102   5.253   0.076   0.958
 3735SOL     OW12103   3.130   0.548   2.809
 3735SOL    HW112104   3.042   0.561   2.856
 3735SOL    HW212105   3.163   0.637   2.777
 3736SOL     OW12106   0.498   1.370   1.105
 3736SOL    HW112107   0.420   1.426   1.133
 3736SOL    HW212108   0.489   1.345   1.009
 3737SOL     OW12109   5.683   1.476   3.944
 3737SOL    HW112110   5.758   1.541   3.942
 3737SOL    HW212111   5.655   1.459   4.038
 3738SOL     OW12112   6.363   0.418   1.598
 3738SOL    HW112113   6.302   0.388   1.671
 3738SOL    HW212114   6.363   0.350   1.524
 3739SOL     OW12115   2.280   5.109   1.081
 3739SOL    HW112116   2.197   5.110   1.026
 3739SOL    HW212117   2.262   5.150   1.170
 3740SOL     OW12118   6.500   0.255   0.654
 3740SOL    HW112119   6.524   0.272   0.749
 3740SOL    HW212120   6.561   0.186   0.615
 3741SOL     OW12121   4.998   2.907   6.267
 3741SOL    HW112122   5.069   2.955   6.215
 3741SOL    HW212123   4.925   2.971   6.291
 3742SOL     OW12124   3.674   1.351   6.975
 3742SOL    HW112125   3.622   1.286   6.920
 3742SOL    HW212126   3.684   1.317   0.043
 3743SOL     OW12127   5.771   3.269   0.624
 3743SOL    HW112128   5.829   3.188   0.629
 3743SOL    HW212129   5.807   3.331   0.554
 3744SOL     OW12130   0.966   6.273   1.571
 3744SOL    HW112131   0.869   6.276   1.593
 3744SOL    HW212132   1.005   6.366   1.577
 3745SOL     OW12133   4.444   4.490   2.868
 3745SOL    HW112134   4.436   4.489   2.768
 3745SOL    HW212135   4.528   4.445   2.895
 3746SOL     OW12136   6.983   0.243   3.809
 3746SOL    HW112137   6.991   0.329   3.758
 3746SOL    HW212138   7.001   0.260   3.906
 3747SOL     OW12139   3.807   5.708   5.234
 3747SOL    HW112140   3.710   5.689   5.249
 3747SOL    HW212141   3.861   5.625   5.252
 3748SOL     OW12142   5.391   1.135   1.722
 3748SOL    HW112143   5.405   1.141   1.623
 3748SOL    HW212144   5.471   1.094   1.764
 3749SOL     OW12145   2.907   4.849   2.993
 3749SOL    HW112146   2.925   4.849   3.091
 3749SOL    HW212147   2.839   4.919   2.971
 3750SOL     OW12148   6.465   4.689   0.985
 3750SOL    HW112149   6.558   4.663   0.958
 3750SOL    HW212150   6.461   4.705   1.083
 3751SOL     OW12151   6.481   3.575   0.983
 3751SOL    HW112152   6.441   3.483   0.993
 3751SOL    HW212153   6.521   3.604   1.070
 3752SOL     OW12154   0.288   6.734   0.227
 3752SOL    HW112155   0.351   6.811   0.215
 3752SOL    HW212156   0.340   6.650   0.239
 3753SOL     OW12157   0.447   1.191   3.743
 3753SOL    HW112158   0.468   1.281   3.704
 3753SOL    HW212159   0.355   1.163   3.714
 3754SOL     OW12160   3.971   6.751   1.100
 3754SOL    HW112161   3.924   6.836   1.123
 3754SOL    HW212162   3.904   6.683   1.068
 3755SOL     OW12163   5.438   5.521   4.132
 3755SOL    HW112164   5.347   5.548   4.163
 3755SOL    HW212165   5.446   5.421   4.137
 3756SOL     OW12166   2.163   6.009   6.063
 3756SOL    HW112167   2.232   6.053   6.121
 3756SOL    HW212168   2.201   5.991   5.973
 3757SOL     OW12169   3.827   6.668   6.573
 3757SOL    HW112170   3.887   6.658   6.652
 3757SOL    HW212171   3.802   6.577   6.539
 3758SOL     OW12172   2.168   1.654   5.005
 3758SOL    HW112173   2.128   1.692   4.921
 3758SOL    HW212174   2.248   1.600   4.982
 3759SOL     OW12175   4.378   5.808   6.273
 3759SOL    HW112176   4.372   5.726   6.216
 3759SOL    HW212177   4.474   5.827   6.293
 3760SOL     OW12178   1.803   2.032   4.685
 3760SOL    HW112179   1.854   2.108   4.643
 3760SOL    HW212180   1.854   1.998   4.764
 3761SOL     OW12181   0.832   1.005   5.427
 3761SOL    HW112182   0.817   0.961   5.516
 3761SOL    HW212183   0.893   0.948   5.372
 3762SOL     OW12184   1.250   4.543   0.140
 3762SOL    HW112185   1.223   4.636   0.117
 3762SOL    HW212186   1.346   4.528   0.114
 3763SOL     OW12187   6.958   4.571   0.413
 3763SOL    HW112188   0.027   4.552   0.437
 3763SOL    HW212189   6.939   4.668   0.430
 3764SOL     OW12190   1.589   6.708   4.316
 3764SOL    HW112191   1.608   6.761   4.233
 3764SOL    HW212192   1.628   6.755   4.395
 3765SOL     OW12193   5.088   0.926   0.962
 3765SOL    HW112194   5.048   0.915   0.871
 3765SOL    HW212195   5.019   0.962   1.025
 3766SOL     OW12196   1.130   1.484   3.465
 3766SOL    HW112197   1.215   1.533   3.444
 3766SOL    HW212198   1.115   1.413   3.396
 3767SOL     OW12199   2.463   4.464   0.780
 3767SOL    HW112200   2.522   4.479   0.859
 3767SOL    HW212201   2.506   4.399   0.718
 3768SOL     OW12202   2.176   5.808   4.780
 3768SOL    HW112203   2.248   5.760   4.728
 3768SOL    HW212204   2.110   5.847   4.716
 3769SOL     OW12205   5.850   6.204   5.552
 3769SOL    HW112206   5.773   6.185   5.490
 3769SOL    HW212207   5.923   6.137   5.536
 3770SOL     OW12208   1.899   0.390   6.618
 3770SOL    HW112209   1.809   0.347   6.609
 3770SOL    HW212210   1.967   0.320   6.637
 3771SOL     OW12211   5.881   3.209   0.216
 3771SOL    HW112212   5.798   3.252   0.181
 3771SOL    HW212213   5.961   3.263   0.188
 3772SOL     OW12214   6.746   0.995   0.433
 3772SOL    HW112215   6.697   0.968   0.350
 3772SOL    HW212216   6.781   0.914   0.479
 3773SOL     OW12217   6.521   2.859   6.105
 3773SOL    HW112218   6.618   2.836   6.110
 3773SOL    HW212219   6.490   2.851   6.010
 3774SOL     OW12220   0.115   5.534   0.214
 3774SOL    HW112221   0.055   5.611   0.235
 3774SOL    HW212222   0.095   5.500   0.122
 3775SOL     OW12223   5.096   5.084   2.216
 3775SOL    HW112224   5.184   5.102   2.258
 3775SOL    HW212225   5.053   5.170   2.190
 3776SOL     OW12226   4.087   1.428   1.087
 3776SOL    HW112227   4.130   1.388   1.006
 3776SOL    HW212228   4.096   1.527   1.085
 3777SOL     OW12229   3.514   4.881   4.419
 3777SOL    HW112230   3.587   4.899   4.353
 3777SOL    HW212231   3.443   4.825   4.375
 3778SOL     OW12232   3.234   5.001   2.386
 3778SOL    HW112233   3.262   5.005   2.481
 3778SOL    HW212234   3.139   4.973   2.380
 3779SOL     OW12235   2.068   5.281   0.892
 3779SOL    HW112236   2.096   5.351   0.957
 3779SOL    HW212237   2.034   5.325   0.808
 3780SOL     OW12238   5.363   6.073   5.828
 3780SOL    HW112239   5.359   5.976   5.854
 3780SOL    HW212240   5.319   6.128   5.898
 3781SOL     OW12241   1.239   6.749   4.334
 3781SOL    HW112242   1.312   6.768   4.399
 3781SOL    HW212243   1.259   6.794   4.247
 3782SOL     OW12244   2.823   0.889   4.143
 3782SOL    HW112245   2.835   0.934   4.054
 3782SOL    HW212246   2.728   0.859   4.152
 3783SOL     OW12247   5.493   5.267   4.100
 3783SOL    HW112248   5.568   5.229   4.047
 3783SOL    HW212249   5.433   5.193   4.132
 3784SOL     OW12250   4.871   2.677   2.679
 3784SOL    HW112251   4.809   2.670   2.601
 3784SOL    HW212252   4.897   2.585   2.709
 3785SOL     OW12253   1.252   1.586   6.910
 3785SOL    HW112254   1.294   1.672   6.939
 3785SOL    HW212255   1.185   1.557   6.978
 3786SOL     OW12256   2.008   6.561   2.687
 3786SOL    HW112257   1.998   6.659   2.703
 3786SOL    HW212258   1.941   6.530   2.620
 3787SOL     OW12259   6.216   0.312   2.278
 3787SOL    HW112260   6.265   0.266   2.204
 3787SOL    HW212261   6.207   0.409   2.256
 3788SOL     OW12262   1.157   4.230   4.346
 3788SOL    HW112263   1.219   4.194   4.416
 3788SOL    HW212264   1.076   4.267   4.390
 3789SOL     OW12265   0.342   3.505   5.320
 3789SOL    HW112266   0.278   3.510   5.397
 3789SOL    HW212267   0.436   3.514   5.354
 3790SOL     OW12268   1.693   4.793   5.385
 3790SOL    HW112269   1.690   4.695   5.369
 3790SOL    HW212270   1.628   4.817   5.457
 3791SOL     OW12271   6.104   0.194   0.503
 3791SOL    HW112272   6.134   0.283   0.468
 3791SOL    HW212273   6.108   0.127   0.429
 3792SOL     OW12274   0.877   1.704   4.595
 3792SOL    HW112275   0.819   1.755   4.659
 3792SOL    HW212276   0.857   1.606   4.603
 3793SOL     OW12277   4.310   6.878   2.478
 3793SOL    HW112278   4.378   6.903   2.409
 3793SOL    HW212279   4.309   6.947   2.550
 3794SOL     OW12280   2.417   4.168   1.059
 3794SOL    HW112281   2.357   4.247   1.045
 3794SOL    HW212282   2.511   4.193   1.034
 3795SOL     OW12283   4.430   5.918   6.573
 3795SOL    HW112284   4.369   5.934   6.495
 3795SOL    HW212285   4.378   5.918   6.658
 3796SOL     OW12286   2.735   1.411   1.261
 3796SOL    HW112287   2.644   1.426   1.223
 3796SOL    HW212288   2.734   1.329   1.319
 3797SOL     OW12289   0.299   4.227   2.635
 3797SOL    HW112290   0.352   4.166   2.576
 3797SOL    HW212291   0.257   4.299   2.579
 3798SOL     OW12292   3.379   5.520   2.443
 3798SOL    HW112293   3.473   5.519   2.406
 3798SOL    HW212294   3.372   5.592   2.512
 3799SOL     OW12295   0.719   2.382   4.349
 3799SOL    HW112296   0.735   2.452   4.279
 3799SOL    HW212297   0.674   2.424   4.428
 3800SOL     OW12298   5.449   3.297   4.485
 3800SOL    HW112299   5.541   3.312   4.522
 3800SOL    HW212300   5.381   3.306   4.557
 3801SOL     OW12301   6.348   6.487   2.647
 3801SOL    HW112302   6.295   6.406   2.669
 3801SOL    HW212303   6.349   6.549   2.726
 3802SOL     OW12304   1.177   2.288   2.679
 3802SOL    HW112305   1.258   2.324   2.634
 3802SOL    HW212306   1.114   2.250   2.611
 3803SOL     OW12307   3.597   2.212   1.441
 3803SOL    HW112308   3.680   2.261   1.415
 3803SOL    HW212309   3.558   2.253   1.524
 3804SOL     OW12310   5.354   1.330   3.642
 3804SOL    HW112311   5.296   1.249   3.643
 3804SOL    HW212312   5.297   1.412   3.633
 3805SOL     OW12313   2.944   3.070   1.829
 3805SOL    HW112314   2.976   3.028   1.744
 3805SOL    HW212315   2.889   3.151   1.808
 3806SOL     OW12316   3.749   4.227   6.617
 3806SOL    HW112317   3.752   4.152   6.551
 3806SOL    HW212318   3.672   4.287   6.595
 3807SOL     OW12319   2.107   6.397   3.532
 3807SOL    HW112320   2.133   6.301   3.542
 3807SOL    HW212321   2.009   6.408   3.546
 3808SOL     OW12322   4.921   0.098   1.043
 3808SOL    HW112323   4.939   0.093   1.141
 3808SOL    HW212324   4.962   0.181   1.006
 3809SOL     OW12325   5.781   2.888   0.883
 3809SOL    HW112326   5.859   2.890   0.945
 3809SOL    HW212327   5.699   2.858   0.932
 3810SOL     OW12328   4.736   2.681   4.751
 3810SOL    HW112329   4.819   2.732   4.774
 3810SOL    HW212330   4.715   2.694   4.654
 3811SOL     OW12331   1.022   4.047   4.199
 3811SOL    HW112332   1.007   4.101   4.117
 3811SOL    HW212333   1.083   4.096   4.262
 3812SOL     OW12334   5.442   7.006   5.496
 3812SOL    HW112335   5.417   0.077   5.501
 3812SOL    HW212336   5.434   6.976   5.401
 3813SOL     OW12337   4.621   4.309   0.248
 3813SOL    HW112338   4.535   4.276   0.287
 3813SOL    HW212339   4.628   4.279   0.153
 3814SOL     OW12340   0.120   6.686   0.418
 3814SOL    HW112341   0.160   6.714   0.505
 3814SOL    HW212342   0.169   6.730   0.343
 3815SOL     OW12343   4.382   3.073   6.989
 3815SOL    HW112344   4.364   3.161   0.006
 3815SOL    HW212345   4.466   3.033   0.001
 3816SOL     OW12346   0.629   5.929   0.100
 3816SOL    HW112347   0.725   5.932   0.072
 3816SOL    HW212348   0.587   5.845   0.066
 3817SOL     OW12349   5.321   3.559   2.876
 3817SOL    HW112350   5.289   3.597   2.789
 3817SOL    HW212351   5.280   3.469   2.889
 3818SOL     OW12352   5.413   0.407   0.351
 3818SOL    HW112353   5.331   0.461   0.367
 3818SOL    HW212354   5.397   0.344   0.274
 3819SOL     OW12355   5.103   5.539   1.408
 3819SOL    HW112356   5.131   5.443   1.409
 3819SOL    HW212357   5.005   5.546   1.424
 3820SOL     OW12358   6.422   6.677   3.138
 3820SOL    HW112359   6.476   6.593   3.135
 3820SOL    HW212360   6.413   6.708   3.232
 3821SOL     OW12361   2.875   2.016   1.066
 3821SOL    HW112362   2.834   1.934   1.026
 3821SOL    HW212363   2.804   2.071   1.109
 3822SOL     OW12364   1.071   6.498   2.649
 3822SOL    HW112365   1.150   6.513   2.709
 3822SOL    HW212366   1.070   6.404   2.616
 3823SOL     OW12367   3.036   2.677   6.052
 3823SOL    HW112368   3.132   2.703   6.064
 3823SOL    HW212369   3.029   2.607   5.981
 3824SOL     OW12370   5.936   2.155   0.270
 3824SOL    HW112371   5.864   2.087   0.286
 3824SOL    HW212372   6.024   2.109   0.266
 3825SOL     OW12373   0.733   6.362   0.593
 3825SOL    HW112374   0.639   6.356   0.627
 3825SOL    HW212375   0.790   6.296   0.642
 3826SOL     OW12376   0.691   2.972   0.270
 3826SOL    HW112377   0.691   2.887   0.218
 3826SOL    HW212378   0.615   3.030   0.242
 3827SOL     OW12379   2.810   2.803   1.012
 3827SOL    HW112380   2.762   2.890   1.010
 3827SOL    HW212381   2.904   2.817   1.041
 3828SOL     OW12382   3.720   2.636   1.753
 3828SOL    HW112383   3.745   2.546   1.788
 3828SOL    HW212384   3.677   2.626   1.663
 3829SOL     OW12385   1.999   4.672   4.510
 3829SOL    HW112386   2.060   4.638   4.582
 3829SOL    HW212387   1.919   4.613   4.504
 3830SOL     OW12388   0.519   0.190   4.443
 3830SOL    HW112389   0.565   0.240   4.370
 3830SOL    HW212390   0.421   0.210   4.439
 3831SOL     OW12391   4.818   1.637   2.292
 3831SOL    HW112392   4.898   1.698   2.283
 3831SOL    HW212393   4.833   1.556   2.236
 3832SOL     OW12394   5.543   0.376   2.614
 3832SOL    HW112395   5.592   0.463   2.621
 3832SOL    HW212396   5.597   0.303   2.655
 3833SOL     OW12397   0.610   5.926   6.215
 3833SOL    HW112398   0.670   5.864   6.165
 3833SOL    HW212399   0.527   5.943   6.162
 3834SOL     OW12400   4.116   2.952   1.061
 3834SOL    HW112401   4.049   2.974   0.990
 3834SOL    HW212402   4.074   2.959   1.151
 3835SOL     OW12403   3.032   5.629   4.918
 3835SOL    HW112404   3.123   5.588   4.920
 3835SOL    HW212405   2.999   5.632   4.824
 3836SOL     OW12406   1.481   4.020   5.927
 3836SOL    HW112407   1.559   3.996   5.986
 3836SOL    HW212408   1.474   4.119   5.921
 3837SOL     OW12409   4.851   3.508   6.722
 3837SOL    HW112410   4.878   3.543   6.811
 3837SOL    HW212411   4.804   3.421   6.732
 3838SOL     OW12412   0.205   3.054   4.404
 3838SOL    HW112413   0.169   3.135   4.358
 3838SOL    HW212414   0.276   3.081   4.469
 3839SOL     OW12415   3.798   0.252   4.591
 3839SOL    HW112416   3.703   0.227   4.610
 3839SOL    HW212417   3.829   0.320   4.657
 3840SOL     OW12418   2.199   1.406   5.331
 3840SOL    HW112419   2.134   1.410   5.254
 3840SOL    HW212420   2.155   1.441   5.414
 3841SOL     OW12421   0.289   3.140   5.269
 3841SOL    HW112422   0.227   3.215   5.292
 3841SOL    HW212423   0.381   3.176   5.253
 3842SOL     OW12424   0.686   3.916   6.869
 3842SOL    HW112425   0.654   3.891   6.778
 3842SOL    HW212426   0.761   3.982   6.860
 3843SOL     OW12427   6.844   4.335   2.161
 3843SOL    HW112428   6.869   4.336   2.064
 3843SOL    HW212429   6.766   4.397   2.176
 3844SOL     OW12430   6.833   3.684   6.024
 3844SOL    HW112431   6.902   3.687   6.097
 3844SOL    HW212432   6.780   3.600   6.031
 3845SOL     OW12433   3.854   2.966   3.092
 3845SOL    HW112434   3.775   2.978   3.152
 3845SOL    HW212435   3.916   3.044   3.103
 3846SOL     OW12436   1.061   4.660   4.070
 3846SOL    HW112437   1.070   4.562   4.087
 3846SOL    HW212438   0.970   4.691   4.099
 3847SOL     OW12439   5.903   0.491   5.054
 3847SOL    HW112440   5.872   0.397   5.035
 3847SOL    HW212441   5.942   0.530   4.970
 3848SOL     OW12442   3.148   5.412   2.566
 3848SOL    HW112443   3.071   5.446   2.512
 3848SOL    HW212444   3.220   5.482   2.568
 3849SOL     OW12445   0.879   1.622   5.281
 3849SOL    HW112446   0.849   1.587   5.369
 3849SOL    HW212447   0.886   1.722   5.285
 3850SOL     OW12448   2.697   3.607   1.349
 3850SOL    HW112449   2.778   3.595   1.293
 3850SOL    HW212450   2.663   3.700   1.340
 3851SOL     OW12451   1.609   4.693   3.068
 3851SOL    HW112452   1.576   4.701   2.974
 3851SOL    HW212453   1.678   4.621   3.073
 3852SOL     OW12454   4.818   6.644   4.418
 3852SOL    HW112455   4.913   6.615   4.406
 3852SOL    HW212456   4.802   6.727   4.365
 3853SOL     OW12457   1.693   2.945   2.876
 3853SOL    HW112458   1.616   2.894   2.915
 3853SOL    HW212459   1.741   2.886   2.811
 3854SOL     OW12460   1.643   3.539   2.823
 3854SOL    HW112461   1.564   3.536   2.761
 3854SOL    HW212462   1.628   3.474   2.898
 3855SOL     OW12463   4.619   6.345   6.674
 3855SOL    HW112464   4.693   6.364   6.610
 3855SOL    HW212465   4.549   6.289   6.630
 3856SOL     OW12466   6.721   6.108   5.417
 3856SOL    HW112467   6.701   6.175   5.488
 3856SOL    HW212468   6.643   6.100   5.355
 3857SOL     OW12469   1.064   5.814   6.066
 3857SOL    HW112470   1.126   5.764   6.126
 3857SOL    HW212471   1.074   5.781   5.972
 3858SOL     OW12472   1.654   5.897   5.532
 3858SOL    HW112473   1.708   5.875   5.614
 3858SOL    HW212474   1.691   5.848   5.454
 3859SOL     OW12475   6.497   2.231   3.312
 3859SOL    HW112476   6.560   2.305   3.286
 3859SOL    HW212477   6.415   2.236   3.256
 3860SOL     OW12478   0.909   0.686   5.629
 3860SOL    HW112479   0.827   0.727   5.590
 3860SOL    HW212480   0.976   0.672   5.556
 3861SOL     OW12481   4.976   4.312   1.777
 3861SOL    HW112482   4.897   4.261   1.810
 3861SOL    HW212483   4.946   4.394   1.729
 3862SOL     OW12484   0.545   6.848   4.729
 3862SOL    HW112485   0.511   6.766   4.775
 3862SOL    HW212486   0.479   6.878   4.661
 3863SOL     OW12487   4.022   3.789   6.233
 3863SOL    HW112488   4.022   3.783   6.133
 3863SOL    HW212489   4.113   3.767   6.267
 3864SOL     OW12490   3.817   1.706   5.058
 3864SOL    HW112491   3.861   1.618   5.040
 3864SOL    HW212492   3.868   1.754   5.129
 3865SOL     OW12493   4.045   0.346   1.299
 3865SOL    HW112494   3.988   0.407   1.245
 3865SOL    HW212495   4.057   0.260   1.249
 3866SOL     OW12496   4.247   0.750   1.028
 3866SOL    HW112497   4.316   0.809   0.988
 3866SOL    HW212498   4.163   0.754   0.974
 3867SOL     OW12499   1.623   3.479   3.790
 3867SOL    HW112500   1.680   3.402   3.815
 3867SOL    HW212501   1.560   3.452   3.717
 3868SOL     OW12502   2.375   6.504   1.342
 3868SOL    HW112503   2.391   6.516   1.440
 3868SOL    HW212504   2.461   6.484   1.296
 3869SOL     OW12505   6.940   3.079   4.633
 3869SOL    HW112506   6.959   2.988   4.597
 3869SOL    HW212507   6.955   3.147   4.562
 3870SOL     OW12508   4.753   4.726   0.445
 3870SOL    HW112509   4.821   4.798   0.452
 3870SOL    HW212510   4.679   4.755   0.385
 3871SOL     OW12511   4.094   0.984   2.662
 3871SOL    HW112512   4.159   0.930   2.608
 3871SOL    HW212513   4.097   0.953   2.757
 3872SOL     OW12514   3.235   2.977   2.062
 3872SOL    HW112515   3.281   3.014   1.981
 3872SOL    HW212516   3.303   2.955   2.132
 3873SOL     OW12517   6.718   5.653   1.347
 3873SOL    HW112518   6.738   5.574   1.288
 3873SOL    HW212519   6.638   5.701   1.312
 3874SOL     OW12520   4.151   5.941   0.132
 3874SOL    HW112521   4.226   5.946   0.198
 3874SOL    HW212522   4.067   5.914   0.179
 3875SOL     OW12523   1.345   3.352   2.231
 3875SOL    HW112524   1.253   3.358   2.271
 3875SOL    HW212525   1.404   3.299   2.292
 3876SOL     OW12526   5.710   5.662   6.748
 3876SOL    HW112527   5.783   5.700   6.804
 3876SOL    HW212528   5.750   5.623   6.664
 3877SOL     OW12529   6.705   2.195   0.477
 3877SOL    HW112530   6.738   2.212   0.570
 3877SOL    HW212531   6.673   2.101   0.469
 3878SOL     OW12532   2.254   6.240   5.547
 3878SOL    HW112533   2.189   6.232   5.623
 3878SOL    HW212534   2.224   6.182   5.471
 3879SOL     OW12535   4.285   6.508   1.542
 3879SOL    HW112536   4.205   6.506   1.483
 3879SOL    HW212537   4.355   6.567   1.502
 3880SOL     OW12538   5.449   3.978   3.461
 3880SOL    HW112539   5.509   3.992   3.541
 3880SOL    HW212540   5.382   4.052   3.457
 3881SOL     OW12541   1.397   4.903   0.328
 3881SOL    HW112542   1.378   4.956   0.246
 3881SOL    HW212543   1.463   4.952   0.385
 3882SOL     OW12544   6.531   1.055   5.019
 3882SOL    HW112545   6.504   1.113   5.095
 3882SOL    HW212546   6.510   1.100   4.932
 3883SOL     OW12547   4.453   1.294   3.779
 3883SOL    HW112548   4.552   1.287   3.786
 3883SOL    HW212549   4.420   1.228   3.711
 3884SOL     OW12550   0.827   5.708   4.549
 3884SOL    HW112551   0.765   5.671   4.618
 3884SOL    HW212552   0.877   5.786   4.587
 3885SOL     OW12553   6.248   0.944   4.679
 3885SOL    HW112554   6.300   1.030   4.673
 3885SOL    HW212555   6.295   0.873   4.627
 3886SOL     OW12556   6.436   0.053   5.129
 3886SOL    HW112557   6.370   7.004   5.124
 3886SOL    HW212558   6.426   0.111   5.048
 3887SOL     OW12559   5.297   2.188   5.638
 3887SOL    HW112560   5.378   2.178   5.580
 3887SOL    HW212561   5.311   2.138   5.723
 3888SOL     OW12562   0.258   0.408   6.108
 3888SOL    HW112563   0.357   0.403   6.093
 3888SOL    HW212564   0.226   0.322   6.148
 3889SOL     OW12565   6.872   3.663   6.860
 3889SOL    HW112566   6.804   3.592   6.879
 3889SOL    HW212567   6.826   3.752   6.857
 3890SOL     OW12568   6.847   6.481   3.077
 3890SOL    HW112569   6.800   6.570   3.072
 3890SOL    HW212570   6.779   6.408   3.078
 3891SOL     OW12571   5.497   4.396   4.703
 3891SOL    HW112572   5.455   4.486   4.714
 3891SOL    HW212573   5.543   4.391   4.614
 3892SOL     OW12574   1.019   0.112   2.198
 3892SOL    HW112575   1.059   0.163   2.275
 3892SOL    HW212576   0.929   0.077   2.224
 3893SOL     OW12577   3.434   5.737   2.194
 3893SOL    HW112578   3.357   5.693   2.148
 3893SOL    HW212579   3.491   5.667   2.237
 3894SOL     OW12580   3.461   2.240   1.167
 3894SOL    HW112581   3.427   2.334   1.166
 3894SOL    HW212582   3.421   2.192   1.245
 3895SOL     OW12583   0.889   1.091   5.700
 3895SOL    HW112584   0.790   1.081   5.712
 3895SOL    HW212585   0.911   1.188   5.686
 3896SOL     OW12586   0.574   2.651   5.920
 3896SOL    HW112587   0.674   2.656   5.920
 3896SOL    HW212588   0.537   2.735   5.880
 3897SOL     OW12589   2.755   6.810   2.318
 3897SOL    HW112590   2.793   6.724   2.285
 3897SOL    HW212591   2.824   6.858   2.373
 3898SOL     OW12592   3.402   2.931   3.384
 3898SOL    HW112593   3.314   2.924   3.338
 3898SOL    HW212594   3.395   2.998   3.459
 3899SOL     OW12595   4.982   1.208   4.831
 3899SOL    HW112596   4.938   1.140   4.772
 3899SOL    HW212597   5.069   1.171   4.865
 3900SOL     OW12598   5.819   2.840   3.510
 3900SOL    HW112599   5.741   2.778   3.502
 3900SOL    HW212600   5.833   2.864   3.606
 3901SOL     OW12601   1.821   6.195   5.880
 3901SOL    HW112602   1.790   6.287   5.903
 3901SOL    HW212603   1.891   6.166   5.944
 3902SOL     OW12604   4.695   4.337   2.414
 3902SOL    HW112605   4.715   4.316   2.318
 3902SOL    HW212606   4.769   4.302   2.472
 3903SOL     OW12607   4.212   4.041   6.412
 3903SOL    HW112608   4.162   3.998   6.488
 3903SOL    HW212609   4.147   4.084   6.350
 3904SOL     OW12610   0.826   6.943   6.808
 3904SOL    HW112611   0.846   6.901   6.896
 3904SOL    HW212612   0.871   0.005   6.801
 3905SOL     OW12613   6.213   6.722   6.576
 3905SOL    HW112614   6.243   6.629   6.597
 3905SOL    HW212615   6.208   6.735   6.477
 3906SOL     OW12616   2.146   4.909   4.789
 3906SOL    HW112617   2.198   4.992   4.770
 3906SOL    HW212618   2.208   4.836   4.816
 3907SOL     OW12619   0.711   1.051   5.033
 3907SOL    HW112620   0.636   0.991   5.004
 3907SOL    HW212621   0.742   1.104   4.954
 3908SOL     OW12622   0.414   0.673   6.391
 3908SOL    HW112623   0.423   0.722   6.478
 3908SOL    HW212624   0.410   0.574   6.409
 3909SOL     OW12625   5.223   3.942   6.166
 3909SOL    HW112626   5.233   4.041   6.161
 3909SOL    HW212627   5.313   3.899   6.173
 3910SOL     OW12628   3.808   4.049   1.949
 3910SOL    HW112629   3.749   4.118   1.992
 3910SOL    HW212630   3.871   4.012   2.018
 3911SOL     OW12631   5.723   0.467   0.978
 3911SOL    HW112632   5.698   0.530   1.051
 3911SOL    HW212633   5.655   0.394   0.972
 3912SOL     OW12634   3.188   1.478   5.956
 3912SOL    HW112635   3.257   1.408   5.941
 3912SOL    HW212636   3.181   1.537   5.875
 3913SOL     OW12637   3.532   5.717   6.885
 3913SOL    HW112638   3.451   5.763   6.847
 3913SOL    HW212639   3.528   5.717   6.984
 3914SOL     OW12640   5.247   1.361   1.719
 3914SOL    HW112641   5.279   1.430   1.653
 3914SOL    HW212642   5.278   1.271   1.689
 3915SOL     OW12643   3.492   6.748   0.039
 3915SOL    HW112644   3.447   6.708   6.986
 3915SOL    HW212645   3.487   6.684   0.116
 3916SOL     OW12646   2.998   6.894   2.913
 3916SOL    HW112647   3.098   6.901   2.912
 3916SOL    HW212648   2.959   6.976   2.955
 3917SOL     OW12649   2.812   5.302   0.085
 3917SOL    HW112650   2.819   5.399   0.063
 3917SOL    HW212651   2.851   5.248   0.010
 3918SOL     OW12652   4.621   1.246   0.368
 3918SOL    HW112653   4.532   1.204   0.384
 3918SOL    HW212654   4.636   1.255   0.269
 3919SOL     OW12655   4.049   0.907   0.650
 3919SOL    HW112656   4.148   0.895   0.660
 3919SOL    HW212657   4.030   0.986   0.592
 3920SOL     OW12658   1.998   1.375   6.630
 3920SOL    HW112659   1.937   1.418   6.696
 3920SOL    HW212660   2.092   1.405   6.648
 3921SOL     OW12661   6.681   2.922   6.883
 3921SOL    HW112662   6.705   2.882   6.795
 3921SOL    HW212663   6.740   2.885   6.954
 3922SOL     OW12664   4.616   5.204   1.666
 3922SOL    HW112665   4.569   5.191   1.754
 3922SOL    HW212666   4.598   5.125   1.607
 3923SOL     OW12667   5.869   1.609   1.070
 3923SOL    HW112668   5.838   1.578   1.160
 3923SOL    HW212669   5.790   1.633   1.014
 3924SOL     OW12670   0.383   4.173   3.230
 3924SOL    HW112671   0.334   4.260   3.225
 3924SOL    HW212672   0.340   4.113   3.297
 3925SOL     OW12673   4.499   4.192   0.903
 3925SOL    HW112674   4.486   4.214   1.000
 3925SOL    HW212675   4.409   4.184   0.859
 3926SOL     OW12676   0.827   0.344   5.979
 3926SOL    HW112677   0.831   0.389   5.890
 3926SOL    HW212678   0.858   0.249   5.971
 3927SOL     OW12679   0.828   3.162   3.934
 3927SOL    HW112680   0.889   3.235   3.903
 3927SOL    HW212681   0.883   3.087   3.971
 3928SOL     OW12682   2.799   6.687   2.594
 3928SOL    HW112683   2.839   6.775   2.619
 3928SOL    HW212684   2.707   6.702   2.557
 3929SOL     OW12685   6.949   1.522   0.041
 3929SOL    HW112686   6.917   1.573   0.122
 3929SOL    HW212687   6.891   1.442   0.028
 3930SOL     OW12688   1.116   1.972   4.010
 3930SOL    HW112689   1.164   1.960   4.097
 3930SOL    HW212690   1.141   1.899   3.947
 3931SOL     OW12691   1.895   1.932   1.646
 3931SOL    HW112692   1.915   1.836   1.664
 3931SOL    HW212693   1.935   1.989   1.718
 3932SOL     OW12694   2.381   5.491   4.069
 3932SOL    HW112695   2.455   5.459   4.011
 3932SOL    HW212696   2.361   5.587   4.050
 3933SOL     OW12697   0.823   5.704   0.243
 3933SOL    HW112698   0.779   5.794   0.238
 3933SOL    HW212699   0.879   5.690   0.162
 3934SOL     OW12700   0.268   2.033   3.059
 3934SOL    HW112701   0.358   1.990   3.054
 3934SOL    HW212702   0.270   2.109   3.124
 3935SOL     OW12703   6.182   2.564   6.344
 3935SOL    HW112704   6.221   2.651   6.314
 3935SOL    HW212705   6.087   2.558   6.314
 3936SOL     OW12706   6.437   5.699   5.162
 3936SOL    HW112707   6.446   5.722   5.259
 3936SOL    HW212708   6.522   5.656   5.131
 3937SOL     OW12709   0.358   5.417   2.603
 3937SOL    HW112710   0.318   5.438   2.514
 3937SOL    HW212711   0.313   5.336   2.641
 3938SOL     OW12712   6.891   3.270   4.808
 3938SOL    HW112713   6.899   3.192   4.746
 3938SOL    HW212714   6.927   3.352   4.763
 3939SOL     OW12715   1.870   0.890   2.718
 3939SOL    HW112716   1.906   0.947   2.792
 3939SOL    HW212717   1.787   0.844   2.748
 3940SOL     OW12718   3.101   4.797   2.008
 3940SOL    HW112719   3.114   4.855   2.089
 3940SOL    HW212720   3.024   4.735   2.024
 3941SOL     OW12721   6.238   7.006   4.640
 3941SOL    HW112722   6.260   6.964   4.728
 3941SOL    HW212723   6.192   6.939   4.582
 3942SOL     OW12724   1.585   6.119   5.972
 3942SOL    HW112725   1.615   6.121   6.067
 3942SOL    HW212726   1.658   6.153   5.913
 3943SOL     OW12727   1.322   3.554   1.762
 3943SOL    HW112728   1.308   3.527   1.857
 3943SOL    HW212729   1.378   3.485   1.716
 3944SOL     OW12730   5.331   2.868   5.840
 3944SOL    HW112731   5.324   2.967   5.856
 3944SOL    HW212732   5.343   2.822   5.928
 3945SOL     OW12733   0.944   2.543   3.045
 3945SOL    HW112734   0.927   2.522   2.949
 3945SOL    HW212735   1.020   2.488   3.079
 3946SOL     OW12736   6.968   3.338   6.990
 3946SOL    HW112737   6.902   3.264   7.002
 3946SOL    HW212738   6.930   3.407   6.928
 3947SOL     OW12739   5.874   5.461   0.375
 3947SOL    HW112740   5.791   5.411   0.352
 3947SOL    HW212741   5.849   5.552   0.410
 3948SOL     OW12742   1.797   3.798   6.885
 3948SOL    HW112743   1.856   3.878   6.902
 3948SOL    HW212744   1.790   3.744   6.969
 3949SOL     OW12745   6.649   6.964   2.936
 3949SOL    HW112746   6.659   0.035   2.960
 3949SOL    HW212747   6.596   6.956   2.852
 3950SOL     OW12748   4.242   4.058   1.722
 3950SOL    HW112749   4.183   3.999   1.776
 3950SOL    HW212750   4.299   4.113   1.783
 3951SOL     OW12751   0.676   2.908   6.178
 3951SOL    HW112752   0.733   2.960   6.242
 3951SOL    HW212753   0.695   2.936   6.085
 3952SOL     OW12754   5.748   2.539   4.112
 3952SOL    HW112755   5.791   2.463   4.159
 3952SOL    HW212756   5.648   2.530   4.119
 3953SOL     OW12757   3.136   4.506   5.892
 3953SOL    HW112758   3.195   4.426   5.898
 3953SOL    HW212759   3.190   4.586   5.867
 3954SOL     OW12760   6.318   3.558   5.792
 3954SOL    HW112761   6.220   3.568   5.807
 3954SOL    HW212762   6.368   3.614   5.857
 3955SOL     OW12763   4.973   6.379   0.579
 3955SOL    HW112764   4.960   6.395   0.481
 3955SOL    HW212765   4.907   6.432   0.631
 3956SOL     OW12766   0.968   2.728   5.505
 3956SOL    HW112767   1.023   2.669   5.564
 3956SOL    HW212768   1.026   2.798   5.463
 3957SOL     OW12769   3.009   6.762   3.868
 3957SOL    HW112770   2.980   6.728   3.957
 3957SOL    HW212771   3.047   6.854   3.878
 3958SOL     OW12772   6.312   0.117   0.270
 3958SOL    HW112773   6.408   0.104   0.246
 3958SOL    HW212774   6.274   0.031   0.305
 3959SOL     OW12775   3.376   5.285   0.915
 3959SOL    HW112776   3.351   5.359   0.978
 3959SOL    HW212777   3.463   5.307   0.872
 3960SOL     OW12778   4.567   2.619   6.586
 3960SOL    HW112779   4.647   2.572   6.623
 3960SOL    HW212780   4.516   2.662   6.661
 3961SOL     OW12781   5.158   1.949   2.074
 3961SOL    HW112782   5.178   2.047   2.069
 3961SOL    HW212783   5.201   1.902   1.997
 3962SOL     OW12784   0.754   5.356   0.197
 3962SOL    HW112785   0.750   5.281   0.131
 3962SOL    HW212786   0.749   5.319   0.289
 3963SOL     OW12787   5.420   5.394   3.086
 3963SOL    HW112788   5.423   5.314   3.026
 3963SOL    HW212789   5.339   5.449   3.065
 3964SOL     OW12790   4.484   6.190   4.807
 3964SOL    HW112791   4.512   6.238   4.890
 3964SOL    HW212792   4.548   6.212   4.733
 3965SOL     OW12793   3.532   4.372   6.550
 3965SOL    HW112794   3.445   4.379   6.598
 3965SOL    HW212795   3.516   4.362   6.452
 3966SOL     OW12796   6.553   4.431   6.447
 3966SOL    HW112797   6.580   4.339   6.418
 3966SOL    HW212798   6.468   4.425   6.500
 3967SOL     OW12799   0.963   5.066   3.784
 3967SOL    HW112800   0.901   4.988   3.772
 3967SOL    HW212801   1.035   5.042   3.849
 3968SOL     OW12802   5.356   0.465   3.029
 3968SOL    HW112803   5.347   0.369   3.001
 3968SOL    HW212804   5.451   0.485   3.050
 3969SOL     OW12805   1.432   4.951   2.792
 3969SOL    HW112806   1.517   4.957   2.740
 3969SOL    HW212807   1.394   4.859   2.782
 3970SOL     OW12808   4.568   4.725   3.787
 3970SOL    HW112809   4.617   4.654   3.736
 3970SOL    HW212810   4.488   4.684   3.831
 3971SOL     OW12811   2.813   5.720   3.034
 3971SOL    HW112812   2.846   5.731   3.128
 3971SOL    HW212813   2.751   5.795   3.011
 3972SOL     OW12814   0.184   6.122   0.418
 3972SOL    HW112815   0.271   6.077   0.437
 3972SOL    HW212816   0.187   6.217   0.449
 3973SOL     OW12817   3.109   3.360   5.126
 3973SOL    HW112818   3.045   3.376   5.050
 3973SOL    HW212819   3.059   3.322   5.204
 3974SOL     OW12820   0.576   1.420   6.579
 3974SOL    HW112821   0.504   1.489   6.588
 3974SOL    HW212822   0.611   1.422   6.485
 3975SOL     OW12823   6.734   0.453   5.753
 3975SOL    HW112824   6.813   0.515   5.751
 3975SOL    HW212825   6.676   0.476   5.831
 3976SOL     OW12826   0.976   4.473   0.930
 3976SOL    HW112827   1.013   4.485   1.023
 3976SOL    HW212828   0.877   4.460   0.935
 3977SOL     OW12829   2.509   5.918   5.664
 3977SOL    HW112830   2.537   5.921   5.569
 3977SOL    HW212831   2.583   5.880   5.720
 3978SOL     OW12832   5.455   1.324   5.709
 3978SOL    HW112833   5.475   1.239   5.759
 3978SOL    HW212834   5.524   1.393   5.730
 3979SOL     OW12835   2.365   0.067   1.392
 3979SOL    HW112836   2.381   7.008   1.342
 3979SOL    HW212837   2.370   0.144   1.329
 3980SOL     OW12838   5.859   3.467   4.787
 3980SOL    HW112839   5.839   3.445   4.883
 3980SOL    HW212840   5.912   3.551   4.783
 3981SOL     OW12841   6.985   2.370   6.165
 3981SOL    HW112842   7.024   2.286   6.128
 3981SOL    HW212843   0.015   2.402   6.241
 3982SOL     OW12844   2.510   1.140   4.898
 3982SOL    HW112845   2.449   1.140   4.977
 3982SOL    HW212846   2.594   1.188   4.921
 3983SOL     OW12847   3.272   6.374   4.356
 3983SOL    HW112848   3.317   6.290   4.327
 3983SOL    HW212849   3.178   6.355   4.384
 3984SOL     OW12850   1.947   0.199   1.989
 3984SOL    HW112851   1.940   0.241   1.898
 3984SOL    HW212852   1.863   0.216   2.040
 3985SOL     OW12853   2.019   4.276   6.960
 3985SOL    HW112854   2.054   4.337   0.006
 3985SOL    HW212855   2.092   4.259   6.893
 3986SOL     OW12856   0.256   1.958   2.288
 3986SOL    HW112857   0.158   1.950   2.305
 3986SOL    HW212858   0.294   2.033   2.343
 3987SOL     OW12859   1.597   5.760   5.213
 3987SOL    HW112860   1.604   5.859   5.199
 3987SOL    HW212861   1.587   5.715   5.124
 3988SOL     OW12862   3.465   2.102   6.011
 3988SOL    HW112863   3.443   2.059   6.098
 3988SOL    HW212864   3.427   2.195   6.009
 3989SOL     OW12865   6.158   6.946   6.380
 3989SOL    HW112866   6.192   6.992   6.298
 3989SOL    HW212867   6.060   6.926   6.369
 3990SOL     OW12868   5.890   2.495   4.969
 3990SOL    HW112869   5.883   2.471   5.066
 3990SOL    HW212870   5.902   2.593   4.959
 3991SOL     OW12871   0.175   2.655   3.402
 3991SOL    HW112872   0.189   2.572   3.457
 3991SOL    HW212873   0.178   2.631   3.305
 3992SOL     OW12874   3.915   3.151   6.563
 3992SOL    HW112875   3.930   3.056   6.539
 3992SOL    HW212876   3.999   3.203   6.547
 3993SOL     OW12877   2.883   2.131   2.734
 3993SOL    HW112878   2.892   2.031   2.734
 3993SOL    HW212879   2.786   2.156   2.730
 3994SOL     OW12880   2.320   2.390   5.064
 3994SOL    HW112881   2.305   2.401   5.162
 3994SOL    HW212882   2.301   2.477   5.018
 3995SOL     OW12883   2.333   4.287   3.683
 3995SOL    HW112884   2.287   4.349   3.620
 3995SOL    HW212885   2.432   4.304   3.681
 3996SOL     OW12886   2.019   1.166   4.581
 3996SOL    HW112887   2.050   1.071   4.573
 3996SOL    HW212888   2.046   1.217   4.499
 3997SOL     OW12889   4.907   3.816   3.148
 3997SOL    HW112890   4.871   3.852   3.234
 3997SOL    HW212891   4.920   3.717   3.155
 3998SOL     OW12892   5.917   2.093   2.035
 3998SOL    HW112893   5.956   2.080   1.943
 3998SOL    HW212894   5.834   2.039   2.044
 3999SOL     OW12895   6.375   3.749   3.595
 3999SOL    HW112896   6.315   3.678   3.633
 3999SOL    HW212897   6.470   3.718   3.600
 4000SOL     OW12898   3.174   5.494   2.880
 4000SOL    HW112899   3.205   5.406   2.844
 4000SOL    HW212900   3.175   5.562   2.806
 4001SOL     OW12901   2.665   3.945   5.887
 4001SOL    HW112902   2.721   3.921   5.967
 4001SOL    HW212903   2.654   4.044   5.882
 4002SOL     OW12904   3.578   2.922   4.314
 4002SOL    HW112905   3.511   2.872   4.370
 4002SOL    HW212906   3.613   3.000   4.366
 4003SOL     OW12907   1.569   1.082   6.450
 4003SOL    HW112908   1.659   1.115   6.422
 4003SOL    HW212909   1.552   1.105   6.545
 4004SOL     OW12910   0.001   3.388   4.020
 4004SOL    HW112911   6.937   3.431   4.011
 4004SOL    HW212912   7.023   3.294   3.987
 4005SOL     OW12913   4.456   4.614   1.218
 4005SOL    HW112914   4.401   4.640   1.139
 4005SOL    HW212915   4.517   4.538   1.193
 4006SOL     OW12916   5.447   4.885   1.997
 4006SOL    HW112917   5.533   4.882   1.945
 4006SOL    HW212918   5.390   4.807   1.972
 4007SOL     OW12919   0.663   2.636   2.875
 4007SOL    HW112920   0.733   2.571   2.846
 4007SOL    HW212921   0.577   2.614   2.830
 4008SOL     OW12922   3.134   0.589   6.426
 4008SOL    HW112923   3.195   0.516   6.396
 4008SOL    HW212924   3.095   0.634   6.346
 4009SOL     OW12925   4.666   1.966   1.274
 4009SOL    HW112926   4.744   2.004   1.224
 4009SOL    HW212927   4.697   1.926   1.360
 4010SOL     OW12928   3.154   3.521   1.798
 4010SOL    HW112929   3.196   3.433   1.823
 4010SOL    HW212930   3.182   3.546   1.705
 4011SOL     OW12931   6.979   6.334   2.063
 4011SOL    HW112932   6.936   6.385   1.988
 4011SOL    HW212933   0.049   6.359   2.069
 4012SOL     OW12934   4.518   6.575   2.503
 4012SOL    HW112935   4.484   6.530   2.585
 4012SOL    HW212936   4.504   6.515   2.424
 4013SOL     OW12937   2.383   0.725   1.432
 4013SOL    HW112938   2.418   0.816   1.451
 4013SOL    HW212939   2.457   0.658   1.442
 4014SOL     OW12940   3.378   5.472   3.703
 4014SOL    HW112941   3.332   5.495   3.788
 4014SOL    HW212942   3.311   5.468   3.629
 4015SOL     OW12943   4.813   5.020   6.460
 4015SOL    HW112944   4.730   4.987   6.415
 4015SOL    HW212945   4.878   5.051   6.391
 4016SOL     OW12946   3.083   6.069   6.830
 4016SOL    HW112947   3.112   5.974   6.841
 4016SOL    HW212948   2.992   6.071   6.787
 4017SOL     OW12949   0.194   5.676   5.825
 4017SOL    HW112950   0.121   5.686   5.892
 4017SOL    HW212951   0.181   5.591   5.774
 4018SOL     OW12952   4.467   6.694   1.838
 4018SOL    HW112953   4.442   6.717   1.932
 4018SOL    HW212954   4.391   6.716   1.777
 4019SOL     OW12955   5.528   4.126   2.185
 4019SOL    HW112956   5.456   4.154   2.249
 4019SOL    HW212957   5.541   4.027   2.190
 4020SOL     OW12958   6.370   3.163   5.581
 4020SOL    HW112959   6.374   3.214   5.495
 4020SOL    HW212960   6.463   3.144   5.612
 4021SOL     OW12961   3.723   4.317   5.200
 4021SOL    HW112962   3.687   4.291   5.110
 4021SOL    HW212963   3.660   4.381   5.244
 4022SOL     OW12964   3.286   6.537   6.548
 4022SOL    HW112965   3.380   6.525   6.581
 4022SOL    HW212966   3.231   6.459   6.576
 4023SOL     OW12967   6.953   0.511   5.267
 4023SOL    HW112968   6.859   0.481   5.288
 4023SOL    HW212969   7.017   0.438   5.293
 4024SOL     OW12970   2.418   4.427   4.018
 4024SOL    HW112971   2.456   4.424   3.925
 4024SOL    HW212972   2.375   4.340   4.039
 4025SOL     OW12973   0.510   6.436   4.095
 4025SOL    HW112974   0.535   6.459   4.001
 4025SOL    HW212975   0.527   6.515   4.154
 4026SOL     OW12976   5.777   6.932   4.025
 4026SOL    HW112977   5.709   6.963   4.090
 4026SOL    HW212978   5.736   6.926   3.933
 4027SOL     OW12979   2.491   2.503   0.445
 4027SOL    HW112980   2.546   2.573   0.401
 4027SOL    HW212981   2.476   2.527   0.541
 4028SOL     OW12982   4.662   1.554   3.712
 4028SOL    HW112983   4.650   1.472   3.656
 4028SOL    HW212984   4.590   1.620   3.692
 4029SOL     OW12985   2.966   4.277   5.626
 4029SOL    HW112986   2.936   4.342   5.557
 4029SOL    HW212987   2.968   4.322   5.716
 4030SOL     OW12988   6.783   1.047   2.207
 4030SOL    HW112989   6.724   1.100   2.267
 4030SOL    HW212990   6.729   1.009   2.132
 4031SOL     OW12991   5.372   6.119   3.287
 4031SOL    HW112992   5.280   6.134   3.250
 4031SOL    HW212993   5.434   6.188   3.250
 4032SOL     OW12994   6.983   6.921   1.919
 4032SOL    HW112995   6.992   7.011   1.877
 4032SOL    HW212996   0.007   6.919   2.005
 4033SOL     OW12997   2.124   3.234   1.450
 4033SOL    HW112998   2.119   3.265   1.355
 4033SOL    HW212999   2.183   3.296   1.503
 4034SOL     OW13000   5.999   1.544   4.993
 4034SOL    HW113001   5.919   1.536   5.054
 4034SOL    HW213002   6.082   1.541   5.048
 4035SOL     OW13003   6.324   1.937   1.030
 4035SOL    HW113004   6.264   1.905   1.104
 4035SOL    HW213005   6.273   1.999   0.971
 4036SOL     OW13006   3.978   4.835   2.455
 4036SOL    HW113007   3.977   4.739   2.485
 4036SOL    HW213008   3.925   4.844   2.371
 4037SOL     OW13009   1.824   1.631   0.346
 4037SOL    HW113010   1.847   1.706   0.283
 4037SOL    HW213011   1.891   1.628   0.420
 4038SOL     OW13012   4.220   2.803   1.716
 4038SOL    HW113013   4.235   2.902   1.711
 4038SOL    HW213014   4.131   2.784   1.757
 4039SOL     OW13015   5.735   5.449   1.521
 4039SOL    HW113016   5.763   5.354   1.504
 4039SOL    HW213017   5.788   5.485   1.598
 4040SOL     OW13018   3.304   6.659   5.053
 4040SOL    HW113019   3.394   6.642   5.092
 4040SOL    HW213020   3.294   6.756   5.033
 4041SOL     OW13021   0.641   5.257   0.979
 4041SOL    HW113022   0.610   5.163   0.966
 4041SOL    HW213023   0.638   5.306   0.892
 4042SOL     OW13024   5.778   5.905   4.467
 4042SOL    HW113025   5.746   5.819   4.428
 4042SOL    HW213026   5.714   5.978   4.444
 4043SOL     OW13027   6.994   2.560   5.513
 4043SOL    HW113028   6.902   2.534   5.484
 4043SOL    HW213029   7.002   2.660   5.515
 4044SOL     OW13030   4.698   6.824   3.603
 4044SOL    HW113031   4.632   6.894   3.576
 4044SOL    HW213032   4.740   6.849   3.690
 4045SOL     OW13033   4.240   5.819   5.830
 4045SOL    HW113034   4.164   5.853   5.885
 4045SOL    HW213035   4.211   5.809   5.735
 4046SOL     OW13036   1.497   1.586   3.689
 4046SOL    HW113037   1.581   1.538   3.664
 4046SOL    HW213038   1.521   1.672   3.735
 4047SOL     OW13039   2.057   2.362   0.257
 4047SOL    HW113040   2.113   2.431   0.302
 4047SOL    HW213041   1.964   2.397   0.244
 4048SOL     OW13042   5.146   1.750   1.689
 4048SOL    HW113043   5.171   1.691   1.612
 4048SOL    HW213044   5.177   1.708   1.775
 4049SOL     OW13045   5.355   5.359   6.330
 4049SOL    HW113046   5.421   5.400   6.268
 4049SOL    HW213047   5.399   5.285   6.382
 4050SOL     OW13048   1.049   6.559   1.561
 4050SOL    HW113049   0.997   6.574   1.645
 4050SOL    HW213050   1.142   6.594   1.574
 4051SOL     OW13051   3.574   1.674   6.677
 4051SOL    HW113052   3.514   1.656   6.755
 4051SOL    HW213053   3.669   1.672   6.707
 4052SOL     OW13054   6.830   1.395   2.025
 4052SOL    HW113055   6.873   1.402   2.115
 4052SOL    HW213056   6.897   1.362   1.958
 4053SOL     OW13057   2.890   5.911   3.868
 4053SOL    HW113058   2.845   5.847   3.806
 4053SOL    HW213059   2.989   5.900   3.862
 4054SOL     OW13060   5.668   3.883   0.983
 4054SOL    HW113061   5.585   3.920   1.024
 4054SOL    HW213062   5.644   3.820   0.910
 4055SOL     OW13063   2.826   3.162   0.273
 4055SOL    HW113064   2.890   3.168   0.196
 4055SOL    HW213065   2.821   3.251   0.319
 4056SOL     OW13066   5.161   4.000   0.986
 4056SOL    HW113067   5.179   4.006   0.888
 4056SOL    HW213068   5.107   4.079   1.015
 4057SOL     OW13069   6.653   2.532   1.309
 4057SOL    HW113070   6.730   2.595   1.325
 4057SOL    HW213071   6.672   2.476   1.229
 4058SOL     OW13072   2.125   6.990   5.129
 4058SOL    HW113073   2.027   7.007   5.142
 4058SOL    HW213074   2.176   0.047   5.154
 4059SOL     OW13075   0.518   1.590   2.994
 4059SOL    HW113076   0.572   1.508   3.013
 4059SOL    HW213077   0.423   1.565   2.979
 4060SOL     OW13078   5.360   5.557   4.765
 4060SOL    HW113079   5.291   5.617   4.805
 4060SOL    HW213080   5.448   5.604   4.763
 4061SOL     OW13081   2.628   4.697   2.350
 4061SOL    HW113082   2.623   4.640   2.432
 4061SOL    HW213083   2.657   4.789   2.376
 4062SOL     OW13084   2.526   1.329   1.865
 4062SOL    HW113085   2.475   1.277   1.934
 4062SOL    HW213086   2.623   1.330   1.889
 4063SOL     OW13087   6.037   6.547   0.044
 4063SOL    HW113088   6.084   6.634   0.059
 4063SOL    HW213089   6.036   6.495   0.130
 4064SOL     OW13090   2.537   0.210   3.703
 4064SOL    HW113091   2.520   0.301   3.667
 4064SOL    HW213092   2.599   0.160   3.643
 4065SOL     OW13093   1.662   6.757   1.463
 4065SOL    HW113094   1.659   6.854   1.485
 4065SOL    HW213095   1.641   6.743   1.366
 4066SOL     OW13096   5.970   4.730   3.440
 4066SOL    HW113097   6.016   4.759   3.356
 4066SOL    HW213098   5.872   4.745   3.431
 4067SOL     OW13099   6.326   3.363   2.819
 4067SOL    HW113100   6.407   3.313   2.848
 4067SOL    HW213101   6.295   3.329   2.730
 4068SOL     OW13102   1.743   1.432   4.560
 4068SOL    HW113103   1.773   1.404   4.469
 4068SOL    HW213104   1.732   1.351   4.618
 4069SOL     OW13105   2.896   5.483   6.563
 4069SOL    HW113106   2.844   5.552   6.615
 4069SOL    HW213107   2.992   5.486   6.591
 4070SOL     OW13108   0.746   3.728   1.992
 4070SOL    HW113109   0.654   3.691   1.982
 4070SOL    HW213110   0.776   3.767   1.905
 4071SOL     OW13111   1.323   1.006   5.134
 4071SOL    HW113112   1.368   0.987   5.221
 4071SOL    HW213113   1.290   1.100   5.134
 4072SOL     OW13114   0.195   5.771   4.207
 4072SOL    HW113115   0.269   5.806   4.264
 4072SOL    HW213116   0.134   5.847   4.182
 4073SOL     OW13117   2.922   6.159   6.108
 4073SOL    HW113118   3.001   6.131   6.162
 4073SOL    HW213119   2.905   6.257   6.121
 4074SOL     OW13120   6.924   3.796   2.083
 4074SOL    HW113121   6.855   3.723   2.086
 4074SOL    HW213122   6.921   3.847   2.169
 4075SOL     OW13123   4.320   2.149   1.962
 4075SOL    HW113124   4.233   2.138   2.011
 4075SOL    HW213125   4.354   2.242   1.975
 4076SOL     OW13126   3.053   2.393   5.911
 4076SOL    HW113127   2.958   2.416   5.894
 4076SOL    HW213128   3.106   2.398   5.826
 4077SOL     OW13129   3.037   1.290   0.125
 4077SOL    HW113130   3.097   1.359   0.086
 4077SOL    HW213131   3.072   1.261   0.214
 4078SOL     OW13132   0.401   5.825   1.089
 4078SOL    HW113133   0.501   5.827   1.096
 4078SOL    HW213134   0.363   5.778   1.169
 4079SOL     OW13135   1.560   0.765   3.557
 4079SOL    HW113136   1.608   0.818   3.627
 4079SOL    HW213137   1.577   0.806   3.467
 4080SOL     OW13138   3.979   4.706   6.018
 4080SOL    HW113139   4.075   4.690   6.041
 4080SOL    HW213140   3.943   4.628   5.967
 4081SOL     OW13141   1.951   2.685   4.671
 4081SOL    HW113142   2.044   2.650   4.680
 4081SOL    HW213143   1.905   2.682   4.760
 4082SOL     OW13144   1.051   3.693   0.697
 4082SOL    HW113145   0.992   3.677   0.618
 4082SOL    HW213146   1.065   3.792   0.708
 4083SOL     OW13147   0.091   4.144   1.920
 4083SOL    HW113148   0.002   4.100   1.913
 4083SOL    HW213149   0.131   4.126   2.010
 4084SOL     OW13150   5.250   2.080   3.427
 4084SOL    HW113151   5.297   1.992   3.422
 4084SOL    HW213152   5.301   2.149   3.377
 4085SOL     OW13153   2.888   5.465   1.323
 4085SOL    HW113154   2.958   5.408   1.279
 4085SOL    HW213155   2.830   5.407   1.381
 4086SOL     OW13156   0.901   5.564   1.821
 4086SOL    HW113157   0.934   5.598   1.909
 4086SOL    HW213158   0.949   5.479   1.798
 4087SOL     OW13159   1.341   1.504   3.146
 4087SOL    HW113160   1.332   1.408   3.122
 4087SOL    HW213161   1.348   1.514   3.245
 4088SOL     OW13162   6.787   0.948   6.801
 4088SOL    HW113163   6.689   0.932   6.787
 4088SOL    HW213164   6.839   0.902   6.729
 4089SOL     OW13165   6.164   5.578   4.433
 4089SOL    HW113166   6.196   5.623   4.517
 4089SOL    HW213167   6.242   5.538   4.385
 4090SOL     OW13168   1.844   5.266   5.290
 4090SOL    HW113169   1.785   5.346   5.276
 4090SOL    HW213170   1.795   5.183   5.262
 4091SOL     OW13171   6.628   6.031   0.072
 4091SOL    HW113172   6.540   6.079   0.076
 4091SOL    HW213173   6.697   6.084   0.120
 4092SOL     OW13174   6.456   2.391   5.381
 4092SOL    HW113175   6.366   2.434   5.386
 4092SOL    HW213176   6.519   2.437   5.443
 4093SOL     OW13177   4.552   6.347   2.319
 4093SOL    HW113178   4.478   6.284   2.295
 4093SOL    HW213179   4.637   6.296   2.330
 4094SOL     OW13180   2.137   5.537   5.417
 4094SOL    HW113181   2.042   5.560   5.440
 4094SOL    HW213182   2.168   5.596   5.342
 4095SOL     OW13183   0.374   3.729   0.141
 4095SOL    HW113184   0.315   3.802   0.106
 4095SOL    HW213185   0.468   3.746   0.112
 4096SOL     OW13186   4.591   6.210   5.758
 4096SOL    HW113187   4.654   6.252   5.693
 4096SOL    HW213188   4.520   6.160   5.709
 4097SOL     OW13189   3.898   4.540   5.296
 4097SOL    HW113190   3.846   4.464   5.258
 4097SOL    HW213191   3.930   4.516   5.388
 4098SOL     OW13192   0.099   2.193   2.092
 4098SOL    HW113193   0.174   2.254   2.114
 4098SOL    HW213194   0.086   2.127   2.166
 4099SOL     OW13195   3.162   5.234   1.572
 4099SOL    HW113196   3.095   5.239   1.498
 4099SOL    HW213197   3.184   5.139   1.591
 4100SOL     OW13198   0.144   6.737   4.865
 4100SOL    HW113199   0.136   6.733   4.766
 4100SOL    HW213200   0.141   6.832   4.895
 4101SOL     OW13201   5.955   0.995   0.305
 4101SOL    HW113202   5.968   1.087   0.269
 4101SOL    HW213203   6.015   0.981   0.383
 4102SOL     OW13204   6.684   0.706   1.015
 4102SOL    HW113205   6.603   0.648   1.004
 4102SOL    HW213206   6.710   0.707   1.112
 4103SOL     OW13207   0.120   0.242   0.466
 4103SOL    HW113208   0.123   0.176   0.391
 4103SOL    HW213209   0.189   0.313   0.451
 4104SOL     OW13210   1.017   5.060   2.933
 4104SOL    HW113211   0.942   5.107   2.886
 4104SOL    HW213212   1.013   4.962   2.910
 4105SOL     OW13213   4.833   6.985   1.489
 4105SOL    HW113214   4.909   7.005   1.428
 4105SOL    HW213215   4.836   6.888   1.515
 4106SOL     OW13216   6.253   2.789   2.809
 4106SOL    HW113217   6.217   2.851   2.879
 4106SOL    HW213218   6.320   2.727   2.851
 4107SOL     OW13219   1.283   5.681   0.750
 4107SOL    HW113220   1.343   5.761   0.758
 4107SOL    HW213221   1.199   5.697   0.801
 4108SOL     OW13222   6.351   4.043   5.928
 4108SOL    HW113223   6.376   4.030   5.832
 4108SOL    HW213224   6.299   3.963   5.960
 4109SOL     OW13225   6.118   0.202   5.180
 4109SOL    HW113226   6.096   0.266   5.254
 4109SOL    HW213227   6.048   0.131   5.176
 4110SOL     OW13228   3.926   3.335   5.792
 4110SOL    HW113229   3.942   3.316   5.695
 4110SOL    HW213230   3.846   3.395   5.801
 4111SOL     OW13231   4.639   3.292   0.011
 4111SOL    HW113232   4.705   3.330   0.076
 4111SOL    HW213233   4.552   3.275   0.058
 4112SOL     OW13234   4.945   6.321   4.524
 4112SOL    HW113235   5.012   6.279   4.585
 4112SOL    HW213236   4.987   6.398   4.476
 4113SOL     OW13237   4.865   6.003   4.739
 4113SOL    HW113238   4.851   5.923   4.796
 4113SOL    HW213239   4.885   6.082   4.797
 4114SOL     OW13240   3.270   2.041   3.877
 4114SOL    HW113241   3.359   2.045   3.831
 4114SOL    HW213242   3.199   2.077   3.816
 4115SOL     OW13243   3.591   4.964   2.036
 4115SOL    HW113244   3.586   4.883   1.978
 4115SOL    HW213245   3.501   4.981   2.077
 4116SOL     OW13246   3.273   1.377   2.211
 4116SOL    HW113247   3.224   1.387   2.125
 4116SOL    HW213248   3.261   1.460   2.266
 4117SOL     OW13249   1.746   4.352   2.857
 4117SOL    HW113250   1.833   4.397   2.836
 4117SOL    HW213251   1.750   4.256   2.830
 4118SOL     OW13252   3.382   6.648   0.292
 4118SOL    HW113253   3.354   6.741   0.314
 4118SOL    HW213254   3.340   6.584   0.357
 4119SOL     OW13255   3.002   1.904   3.907
 4119SOL    HW113256   2.929   1.968   3.881
 4119SOL    HW213257   3.067   1.951   3.967
 4120SOL     OW13258   3.470   0.570   6.819
 4120SOL    HW113259   3.451   0.479   6.782
 4120SOL    HW213260   3.384   0.610   6.853
 4121SOL     OW13261   6.095   0.809   4.345
 4121SOL    HW113262   6.131   0.718   4.367
 4121SOL    HW213263   6.034   0.839   4.418
 4122SOL     OW13264   1.337   5.774   4.803
 4122SOL    HW113265   1.323   5.872   4.788
 4122SOL    HW213266   1.250   5.726   4.791
 4123SOL     OW13267   4.445   5.221   5.669
 4123SOL    HW113268   4.380   5.220   5.745
 4123SOL    HW213269   4.538   5.214   5.705
 4124SOL     OW13270   5.993   5.740   6.863
 4124SOL    HW113271   5.942   5.810   6.912
 4124SOL    HW213272   6.041   5.682   6.929
 4125SOL     OW13273   5.009   1.438   2.558
 4125SOL    HW113274   5.002   1.500   2.636
 4125SOL    HW213275   5.031   1.489   2.475
 4126SOL     OW13276   1.188   3.745   4.474
 4126SOL    HW113277   1.153   3.795   4.554
 4126SOL    HW213278   1.116   3.737   4.406
 4127SOL     OW13279   4.565   5.216   4.787
 4127SOL    HW113280   4.648   5.164   4.767
 4127SOL    HW213281   4.485   5.162   4.764
 4128SOL     OW13282   1.176   2.516   1.577
 4128SOL    HW113283   1.194   2.442   1.642
 4128SOL    HW213284   1.131   2.591   1.625
 4129SOL     OW13285   3.837   0.936   6.846
 4129SOL    HW113286   3.800   0.878   6.774
 4129SOL    HW213287   3.763   0.987   6.890
 4130SOL     OW13288   6.504   2.619   6.729
 4130SOL    HW113289   6.468   2.583   6.643
 4130SOL    HW213290   6.508   2.719   6.724
 4131SOL     OW13291   1.237   0.328   3.730
 4131SOL    HW113292   1.138   0.332   3.737
 4131SOL    HW213293   1.275   0.288   3.814
 4132SOL     OW13294   5.141   4.695   3.465
 4132SOL    HW113295   5.049   4.714   3.430
 4132SOL    HW213296   5.169   4.603   3.439
 4133SOL     OW13297   2.946   6.059   0.716
 4133SOL    HW113298   2.858   6.095   0.687
 4133SOL    HW213299   3.008   6.054   0.637
 4134SOL     OW13300   2.555   3.576   1.072
 4134SOL    HW113301   2.540   3.595   1.169
 4134SOL    HW213302   2.516   3.487   1.049
 4135SOL     OW13303   1.014   1.591   2.850
 4135SOL    HW113304   0.931   1.634   2.885
 4135SOL    HW213305   0.989   1.511   2.794
 4136SOL     OW13306   1.244   2.088   3.200
 4136SOL    HW113307   1.232   2.187   3.197
 4136SOL    HW213308   1.273   2.056   3.109
 4137SOL     OW13309   0.698   4.438   0.908
 4137SOL    HW113310   0.621   4.463   0.966
 4137SOL    HW213311   0.693   4.341   0.886
 4138SOL     OW13312   4.316   5.402   3.168
 4138SOL    HW113313   4.246   5.366   3.107
 4138SOL    HW213314   4.365   5.477   3.123
 4139SOL     OW13315   1.956   1.821   5.633
 4139SOL    HW113316   1.886   1.838   5.563
 4139SOL    HW213317   1.912   1.810   5.722
 4140SOL     OW13318   2.876   0.348   5.276
 4140SOL    HW113319   2.800   0.410   5.255
 4140SOL    HW213320   2.922   0.379   5.360
 4141SOL     OW13321   6.373   6.198   1.135
 4141SOL    HW113322   6.358   6.127   1.204
 4141SOL    HW213323   6.351   6.288   1.174
 4142SOL     OW13324   6.598   5.245   1.393
 4142SOL    HW113325   6.518   5.305   1.391
 4142SOL    HW213326   6.570   5.151   1.408
 4143SOL     OW13327   6.134   1.633   1.130
 4143SOL    HW113328   6.043   1.631   1.088
 4143SOL    HW213329   6.145   1.717   1.182
 4144SOL     OW13330   5.022   3.563   6.527
 4144SOL    HW113331   4.945   3.544   6.588
 4144SOL    HW213332   4.988   3.609   6.445
 4145SOL     OW13333   6.391   6.437   1.278
 4145SOL    HW113334   6.326   6.494   1.328
 4145SOL    HW213335   6.437   6.492   1.208
 4146SOL     OW13336   6.674   0.464   4.749
 4146SOL    HW113337   6.717   0.447   4.838
 4146SOL    HW213338   6.653   0.561   4.740
 4147SOL     OW13339   4.656   4.082   5.864
 4147SOL    HW113340   4.749   4.053   5.887
 4147SOL    HW213341   4.625   4.033   5.782
 4148SOL     OW13342   0.955   0.527   4.840
 4148SOL    HW113343   0.915   0.435   4.843
 4148SOL    HW213344   0.882   0.595   4.842
 4149SOL     OW13345   0.094   3.098   0.941
 4149SOL    HW113346   0.002   3.084   0.905
 4149SOL    HW213347   0.150   3.017   0.920
 4150SOL     OW13348   0.762   0.800   6.200
 4150SOL    HW113349   0.669   0.817   6.235
 4150SOL    HW213350   0.793   0.879   6.148
 4151SOL     OW13351   2.848   5.680   5.532
 4151SOL    HW113352   2.773   5.671   5.466
 4151SOL    HW213353   2.860   5.777   5.555
 4152SOL     OW13354   4.356   6.018   1.742
 4152SOL    HW113355   4.387   6.086   1.808
 4152SOL    HW213356   4.260   6.035   1.719
 4153SOL     OW13357   4.371   5.366   6.730
 4153SOL    HW113358   4.294   5.305   6.751
 4153SOL    HW213359   4.424   5.326   6.654
 4154SOL     OW13360   0.200   5.184   4.079
 4154SOL    HW113361   0.111   5.193   4.124
 4154SOL    HW213362   0.186   5.160   3.983
 4155SOL     OW13363   0.199   1.206   2.017
 4155SOL    HW113364   0.159   1.192   2.108
 4155SOL    HW213365   0.142   1.272   1.967
 4156SOL     OW13366   5.474   6.220   5.238
 4156SOL    HW113367   5.542   6.155   5.272
 4156SOL    HW213368   5.382   6.183   5.251
 4157SOL     OW13369   5.211   5.194   4.638
 4157SOL    HW113370   5.283   5.262   4.623
 4157SOL    HW213371   5.253   5.106   4.659
 4158SOL     OW13372   1.749   4.635   2.647
 4158SOL    HW113373   1.749   4.545   2.691
 4158SOL    HW213374   1.832   4.685   2.674
 4159SOL     OW13375   2.040   3.671   4.445
 4159SOL    HW113376   2.063   3.594   4.386
 4159SOL    HW213377   2.052   3.756   4.394
 4160SOL     OW13378   5.867   1.131   0.738
 4160SOL    HW113379   5.956   1.116   0.695
 4160SOL    HW213380   5.810   1.188   0.679
 4161SOL     OW13381   0.914   0.937   0.521
 4161SOL    HW113382   0.858   0.899   0.594
 4161SOL    HW213383   0.878   0.909   0.432
 4162SOL     OW13384   6.401   6.519   6.555
 4162SOL    HW113385   6.495   6.493   6.529
 4162SOL    HW213386   6.358   6.443   6.604
 4163SOL     OW13387   5.964   6.344   3.312
 4163SOL    HW113388   5.942   6.255   3.351
 4163SOL    HW213389   6.059   6.367   3.336
 4164SOL     OW13390   1.678   6.572   6.601
 4164SOL    HW113391   1.724   6.654   6.567
 4164SOL    HW213392   1.715   6.547   6.690
 4165SOL     OW13393   3.881   6.912   0.097
 4165SOL    HW113394   3.852   6.885   0.189
 4165SOL    HW213395   3.923   7.003   0.101
 4166SOL     OW13396   6.662   4.262   1.343
 4166SOL    HW113397   6.568   4.270   1.376
 4166SOL    HW213398   6.664   4.208   1.259
 4167SOL     OW13399   1.267   4.140   1.032
 4167SOL    HW113400   1.313   4.070   1.086
 4167SOL    HW213401   1.171   4.147   1.061
 4168SOL     OW13402   6.529   5.074   0.818
 4168SOL    HW113403   6.538   5.068   0.917
 4168SOL    HW213404   6.538   5.169   0.789
 4169SOL     OW13405   5.615   4.008   3.670
 4169SOL    HW113406   5.618   3.973   3.764
 4169SOL    HW213407   5.681   3.957   3.614
 4170SOL     OW13408   4.396   4.051   5.370
 4170SOL    HW113409   4.337   4.125   5.338
 4170SOL    HW213410   4.486   4.058   5.327
 4171SOL     OW13411   6.453   5.528   0.983
 4171SOL    HW113412   6.430   5.496   0.891
 4171SOL    HW213413   6.412   5.619   0.997
 4172SOL     OW13414   0.319   2.523   6.109
 4172SOL    HW113415   0.323   2.601   6.172
 4172SOL    HW213416   0.229   2.519   6.066
 4173SOL     OW13417   5.113   3.837   5.872
 4173SOL    HW113418   5.038   3.798   5.819
 4173SOL    HW213419   5.091   3.832   5.970
 4174SOL     OW13420   5.504   0.726   3.551
 4174SOL    HW113421   5.436   0.736   3.479
 4174SOL    HW213422   5.511   0.811   3.603
 4175SOL     OW13423   2.051   6.290   4.632
 4175SOL    HW113424   2.136   6.245   4.605
 4175SOL    HW213425   2.069   6.352   4.709
 4176SOL     OW13426   2.721   6.800   1.867
 4176SOL    HW113427   2.658   6.735   1.911
 4176SOL    HW213428   2.772   6.849   1.938
 4177SOL     OW13429   6.231   4.316   4.981
 4177SOL    HW113430   6.171   4.273   5.048
 4177SOL    HW213431   6.202   4.290   4.889
 4178SOL     OW13432   4.766   0.287   4.662
 4178SOL    HW113433   4.793   0.344   4.739
 4178SOL    HW213434   4.845   0.271   4.602
 4179SOL     OW13435   5.362   2.303   3.291
 4179SOL    HW113436   5.377   2.357   3.208
 4179SOL    HW213437   5.347   2.363   3.369
 4180SOL     OW13438   4.815   4.126   1.541
 4180SOL    HW113439   4.906   4.085   1.538
 4180SOL    HW213440   4.785   4.135   1.636
 4181SOL     OW13441   2.089   1.742   0.789
 4181SOL    HW113442   2.059   1.838   0.796
 4181SOL    HW213443   2.141   1.718   0.871
 4182SOL     OW13444   0.127   0.056   3.143
 4182SOL    HW113445   0.056   0.091   3.083
 4182SOL    HW213446   0.174   0.132   3.188
 4183SOL     OW13447   4.555   0.824   6.941
 4183SOL    HW113448   4.629   0.793   6.881
 4183SOL    HW213449   4.480   0.758   6.938
 4184SOL     OW13450   4.420   4.915   1.722
 4184SOL    HW113451   4.344   4.908   1.658
 4184SOL    HW213452   4.504   4.883   1.678
 4185SOL     OW13453   0.155   5.655   2.144
 4185SOL    HW113454   0.174   5.705   2.059
 4185SOL    HW213455   0.136   5.719   2.217
 4186SOL     OW13456   2.365   5.510   0.936
 4186SOL    HW113457   2.432   5.437   0.924
 4186SOL    HW213458   2.300   5.484   1.007
 4187SOL     OW13459   3.639   4.116   5.836
 4187SOL    HW113460   3.608   4.182   5.766
 4187SOL    HW213461   3.660   4.029   5.792
 4188SOL     OW13462   4.780   0.072   4.420
 4188SOL    HW113463   4.812   0.012   4.493
 4188SOL    HW213464   4.749   0.017   4.342
 4189SOL     OW13465   3.614   0.660   5.331
 4189SOL    HW113466   3.649   0.721   5.402
 4189SOL    HW213467   3.632   0.699   5.241
 4190SOL     OW13468   0.575   0.658   0.343
 4190SOL    HW113469   0.537   0.731   0.286
 4190SOL    HW213470   0.639   0.603   0.290
 4191SOL     OW13471   5.275   3.469   3.274
 4191SOL    HW113472   5.315   3.402   3.213
 4191SOL    HW213473   5.270   3.432   3.367
 4192SOL     OW13474   0.585   1.160   4.200
 4192SOL    HW113475   0.510   1.098   4.223
 4192SOL    HW213476   0.569   1.198   4.108
 4193SOL     OW13477   1.556   0.029   3.015
 4193SOL    HW113478   1.588   6.980   2.957
 4193SOL    HW213479   1.628   0.099   3.022
 4194SOL     OW13480   6.030   0.348   5.426
 4194SOL    HW113481   5.935   0.377   5.415
 4194SOL    HW213482   6.037   0.288   5.506
 4195SOL     OW13483   4.092   0.319   2.393
 4195SOL    HW113484   4.121   0.240   2.448
 4195SOL    HW213485   4.173   0.367   2.358
 4196SOL     OW13486   5.652   2.189   3.546
 4196SOL    HW113487   5.748   2.167   3.564
 4196SOL    HW213488   5.631   2.174   3.450
 4197SOL     OW13489   5.159   5.705   5.283
 4197SOL    HW113490   5.182   5.776   5.217
 4197SOL    HW213491   5.196   5.617   5.252
 4198SOL     OW13492   5.453   2.982   6.348
 4198SOL    HW113493   5.425   2.913   6.414
 4198SOL    HW213494   5.374   3.010   6.294
 4199SOL     OW13495   2.084   3.327   6.461
 4199SOL    HW113496   2.013   3.262   6.434
 4199SOL    HW213497   2.057   3.419   6.435
 4200SOL     OW13498   2.880   6.263   5.495
 4200SOL    HW113499   2.974   6.290   5.472
 4200SOL    HW213500   2.882   6.184   5.556
 4201SOL     OW13501   6.298   6.260   3.541
 4201SOL    HW113502   6.255   6.336   3.492
 4201SOL    HW213503   6.229   6.211   3.594
 4202SOL     OW13504   4.167   5.759   5.566
 4202SOL    HW113505   4.167   5.659   5.563
 4202SOL    HW213506   4.097   5.795   5.504
 4203SOL     OW13507   5.043   5.444   0.837
 4203SOL    HW113508   5.128   5.495   0.825
 4203SOL    HW213509   4.971   5.506   0.868
 4204SOL     OW13510   3.753   2.957   2.473
 4204SOL    HW113511   3.818   2.945   2.548
 4204SOL    HW213512   3.679   2.890   2.481
 4205SOL     OW13513   3.732   4.842   3.475
 4205SOL    HW113514   3.825   4.855   3.441
 4205SOL    HW213515   3.667   4.860   3.402
 4206SOL     OW13516   5.962   0.613   5.277
 4206SOL    HW113517   5.969   0.706   5.240
 4206SOL    HW213518   5.917   0.554   5.210
 4207SOL     OW13519   2.014   1.332   1.738
 4207SOL    HW113520   2.083   1.260   1.732
 4207SOL    HW213521   1.931   1.304   1.690
 4208SOL     OW13522   0.840   3.454   6.719
 4208SOL    HW113523   0.756   3.485   6.765
 4208SOL    HW213524   0.845   3.495   6.628
 4209SOL     OW13525   0.551   1.789   5.478
 4209SOL    HW113526   0.586   1.843   5.402
 4209SOL    HW213527   0.490   1.845   5.534
 4210SOL     OW13528   3.352   3.486   2.138
 4210SOL    HW113529   3.320   3.446   2.052
 4210SOL    HW213530   3.373   3.413   2.203
 4211SOL     OW13531   3.867   5.214   5.241
 4211SOL    HW113532   3.796   5.209   5.171
 4211SOL    HW213533   3.948   5.165   5.210
 4212SOL     OW13534   6.181   2.681   2.231
 4212SOL    HW113535   6.085   2.702   2.216
 4212SOL    HW213536   6.235   2.720   2.156
 4213SOL     OW13537   2.774   0.707   2.421
 4213SOL    HW113538   2.731   0.658   2.346
 4213SOL    HW213539   2.861   0.663   2.443
 4214SOL     OW13540   1.095   3.888   5.681
 4214SOL    HW113541   1.062   3.947   5.608
 4214SOL    HW213542   1.194   3.897   5.689
 4215SOL     OW13543   6.816   6.082   4.506
 4215SOL    HW113544   6.898   6.129   4.473
 4215SOL    HW213545   6.741   6.096   4.441
 4216SOL     OW13546   1.104   1.664   3.125
 4216SOL    HW113547   1.193   1.631   3.156
 4216SOL    HW213548   1.095   1.649   3.026
 4217SOL     OW13549   6.889   0.369   2.567
 4217SOL    HW113550   6.909   0.347   2.471
 4217SOL    HW213551   6.925   0.297   2.626
 4218SOL     OW13552   5.060   0.609   1.807
 4218SOL    HW113553   5.148   0.560   1.806
 4218SOL    HW213554   5.050   0.659   1.721
 4219SOL     OW13555   2.837   5.071   3.395
 4219SOL    HW113556   2.856   5.029   3.306
 4219SOL    HW213557   2.857   5.006   3.468
 4220SOL     OW13558   5.632   2.652   3.562
 4220SOL    HW113559   5.637   2.569   3.617
 4220SOL    HW213560   5.564   2.715   3.601
 4221SOL     OW13561   6.030   5.663   6.607
 4221SOL    HW113562   6.015   5.675   6.705
 4221SOL    HW213563   5.943   5.675   6.558
 4222SOL     OW13564   6.407   2.553   2.858
 4222SOL    HW113565   6.461   2.531   2.940
 4222SOL    HW213566   6.468   2.562   2.779
 4223SOL     OW13567   3.131   3.030   4.977
 4223SOL    HW113568   3.095   3.059   5.066
 4223SOL    HW213569   3.055   3.006   4.917
 4224SOL     OW13570   4.782   2.889   3.560
 4224SOL    HW113571   4.748   2.901   3.653
 4224SOL    HW213572   4.882   2.896   3.560
 4225SOL     OW13573   4.828   0.580   5.505
 4225SOL    HW113574   4.755   0.523   5.543
 4225SOL    HW213575   4.916   0.539   5.527
 4226SOL     OW13576   0.630   0.083   3.202
 4226SOL    HW113577   0.547   0.113   3.156
 4226SOL    HW213578   0.626   0.108   3.299
 4227SOL     OW13579   3.552   5.175   6.492
 4227SOL    HW113580   3.602   5.091   6.512
 4227SOL    HW213581   3.573   5.205   6.399
 4228SOL     OW13582   0.509   3.581   3.281
 4228SOL    HW113583   0.435   3.615   3.224
 4228SOL    HW213584   0.525   3.484   3.262
 4229SOL     OW13585   4.974   5.142   5.783
 4229SOL    HW113586   4.947   5.046   5.789
 4229SOL    HW213587   5.008   5.172   5.873
 4230SOL     OW13588   2.587   0.725   4.199
 4230SOL    HW113589   2.512   0.756   4.258
 4230SOL    HW213590   2.550   0.668   4.126
 4231SOL     OW13591   5.397   5.928   4.694
 4231SOL    HW113592   5.387   5.859   4.623
 4231SOL    HW213593   5.477   5.907   4.751
 4232SOL     OW13594   0.031   4.485   1.615
 4232SOL    HW113595   0.093   4.408   1.603
 4232SOL    HW213596   6.966   4.451   1.636
 4233SOL     OW13597   6.919   0.898   0.024
 4233SOL    HW113598   6.888   0.815   0.071
 4233SOL    HW213599   6.857   0.918   6.974
 4234SOL     OW13600   1.398   0.049   5.754
 4234SOL    HW113601   1.486   0.002   5.756
 4234SOL    HW213602   1.411   0.141   5.715
 4235SOL     OW13603   5.264   3.858   5.439
 4235SOL    HW113604   5.271   3.759   5.428
 4235SOL    HW213605   5.197   3.894   5.373
 4236SOL     OW13606   0.392   3.550   3.018
 4236SOL    HW113607   0.409   3.457   2.987
 4236SOL    HW213608   0.472   3.607   3.000
 4237SOL     OW13609   6.353   5.060   3.874
 4237SOL    HW113610   6.303   5.142   3.901
 4237SOL    HW213611   6.353   4.995   3.950
 4238SOL     OW13612   3.908   5.080   2.887
 4238SOL    HW113613   3.933   4.998   2.938
 4238SOL    HW213614   3.845   5.056   2.814
 4239SOL     OW13615   5.889   1.358   3.726
 4239SOL    HW113616   5.848   1.301   3.798
 4239SOL    HW213617   5.852   1.451   3.732
 4240SOL     OW13618   2.307   6.913   6.992
 4240SOL    HW113619   2.268   6.930   0.057
 4240SOL    HW213620   2.371   6.986   6.969
 4241SOL     OW13621   5.904   1.227   1.340
 4241SOL    HW113622   5.996   1.213   1.377
 4241SOL    HW213623   5.855   1.140   1.338
 4242SOL     OW13624   1.890   0.533   3.288
 4242SOL    HW113625   1.928   0.481   3.212
 4242SOL    HW213626   1.917   0.629   3.280
 4243SOL     OW13627   0.649   3.691   3.583
 4243SOL    HW113628   0.677   3.614   3.641
 4243SOL    HW213629   0.550   3.698   3.582
 4244SOL     OW13630   5.069   5.157   0.837
 4244SOL    HW113631   4.990   5.116   0.884
 4244SOL    HW213632   5.051   5.254   0.822
 4245SOL     OW13633   6.287   1.291   6.112
 4245SOL    HW113634   6.189   1.314   6.106
 4245SOL    HW213635   6.335   1.363   6.163
 4246SOL     OW13636   5.634   2.435   3.713
 4246SOL    HW113637   5.591   2.439   3.803
 4246SOL    HW213638   5.618   2.345   3.672
 4247SOL     OW13639   2.206   5.083   3.459
 4247SOL    HW113640   2.121   5.045   3.495
 4247SOL    HW213641   2.214   5.179   3.487
 4248SOL     OW13642   1.270   1.082   3.539
 4248SOL    HW113643   1.213   1.053   3.616
 4248SOL    HW213644   1.359   1.112   3.572
 4249SOL     OW13645   5.305   1.615   3.306
 4249SOL    HW113646   5.272   1.694   3.255
 4249SOL    HW213647   5.381   1.573   3.256
 4250SOL     OW13648   6.328   6.242   4.397
 4250SOL    HW113649   6.270   6.245   4.315
 4250SOL    HW213650   6.270   6.249   4.479
 4251SOL     OW13651   6.494   3.192   0.891
 4251SOL    HW113652   6.498   3.156   0.984
 4251SOL    HW213653   6.407   3.240   0.877
 4252SOL     OW13654   4.989   6.092   6.585
 4252SOL    HW113655   5.060   6.102   6.515
 4252SOL    HW213656   5.019   6.136   6.669
 4253SOL     OW13657   3.286   6.800   1.597
 4253SOL    HW113658   3.187   6.815   1.589
 4253SOL    HW213659   3.307   6.706   1.572
 4254SOL     OW13660   2.267   4.042   2.122
 4254SOL    HW113661   2.277   4.135   2.086
 4254SOL    HW213662   2.170   4.018   2.126
 4255SOL     OW13663   0.064   3.743   3.820
 4255SOL    HW113664   0.074   3.791   3.733
 4255SOL    HW213665   6.994   3.746   3.849
 4256SOL     OW13666   0.652   5.912   0.844
 4256SOL    HW113667   0.598   5.990   0.874
 4256SOL    HW213668   0.603   5.861   0.774
 4257SOL     OW13669   4.861   1.413   4.629
 4257SOL    HW113670   4.938   1.437   4.689
 4257SOL    HW213671   4.779   1.397   4.685
 4258SOL     OW13672   2.971   6.010   0.978
 4258SOL    HW113673   2.918   5.928   1.000
 4258SOL    HW213674   2.972   6.023   0.878
 4259SOL     OW13675   1.523   5.833   0.887
 4259SOL    HW113676   1.479   5.922   0.894
 4259SOL    HW213677   1.538   5.810   0.790
 4260SOL     OW13678   5.731   0.887   3.268
 4260SOL    HW113679   5.654   0.833   3.235
 4260SOL    HW213680   5.703   0.937   3.350
 4261SOL     OW13681   1.799   0.192   3.070
 4261SOL    HW113682   1.826   0.205   2.975
 4261SOL    HW213683   1.829   0.271   3.124
 4262SOL     OW13684   0.980   4.248   6.184
 4262SOL    HW113685   0.965   4.152   6.206
 4262SOL    HW213686   1.065   4.259   6.133
 4263SOL     OW13687   2.786   0.849   3.686
 4263SOL    HW113688   2.816   0.914   3.616
 4263SOL    HW213689   2.808   0.885   3.776
 4264SOL     OW13690   6.449   1.735   4.582
 4264SOL    HW113691   6.414   1.692   4.499
 4264SOL    HW213692   6.388   1.809   4.610
 4265SOL     OW13693   3.668   0.905   0.948
 4265SOL    HW113694   3.767   0.901   0.933
 4265SOL    HW213695   3.621   0.900   0.860
 4266SOL     OW13696   1.994   6.157   6.713
 4266SOL    HW113697   1.934   6.202   6.647
 4266SOL    HW213698   2.050   6.089   6.666
 4267SOL     OW13699   2.155   3.913   4.319
 4267SOL    HW113700   2.250   3.893   4.295
 4267SOL    HW213701   2.105   3.943   4.238
 4268SOL     OW13702   1.857   5.573   6.761
 4268SOL    HW113703   1.869   5.474   6.756
 4268SOL    HW213704   1.822   5.598   6.852
 4269SOL     OW13705   2.990   0.780   3.257
 4269SOL    HW113706   2.987   0.784   3.357
 4269SOL    HW213707   2.900   0.756   3.222
 4270SOL     OW13708   3.323   3.033   2.383
 4270SOL    HW113709   3.223   3.030   2.386
 4270SOL    HW213710   3.357   3.100   2.449
 4271SOL     OW13711   7.000   1.022   0.269
 4271SOL    HW113712   6.923   0.999   0.328
 4271SOL    HW213713   6.986   0.979   0.179
 4272SOL     OW13714   6.846   2.643   4.960
 4272SOL    HW113715   6.837   2.741   4.976
 4272SOL    HW213716   6.883   2.599   5.042
 4273SOL     OW13717   4.948   6.444   4.874
 4273SOL    HW113718   5.046   6.452   4.892
 4273SOL    HW213719   4.923   6.347   4.868
 4274SOL     OW13720   1.409   7.019   2.006
 4274SOL    HW113721   1.336   0.056   1.982
 4274SOL    HW213722   1.497   0.035   1.988
 4275SOL     OW13723   6.892   1.795   4.183
 4275SOL    HW113724   6.862   1.708   4.222
 4275SOL    HW213725   6.916   1.782   4.087
 4276SOL     OW13726   3.103   4.966   3.777
 4276SOL    HW113727   3.055   5.053   3.786
 4276SOL    HW213728   3.130   4.934   3.868
 4277SOL     OW13729   0.024   4.424   2.721
 4277SOL    HW113730   6.981   4.486   2.757
 4277SOL    HW213731   0.079   4.388   2.796
 4278SOL     OW13732   0.393   6.883   4.251
 4278SOL    HW113733   0.362   6.806   4.196
 4278SOL    HW213734   0.462   6.934   4.199
 4279SOL     OW13735   1.971   1.070   2.898
 4279SOL    HW113736   2.022   1.001   2.949
 4279SOL    HW213737   1.887   1.093   2.946
 4280SOL     OW13738   6.180   6.958   5.936
 4280SOL    HW113739   6.102   6.908   5.898
 4280SOL    HW213740   6.188   0.021   5.890
 4281SOL     OW13741   5.520   5.301   3.336
 4281SOL    HW113742   5.550   5.383   3.385
 4281SOL    HW213743   5.518   5.321   3.238
 4282SOL     OW13744   3.502   4.371   0.468
 4282SOL    HW113745   3.507   4.397   0.372
 4282SOL    HW213746   3.592   4.378   0.510
 4283SOL     OW13747   3.090   1.398   3.589
 4283SOL    HW113748   3.091   1.345   3.504
 4283SOL    HW213749   3.183   1.415   3.619
 4284SOL     OW13750   4.598   5.286   0.532
 4284SOL    HW113751   4.570   5.191   0.520
 4284SOL    HW213752   4.666   5.309   0.462
 4285SOL     OW13753   2.221   1.435   5.686
 4285SOL    HW113754   2.265   1.356   5.728
 4285SOL    HW213755   2.290   1.505   5.668
 4286SOL     OW13756   5.873   7.006   6.055
 4286SOL    HW113757   5.909   6.936   5.994
 4286SOL    HW213758   5.779   0.004   6.027
 4287SOL     OW13759   4.632   1.006   5.699
 4287SOL    HW113760   4.693   1.002   5.620
 4287SOL    HW213761   4.607   0.913   5.727
 4288SOL     OW13762   1.086   5.460   3.176
 4288SOL    HW113763   1.018   5.458   3.102
 4288SOL    HW213764   1.074   5.544   3.230
 4289SOL     OW13765   0.800   2.377   6.019
 4289SOL    HW113766   0.835   2.303   5.962
 4289SOL    HW213767   0.864   2.393   6.095
 4290SOL     OW13768   0.806   6.144   4.931
 4290SOL    HW113769   0.778   6.113   5.022
 4290SOL    HW213770   0.772   6.080   4.862
 4291SOL     OW13771   4.956   4.187   6.625
 4291SOL    HW113772   4.930   4.260   6.562
 4291SOL    HW213773   5.012   4.120   6.576
 4292SOL     OW13774   6.199   2.846   0.330
 4292SOL    HW113775   6.128   2.916   0.324
 4292SOL    HW213776   6.250   2.858   0.416
 4293SOL     OW13777   3.536   4.476   6.950
 4293SOL    HW113778   3.467   4.494   6.879
 4293SOL    HW213779   3.575   4.385   6.937
 4294SOL     OW13780   1.795   1.169   6.285
 4294SOL    HW113781   1.821   1.077   6.255
 4294SOL    HW213782   1.878   1.225   6.297
 4295SOL     OW13783   5.164   5.967   3.748
 4295SOL    HW113784   5.187   5.970   3.650
 4295SOL    HW213785   5.119   5.880   3.769
 4296SOL     OW13786   3.107   6.939   0.013
 4296SOL    HW113787   3.171   6.990   0.071
 4296SOL    HW213788   3.096   6.847   0.049
 4297SOL     OW13789   6.480   6.650   2.110
 4297SOL    HW113790   6.478   6.575   2.177
 4297SOL    HW213791   6.538   6.624   2.033
 4298SOL     OW13792   3.468   6.183   1.755
 4298SOL    HW113793   3.437   6.100   1.801
 4298SOL    HW213794   3.562   6.204   1.782
 4299SOL     OW13795   1.170   2.885   0.190
 4299SOL    HW113796   1.167   2.861   0.093
 4299SOL    HW213797   1.078   2.883   0.228
 4300SOL     OW13798   2.544   6.924   0.209
 4300SOL    HW113799   2.531   7.020   0.185
 4300SOL    HW213800   2.598   6.878   0.138
 4301SOL     OW13801   4.596   0.265   1.741
 4301SOL    HW113802   4.680   0.273   1.795
 4301SOL    HW213803   4.575   0.168   1.727
 4302SOL     OW13804   6.834   0.348   6.302
 4302SOL    HW113805   6.865   0.263   6.344
 4302SOL    HW213806   6.810   0.414   6.373
 4303SOL     OW13807   0.183   4.333   4.219
 4303SOL    HW113808   0.268   4.322   4.271
 4303SOL    HW213809   0.143   4.423   4.241
 4304SOL     OW13810   3.378   3.707   2.327
 4304SOL    HW113811   3.357   3.623   2.276
 4304SOL    HW213812   3.415   3.775   2.264
 4305SOL     OW13813   0.459   6.417   6.342
 4305SOL    HW113814   0.502   6.506   6.357
 4305SOL    HW213815   0.373   6.412   6.392
 4306SOL     OW13816   4.717   4.743   4.397
 4306SOL    HW113817   4.636   4.714   4.448
 4306SOL    HW213818   4.735   4.679   4.322
 4307SOL     OW13819   5.442   3.220   5.201
 4307SOL    HW113820   5.532   3.255   5.229
 4307SOL    HW213821   5.451   3.169   5.116
 4308SOL     OW13822   5.766   5.657   1.276
 4308SOL    HW113823   5.798   5.567   1.244
 4308SOL    HW213824   5.796   5.728   1.212
 4309SOL     OW13825   1.467   1.163   0.939
 4309SOL    HW113826   1.554   1.144   0.893
 4309SOL    HW213827   1.484   1.173   1.037
 4310SOL     OW13828   1.833   2.309   1.281
 4310SOL    HW113829   1.830   2.278   1.186
 4310SOL    HW213830   1.880   2.397   1.285
 4311SOL     OW13831   0.310   6.082   2.620
 4311SOL    HW113832   0.388   6.094   2.558
 4311SOL    HW213833   0.231   6.131   2.584
 4312SOL     OW13834   1.674   5.426   3.160
 4312SOL    HW113835   1.581   5.415   3.197
 4312SOL    HW213836   1.684   5.367   3.080
 4313SOL     OW13837   4.309   1.753   0.464
 4313SOL    HW113838   4.383   1.708   0.415
 4313SOL    HW213839   4.228   1.758   0.405
 4314SOL     OW13840   6.337   1.225   4.812
 4314SOL    HW113841   6.323   1.308   4.758
 4314SOL    HW213842   6.424   1.183   4.788
 4315SOL     OW13843   2.491   0.437   3.507
 4315SOL    HW113844   2.417   0.443   3.441
 4315SOL    HW213845   2.558   0.508   3.489
 4316SOL     OW13846   4.810   0.116   2.279
 4316SOL    HW113847   4.842   0.106   2.185
 4316SOL    HW213848   4.885   0.147   2.337
 4317SOL     OW13849   5.251   1.420   5.948
 4317SOL    HW113850   5.339   1.406   5.992
 4317SOL    HW213851   5.182   1.362   5.991
 4318SOL     OW13852   1.065   1.642   4.865
 4318SOL    HW113853   1.001   1.719   4.866
 4318SOL    HW213854   1.128   1.653   4.787
 4319SOL     OW13855   1.124   2.106   1.242
 4319SOL    HW113856   1.178   2.187   1.263
 4319SOL    HW213857   1.100   2.105   1.145
 4320SOL     OW13858   3.896   5.273   0.904
 4320SOL    HW113859   3.877   5.357   0.955
 4320SOL    HW213860   3.913   5.198   0.968
 4321SOL     OW13861   0.037   4.577   4.590
 4321SOL    HW113862   0.089   4.514   4.648
 4321SOL    HW213863   7.009   4.524   4.524
 4322SOL     OW13864   6.349   2.864   6.631
 4322SOL    HW113865   6.337   2.958   6.662
 4322SOL    HW213866   6.261   2.826   6.603
 4323SOL     OW13867   5.110   4.739   0.311
 4323SOL    HW113868   5.081   4.820   0.362
 4323SOL    HW213869   5.075   4.744   0.218
 4324SOL     OW13870   6.537   4.096   6.119
 4324SOL    HW113871   6.449   4.111   6.075
 4324SOL    HW213872   6.524   4.086   6.218
 4325SOL     OW13873   3.058   1.796   2.150
 4325SOL    HW113874   2.985   1.850   2.192
 4325SOL    HW213875   3.076   1.715   2.206
 4326SOL     OW13876   5.075   4.517   1.911
 4326SOL    HW113877   5.002   4.548   1.972
 4326SOL    HW213878   5.045   4.436   1.860
 4327SOL     OW13879   4.951   6.369   2.226
 4327SOL    HW113880   4.862   6.355   2.181
 4327SOL    HW213881   4.936   6.379   2.324
 4328SOL     OW13882   5.713   4.806   5.450
 4328SOL    HW113883   5.767   4.726   5.476
 4328SOL    HW213884   5.631   4.776   5.399
 4329SOL     OW13885   5.650   2.648   5.355
 4329SOL    HW113886   5.624   2.599   5.272
 4329SOL    HW213887   5.647   2.586   5.433
 4330SOL     OW13888   2.094   6.776   4.615
 4330SOL    HW113889   2.112   6.807   4.708
 4330SOL    HW213890   2.168   6.716   4.585
 4331SOL     OW13891   5.892   0.966   1.569
 4331SOL    HW113892   5.913   0.887   1.627
 4331SOL    HW213893   5.905   1.050   1.623
 4332SOL     OW13894   6.166   2.974   2.984
 4332SOL    HW113895   6.243   2.958   3.046
 4332SOL    HW213896   6.157   3.072   2.966
 4333SOL     OW13897   4.439   1.816   4.851
 4333SOL    HW113898   4.514   1.882   4.844
 4333SOL    HW213899   4.357   1.853   4.808
 4334SOL     OW13900   1.982   2.839   1.965
 4334SOL    HW113901   1.932   2.857   2.049
 4334SOL    HW213902   1.926   2.783   1.904
 4335SOL     OW13903   3.571   2.910   2.200
 4335SOL    HW113904   3.534   3.000   2.223
 4335SOL    HW213905   3.631   2.878   2.273
 4336SOL     OW13906   2.643   5.558   5.776
 4336SOL    HW113907   2.619   5.524   5.686
 4336SOL    HW213908   2.651   5.658   5.773
 4337SOL     OW13909   2.219   4.765   1.474
 4337SOL    HW113910   2.232   4.846   1.531
 4337SOL    HW213911   2.189   4.689   1.531
 4338SOL     OW13912   6.235   0.052   6.156
 4338SOL    HW113913   6.258   0.145   6.126
 4338SOL    HW213914   6.215   7.022   6.075
 4339SOL     OW13915   4.190   2.785   6.518
 4339SOL    HW113916   4.285   2.810   6.499
 4339SOL    HW213917   4.172   2.795   6.616
 4340SOL     OW13918   5.937   3.854   0.957
 4340SOL    HW113919   5.958   3.862   0.860
 4340SOL    HW213920   5.838   3.843   0.969
 4341SOL     OW13921   1.552   5.446   1.096
 4341SOL    HW113922   1.524   5.536   1.128
 4341SOL    HW213923   1.567   5.386   1.174
 4342SOL     OW13924   5.368   3.781   3.045
 4342SOL    HW113925   5.364   3.704   2.981
 4342SOL    HW213926   5.277   3.798   3.083
 4343SOL     OW13927   3.249   5.963   4.451
 4343SOL    HW113928   3.261   5.866   4.471
 4343SOL    HW213929   3.290   6.018   4.524
 4344SOL     OW13930   1.255   3.364   3.003
 4344SOL    HW113931   1.197   3.368   2.922
 4344SOL    HW213932   1.306   3.450   3.012
 4345SOL     OW13933   3.400   3.860   4.910
 4345SOL    HW113934   3.359   3.901   4.991
 4345SOL    HW213935   3.349   3.778   4.884
 4346SOL     OW13936   2.109   2.605   2.754
 4346SOL    HW113937   2.073   2.514   2.734
 4346SOL    HW213938   2.153   2.642   2.672
 4347SOL     OW13939   5.624   6.471   2.781
 4347SOL    HW113940   5.623   6.375   2.754
 4347SOL    HW213941   5.576   6.526   2.713
 4348SOL     OW13942   0.130   5.975   4.509
 4348SOL    HW113943   0.135   5.973   4.409
 4348SOL    HW213944   0.186   6.050   4.543
 4349SOL     OW13945   6.445   2.338   4.189
 4349SOL    HW113946   6.400   2.258   4.148
 4349SOL    HW213947   6.477   2.316   4.280
 4350SOL     OW13948   4.576   1.746   4.042
 4350SOL    HW113949   4.555   1.649   4.028
 4350SOL    HW213950   4.563   1.768   4.139
 4351SOL     OW13951   1.410   6.326   1.184
 4351SOL    HW113952   1.415   6.323   1.284
 4351SOL    HW213953   1.478   6.392   1.149
 4352SOL     OW13954   6.380   4.177   1.753
 4352SOL    HW113955   6.341   4.087   1.772
 4352SOL    HW213956   6.376   4.195   1.655
 4353SOL     OW13957   3.567   3.395   0.558
 4353SOL    HW113958   3.644   3.401   0.622
 4353SOL    HW213959   3.579   3.314   0.500
 4354SOL     OW13960   1.987   1.363   6.352
 4354SOL    HW113961   1.979   1.349   6.451
 4354SOL    HW213962   1.990   1.461   6.333
 4355SOL     OW13963   2.045   7.002   2.575
 4355SOL    HW113964   1.972   0.020   2.521
 4355SOL    HW213965   2.127   6.993   2.518
 4356SOL     OW13966   4.686   3.559   5.855
 4356SOL    HW113967   4.654   3.611   5.934
 4356SOL    HW213968   4.615   3.557   5.785
 4357SOL     OW13969   6.703   1.123   1.597
 4357SOL    HW113970   6.686   1.066   1.516
 4357SOL    HW213971   6.701   1.219   1.570
 4358SOL     OW13972   6.827   0.781   0.573
 4358SOL    HW113973   6.850   0.811   0.665
 4358SOL    HW213974   6.813   0.682   0.572
 4359SOL     OW13975   1.009   1.159   0.081
 4359SOL    HW113976   0.920   1.167   0.126
 4359SOL    HW213977   1.081   1.188   0.145
 4360SOL     OW13978   0.465   3.111   4.514
 4360SOL    HW113979   0.541   3.175   4.530
 4360SOL    HW213980   0.467   3.081   4.418
 4361SOL     OW13981   2.143   3.894   1.369
 4361SOL    HW113982   2.088   3.966   1.411
 4361SOL    HW213983   2.112   3.805   1.402
 4362SOL     OW13984   7.009   5.966   4.221
 4362SOL    HW113985   7.015   6.027   4.142
 4362SOL    HW213986   6.914   5.939   4.235
 4363SOL     OW13987   4.652   1.110   1.508
 4363SOL    HW113988   4.613   1.168   1.579
 4363SOL    HW213989   4.748   1.133   1.495
 4364SOL     OW13990   3.212   4.102   3.438
 4364SOL    HW113991   3.202   4.035   3.364
 4364SOL    HW213992   3.274   4.174   3.409
 4365SOL     OW13993   2.967   0.901   2.371
 4365SOL    HW113994   2.929   0.993   2.385
 4365SOL    HW213995   2.892   0.835   2.365
 4366SOL     OW13996   6.228   6.543   6.859
 4366SOL    HW113997   6.237   6.484   6.779
 4366SOL    HW213998   6.147   6.519   6.911
 4367SOL     OW13999   2.633   5.039   3.661
 4367SOL    HW114000   2.551   5.021   3.714
 4367SOL    HW214001   2.619   5.120   3.604
 4368SOL     OW14002   3.807   5.576   1.709
 4368SOL    HW114003   3.793   5.494   1.764
 4368SOL    HW214004   3.820   5.655   1.770
 4369SOL     OW14005   4.650   5.265   3.120
 4369SOL    HW114006   4.721   5.196   3.120
 4369SOL    HW214007   4.571   5.232   3.171
 4370SOL     OW14008   3.615   4.207   1.469
 4370SOL    HW114009   3.654   4.115   1.464
 4370SOL    HW214010   3.643   4.259   1.389
 4371SOL     OW14011   2.081   2.056   2.966
 4371SOL    HW114012   2.141   2.133   2.988
 4371SOL    HW214013   2.032   2.076   2.881
 4372SOL     OW14014   2.476   2.693   4.650
 4372SOL    HW114015   2.550   2.639   4.692
 4372SOL    HW214016   2.427   2.743   4.721
 4373SOL     OW14017   4.603   0.992   6.539
 4373SOL    HW114018   4.608   1.069   6.475
 4373SOL    HW214019   4.510   0.955   6.539
 4374SOL     OW14020   1.904   1.656   1.668
 4374SOL    HW114021   1.903   1.620   1.761
 4374SOL    HW214022   1.995   1.640   1.627
 4375SOL     OW14023   3.760   5.731   2.893
 4375SOL    HW114024   3.810   5.788   2.958
 4375SOL    HW214025   3.812   5.647   2.875
 4376SOL     OW14026   6.350   0.611   2.022
 4376SOL    HW114027   6.415   0.668   2.071
 4376SOL    HW214028   6.265   0.605   2.074
 4377SOL     OW14029   5.861   5.707   0.500
 4377SOL    HW114030   5.767   5.740   0.508
 4377SOL    HW214031   5.906   5.752   0.423
 4378SOL     OW14032   1.933   3.909   2.913
 4378SOL    HW114033   2.006   3.851   2.876
 4378SOL    HW214034   1.875   3.856   2.974
 4379SOL     OW14035   2.388   1.205   2.062
 4379SOL    HW114036   2.311   1.238   2.117
 4379SOL    HW214037   2.385   1.105   2.059
 4380SOL     OW14038   1.810   6.433   3.995
 4380SOL    HW114039   1.849   6.364   4.056
 4380SOL    HW214040   1.884   6.489   3.957
 4381SOL     OW14041   2.227   4.167   4.788
 4381SOL    HW114042   2.195   4.086   4.739
 4381SOL    HW214043   2.281   4.138   4.867
 4382SOL     OW14044   5.938   3.140   6.256
 4382SOL    HW114045   5.963   3.057   6.207
 4382SOL    HW214046   5.839   3.152   6.254
 4383SOL     OW14047   0.519   2.804   5.549
 4383SOL    HW114048   0.466   2.825   5.467
 4383SOL    HW214049   0.460   2.810   5.629
 4384SOL     OW14050   5.639   1.244   6.685
 4384SOL    HW114051   5.567   1.198   6.633
 4384SOL    HW214052   5.636   1.213   6.780
 4385SOL     OW14053   6.807   2.512   4.643
 4385SOL    HW114054   6.767   2.568   4.716
 4385SOL    HW214055   6.815   2.567   4.560
 4386SOL     OW14056   1.342   4.073   6.771
 4386SOL    HW114057   1.439   4.054   6.779
 4386SOL    HW214058   1.313   4.059   6.676
 4387SOL     OW14059   1.551   1.530   1.593
 4387SOL    HW114060   1.642   1.566   1.570
 4387SOL    HW214061   1.491   1.541   1.514
 4388SOL     OW14062   5.088   1.019   6.056
 4388SOL    HW114063   5.041   0.935   6.029
 4388SOL    HW214064   5.057   1.094   5.999
 4389SOL     OW14065   5.267   1.984   0.508
 4389SOL    HW114066   5.169   1.995   0.525
 4389SOL    HW214067   5.282   1.925   0.428
 4390SOL     OW14068   4.373   1.935   2.217
 4390SOL    HW114069   4.381   1.875   2.297
 4390SOL    HW214070   4.435   2.013   2.228
 4391SOL     OW14071   1.837   5.559   6.182
 4391SOL    HW114072   1.925   5.605   6.169
 4391SOL    HW214073   1.787   5.602   6.257
 4392SOL     OW14074   6.424   3.646   5.325
 4392SOL    HW114075   6.344   3.588   5.308
 4392SOL    HW214076   6.502   3.608   5.276
 4393SOL     OW14077   5.825   6.370   3.050
 4393SOL    HW114078   5.858   6.447   2.995
 4393SOL    HW214079   5.894   6.344   3.117
 4394SOL     OW14080   6.418   5.433   2.779
 4394SOL    HW114081   6.498   5.485   2.810
 4394SOL    HW214082   6.370   5.486   2.710
 4395SOL     OW14083   3.677   1.276   2.045
 4395SOL    HW114084   3.681   1.236   1.954
 4395SOL    HW214085   3.770   1.282   2.083
 4396SOL     OW14086   2.494   2.185   4.153
 4396SOL    HW114087   2.588   2.161   4.131
 4396SOL    HW214088   2.450   2.227   4.074
 4397SOL     OW14089   0.905   1.847   4.960
 4397SOL    HW114090   0.819   1.897   4.950
 4397SOL    HW214091   0.923   1.831   5.057
 4398SOL     OW14092   1.462   4.747   4.774
 4398SOL    HW114093   1.521   4.667   4.764
 4398SOL    HW214094   1.421   4.769   4.686
 4399SOL     OW14095   1.525   0.541   2.376
 4399SOL    HW114096   1.451   0.608   2.386
 4399SOL    HW214097   1.522   0.501   2.284
 4400SOL     OW14098   2.285   0.188   5.127
 4400SOL    HW114099   2.268   0.268   5.070
 4400SOL    HW214100   2.379   0.157   5.113
 4401SOL     OW14101   5.295   6.752   6.885
 4401SOL    HW114102   5.313   6.756   6.983
 4401SOL    HW214103   5.203   6.788   6.867
 4402SOL     OW14104   1.980   6.439   1.840
 4402SOL    HW114105   1.989   6.379   1.919
 4402SOL    HW214106   2.009   6.390   1.758
 4403SOL     OW14107   0.261   0.158   3.461
 4403SOL    HW114108   0.280   0.170   3.559
 4403SOL    HW214109   0.196   0.084   3.449
 4404SOL     OW14110   0.816   4.169   5.596
 4404SOL    HW114111   0.885   4.103   5.569
 4404SOL    HW214112   0.743   4.173   5.527
 4405SOL     OW14113   2.889   4.146   0.292
 4405SOL    HW114114   2.839   4.193   0.219
 4405SOL    HW214115   2.984   4.133   0.265
 4406SOL     OW14116   5.802   4.746   1.329
 4406SOL    HW114117   5.799   4.815   1.256
 4406SOL    HW214118   5.720   4.690   1.326
 4407SOL     OW14119   0.067   4.271   0.599
 4407SOL    HW114120   0.117   4.263   0.685
 4407SOL    HW214121   0.048   4.180   0.562
 4408SOL     OW14122   4.624   1.169   1.009
 4408SOL    HW114123   4.571   1.161   1.094
 4408SOL    HW214124   4.703   1.227   1.026
 4409SOL     OW14125   4.160   0.531   1.983
 4409SOL    HW114126   4.249   0.515   1.940
 4409SOL    HW214127   4.167   0.515   2.082
 4410SOL     OW14128   1.758   5.413   0.224
 4410SOL    HW114129   1.710   5.331   0.194
 4410SOL    HW214130   1.707   5.456   0.299
 4411SOL     OW14131   3.949   3.228   3.758
 4411SOL    HW114132   3.979   3.231   3.853
 4411SOL    HW214133   3.868   3.286   3.747
 4412SOL     OW14134   3.619   1.090   4.674
 4412SOL    HW114135   3.632   1.133   4.585
 4412SOL    HW214136   3.561   1.009   4.664
 4413SOL     OW14137   4.907   5.615   4.564
 4413SOL    HW114138   4.930   5.538   4.623
 4413SOL    HW214139   4.812   5.642   4.580
 4414SOL     OW14140   4.079   4.864   1.920
 4414SOL    HW114141   4.094   4.778   1.871
 4414SOL    HW214142   3.983   4.891   1.911
 4415SOL     OW14143   4.176   4.138   6.083
 4415SOL    HW114144   4.103   4.117   6.148
 4415SOL    HW214145   4.143   4.122   5.990
 4416SOL     OW14146   3.108   0.749   3.846
 4416SOL    HW114147   3.088   0.825   3.784
 4416SOL    HW214148   3.207   0.737   3.854
 4417SOL     OW14149   6.379   4.360   3.423
 4417SOL    HW114150   6.447   4.298   3.383
 4417SOL    HW214151   6.327   4.312   3.493
 4418SOL     OW14152   5.317   0.559   3.755
 4418SOL    HW114153   5.369   0.531   3.674
 4418SOL    HW214154   5.381   0.590   3.826
 4419SOL     OW14155   5.580   6.166   0.397
 4419SOL    HW114156   5.646   6.102   0.436
 4419SOL    HW214157   5.545   6.226   0.468
 4420SOL     OW14158   5.024   1.831   1.240
 4420SOL    HW114159   5.010   1.927   1.215
 4420SOL    HW214160   5.003   1.773   1.161
 4421SOL     OW14161   1.891   1.028   3.381
 4421SOL    HW114162   1.925   1.044   3.474
 4421SOL    HW214163   1.943   1.084   3.317
 4422SOL     OW14164   2.125   3.783   5.816
 4422SOL    HW114165   2.134   3.691   5.778
 4422SOL    HW214166   2.189   3.844   5.770
 4423SOL     OW14167   1.364   2.711   5.622
 4423SOL    HW114168   1.436   2.666   5.568
 4423SOL    HW214169   1.401   2.796   5.660
 4424SOL     OW14170   4.969   6.994   4.033
 4424SOL    HW114171   4.996   7.020   4.125
 4424SOL    HW214172   5.039   7.022   3.968
 4425SOL     OW14173   3.427   5.605   5.685
 4425SOL    HW114174   3.369   5.663   5.628
 4425SOL    HW214175   3.488   5.662   5.740
 4426SOL     OW14176   0.039   2.061   4.841
 4426SOL    HW114177   7.015   2.025   4.920
 4426SOL    HW214178   7.009   2.127   4.792
 4427SOL     OW14179   6.706   6.728   3.077
 4427SOL    HW114180   6.701   6.720   3.176
 4427SOL    HW214181   6.662   6.813   3.048
 4428SOL     OW14182   3.423   5.323   1.694
 4428SOL    HW114183   3.459   5.397   1.637
 4428SOL    HW214184   3.351   5.275   1.644
 4429SOL     OW14185   3.054   0.490   3.285
 4429SOL    HW114186   3.108   0.496   3.202
 4429SOL    HW214187   3.014   0.580   3.306
 4430SOL     OW14188   5.422   2.966   4.689
 4430SOL    HW114189   5.352   3.007   4.747
 4430SOL    HW214190   5.397   2.979   4.593
 4431SOL     OW14191   1.208   0.636   2.281
 4431SOL    HW114192   1.235   0.542   2.261
 4431SOL    HW214193   1.231   0.694   2.203
 4432SOL     OW14194   3.194   4.122   3.786
 4432SOL    HW114195   3.274   4.075   3.748
 4432SOL    HW214196   3.143   4.165   3.712
 4433SOL     OW14197   5.925   0.390   4.658
 4433SOL    HW114198   5.895   0.295   4.672
 4433SOL    HW214199   6.002   0.391   4.594
 4434SOL     OW14200   3.519   2.087   3.241
 4434SOL    HW114201   3.459   2.084   3.161
 4434SOL    HW214202   3.549   2.182   3.257
 4435SOL     OW14203   3.954   4.112   1.066
 4435SOL    HW114204   3.995   4.033   1.112
 4435SOL    HW214205   3.859   4.090   1.042
 4436SOL     OW14206   3.725   1.909   0.584
 4436SOL    HW114207   3.670   1.846   0.529
 4436SOL    HW214208   3.678   1.929   0.670
 4437SOL     OW14209   5.473   1.215   4.241
 4437SOL    HW114210   5.385   1.201   4.196
 4437SOL    HW214211   5.505   1.308   4.220
 4438SOL     OW14212   4.356   1.385   0.007
 4438SOL    HW114213   4.268   1.358   6.996
 4438SOL    HW214214   4.362   1.485   0.011
 4439SOL     OW14215   0.448   6.189   1.216
 4439SOL    HW114216   0.527   6.138   1.251
 4439SOL    HW214217   0.473   6.285   1.203
 4440SOL     OW14218   1.872   4.961   0.889
 4440SOL    HW114219   1.947   4.915   0.937
 4440SOL    HW214220   1.897   4.974   0.793
 4441SOL     OW14221   6.618   1.846   2.787
 4441SOL    HW114222   6.598   1.927   2.842
 4441SOL    HW214223   6.537   1.787   2.783
 4442SOL     OW14224   2.702   5.853   4.679
 4442SOL    HW114225   2.687   5.849   4.580
 4442SOL    HW214226   2.640   5.919   4.720
 4443SOL     OW14227   6.712   2.751   0.689
 4443SOL    HW114228   6.755   2.793   0.610
 4443SOL    HW214229   6.653   2.818   0.735
 4444SOL     OW14230   3.845   5.485   6.211
 4444SOL    HW114231   3.832   5.562   6.274
 4444SOL    HW214232   3.800   5.506   6.124
 4445SOL     OW14233   0.074   0.571   1.112
 4445SOL    HW114234   0.090   0.647   1.049
 4445SOL    HW214235   0.145   0.502   1.100
 4446SOL     OW14236   6.426   1.874   1.903
 4446SOL    HW114237   6.356   1.841   1.840
 4446SOL    HW214238   6.446   1.802   1.970
 4447SOL     OW14239   5.904   3.698   6.136
 4447SOL    HW114240   5.881   3.607   6.101
 4447SOL    HW214241   5.897   3.765   6.062
 4448SOL     OW14242   3.443   4.099   0.601
 4448SOL    HW114243   3.390   4.019   0.628
 4448SOL    HW214244   3.383   4.167   0.560
 4449SOL     OW14245   4.640   0.843   6.031
 4449SOL    HW114246   4.730   0.872   6.064
 4449SOL    HW214247   4.570   0.871   6.097
 4450SOL     OW14248   4.084   3.626   4.358
 4450SOL    HW114249   4.085   3.673   4.270
 4450SOL    HW214250   4.087   3.693   4.432
 4451SOL     OW14251   5.562   4.281   3.234
 4451SOL    HW114252   5.661   4.276   3.243
 4451SOL    HW214253   5.530   4.210   3.171
 4452SOL     OW14254   5.472   6.550   4.732
 4452SOL    HW114255   5.540   6.573   4.662
 4452SOL    HW214256   5.412   6.629   4.747
 4453SOL     OW14257   6.929   2.934   1.281
 4453SOL    HW114258   6.996   2.971   1.345
 4453SOL    HW214259   6.923   2.994   1.201
 4454SOL     OW14260   5.743   2.214   6.908
 4454SOL    HW114261   5.800   2.143   6.950
 4454SOL    HW214262   5.796   2.264   6.840
 4455SOL     OW14263   4.145   0.649   6.283
 4455SOL    HW114264   4.117   0.553   6.279
 4455SOL    HW214265   4.074   0.703   6.329
 4456SOL     OW14266   2.896   5.480   2.454
 4456SOL    HW114267   2.835   5.553   2.484
 4456SOL    HW214268   2.861   5.392   2.488
 4457SOL     OW14269   4.198   2.533   0.408
 4457SOL    HW114270   4.224   2.448   0.362
 4457SOL    HW214271   4.211   2.523   0.506
 4458SOL     OW14272   1.216   3.835   6.928
 4458SOL    HW114273   1.259   3.898   6.863
 4458SOL    HW214274   1.178   3.757   6.878
 4459SOL     OW14275   4.760   0.363   3.866
 4459SOL    HW114276   4.785   0.335   3.959
 4459SOL    HW214277   4.789   0.292   3.802
 4460SOL     OW14278   3.050   3.070   5.222
 4460SOL    HW114279   3.098   2.996   5.267
 4460SOL    HW214280   3.028   3.142   5.288
 4461SOL     OW14281   1.205   0.334   2.799
 4461SOL    HW114282   1.255   0.248   2.791
 4461SOL    HW214283   1.146   0.345   2.719
 4462SOL     OW14284   0.088   3.168   2.127
 4462SOL    HW114285   0.102   3.134   2.220
 4462SOL    HW214286   0.116   3.098   2.061
 4463SOL     OW14287   3.850   2.936   0.017
 4463SOL    HW114288   3.937   2.953   6.996
 4463SOL    HW214289   3.784   2.898   6.978
 4464SOL     OW14290   6.595   4.232   6.766
 4464SOL    HW114291   6.528   4.298   6.732
 4464SOL    HW214292   6.566   4.140   6.743
 4465SOL     OW14293   2.518   5.486   2.421
 4465SOL    HW114294   2.462   5.558   2.462
 4465SOL    HW214295   2.536   5.508   2.325
 4466SOL     OW14296   1.391   0.692   2.669
 4466SOL    HW114297   1.292   0.685   2.657
 4466SOL    HW214298   1.435   0.611   2.629
 4467SOL     OW14299   1.347   7.026   3.679
 4467SOL    HW114300   1.269   0.059   3.697
 4467SOL    HW214301   1.429   0.037   3.723
 4468SOL     OW14302   1.329   2.815   0.994
 4468SOL    HW114303   1.262   2.741   1.001
 4468SOL    HW214304   1.411   2.790   1.046
 4469SOL     OW14305   3.872   0.412   1.521
 4469SOL    HW114306   3.904   0.401   1.615
 4469SOL    HW214307   3.945   0.386   1.457
 4470SOL     OW14308   6.383   3.099   2.047
 4470SOL    HW114309   6.293   3.139   2.028
 4470SOL    HW214310   6.436   3.161   2.104
 4471SOL     OW14311   6.919   1.870   0.292
 4471SOL    HW114312   6.987   1.943   0.298
 4471SOL    HW214313   6.917   1.818   0.377
 4472SOL     OW14314   1.733   2.995   3.681
 4472SOL    HW114315   1.706   3.051   3.759
 4472SOL    HW214316   1.818   3.030   3.643
 4473SOL     OW14317   0.073   2.685   3.902
 4473SOL    HW114318   0.003   2.669   3.833
 4473SOL    HW214319   0.161   2.703   3.857
 4474SOL     OW14320   3.789   0.592   1.911
 4474SOL    HW114321   3.850   0.526   1.867
 4474SOL    HW214322   3.734   0.544   1.980
 4475SOL     OW14323   1.736   3.918   2.394
 4475SOL    HW114324   1.802   3.844   2.380
 4475SOL    HW214325   1.663   3.887   2.454
 4476SOL     OW14326   4.555   6.478   4.121
 4476SOL    HW114327   4.490   6.420   4.169
 4476SOL    HW214328   4.647   6.461   4.156
 4477SOL     OW14329   1.064   0.358   5.500
 4477SOL    HW114330   1.060   0.451   5.462
 4477SOL    HW214331   1.100   0.296   5.431
 4478SOL     OW14332   3.369   5.913   2.387
 4478SOL    HW114333   3.391   5.849   2.314
 4478SOL    HW214334   3.416   5.886   2.471
 4479SOL     OW14335   0.472   0.851   1.053
 4479SOL    HW114336   0.562   0.846   1.096
 4479SOL    HW214337   0.476   0.811   0.961
 4480SOL     OW14338   1.467   3.358   5.486
 4480SOL    HW114339   1.524   3.397   5.559
 4480SOL    HW214340   1.408   3.429   5.448
 4481SOL     OW14341   2.484   6.710   5.012
 4481SOL    HW114342   2.567   6.755   4.979
 4481SOL    HW214343   2.510   6.633   5.071
 4482SOL     OW14344   0.230   4.075   3.947
 4482SOL    HW114345   0.166   4.152   3.937
 4482SOL    HW214346   0.268   4.052   3.857
 4483SOL     OW14347   4.995   3.440   2.316
 4483SOL    HW114348   5.022   3.517   2.374
 4483SOL    HW214349   4.905   3.408   2.343
 4484SOL     OW14350   3.415   2.978   5.288
 4484SOL    HW114351   3.510   2.950   5.270
 4484SOL    HW214352   3.394   2.963   5.384
 4485SOL     OW14353   5.383   1.777   5.699
 4485SOL    HW114354   5.389   1.870   5.733
 4485SOL    HW214355   5.297   1.735   5.730
 4486SOL     OW14356   5.199   3.684   4.393
 4486SOL    HW114357   5.269   3.612   4.387
 4486SOL    HW214358   5.187   3.711   4.488
 4487SOL     OW14359   2.508   2.950   6.555
 4487SOL    HW114360   2.498   3.033   6.609
 4487SOL    HW214361   2.525   2.872   6.615
 4488SOL     OW14362   6.202   3.492   5.239
 4488SOL    HW114363   6.147   3.409   5.237
 4488SOL    HW214364   6.241   3.509   5.148
 4489SOL     OW14365   5.715   5.395   4.274
 4489SOL    HW114366   5.621   5.430   4.269
 4489SOL    HW214367   5.768   5.433   4.198
 4490SOL     OW14368   6.526   2.474   3.079
 4490SOL    HW114369   6.469   2.501   3.156
 4490SOL    HW214370   6.619   2.455   3.111
 4491SOL     OW14371   0.129   2.798   4.370
 4491SOL    HW114372   0.147   2.891   4.402
 4491SOL    HW214373   0.157   2.733   4.441
 4492SOL     OW14374   5.200   3.339   1.121
 4492SOL    HW114375   5.260   3.388   1.184
 4492SOL    HW214376   5.124   3.399   1.094
 4493SOL     OW14377   4.699   6.080   5.200
 4493SOL    HW114378   4.783   6.028   5.187
 4493SOL    HW214379   4.622   6.017   5.211
 4494SOL     OW14380   0.192   1.435   5.880
 4494SOL    HW114381   0.239   1.505   5.826
 4494SOL    HW214382   0.152   1.367   5.819
 4495SOL     OW14383   5.002   5.460   4.326
 4495SOL    HW114384   4.937   5.387   4.304
 4495SOL    HW214385   4.969   5.511   4.406
 4496SOL     OW14386   4.577   5.768   1.109
 4496SOL    HW114387   4.576   5.755   1.009
 4496SOL    HW214388   4.518   5.844   1.134
 4497SOL     OW14389   5.100   0.652   6.371
 4497SOL    HW114390   5.080   0.615   6.461
 4497SOL    HW214391   5.165   0.592   6.324
 4498SOL     OW14392   6.801   3.224   6.674
 4498SOL    HW114393   6.867   3.156   6.641
 4498SOL    HW214394   6.774   3.284   6.598
 4499SOL     OW14395   0.207   3.521   3.750
 4499SOL    HW114396   0.232   3.462   3.826
 4499SOL    HW214397   0.170   3.607   3.785
 4500SOL     OW14398   2.930   3.423   3.979
 4500SOL    HW114399   2.976   3.394   3.895
 4500SOL    HW214400   2.846   3.370   3.991
 4501SOL     OW14401   6.827   3.265   5.434
 4501SOL    HW114402   6.854   3.361   5.423
 4501SOL    HW214403   6.884   3.207   5.375
 4502SOL     OW14404   1.325   2.118   0.145
 4502SOL    HW114405   1.413   2.163   0.162
 4502SOL    HW214406   1.316   2.099   0.047
 4503SOL     OW14407   3.656   6.740   2.659
 4503SOL    HW114408   3.576   6.702   2.612
 4503SOL    HW214409   3.627   6.782   2.745
 4504SOL     OW14410   6.600   1.182   4.771
 4504SOL    HW114411   6.684   1.128   4.776
 4504SOL    HW214412   6.623   1.277   4.750
 4505SOL     OW14413   6.147   5.723   3.115
 4505SOL    HW114414   6.137   5.683   3.024
 4505SOL    HW214415   6.057   5.751   3.150
 4506SOL     OW14416   4.352   2.401   4.264
 4506SOL    HW114417   4.271   2.343   4.266
 4506SOL    HW214418   4.434   2.345   4.253
 4507SOL     OW14419   5.431   4.749   2.573
 4507SOL    HW114420   5.460   4.784   2.484
 4507SOL    HW214421   5.334   4.770   2.586
 4508SOL     OW14422   1.011   4.769   5.944
 4508SOL    HW114423   1.101   4.782   5.986
 4508SOL    HW214424   0.940   4.776   6.014
 4509SOL     OW14425   5.148   2.157   3.689
 4509SOL    HW114426   5.054   2.131   3.707
 4509SOL    HW214427   5.175   2.125   3.598
 4510SOL     OW14428   4.730   0.016   5.150
 4510SOL    HW114429   4.709   0.058   5.061
 4510SOL    HW214430   4.702   0.078   5.223
 4511SOL     OW14431   7.019   3.400   6.584
 4511SOL    HW114432   6.973   3.378   6.669
 4511SOL    HW214433   0.023   3.496   6.586
 4512SOL     OW14434   2.704   0.267   5.759
 4512SOL    HW114435   2.653   0.280   5.675
 4512SOL    HW214436   2.787   0.324   5.757
 4513SOL     OW14437   4.773   6.560   0.656
 4513SOL    HW114438   4.819   6.602   0.735
 4513SOL    HW214439   4.701   6.499   0.688
 4514SOL     OW14440   4.824   1.270   5.050
 4514SOL    HW114441   4.869   1.223   4.974
 4514SOL    HW214442   4.892   1.304   5.114
 4515SOL     OW14443   0.466   3.410   5.713
 4515SOL    HW114444   0.381   3.418   5.765
 4515SOL    HW214445   0.507   3.501   5.703
 4516SOL     OW14446   1.812   0.370   6.341
 4516SOL    HW114447   1.727   0.415   6.313
 4516SOL    HW214448   1.841   0.406   6.430
 4517SOL     OW14449   2.448   0.968   7.022
 4517SOL    HW114450   2.370   0.910   7.000
 4517SOL    HW214451   2.439   1.003   0.089
 4518SOL     OW14452   6.629   1.075   3.454
 4518SOL    HW114453   6.648   1.173   3.444
 4518SOL    HW214454   6.548   1.051   3.400
 4519SOL     OW14455   5.808   0.157   2.139
 4519SOL    HW114456   5.709   0.154   2.134
 4519SOL    HW214457   5.842   0.070   2.174
 4520SOL     OW14458   5.371   6.100   3.587
 4520SOL    HW114459   5.323   6.088   3.500
 4520SOL    HW214460   5.457   6.049   3.586
 4521SOL     OW14461   5.386   1.711   3.943
 4521SOL    HW114462   5.385   1.676   3.849
 4521SOL    HW214463   5.370   1.810   3.942
 4522SOL     OW14464   5.684   6.942   3.741
 4522SOL    HW114465   5.684   6.853   3.695
 4522SOL    HW214466   5.590   6.969   3.761
 4523SOL     OW14467   1.506   4.516   0.070
 4523SOL    HW114468   1.549   4.591   0.120
 4523SOL    HW214469   1.574   4.444   0.053
 4524SOL     OW14470   5.472   2.302   4.363
 4524SOL    HW114471   5.392   2.257   4.403
 4524SOL    HW214472   5.533   2.333   4.436
 4525SOL     OW14473   5.465   1.039   3.051
 4525SOL    HW114474   5.514   1.098   3.115
 4525SOL    HW214475   5.417   1.095   2.984
 4526SOL     OW14476   5.275   0.591   1.003
 4526SOL    HW114477   5.344   0.546   0.947
 4526SOL    HW214478   5.227   0.660   0.947
 4527SOL     OW14479   4.444   1.710   3.678
 4527SOL    HW114480   4.406   1.728   3.587
 4527SOL    HW214481   4.418   1.785   3.739
 4528SOL     OW14482   4.456   6.780   6.669
 4528SOL    HW114483   4.416   6.866   6.701
 4528SOL    HW214484   4.551   6.795   6.643
 4529SOL     OW14485   3.316   1.815   4.531
 4529SOL    HW114486   3.384   1.744   4.517
 4529SOL    HW214487   3.226   1.782   4.502
 4530SOL     OW14488   0.023   3.746   5.455
 4530SOL    HW114489   7.020   3.840   5.472
 4530SOL    HW214490   0.079   3.743   5.372
 4531SOL     OW14491   0.491   3.483   3.902
 4531SOL    HW114492   0.449   3.571   3.924
 4531SOL    HW214493   0.426   3.410   3.924
 4532SOL     OW14494   6.131   1.519   3.476
 4532SOL    HW114495   6.128   1.547   3.572
 4532SOL    HW214496   6.104   1.596   3.418
 4533SOL     OW14497   1.535   0.458   2.642
 4533SOL    HW114498   1.494   0.377   2.684
 4533SOL    HW214499   1.582   0.432   2.558
 4534SOL     OW14500   5.570   4.256   4.944
 4534SOL    HW114501   5.633   4.179   4.930
 4534SOL    HW214502   5.523   4.276   4.858
 4535SOL     OW14503   5.028   1.909   2.839
 4535SOL    HW114504   5.123   1.925   2.867
 4535SOL    HW214505   4.999   1.980   2.776
 4536SOL     OW14506   4.089   2.207   4.070
 4536SOL    HW114507   4.139   2.150   4.134
 4536SOL    HW214508   4.051   2.286   4.118
 4537SOL     OW14509   3.898   2.949   5.982
 4537SOL    HW114510   3.814   2.980   5.937
 4537SOL    HW214511   3.975   3.005   5.953
 4538SOL     OW14512   3.065   0.755   4.142
 4538SOL    HW114513   2.986   0.813   4.164
 4538SOL    HW214514   3.070   0.744   4.042
 4539SOL     OW14515   2.362   0.937   3.843
 4539SOL    HW114516   2.386   0.847   3.808
 4539SOL    HW214517   2.306   0.927   3.925
 4540SOL     OW14518   3.148   3.042   4.456
 4540SOL    HW114519   3.207   2.970   4.493
 4540SOL    HW214520   3.165   3.128   4.504
 4541SOL     OW14521   5.534   1.751   0.315
 4541SOL    HW114522   5.572   1.661   0.293
 4541SOL    HW214523   5.443   1.759   0.274
 4542SOL     OW14524   6.364   0.019   2.386
 4542SOL    HW114525   6.382   0.089   2.317
 4542SOL    HW214526   6.450   7.008   2.419
 4543SOL     OW14527   5.195   1.893   0.882
 4543SOL    HW114528   5.143   1.822   0.931
 4543SOL    HW214529   5.144   1.922   0.801
 4544SOL     OW14530   3.316   6.399   6.069
 4544SOL    HW114531   3.363   6.453   6.139
 4544SOL    HW214532   3.371   6.319   6.046
 4545SOL     OW14533   5.666   2.376   4.552
 4545SOL    HW114534   5.766   2.365   4.554
 4545SOL    HW214535   5.644   2.474   4.551
 4546SOL     OW14536   1.460   1.533   6.350
 4546SOL    HW114537   1.556   1.524   6.324
 4546SOL    HW214538   1.404   1.470   6.297
 4547SOL     OW14539   6.344   2.634   3.259
 4547SOL    HW114540   6.372   2.712   3.316
 4547SOL    HW214541   6.249   2.612   3.278
 4548SOL     OW14542   0.983   4.331   4.806
 4548SOL    HW114543   0.903   4.369   4.759
 4548SOL    HW214544   1.065   4.380   4.776
 4549SOL     OW14545   5.798   3.803   2.156
 4549SOL    HW114546   5.842   3.889   2.129
 4549SOL    HW214547   5.865   3.729   2.156
 4550SOL     OW14548   0.752   6.104   2.724
 4550SOL    HW114549   0.823   6.108   2.654
 4550SOL    HW214550   0.777   6.163   2.801
 4551SOL     OW14551   6.441   1.499   6.225
 4551SOL    HW114552   6.538   1.496   6.199
 4551SOL    HW214553   6.432   1.541   6.316
 4552SOL     OW14554   6.540   2.950   0.763
 4552SOL    HW114555   6.470   2.898   0.715
 4552SOL    HW214556   6.500   3.035   0.799
 4553SOL     OW14557   3.996   4.328   6.773
 4553SOL    HW114558   4.061   4.258   6.803
 4553SOL    HW214559   3.908   4.286   6.753
 4554SOL     OW14560   4.418   0.391   1.571
 4554SOL    HW114561   4.467   0.335   1.638
 4554SOL    HW214562   4.478   0.463   1.537
 4555SOL     OW14563   3.509   1.926   5.610
 4555SOL    HW114564   3.409   1.919   5.604
 4555SOL    HW214565   3.533   2.007   5.664
 4556SOL     OW14566   4.412   2.428   3.769
 4556SOL    HW114567   4.496   2.479   3.749
 4556SOL    HW214568   4.373   2.394   3.683
 4557SOL     OW14569   5.006   6.750   5.023
 4557SOL    HW114570   4.920   6.744   4.973
 4557SOL    HW214571   5.033   6.846   5.031
 4558SOL     OW14572   0.118   3.500   5.502
 4558SOL    HW114573   0.103   3.472   5.597
 4558SOL    HW214574   0.107   3.599   5.495
 4559SOL     OW14575   0.661   4.471   2.055
 4559SOL    HW114576   0.565   4.485   2.080
 4559SOL    HW214577   0.668   4.391   1.995
 4560SOL     OW14578   4.733   5.066   3.421
 4560SOL    HW114579   4.670   5.013   3.364
 4560SOL    HW214580   4.694   5.157   3.437
 4561SOL     OW14581   2.925   0.706   1.096
 4561SOL    HW114582   2.948   0.773   1.026
 4561SOL    HW214583   2.836   0.665   1.074
 4562SOL     OW14584   3.227   6.317   5.305
 4562SOL    HW114585   3.223   6.341   5.208
 4562SOL    HW214586   3.230   6.401   5.359
 4563SOL     OW14587   0.575   4.245   0.628
 4563SOL    HW114588   0.636   4.214   0.701
 4563SOL    HW214589   0.624   4.247   0.541
 4564SOL     OW14590   0.310   6.860   0.628
 4564SOL    HW114591   0.401   6.822   0.644
 4564SOL    HW214592   0.243   6.810   0.684
 4565SOL     OW14593   0.049   1.139   6.126
 4565SOL    HW114594   0.146   1.115   6.121
 4565SOL    HW214595   0.039   1.238   6.129
 4566SOL     OW14596   6.759   1.741   0.667
 4566SOL    HW114597   6.751   1.831   0.710
 4566SOL    HW214598   6.840   1.694   0.701
 4567SOL     OW14599   0.294   1.039   0.079
 4567SOL    HW114600   0.288   0.940   0.071
 4567SOL    HW214601   0.219   1.081   0.029
 4568SOL     OW14602   0.806   4.778   5.363
 4568SOL    HW114603   0.905   4.794   5.355
 4568SOL    HW214604   0.758   4.852   5.316
 4569SOL     OW14605   1.786   1.311   3.250
 4569SOL    HW114606   1.770   1.408   3.235
 4569SOL    HW214607   1.879   1.287   3.221
 4570SOL     OW14608   0.633   5.595   3.447
 4570SOL    HW114609   0.555   5.601   3.509
 4570SOL    HW214610   0.718   5.597   3.500
 4571SOL     OW14611   2.929   3.190   5.834
 4571SOL    HW114612   2.921   3.135   5.751
 4571SOL    HW214613   3.019   3.234   5.836
 4572SOL     OW14614   1.017   6.933   6.574
 4572SOL    HW114615   1.027   6.976   6.484
 4572SOL    HW214616   0.933   6.878   6.575
 4573SOL     OW14617   6.183   6.150   0.531
 4573SOL    HW114618   6.196   6.121   0.626
 4573SOL    HW214619   6.162   6.248   0.528
 4574SOL     OW14620   6.556   3.915   1.308
 4574SOL    HW114621   6.649   3.886   1.289
 4574SOL    HW214622   6.534   3.896   1.404
 4575SOL     OW14623   6.120   2.032   5.985
 4575SOL    HW114624   6.187   2.023   5.912
 4575SOL    HW214625   6.164   2.017   6.073
 4576SOL     OW14626   2.167   6.083   6.472
 4576SOL    HW114627   2.186   6.177   6.502
 4576SOL    HW214628   2.254   6.038   6.450
 4577SOL     OW14629   0.670   2.204   3.865
 4577SOL    HW114630   0.730   2.132   3.833
 4577SOL    HW214631   0.633   2.180   3.954
 4578SOL     OW14632   1.002   3.345   3.850
 4578SOL    HW114633   1.096   3.350   3.815
 4578SOL    HW214634   0.985   3.423   3.910
 4579SOL     OW14635   5.417   2.198   2.754
 4579SOL    HW114636   5.393   2.102   2.742
 4579SOL    HW214637   5.353   2.239   2.820
 4580SOL     OW14638   4.787   5.477   6.899
 4580SOL    HW114639   4.772   5.574   6.919
 4580SOL    HW214640   4.700   5.430   6.897
 4581SOL     OW14641   3.134   5.397   3.132
 4581SOL    HW114642   3.152   5.484   3.088
 4581SOL    HW214643   3.047   5.360   3.099
 4582SOL     OW14644   5.694   6.470   4.882
 4582SOL    HW114645   5.613   6.480   4.824
 4582SOL    HW214646   5.668   6.431   4.970
 4583SOL     OW14647   2.857   1.023   4.809
 4583SOL    HW114648   2.946   1.008   4.764
 4583SOL    HW214649   2.816   1.108   4.775
 4584SOL     OW14650   0.243   4.961   5.460
 4584SOL    HW114651   0.173   4.901   5.497
 4584SOL    HW214652   0.272   4.928   5.370
 4585SOL     OW14653   2.983   6.439   2.939
 4585SOL    HW114654   2.966   6.532   2.906
 4585SOL    HW214655   2.901   6.404   2.984
 4586SOL     OW14656   4.194   5.093   0.168
 4586SOL    HW114657   4.119   5.125   0.109
 4586SOL    HW214658   4.233   5.171   0.216
 4587SOL     OW14659   4.031   3.875   2.061
 4587SOL    HW114660   3.998   3.888   2.154
 4587SOL    HW214661   4.128   3.900   2.056
 4588SOL     OW14662   4.195   4.384   5.558
 4588SOL    HW114663   4.198   4.329   5.475
 4588SOL    HW214664   4.284   4.429   5.571
 4589SOL     OW14665   5.348   1.384   2.061
 4589SOL    HW114666   5.424   1.415   2.002
 4589SOL    HW214667   5.275   1.347   2.004
 4590SOL     OW14668   5.069   5.846   1.179
 4590SOL    HW114669   5.066   5.874   1.083
 4590SOL    HW214670   4.986   5.796   1.202
 4591SOL     OW14671   0.221   6.003   5.195
 4591SOL    HW114672   0.164   6.059   5.255
 4591SOL    HW214673   0.302   5.973   5.244
 4592SOL     OW14674   4.068   2.140   2.123
 4592SOL    HW114675   3.985   2.109   2.077
 4592SOL    HW214676   4.052   2.142   2.221
 4593SOL     OW14677   3.972   5.820   3.932
 4593SOL    HW114678   3.920   5.736   3.925
 4593SOL    HW214679   3.945   5.882   3.859
 4594SOL     OW14680   3.295   1.123   1.785
 4594SOL    HW114681   3.298   1.067   1.868
 4594SOL    HW214682   3.216   1.184   1.788
 4595SOL     OW14683   3.554   2.686   6.190
 4595SOL    HW114684   3.523   2.630   6.267
 4595SOL    HW214685   3.618   2.755   6.222
 4596SOL     OW14686   5.908   6.551   2.859
 4596SOL    HW114687   5.811   6.539   2.836
 4596SOL    HW214688   5.964   6.494   2.799
 4597SOL     OW14689   5.020   4.646   6.674
 4597SOL    HW114690   4.989   4.733   6.635
 4597SOL    HW214691   5.083   4.664   6.750
 4598SOL     OW14692   2.224   4.973   0.330
 4598SOL    HW114693   2.141   4.917   0.336
 4598SOL    HW214694   2.296   4.919   0.287
 4599SOL     OW14695   1.722   5.057   0.259
 4599SOL    HW114696   1.722   5.007   0.173
 4599SOL    HW214697   1.809   5.105   0.270
 4600SOL     OW14698   1.437   4.970   5.120
 4600SOL    HW114699   1.367   4.973   5.048
 4600SOL    HW214700   1.527   4.964   5.078
 4601SOL     OW14701   1.594   7.023   5.331
 4601SOL    HW114702   1.653   6.989   5.258
 4601SOL    HW214703   1.515   6.962   5.340
 4602SOL     OW14704   0.907   5.909   0.768
 4602SOL    HW114705   0.945   5.999   0.788
 4602SOL    HW214706   0.816   5.902   0.809
 4603SOL     OW14707   3.526   6.633   1.405
 4603SOL    HW114708   3.575   6.602   1.324
 4603SOL    HW214709   3.590   6.673   1.470
 4604SOL     OW14710   4.708   0.626   1.762
 4604SOL    HW114711   4.784   0.572   1.725
 4604SOL    HW214712   4.738   0.673   1.845
 4605SOL     OW14713   3.809   1.042   3.224
 4605SOL    HW114714   3.829   1.089   3.310
 4605SOL    HW214715   3.784   0.947   3.243
 4606SOL     OW14716   1.373   6.858   1.247
 4606SOL    HW114717   1.313   6.909   1.186
 4606SOL    HW214718   1.331   6.852   1.338
 4607SOL     OW14719   2.463   2.616   1.222
 4607SOL    HW114720   2.444   2.714   1.225
 4607SOL    HW214721   2.390   2.566   1.267
 4608SOL     OW14722   0.521   5.603   3.734
 4608SOL    HW114723   0.495   5.637   3.825
 4608SOL    HW214724   0.619   5.583   3.733
 4609SOL     OW14725   4.128   5.084   6.070
 4609SOL    HW114726   4.211   5.079   6.015
 4609SOL    HW214727   4.082   5.171   6.053
 4610SOL     OW14728   4.995   2.273   0.594
 4610SOL    HW114729   5.013   2.302   0.688
 4610SOL    HW214730   5.061   2.317   0.533
 4611SOL     OW14731   6.689   6.058   5.767
 4611SOL    HW114732   6.716   5.962   5.765
 4611SOL    HW214733   6.744   6.108   5.833
 4612SOL     OW14734   0.897   5.698   6.984
 4612SOL    HW114735   0.945   5.669   6.901
 4612SOL    HW214736   0.812   5.647   6.993
 4613SOL     OW14737   2.637   6.093   2.359
 4613SOL    HW114738   2.607   6.159   2.289
 4613SOL    HW214739   2.705   6.136   2.418
 4614SOL     OW14740   0.895   4.401   5.049
 4614SOL    HW114741   0.918   4.361   4.960
 4614SOL    HW214742   0.848   4.489   5.035
 4615SOL     OW14743   2.082   0.778   0.184
 4615SOL    HW114744   2.021   0.814   0.255
 4615SOL    HW214745   2.077   0.678   0.185
 4616SOL     OW14746   5.713   0.204   5.736
 4616SOL    HW114747   5.717   0.304   5.735
 4616SOL    HW214748   5.804   0.167   5.716
 4617SOL     OW14749   1.075   2.368   2.274
 4617SOL    HW114750   1.100   2.345   2.180
 4617SOL    HW214751   1.158   2.390   2.326
 4618SOL     OW14752   2.245   2.445   5.342
 4618SOL    HW114753   2.294   2.398   5.415
 4618SOL    HW214754   2.159   2.481   5.379
 4619SOL     OW14755   3.348   6.215   3.022
 4619SOL    HW114756   3.267   6.191   2.968
 4619SOL    HW214757   3.320   6.275   3.098
 4620SOL     OW14758   3.764   4.087   0.044
 4620SOL    HW114759   3.727   4.080   0.137
 4620SOL    HW214760   3.853   4.133   0.047
 4621SOL     OW14761   4.915   1.539   3.146
 4621SOL    HW114762   4.959   1.487   3.073
 4621SOL    HW214763   4.847   1.601   3.106
 4622SOL     OW14764   1.960   4.219   0.323
 4622SOL    HW114765   1.932   4.153   0.393
 4622SOL    HW214766   1.883   4.280   0.302
 4623SOL     OW14767   6.576   6.384   0.830
 4623SOL    HW114768   6.597   6.393   0.733
 4623SOL    HW214769   6.650   6.334   0.875
 4624SOL     OW14770   5.492   6.865   3.250
 4624SOL    HW114771   5.509   6.911   3.337
 4624SOL    HW214772   5.552   6.785   3.242
 4625SOL     OW14773   1.992   4.799   0.291
 4625SOL    HW114774   2.059   4.730   0.317
 4625SOL    HW214775   1.998   4.815   0.193
 4626SOL     OW14776   5.655   5.259   2.502
 4626SOL    HW114777   5.565   5.244   2.461
 4626SOL    HW214778   5.726   5.242   2.433
 4627SOL     OW14779   3.387   5.204   3.819
 4627SOL    HW114780   3.359   5.297   3.797
 4627SOL    HW214781   3.416   5.199   3.915
 4628SOL     OW14782   5.673   3.595   3.838
 4628SOL    HW114783   5.615   3.677   3.838
 4628SOL    HW214784   5.623   3.518   3.799
 4629SOL     OW14785   2.393   5.189   4.790
 4629SOL    HW114786   2.454   5.234   4.856
 4629SOL    HW214787   2.422   5.211   4.697
 4630SOL     OW14788   3.749   5.733   2.126
 4630SOL    HW114789   3.799   5.755   2.209
 4630SOL    HW214790   3.677   5.666   2.147
 4631SOL     OW14791   2.486   6.462   3.767
 4631SOL    HW114792   2.448   6.388   3.823
 4631SOL    HW214793   2.415   6.500   3.709
 4632SOL     OW14794   4.178   4.930   2.636
 4632SOL    HW114795   4.190   4.864   2.710
 4632SOL    HW214796   4.125   4.889   2.562
 4633SOL     OW14797   5.829   1.621   3.639
 4633SOL    HW114798   5.819   1.576   3.551
 4633SOL    HW214799   5.757   1.690   3.649
 4634SOL     OW14800   2.583   4.675   6.321
 4634SOL    HW114801   2.635   4.731   6.257
 4634SOL    HW214802   2.551   4.731   6.397
 4635SOL     OW14803   5.658   3.475   2.188
 4635SOL    HW114804   5.614   3.492   2.100
 4635SOL    HW214805   5.621   3.539   2.256
 4636SOL     OW14806   2.352   4.774   6.929
 4636SOL    HW114807   2.451   4.790   6.933
 4636SOL    HW214808   2.304   4.859   6.954
 4637SOL     OW14809   0.873   0.451   0.074
 4637SOL    HW114810   0.858   0.548   0.093
 4637SOL    HW214811   0.971   0.433   0.064
 4638SOL     OW14812   4.443   2.719   6.803
 4638SOL    HW114813   4.425   2.727   6.901
 4638SOL    HW214814   4.358   2.695   6.755
 4639SOL     OW14815   2.454   4.462   4.958
 4639SOL    HW114816   2.422   4.442   4.866
 4639SOL    HW214817   2.530   4.526   4.954
 4640SOL     OW14818   4.954   4.611   3.938
 4640SOL    HW114819   4.896   4.661   4.002
 4640SOL    HW214820   5.049   4.615   3.968
 4641SOL     OW14821   2.984   6.114   4.429
 4641SOL    HW114822   2.965   6.072   4.340
 4641SOL    HW214823   3.050   6.058   4.479
 4642SOL     OW14824   0.665   6.139   4.367
 4642SOL    HW114825   0.758   6.104   4.378
 4642SOL    HW214826   0.665   6.238   4.380
 4643SOL     OW14827   5.791   2.833   1.300
 4643SOL    HW114828   5.697   2.867   1.296
 4643SOL    HW214829   5.849   2.885   1.238
 4644SOL     OW14830   0.601   4.794   5.027
 4644SOL    HW114831   0.560   4.885   5.023
 4644SOL    HW214832   0.636   4.777   5.119
 4645SOL     OW14833   1.072   0.979   4.950
 4645SOL    HW114834   1.084   0.880   4.955
 4645SOL    HW214835   1.097   1.011   4.859
 4646SOL     OW14836   2.990   6.072   3.338
 4646SOL    HW114837   3.072   6.024   3.305
 4646SOL    HW214838   2.934   6.100   3.261
 4647SOL     OW14839   1.339   0.209   3.975
 4647SOL    HW114840   1.269   0.150   4.016
 4647SOL    HW214841   1.418   0.153   3.950
 4648SOL     OW14842   4.306   0.770   1.856
 4648SOL    HW114843   4.264   0.775   1.765
 4648SOL    HW214844   4.350   0.681   1.868
 4649SOL     OW14845   5.150   0.132   5.901
 4649SOL    HW114846   5.239   0.090   5.921
 4649SOL    HW214847   5.142   0.219   5.949
 4650SOL     OW14848   4.638   5.685   3.922
 4650SOL    HW114849   4.546   5.713   3.949
 4650SOL    HW214850   4.693   5.668   4.004
 4651SOL     OW14851   6.928   1.580   1.253
 4651SOL    HW114852   6.974   1.665   1.229
 4651SOL    HW214853   6.829   1.593   1.246
 4652SOL     OW14854   0.676   0.369   4.323
 4652SOL    HW114855   0.720   0.418   4.398
 4652SOL    HW214856   0.746   0.336   4.259
 4653SOL     OW14857   6.207   4.985   6.976
 4653SOL    HW114858   6.261   4.992   0.034
 4653SOL    HW214859   6.113   5.012   6.995
 4654SOL     OW14860   0.255   6.396   0.460
 4654SOL    HW114861   0.202   6.480   0.464
 4654SOL    HW214862   0.281   6.377   0.366
 4655SOL     OW14863   6.479   5.723   1.565
 4655SOL    HW114864   6.545   5.657   1.600
 4655SOL    HW214865   6.501   5.814   1.601
 4656SOL     OW14866   0.846   0.397   3.477
 4656SOL    HW114867   0.838   0.497   3.474
 4656SOL    HW214868   0.794   0.357   3.402
 4657SOL     OW14869   4.685   6.203   1.150
 4657SOL    HW114870   4.724   6.123   1.195
 4657SOL    HW214871   4.604   6.233   1.200
 4658SOL     OW14872   4.750   1.599   2.784
 4658SOL    HW114873   4.846   1.613   2.808
 4658SOL    HW214874   4.692   1.615   2.864
 4659SOL     OW14875   2.593   4.087   5.342
 4659SOL    HW114876   2.592   4.187   5.338
 4659SOL    HW214877   2.536   4.050   5.268
 4660SOL     OW14878   1.563   3.095   5.563
 4660SOL    HW114879   1.497   3.092   5.488
 4660SOL    HW214880   1.571   3.189   5.598
 4661SOL     OW14881   3.703   3.885   5.736
 4661SOL    HW114882   3.628   3.826   5.708
 4661SOL    HW214883   3.790   3.846   5.706
 4662SOL     OW14884   4.108   0.401   5.018
 4662SOL    HW114885   4.188   0.361   4.973
 4662SOL    HW214886   4.124   0.405   5.117
 4663SOL     OW14887   0.775   2.170   2.773
 4663SOL    HW114888   0.702   2.194   2.709
 4663SOL    HW214889   0.800   2.074   2.761
 4664SOL     OW14890   2.043   1.465   0.812
 4664SOL    HW114891   2.070   1.558   0.787
 4664SOL    HW214892   1.989   1.466   0.895
 4665SOL     OW14893   4.060   0.037   0.435
 4665SOL    HW114894   4.042   0.134   0.418
 4665SOL    HW214895   4.088   0.025   0.531
 4666SOL     OW14896   1.423   2.312   0.861
 4666SOL    HW114897   1.436   2.291   0.764
 4666SOL    HW214898   1.488   2.382   0.889
 4667SOL     OW14899   6.146   4.455   1.473
 4667SOL    HW114900   6.197   4.441   1.388
 4667SOL    HW214901   6.090   4.538   1.465
 4668SOL     OW14902   5.452   2.522   2.868
 4668SOL    HW114903   5.472   2.609   2.912
 4668SOL    HW214904   5.426   2.538   2.773
 4669SOL     OW14905   3.593   6.515   6.880
 4669SOL    HW114906   3.653   6.575   6.933
 4669SOL    HW214907   3.579   6.430   6.930
 4670SOL     OW14908   3.060   2.341   5.395
 4670SOL    HW114909   3.115   2.369   5.316
 4670SOL    HW214910   3.021   2.251   5.378
 4671SOL     OW14911   6.727   2.276   2.709
 4671SOL    HW114912   6.713   2.222   2.793
 4671SOL    HW214913   6.640   2.281   2.659
 4672SOL     OW14914   2.640   4.625   5.913
 4672SOL    HW114915   2.560   4.599   5.967
 4672SOL    HW214916   2.714   4.560   5.929
 4673SOL     OW14917   4.887   6.778   0.843
 4673SOL    HW114918   4.932   6.805   0.928
 4673SOL    HW214919   4.907   6.846   0.772
 4674SOL     OW14920   4.646   0.273   6.898
 4674SOL    HW114921   4.647   0.179   6.934
 4674SOL    HW214922   4.586   0.277   6.818
 4675SOL     OW14923   0.270   2.706   6.506
 4675SOL    HW114924   0.277   2.755   6.593
 4675SOL    HW214925   0.300   2.766   6.431
 4676SOL     OW14926   6.888   6.160   3.347
 4676SOL    HW114927   6.937   6.087   3.394
 4676SOL    HW214928   6.908   6.156   3.249
 4677SOL     OW14929   2.851   1.140   0.626
 4677SOL    HW114930   2.812   1.139   0.717
 4677SOL    HW214931   2.946   1.173   0.630
 4678SOL     OW14932   2.149   4.347   2.967
 4678SOL    HW114933   2.109   4.261   2.998
 4678SOL    HW214934   2.099   4.380   2.887
 4679SOL     OW14935   4.258   0.022   1.536
 4679SOL    HW114936   4.211   0.110   1.531
 4679SOL    HW214937   4.208   6.980   1.482
 4680SOL     OW14938   3.844   1.076   6.445
 4680SOL    HW114939   3.799   1.068   6.356
 4680SOL    HW214940   3.779   1.115   6.511
 4681SOL     OW14941   5.374   4.547   0.134
 4681SOL    HW114942   5.450   4.498   0.177
 4681SOL    HW214943   5.404   4.638   0.106
 4682SOL     OW14944   4.731   4.806   5.415
 4682SOL    HW114945   4.736   4.796   5.514
 4682SOL    HW214946   4.820   4.837   5.380
 4683SOL     OW14947   5.024   5.530   2.782
 4683SOL    HW114948   5.084   5.593   2.732
 4683SOL    HW214949   4.967   5.480   2.717
 4684SOL     OW14950   5.181   6.857   5.606
 4684SOL    HW114951   5.097   6.908   5.626
 4684SOL    HW214952   5.252   6.921   5.576
 4685SOL     OW14953   1.862   4.875   6.230
 4685SOL    HW114954   1.844   4.912   6.139
 4685SOL    HW214955   1.895   4.781   6.222
 4686SOL     OW14956   4.137   5.214   6.715
 4686SOL    HW114957   4.125   5.312   6.697
 4686SOL    HW214958   4.158   5.166   6.629
 4687SOL     OW14959   4.866   3.053   3.974
 4687SOL    HW114960   4.809   3.109   3.913
 4687SOL    HW214961   4.963   3.070   3.954
 4688SOL     OW14962   5.821   3.544   5.206
 4688SOL    HW114963   5.862   3.457   5.177
 4688SOL    HW214964   5.727   3.529   5.235
 4689SOL     OW14965   4.948   0.576   0.167
 4689SOL    HW114966   4.936   0.636   0.089
 4689SOL    HW214967   4.871   0.512   0.173
 4690SOL     OW14968   1.216   0.071   0.614
 4690SOL    HW114969   1.195   0.152   0.560
 4690SOL    HW214970   1.262   0.099   0.699
 4691SOL     OW14971   2.738   3.600   0.872
 4691SOL    HW114972   2.832   3.627   0.893
 4691SOL    HW214973   2.684   3.598   0.955
 4692SOL     OW14974   5.312   5.415   2.720
 4692SOL    HW114975   5.303   5.461   2.809
 4692SOL    HW214976   5.222   5.385   2.689
 4693SOL     OW14977   1.249   1.555   2.693
 4693SOL    HW114978   1.211   1.544   2.600
 4693SOL    HW214979   1.175   1.548   2.760
 4694SOL     OW14980   2.639   1.299   0.146
 4694SOL    HW114981   2.562   1.236   0.158
 4694SOL    HW214982   2.708   1.281   0.216
 4695SOL     OW14983   1.305   4.749   1.175
 4695SOL    HW114984   1.275   4.774   1.267
 4695SOL    HW214985   1.391   4.699   1.181
 4696SOL     OW14986   0.055   4.669   6.949
 4696SOL    HW114987   6.989   4.630   6.948
 4696SOL    HW214988   0.100   4.644   0.008
 4697SOL     OW14989   1.399   3.954   1.391
 4697SOL    HW114990   1.390   4.053   1.377
 4697SOL    HW214991   1.360   3.906   1.312
 4698SOL     OW14992   4.505   6.072   2.930
 4698SOL    HW114993   4.552   6.147   2.976
 4698SOL    HW214994   4.565   5.992   2.927
 4699SOL     OW14995   1.339   6.044   2.031
 4699SOL    HW114996   1.377   6.122   1.980
 4699SOL    HW214997   1.254   6.014   1.988
 4700SOL     OW14998   6.705   1.666   3.016
 4700SOL    HW114999   6.736   1.759   3.034
 4700SOL    HW215000   6.630   1.643   3.078
 4701SOL     OW15001   3.383   2.088   0.413
 4701SOL    HW115002   3.294   2.114   0.452
 4701SOL    HW215003   3.455   2.104   0.480
 4702SOL     OW15004   4.919   4.951   0.527
 4702SOL    HW115005   5.006   4.968   0.574
 4702SOL    HW215006   4.847   4.937   0.595
 4703SOL     OW15007   0.507   0.197   2.629
 4703SOL    HW115008   0.461   0.214   2.716
 4703SOL    HW215009   0.456   0.127   2.578
 4704SOL     OW15010   6.588   6.314   6.520
 4704SOL    HW115011   6.570   6.281   6.427
 4704SOL    HW215012   6.540   6.256   6.586
 4705SOL     OW15013   4.381   2.426   1.320
 4705SOL    HW115014   4.396   2.339   1.274
 4705SOL    HW215015   4.380   2.411   1.419
 4706SOL     OW15016   2.798   0.303   0.345
 4706SOL    HW115017   2.800   0.261   0.254
 4706SOL    HW215018   2.738   0.382   0.343
 4707SOL     OW15019   1.307   6.839   0.635
 4707SOL    HW115020   1.284   6.933   0.610
 4707SOL    HW215021   1.278   6.777   0.562
 4708SOL     OW15022   1.072   2.153   6.011
 4708SOL    HW115023   1.040   2.098   6.089
 4708SOL    HW215024   1.002   2.154   5.940
 4709SOL     OW15025   4.454   5.535   5.191
 4709SOL    HW115026   4.520   5.606   5.168
 4709SOL    HW215027   4.471   5.455   5.134
 4710SOL     OW15028   5.002   7.021   5.736
 4710SOL    HW115029   4.979   6.933   5.778
 4710SOL    HW215030   5.057   0.048   5.800
 4711SOL     OW15031   6.239   1.793   1.486
 4711SOL    HW115032   6.328   1.837   1.479
 4711SOL    HW215033   6.202   1.806   1.578
 4712SOL     OW15034   3.172   5.029   6.298
 4712SOL    HW115035   3.270   5.023   6.282
 4712SOL    HW215036   3.130   5.086   6.228
 4713SOL     OW15037   3.869   4.275   0.482
 4713SOL    HW115038   3.963   4.260   0.451
 4713SOL    HW215039   3.825   4.187   0.501
 4714SOL     OW15040   1.354   1.268   6.230
 4714SOL    HW115041   1.276   1.322   6.197
 4714SOL    HW215042   1.326   1.216   6.310
 4715SOL     OW15043   5.861   3.192   2.129
 4715SOL    HW115044   5.812   3.106   2.115
 4715SOL    HW215045   5.804   3.268   2.099
 4716SOL     OW15046   3.904   6.807   6.102
 4716SOL    HW115047   3.993   6.768   6.127
 4716SOL    HW215048   3.919   6.892   6.052
 4717SOL     OW15049   0.655   6.025   4.056
 4717SOL    HW115050   0.601   6.030   4.139
 4717SOL    HW215051   0.753   6.029   4.079
 4718SOL     OW15052   6.079   1.990   0.902
 4718SOL    HW115053   6.020   1.985   0.822
 4718SOL    HW215054   6.075   1.903   0.952
 4719SOL     OW15055   4.924   3.206   1.934
 4719SOL    HW115056   4.843   3.149   1.946
 4719SOL    HW215057   4.929   3.236   1.838
 4720SOL     OW15058   2.094   5.523   5.703
 4720SOL    HW115059   2.017   5.459   5.708
 4720SOL    HW215060   2.177   5.473   5.679
 4721SOL     OW15061   6.774   1.583   2.732
 4721SOL    HW115062   6.744   1.618   2.643
 4721SOL    HW215063   6.756   1.652   2.802
 4722SOL     OW15064   1.160   5.991   0.052
 4722SOL    HW115065   1.155   6.090   0.037
 4722SOL    HW215066   1.244   5.969   0.102
 4723SOL     OW15067   2.197   2.987   5.630
 4723SOL    HW115068   2.205   3.080   5.665
 4723SOL    HW215069   2.240   2.982   5.539
 4724SOL     OW15070   6.563   0.206   4.480
 4724SOL    HW115071   6.579   0.135   4.549
 4724SOL    HW215072   6.471   0.196   4.443
 4725SOL     OW15073   6.565   5.334   0.768
 4725SOL    HW115074   6.659   5.367   0.756
 4725SOL    HW215075   6.527   5.311   0.678
 4726SOL     OW15076   1.642   3.455   6.368
 4726SOL    HW115077   1.694   3.445   6.453
 4726SOL    HW215078   1.706   3.461   6.291
 4727SOL     OW15079   0.996   6.399   1.185
 4727SOL    HW115080   0.899   6.422   1.175
 4727SOL    HW215081   1.005   6.306   1.220
 4728SOL     OW15082   5.896   1.208   2.029
 4728SOL    HW115083   5.845   1.294   2.024
 4728SOL    HW215084   5.958   1.212   2.108
 4729SOL     OW15085   4.783   0.990   0.477
 4729SOL    HW115086   4.804   0.971   0.381
 4729SOL    HW215087   4.687   1.020   0.484
 4730SOL     OW15088   3.069   6.028   4.797
 4730SOL    HW115089   3.155   6.072   4.771
 4730SOL    HW215090   3.067   6.014   4.896
 4731SOL     OW15091   3.259   0.413   0.331
 4731SOL    HW115092   3.206   0.356   0.394
 4731SOL    HW215093   3.216   0.503   0.323
 4732SOL     OW15094   0.746   4.032   5.220
 4732SOL    HW115095   0.753   3.995   5.127
 4732SOL    HW215096   0.815   4.103   5.232
 4733SOL     OW15097   1.844   3.982   3.807
 4733SOL    HW115098   1.770   4.016   3.866
 4733SOL    HW215099   1.833   3.884   3.793
 4734SOL     OW15100   4.341   3.309   0.070
 4734SOL    HW115101   4.347   3.343   7.002
 4734SOL    HW215102   4.260   3.348   0.114
 4735SOL     OW15103   0.268   5.336   4.641
 4735SOL    HW115104   0.312   5.365   4.556
 4735SOL    HW215105   0.203   5.262   4.621
 4736SOL     OW15106   6.113   1.561   5.915
 4736SOL    HW115107   6.201   1.567   5.962
 4736SOL    HW215108   6.039   1.565   5.982
 4737SOL     OW15109   3.166   4.130   1.496
 4737SOL    HW115110   3.107   4.200   1.534
 4737SOL    HW215111   3.115   4.074   1.431
 4738SOL     OW15112   1.744   6.481   2.978
 4738SOL    HW115113   1.776   6.557   3.035
 4738SOL    HW215114   1.698   6.517   2.897
 4739SOL     OW15115   4.716   1.936   2.979
 4739SOL    HW115116   4.709   1.964   2.883
 4739SOL    HW215117   4.740   1.839   2.984
 4740SOL     OW15118   0.271   1.479   0.700
 4740SOL    HW115119   0.283   1.578   0.696
 4740SOL    HW215120   0.187   1.458   0.749
 4741SOL     OW15121   5.144   3.064   1.054
 4741SOL    HW115122   5.185   3.151   1.080
 4741SOL    HW215123   5.216   3.000   1.026
 4742SOL     OW15124   2.785   0.129   0.139
 4742SOL    HW115125   2.857   0.123   0.070
 4742SOL    HW215126   2.750   0.038   0.159
 4743SOL     OW15127   1.679   3.319   5.280
 4743SOL    HW115128   1.590   3.289   5.313
 4743SOL    HW215129   1.708   3.400   5.330
 4744SOL     OW15130   2.782   3.598   6.032
 4744SOL    HW115131   2.865   3.652   6.017
 4744SOL    HW215132   2.801   3.502   6.013
 4745SOL     OW15133   2.664   5.849   5.865
 4745SOL    HW115134   2.664   5.814   5.959
 4745SOL    HW215135   2.733   5.920   5.856
 4746SOL     OW15136   5.444   6.579   2.213
 4746SOL    HW115137   5.349   6.607   2.227
 4746SOL    HW215138   5.505   6.640   2.263
 4747SOL     OW15139   2.079   3.808   6.537
 4747SOL    HW115140   2.140   3.787   6.613
 4747SOL    HW215141   2.133   3.838   6.459
 4748SOL     OW15142   0.684   4.960   0.928
 4748SOL    HW115143   0.660   4.868   0.897
 4748SOL    HW215144   0.783   4.966   0.939
 4749SOL     OW15145   2.735   6.469   5.615
 4749SOL    HW115146   2.699   6.454   5.707
 4749SOL    HW215147   2.786   6.388   5.586
 4750SOL     OW15148   6.987   3.510   3.637
 4750SOL    HW115149   0.052   3.499   3.678
 4750SOL    HW215150   6.992   3.573   3.560
 4751SOL     OW15151   2.658   2.568   0.973
 4751SOL    HW115152   2.605   2.574   1.057
 4751SOL    HW215153   2.714   2.651   0.962
 4752SOL     OW15154   2.963   0.134   6.950
 4752SOL    HW115155   2.969   0.138   6.850
 4752SOL    HW215156   3.021   0.060   6.984
 4753SOL     OW15157   5.267   0.673   4.086
 4753SOL    HW115158   5.270   0.773   4.077
 4753SOL    HW215159   5.359   0.636   4.079
 4754SOL     OW15160   6.372   0.399   4.726
 4754SOL    HW115161   6.349   0.404   4.823
 4754SOL    HW215162   6.469   0.420   4.713
 4755SOL     OW15163   2.377   0.522   0.763
 4755SOL    HW115164   2.283   0.526   0.729
 4755SOL    HW215165   2.427   0.450   0.717
 4756SOL     OW15166   5.946   3.813   1.447
 4756SOL    HW115167   5.983   3.786   1.358
 4756SOL    HW215168   5.982   3.902   1.472
 4757SOL     OW15169   2.043   2.018   0.842
 4757SOL    HW115170   2.046   2.044   0.939
 4757SOL    HW215171   2.125   2.052   0.796
 4758SOL     OW15172   1.881   6.161   4.071
 4758SOL    HW115173   1.788   6.129   4.090
 4758SOL    HW215174   1.947   6.107   4.124
 4759SOL     OW15175   5.457   4.864   4.504
 4759SOL    HW115176   5.555   4.842   4.500
 4759SOL    HW215177   5.405   4.789   4.462
 4760SOL     OW15178   3.184   1.844   0.314
 4760SOL    HW115179   3.220   1.752   0.324
 4760SOL    HW215180   3.241   1.908   0.365
 4761SOL     OW15181   0.466   6.145   0.019
 4761SOL    HW115182   0.474   6.128   6.947
 4761SOL    HW215183   0.521   6.079   0.069
 4762SOL     OW15184   1.764   5.766   2.828
 4762SOL    HW115185   1.666   5.770   2.845
 4762SOL    HW215186   1.813   5.787   2.912
 4763SOL     OW15187   6.604   6.462   3.536
 4763SOL    HW115188   6.519   6.473   3.588
 4763SOL    HW215189   6.606   6.527   3.460
 4764SOL     OW15190   5.000   3.918   5.041
 4764SOL    HW115191   4.926   3.963   4.991
 4764SOL    HW215192   4.990   3.819   5.033
 4765SOL     OW15193   4.835   1.290   4.387
 4765SOL    HW115194   4.883   1.323   4.469
 4765SOL    HW215195   4.813   1.193   4.398
 4766SOL     OW15196   4.949   5.877   4.210
 4766SOL    HW115197   4.902   5.905   4.294
 4766SOL    HW215198   4.991   5.957   4.167
 4767SOL     OW15199   4.000   5.299   5.658
 4767SOL    HW115200   3.943   5.304   5.739
 4767SOL    HW215201   4.031   5.205   5.644
 4768SOL     OW15202   4.686   2.021   5.643
 4768SOL    HW115203   4.694   1.922   5.657
 4768SOL    HW215204   4.742   2.069   5.710
 4769SOL     OW15205   5.196   4.443   0.289
 4769SOL    HW115206   5.268   4.476   0.227
 4769SOL    HW215207   5.174   4.514   0.356
 4770SOL     OW15208   1.376   0.892   4.501
 4770SOL    HW115209   1.313   0.874   4.577
 4770SOL    HW215210   1.457   0.834   4.510
 4771SOL     OW15211   3.054   5.206   5.795
 4771SOL    HW115212   2.959   5.180   5.807
 4771SOL    HW215213   3.062   5.271   5.719
 4772SOL     OW15214   3.339   4.625   1.210
 4772SOL    HW115215   3.325   4.662   1.118
 4772SOL    HW215216   3.434   4.638   1.237
 4773SOL     OW15217   6.941   5.702   4.973
 4773SOL    HW115218   6.953   5.630   5.042
 4773SOL    HW215219   6.972   5.668   4.885
 4774SOL     OW15220   1.166   2.314   1.755
 4774SOL    HW115221   1.241   2.267   1.802
 4774SOL    HW215222   1.099   2.247   1.725
 4775SOL     OW15223   4.984   6.798   2.745
 4775SOL    HW115224   5.008   6.884   2.701
 4775SOL    HW215225   4.884   6.789   2.749
 4776SOL     OW15226   1.418   6.009   5.477
 4776SOL    HW115227   1.373   6.052   5.556
 4776SOL    HW215228   1.505   5.970   5.506
 4777SOL     OW15229   2.583   4.897   1.362
 4777SOL    HW115230   2.504   4.920   1.305
 4777SOL    HW215231   2.597   4.968   1.431
 4778SOL     OW15232   6.736   2.624   2.881
 4778SOL    HW115233   6.658   2.576   2.922
 4778SOL    HW215234   6.811   2.559   2.866
 4779SOL     OW15235   6.133   6.270   2.410
 4779SOL    HW115236   6.183   6.185   2.395
 4779SOL    HW215237   6.100   6.306   2.322
 4780SOL     OW15238   6.661   0.563   0.349
 4780SOL    HW115239   6.601   0.545   0.427
 4780SOL    HW215240   6.610   0.548   0.264
 4781SOL     OW15241   2.091   6.154   1.908
 4781SOL    HW115242   2.093   6.058   1.935
 4781SOL    HW215243   2.146   6.208   1.972
 4782SOL     OW15244   4.193   6.132   6.959
 4782SOL    HW115245   4.199   6.074   0.014
 4782SOL    HW215246   4.187   6.074   6.877
 4783SOL     OW15247   5.001   4.771   0.027
 4783SOL    HW115248   4.953   4.686   0.051
 4783SOL    HW215249   4.937   4.836   7.014
 4784SOL     OW15250   5.979   3.771   0.161
 4784SOL    HW115251   5.964   3.866   0.189
 4784SOL    HW215252   5.899   3.716   0.185
 4785SOL     OW15253   6.512   5.482   1.975
 4785SOL    HW115254   6.592   5.527   2.015
 4785SOL    HW215255   6.533   5.451   1.883
 4786SOL     OW15256   2.280   1.785   0.575
 4786SOL    HW115257   2.246   1.812   0.485
 4786SOL    HW215258   2.203   1.772   0.637
 4787SOL     OW15259   4.627   1.384   2.590
 4787SOL    HW115260   4.707   1.438   2.616
 4787SOL    HW215261   4.553   1.446   2.564
 4788SOL     OW15262   0.953   5.361   5.823
 4788SOL    HW115263   1.033   5.339   5.879
 4788SOL    HW215264   0.887   5.287   5.829
 4789SOL     OW15265   5.383   0.913   0.855
 4789SOL    HW115266   5.303   0.928   0.911
 4789SOL    HW215267   5.461   0.890   0.913
 4790SOL     OW15268   6.889   2.876   5.091
 4790SOL    HW115269   6.828   2.916   5.159
 4790SOL    HW215270   6.950   2.946   5.055
 4791SOL     OW15271   5.915   2.441   1.343
 4791SOL    HW115272   5.990   2.380   1.368
 4791SOL    HW215273   5.862   2.399   1.269
 4792SOL     OW15274   2.143   3.440   3.201
 4792SOL    HW115275   2.112   3.532   3.175
 4792SOL    HW215276   2.140   3.380   3.122
 4793SOL     OW15277   2.016   2.660   5.880
 4793SOL    HW115278   1.952   2.587   5.903
 4793SOL    HW215279   1.993   2.699   5.791
 4794SOL     OW15280   4.369   0.360   3.285
 4794SOL    HW115281   4.345   0.333   3.378
 4794SOL    HW215282   4.321   0.301   3.220
 4795SOL     OW15283   6.562   1.984   4.477
 4795SOL    HW115284   6.468   1.988   4.444
 4795SOL    HW215285   6.589   2.073   4.514
 4796SOL     OW15286   4.930   1.719   5.552
 4796SOL    HW115287   4.890   1.733   5.643
 4796SOL    HW215288   5.026   1.694   5.561
 4797SOL     OW15289   1.488   6.567   6.361
 4797SOL    HW115290   1.525   6.548   6.452
 4797SOL    HW215291   1.435   6.652   6.364
 4798SOL     OW15292   0.063   3.129   4.975
 4798SOL    HW115293   0.124   3.179   5.036
 4798SOL    HW215294   0.005   3.193   4.925
 4799SOL     OW15295   5.083   2.411   6.587
 4799SOL    HW115296   5.059   2.377   6.678
 4799SOL    HW215297   5.181   2.397   6.570
 4800SOL     OW15298   3.161   3.497   6.047
 4800SOL    HW115299   3.183   3.440   5.969
 4800SOL    HW215300   3.112   3.579   6.016
 4801SOL     OW15301   2.754   2.007   0.644
 4801SOL    HW115302   2.840   1.961   0.621
 4801SOL    HW215303   2.768   2.106   0.640
 4802SOL     OW15304   1.250   6.462   1.863
 4802SOL    HW115305   1.153   6.437   1.861
 4802SOL    HW215306   1.269   6.528   1.790
 4803SOL     OW15307   0.942   5.243   1.043
 4803SOL    HW115308   0.843   5.252   1.037
 4803SOL    HW215309   0.976   5.193   0.964
 4804SOL     OW15310   5.326   5.734   6.775
 4804SOL    HW115311   5.393   5.760   6.706
 4804SOL    HW215312   5.236   5.768   6.748
 4805SOL     OW15313   5.899   0.766   1.976
 4805SOL    HW115314   5.815   0.782   1.924
 4805SOL    HW215315   5.903   0.670   2.004
 4806SOL     OW15316   0.608   4.714   3.346
 4806SOL    HW115317   0.539   4.693   3.415
 4806SOL    HW215318   0.571   4.783   3.283
 4807SOL     OW15319   0.952   4.499   0.359
 4807SOL    HW115320   0.915   4.448   0.282
 4807SOL    HW215321   0.878   4.522   0.422
 4808SOL     OW15322   5.862   3.583   6.413
 4808SOL    HW115323   5.900   3.652   6.475
 4808SOL    HW215324   5.923   3.572   6.335
 4809SOL     OW15325   3.646   4.223   6.873
 4809SOL    HW115326   3.680   4.180   6.789
 4809SOL    HW215327   3.678   4.172   6.952
 4810SOL     OW15328   1.205   5.122   2.019
 4810SOL    HW115329   1.256   5.204   1.994
 4810SOL    HW215330   1.138   5.145   2.089
 4811SOL     OW15331   2.042   4.458   1.580
 4811SOL    HW115332   2.131   4.436   1.620
 4811SOL    HW215333   2.033   4.413   1.491
 4812SOL     OW15334   6.380   5.458   4.334
 4812SOL    HW115335   6.376   5.407   4.420
 4812SOL    HW215336   6.439   5.409   4.270
 4813SOL     OW15337   5.027   1.711   0.942
 4813SOL    HW115338   5.044   1.628   0.890
 4813SOL    HW215339   4.931   1.737   0.932
 4814SOL     OW15340   6.307   3.701   0.596
 4814SOL    HW115341   6.371   3.777   0.603
 4814SOL    HW215342   6.306   3.666   0.503
 4815SOL     OW15343   5.484   4.833   2.923
 4815SOL    HW115344   5.414   4.762   2.920
 4815SOL    HW215345   5.569   4.797   2.886
 4816SOL     OW15346   1.207   5.707   1.179
 4816SOL    HW115347   1.178   5.614   1.158
 4816SOL    HW215348   1.306   5.714   1.175
 4817SOL     OW15349   0.594   2.303   6.867
 4817SOL    HW115350   0.655   2.249   6.808
 4817SOL    HW215351   0.543   2.369   6.810
 4818SOL     OW15352   1.523   0.365   5.070
 4818SOL    HW115353   1.463   0.285   5.067
 4818SOL    HW215354   1.517   0.408   5.160
 4819SOL     OW15355   1.086   2.144   0.522
 4819SOL    HW115356   1.031   2.065   0.495
 4819SOL    HW215357   1.111   2.134   0.619
 4820SOL     OW15358   6.012   2.927   1.532
 4820SOL    HW115359   5.988   2.891   1.622
 4820SOL    HW215360   6.036   2.852   1.471
 4821SOL     OW15361   0.541   5.719   2.940
 4821SOL    HW115362   0.508   5.803   2.896
 4821SOL    HW215363   0.463   5.668   2.977
 4822SOL     OW15364   2.554   1.986   4.786
 4822SOL    HW115365   2.519   1.966   4.878
 4822SOL    HW215366   2.627   2.053   4.791
 4823SOL     OW15367   1.988   0.994   4.178
 4823SOL    HW115368   1.999   1.020   4.274
 4823SOL    HW215369   1.967   1.076   4.124
 4824SOL     OW15370   5.042   2.786   5.223
 4824SOL    HW115371   4.954   2.740   5.221
 4824SOL    HW215372   5.090   2.770   5.137
 4825SOL     OW15373   1.864   2.974   4.661
 4825SOL    HW115374   1.867   2.876   4.640
 4825SOL    HW215375   1.872   2.987   4.760
 4826SOL     OW15376   5.377   1.060   0.251
 4826SOL    HW115377   5.395   1.034   0.346
 4826SOL    HW215378   5.452   1.116   0.217
 4827SOL     OW15379   5.970   1.621   0.682
 4827SOL    HW115380   5.894   1.654   0.627
 4827SOL    HW215381   5.936   1.584   0.768
 4828SOL     OW15382   4.936   2.084   1.202
 4828SOL    HW115383   4.994   2.128   1.133
 4828SOL    HW215384   4.870   2.151   1.237
 4829SOL     OW15385   3.918   0.142   4.997
 4829SOL    HW115386   3.975   0.214   4.957
 4829SOL    HW215387   3.936   0.136   5.095
 4830SOL     OW15388   3.732   5.769   4.561
 4830SOL    HW115389   3.652   5.712   4.543
 4830SOL    HW215390   3.799   5.757   4.488
 4831SOL     OW15391   1.105   4.429   5.946
 4831SOL    HW115392   1.088   4.334   5.919
 4831SOL    HW215393   1.161   4.474   5.877
 4832SOL     OW15394   3.439   4.032   3.737
 4832SOL    HW115395   3.439   4.063   3.832
 4832SOL    HW215396   3.503   4.087   3.684
 4833SOL     OW15397   5.801   1.119   2.808
 4833SOL    HW115398   5.854   1.183   2.752
 4833SOL    HW215399   5.771   1.042   2.752
 4834SOL     OW15400   2.799   6.461   1.478
 4834SOL    HW115401   2.895   6.453   1.455
 4834SOL    HW215402   2.771   6.380   1.531
 4835SOL     OW15403   5.876   1.955   6.616
 4835SOL    HW115404   5.927   2.036   6.585
 4835SOL    HW215405   5.840   1.972   6.708
 4836SOL     OW15406   5.104   2.211   5.014
 4836SOL    HW115407   5.202   2.207   4.999
 4836SOL    HW215408   5.075   2.130   5.065
 4837SOL     OW15409   0.202   3.714   2.949
 4837SOL    HW115410   0.261   3.638   2.974
 4837SOL    HW215411   0.108   3.681   2.936
 4838SOL     OW15412   1.417   5.462   0.122
 4838SOL    HW115413   1.452   5.542   0.171
 4838SOL    HW215414   1.454   5.379   0.164
 4839SOL     OW15415   1.029   3.783   0.105
 4839SOL    HW115416   1.110   3.824   0.065
 4839SOL    HW215417   1.014   3.693   0.064
 4840SOL     OW15418   6.808   4.943   6.345
 4840SOL    HW115419   6.803   4.879   6.269
 4840SOL    HW215420   6.885   5.006   6.331
 4841SOL     OW15421   2.572   5.528   2.952
 4841SOL    HW115422   2.643   5.494   2.890
 4841SOL    HW215423   2.607   5.605   3.004
 4842SOL     OW15424   3.532   4.889   2.360
 4842SOL    HW115425   3.474   4.811   2.340
 4842SOL    HW215426   3.615   4.884   2.303
 4843SOL     OW15427   6.060   2.678   1.419
 4843SOL    HW115428   6.126   2.624   1.471
 4843SOL    HW215429   6.001   2.617   1.367
 4844SOL     OW15430   0.108   3.193   6.383
 4844SOL    HW115431   0.070   3.259   6.448
 4844SOL    HW215432   0.133   3.241   6.299
 4845SOL     OW15433   5.695   5.201   6.559
 4845SOL    HW115434   5.684   5.199   6.659
 4845SOL    HW215435   5.612   5.166   6.516
 4846SOL     OW15436   6.986   2.308   3.718
 4846SOL    HW115437   0.027   2.351   3.779
 4846SOL    HW215438   6.968   2.215   3.750
 4847SOL     OW15439   2.202   1.017   6.285
 4847SOL    HW115440   2.130   0.952   6.261
 4847SOL    HW215441   2.177   1.108   6.251
 4848SOL     OW15442   2.198   0.920   4.845
 4848SOL    HW115443   2.185   0.846   4.779
 4848SOL    HW215444   2.109   0.958   4.869
 4849SOL     OW15445   1.493   5.710   0.256
 4849SOL    HW115446   1.555   5.722   0.334
 4849SOL    HW215447   1.508   5.782   0.189
 4850SOL     OW15448   4.335   1.287   1.437
 4850SOL    HW115449   4.319   1.248   1.527
 4850SOL    HW215450   4.269   1.361   1.420
 4851SOL     OW15451   3.307   6.672   5.761
 4851SOL    HW115452   3.292   6.661   5.860
 4851SOL    HW215453   3.296   6.768   5.736
 4852SOL     OW15454   2.013   5.926   4.620
 4852SOL    HW115455   1.948   5.997   4.648
 4852SOL    HW215456   2.071   5.961   4.546
 4853SOL     OW15457   3.779   1.521   3.810
 4853SOL    HW115458   3.685   1.554   3.801
 4853SOL    HW215459   3.842   1.594   3.783
 4854SOL     OW15460   4.327   6.676   2.116
 4854SOL    HW115461   4.245   6.732   2.126
 4854SOL    HW215462   4.397   6.707   2.180
 4855SOL     OW15463   6.011   2.312   4.831
 4855SOL    HW115464   5.966   2.389   4.874
 4855SOL    HW215465   6.015   2.235   4.895
 4856SOL     OW15466   1.633   3.400   3.038
 4856SOL    HW115467   1.686   3.316   3.044
 4856SOL    HW215468   1.556   3.396   3.102
 4857SOL     OW15469   2.782   2.295   3.625
 4857SOL    HW115470   2.734   2.327   3.706
 4857SOL    HW215471   2.716   2.260   3.558
 4858SOL     OW15472   6.947   6.584   5.194
 4858SOL    HW115473   6.969   6.673   5.153
 4858SOL    HW215474   6.926   6.596   5.291
 4859SOL     OW15475   0.905   5.297   2.560
 4859SOL    HW115476   0.807   5.315   2.570
 4859SOL    HW215477   0.918   5.204   2.525
 4860SOL     OW15478   4.331   3.975   0.422
 4860SOL    HW115479   4.346   3.883   0.457
 4860SOL    HW215480   4.335   3.973   0.322
 4861SOL     OW15481   6.094   5.158   6.738
 4861SOL    HW115482   6.015   5.097   6.742
 4861SOL    HW215483   6.162   5.128   6.804
 4862SOL     OW15484   2.283   4.734   4.945
 4862SOL    HW115485   2.285   4.796   5.024
 4862SOL    HW215486   2.347   4.659   4.960
 4863SOL     OW15487   5.286   3.345   2.214
 4863SOL    HW115488   5.237   3.278   2.270
 4863SOL    HW215489   5.236   3.361   2.130
 4864SOL     OW15490   3.130   1.135   2.048
 4864SOL    HW115491   3.185   1.207   2.006
 4864SOL    HW215492   3.184   1.089   2.118
 4865SOL     OW15493   1.839   6.125   4.673
 4865SOL    HW115494   1.814   6.128   4.770
 4865SOL    HW215495   1.916   6.186   4.656
 4866SOL     OW15496   5.875   4.966   1.607
 4866SOL    HW115497   5.794   4.930   1.560
 4866SOL    HW215498   5.847   5.007   1.694
 4867SOL     OW15499   4.914   5.731   2.942
 4867SOL    HW115500   4.959   5.670   2.877
 4867SOL    HW215501   4.852   5.678   3.000
 4868SOL     OW15502   0.239   5.257   1.973
 4868SOL    HW115503   0.312   5.218   2.030
 4868SOL    HW215504   0.250   5.356   1.967
 4869SOL     OW15505   0.497   2.039   1.829
 4869SOL    HW115506   0.445   2.125   1.828
 4869SOL    HW215507   0.549   2.033   1.914
 4870SOL     OW15508   6.303   5.659   1.821
 4870SOL    HW115509   6.324   5.561   1.810
 4870SOL    HW215510   6.324   5.687   1.914
 4871SOL     OW15511   0.527   1.708   4.779
 4871SOL    HW115512   0.606   1.669   4.826
 4871SOL    HW215513   0.555   1.792   4.733
 4872SOL     OW15514   0.210   6.438   4.321
 4872SOL    HW115515   0.254   6.447   4.410
 4872SOL    HW215516   0.250   6.360   4.272
 4873SOL     OW15517   6.811   4.772   3.801
 4873SOL    HW115518   6.766   4.855   3.834
 4873SOL    HW215519   6.897   4.797   3.756
 4874SOL     OW15520   6.185   3.845   2.845
 4874SOL    HW115521   6.176   3.907   2.923
 4874SOL    HW215522   6.199   3.752   2.877
 4875SOL     OW15523   4.795   2.674   1.063
 4875SOL    HW115524   4.726   2.605   1.082
 4875SOL    HW215525   4.886   2.636   1.082
 4876SOL     OW15526   5.966   0.885   4.568
 4876SOL    HW115527   5.900   0.868   4.640
 4876SOL    HW215528   6.059   0.886   4.607
 4877SOL     OW15529   6.559   1.930   0.444
 4877SOL    HW115530   6.551   1.955   0.348
 4877SOL    HW215531   6.584   1.833   0.451
 4878SOL     OW15532   6.495   1.503   2.787
 4878SOL    HW115533   6.595   1.506   2.790
 4878SOL    HW215534   6.461   1.581   2.735
 4879SOL     OW15535   4.478   5.100   3.552
 4879SOL    HW115536   4.477   5.016   3.498
 4879SOL    HW215537   4.460   5.179   3.493
 4880SOL     OW15538   6.235   3.404   6.559
 4880SOL    HW115539   6.283   3.328   6.602
 4880SOL    HW215540   6.198   3.375   6.470
 4881SOL     OW15541   2.218   6.853   6.367
 4881SOL    HW115542   2.290   6.918   6.344
 4881SOL    HW215543   2.207   6.788   6.292
 4882SOL     OW15544   5.616   1.450   4.204
 4882SOL    HW115545   5.657   1.432   4.293
 4882SOL    HW215546   5.560   1.533   4.210
 4883SOL     OW15547   4.918   4.870   2.175
 4883SOL    HW115548   4.977   4.945   2.203
 4883SOL    HW215549   4.913   4.802   2.248
 4884SOL     OW15550   4.508   0.166   1.150
 4884SOL    HW115551   4.548   0.149   1.240
 4884SOL    HW215552   4.442   0.095   1.128
 4885SOL     OW15553   2.806   6.241   1.885
 4885SOL    HW115554   2.807   6.309   1.958
 4885SOL    HW215555   2.899   6.231   1.848
 4886SOL     OW15556   6.679   5.378   6.052
 4886SOL    HW115557   6.650   5.283   6.040
 4886SOL    HW215558   6.779   5.384   6.043
 4887SOL     OW15559   0.056   0.684   2.954
 4887SOL    HW115560   0.008   0.763   2.992
 4887SOL    HW215561   0.119   0.647   3.022
 4888SOL     OW15562   1.914   6.787   4.405
 4888SOL    HW115563   1.828   6.820   4.445
 4888SOL    HW215564   1.979   6.767   4.478
 4889SOL     OW15565   6.479   0.608   6.520
 4889SOL    HW115566   6.461   0.666   6.440
 4889SOL    HW215567   6.392   0.572   6.555
 4890SOL     OW15568   0.913   2.226   5.580
 4890SOL    HW115569   1.001   2.219   5.533
 4890SOL    HW215570   0.854   2.289   5.530
 4891SOL     OW15571   1.188   5.575   0.521
 4891SOL    HW115572   1.221   5.607   0.610
 4891SOL    HW215573   1.245   5.500   0.489
 4892SOL     OW15574   2.401   6.259   1.929
 4892SOL    HW115575   2.431   6.343   1.883
 4892SOL    HW215576   2.326   6.279   1.991
 4893SOL     OW15577   6.516   4.447   0.567
 4893SOL    HW115578   6.486   4.398   0.485
 4893SOL    HW215579   6.615   4.454   0.568
 4894SOL     OW15580   2.195   1.635   2.043
 4894SOL    HW115581   2.250   1.606   2.122
 4894SOL    HW215582   2.108   1.586   2.044
 4895SOL     OW15583   0.468   4.790   2.518
 4895SOL    HW115584   0.472   4.854   2.442
 4895SOL    HW215585   0.395   4.723   2.502
 4896SOL     OW15586   2.159   5.501   2.027
 4896SOL    HW115587   2.111   5.511   2.113
 4896SOL    HW215588   2.240   5.444   2.040
 4897SOL     OW15589   2.356   5.199   5.906
 4897SOL    HW115590   2.397   5.155   5.986
 4897SOL    HW215591   2.276   5.251   5.934
 4898SOL     OW15592   5.549   1.230   5.115
 4898SOL    HW115593   5.558   1.329   5.116
 4898SOL    HW215594   5.551   1.196   5.209
 4899SOL     OW15595   6.232   4.719   3.608
 4899SOL    HW115596   6.228   4.696   3.705
 4899SOL    HW215597   6.152   4.775   3.584
 4900SOL     OW15598   1.996   6.143   5.373
 4900SOL    HW115599   2.058   6.155   5.295
 4900SOL    HW215600   1.935   6.066   5.354
 4901SOL     OW15601   2.761   6.901   5.166
 4901SOL    HW115602   2.741   6.997   5.147
 4901SOL    HW215603   2.843   6.894   5.223
 4902SOL     OW15604   2.941   2.146   5.058
 4902SOL    HW115605   3.029   2.191   5.075
 4902SOL    HW215606   2.947   2.050   5.084
 4903SOL     OW15607   2.898   6.688   6.392
 4903SOL    HW115608   2.994   6.701   6.366
 4903SOL    HW215609   2.840   6.750   6.338
 4904SOL     OW15610   0.930   0.375   3.742
 4904SOL    HW115611   0.876   0.373   3.658
 4904SOL    HW215612   0.949   0.469   3.767
 4905SOL     OW15613   4.484   1.702   2.343
 4905SOL    HW115614   4.557   1.712   2.412
 4905SOL    HW215615   4.522   1.664   2.259
 4906SOL     OW15616   3.738   1.314   6.325
 4906SOL    HW115617   3.698   1.285   6.412
 4906SOL    HW215618   3.704   1.405   6.302
 4907SOL     OW15619   4.918   6.388   1.131
 4907SOL    HW115620   4.839   6.332   1.108
 4907SOL    HW215621   4.957   6.426   1.047
 4908SOL     OW15622   4.608   4.829   6.404
 4908SOL    HW115623   4.535   4.760   6.405
 4908SOL    HW215624   4.608   4.878   6.491
 4909SOL     OW15625   6.415   0.285   5.254
 4909SOL    HW115626   6.432   0.200   5.204
 4909SOL    HW215627   6.316   0.303   5.255
 4910SOL     OW15628   5.769   6.834   4.524
 4910SOL    HW115629   5.820   6.753   4.553
 4910SOL    HW215630   5.778   6.905   4.593
 4911SOL     OW15631   6.609   2.625   5.836
 4911SOL    HW115632   6.528   2.678   5.864
 4911SOL    HW215633   6.691   2.669   5.873
 4912SOL     OW15634   5.700   2.122   1.415
 4912SOL    HW115635   5.691   2.219   1.393
 4912SOL    HW215636   5.630   2.071   1.366
 4913SOL     OW15637   3.788   3.772   3.539
 4913SOL    HW115638   3.705   3.780   3.595
 4913SOL    HW215639   3.770   3.711   3.461
 4914SOL     OW15640   3.098   6.887   4.880
 4914SOL    HW115641   3.121   6.915   4.973
 4914SOL    HW215642   3.008   6.923   4.856
 4915SOL     OW15643   4.451   0.527   4.679
 4915SOL    HW115644   4.449   0.607   4.620
 4915SOL    HW215645   4.542   0.486   4.677
 4916SOL     OW15646   2.184   1.397   3.392
 4916SOL    HW115647   2.274   1.441   3.399
 4916SOL    HW215648   2.154   1.368   3.483
 4917SOL     OW15649   1.569   5.018   0.521
 4917SOL    HW115650   1.655   4.974   0.548
 4917SOL    HW215651   1.502   5.008   0.594
 4918SOL     OW15652   3.257   6.910   2.863
 4918SOL    HW115653   3.310   6.868   2.937
 4918SOL    HW215654   3.283   7.006   2.853
 4919SOL     OW15655   1.829   1.729   1.071
 4919SOL    HW115656   1.908   1.710   1.129
 4919SOL    HW215657   1.791   1.818   1.095
 4920SOL     OW15658   4.845   0.540   6.269
 4920SOL    HW115659   4.830   0.485   6.186
 4920SOL    HW215660   4.913   0.610   6.250
 4921SOL     OW15661   1.694   4.344   1.131
 4921SOL    HW115662   1.636   4.364   1.052
 4921SOL    HW215663   1.672   4.252   1.166
 4922SOL     OW15664   1.869   3.351   4.755
 4922SOL    HW115665   1.797   3.378   4.692
 4922SOL    HW215666   1.832   3.289   4.824
 4923SOL     OW15667   3.626   1.278   1.179
 4923SOL    HW115668   3.605   1.189   1.218
 4923SOL    HW215669   3.543   1.320   1.142
 4924SOL     OW15670   1.976   2.500   6.359
 4924SOL    HW115671   2.026   2.544   6.284
 4924SOL    HW215672   1.897   2.556   6.383
 4925SOL     OW15673   5.986   6.452   0.602
 4925SOL    HW115674   5.888   6.474   0.598
 4925SOL    HW215675   6.012   6.433   0.697
 4926SOL     OW15676   4.722   2.253   1.239
 4926SOL    HW115677   4.738   2.330   1.299
 4926SOL    HW215678   4.623   2.238   1.229
 4927SOL     OW15679   3.996   3.861   4.223
 4927SOL    HW115680   4.005   3.941   4.282
 4927SOL    HW215681   3.900   3.837   4.213
 4928SOL     OW15682   0.108   0.054   6.533
 4928SOL    HW115683   0.125   6.981   6.539
 4928SOL    HW215684   0.181   0.103   6.579
 4929SOL     OW15685   1.198   4.491   4.764
 4929SOL    HW115686   1.238   4.522   4.677
 4929SOL    HW215687   1.268   4.490   4.835
 4930SOL     OW15688   6.575   0.506   1.905
 4930SOL    HW115689   6.590   0.532   1.810
 4930SOL    HW215690   6.481   0.529   1.932
 4931SOL     OW15691   0.264   0.210   0.844
 4931SOL    HW115692   0.266   0.292   0.787
 4931SOL    HW215693   0.173   0.168   0.840
 4932SOL     OW15694   2.371   2.968   1.655
 4932SOL    HW115695   2.464   2.992   1.682
 4932SOL    HW215696   2.306   3.001   1.724
 4933SOL     OW15697   2.879   6.856   4.278
 4933SOL    HW115698   2.906   6.779   4.220
 4933SOL    HW215699   2.889   6.941   4.227
 4934SOL     OW15700   1.672   5.243   2.951
 4934SOL    HW115701   1.657   5.279   2.859
 4934SOL    HW215702   1.600   5.177   2.973
 4935SOL     OW15703   1.064   1.447   0.038
 4935SOL    HW115704   1.098   1.485   0.124
 4935SOL    HW215705   1.056   1.348   0.046
 4936SOL     OW15706   2.204   5.319   2.342
 4936SOL    HW115707   2.261   5.286   2.417
 4936SOL    HW215708   2.259   5.324   2.258
 4937SOL     OW15709   7.004   3.008   6.155
 4937SOL    HW115710   0.020   3.085   6.108
 4937SOL    HW215711   6.943   3.042   6.227
 4938SOL     OW15712   3.228   5.473   1.044
 4938SOL    HW115713   3.178   5.446   1.125
 4938SOL    HW215714   3.170   5.531   0.987
 4939SOL     OW15715   1.208   1.727   3.880
 4939SOL    HW115716   1.289   1.752   3.827
 4939SOL    HW215717   1.226   1.643   3.931
 4940SOL     OW15718   0.831   1.315   5.997
 4940SOL    HW115719   0.823   1.351   5.904
 4940SOL    HW215720   0.926   1.319   6.026
 4941SOL     OW15721   4.270   2.625   5.357
 4941SOL    HW115722   4.255   2.593   5.450
 4941SOL    HW215723   4.227   2.560   5.293
 4942SOL     OW15724   5.506   3.616   4.774
 4942SOL    HW115725   5.502   3.528   4.820
 4942SOL    HW215726   5.417   3.662   4.782
 4943SOL     OW15727   4.863   4.251   5.348
 4943SOL    HW115728   4.860   4.316   5.423
 4943SOL    HW215729   4.927   4.283   5.278
 4944SOL     OW15730   2.473   4.565   1.819
 4944SOL    HW115731   2.495   4.470   1.799
 4944SOL    HW215732   2.480   4.620   1.735
 4945SOL     OW15733   1.326   6.948   5.392
 4945SOL    HW115734   1.323   6.928   5.294
 4945SOL    HW215735   1.366   6.871   5.440
 4946SOL     OW15736   0.611   5.182   7.003
 4946SOL    HW115737   0.579   5.089   6.989
 4946SOL    HW215738   0.656   5.215   6.920
 4947SOL     OW15739   2.475   0.668   0.991
 4947SOL    HW115740   2.494   0.608   1.069
 4947SOL    HW215741   2.419   0.618   0.924
 4948SOL     OW15742   2.321   2.694   2.375
 4948SOL    HW115743   2.405   2.641   2.366
 4948SOL    HW215744   2.276   2.700   2.286
 4949SOL     OW15745   6.479   4.129   5.436
 4949SOL    HW115746   6.515   4.120   5.343
 4949SOL    HW215747   6.493   4.044   5.486
 4950SOL     OW15748   1.749   4.098   5.474
 4950SOL    HW115749   1.714   4.137   5.388
 4950SOL    HW215750   1.835   4.143   5.497
 4951SOL     OW15751   6.405   0.842   4.182
 4951SOL    HW115752   6.442   0.862   4.092
 4951SOL    HW215753   6.306   0.825   4.175
 4952SOL     OW15754   0.268   6.551   5.896
 4952SOL    HW115755   0.333   6.614   5.854
 4952SOL    HW215756   0.250   6.579   5.990
 4953SOL     OW15757   0.939   6.770   3.486
 4953SOL    HW115758   1.019   6.821   3.454
 4953SOL    HW215759   0.860   6.795   3.431
 4954SOL     OW15760   3.058   3.192   0.140
 4954SOL    HW115761   3.126   3.118   0.149
 4954SOL    HW215762   3.040   3.209   0.044
 4955SOL     OW15763   2.728   6.891   6.800
 4955SOL    HW115764   2.817   6.869   6.760
 4955SOL    HW215765   2.677   6.949   6.736
 4956SOL     OW15766   3.052   0.107   5.102
 4956SOL    HW115767   3.117   0.172   5.063
 4956SOL    HW215768   2.962   0.121   5.061
 4957SOL     OW15769   5.626   2.604   1.387
 4957SOL    HW115770   5.554   2.644   1.444
 4957SOL    HW215771   5.701   2.669   1.378
 4958SOL     OW15772   0.891   5.307   6.285
 4958SOL    HW115773   0.907   5.405   6.300
 4958SOL    HW215774   0.827   5.295   6.210
 4959SOL     OW15775   5.853   1.901   0.393
 4959SOL    HW115776   5.784   1.900   0.466
 4959SOL    HW215777   5.863   1.809   0.355
 4960SOL     OW15778   4.288   4.748   4.162
 4960SOL    HW115779   4.282   4.736   4.261
 4960SOL    HW215780   4.307   4.844   4.141
 4961SOL     OW15781   3.411   0.711   6.052
 4961SOL    HW115782   3.462   0.637   6.096
 4961SOL    HW215783   3.339   0.743   6.113
 4962SOL     OW15784   6.007   2.823   0.698
 4962SOL    HW115785   6.013   2.754   0.626
 4962SOL    HW215786   5.957   2.786   0.776
 4963SOL     OW15787   0.484   5.733   0.300
 4963SOL    HW115788   0.458   5.733   0.203
 4963SOL    HW215789   0.563   5.674   0.313
 4964SOL     OW15790   2.342   0.102   4.496
 4964SOL    HW115791   2.346   0.198   4.469
 4964SOL    HW215792   2.434   0.062   4.489
 4965SOL     OW15793   0.701   6.878   1.933
 4965SOL    HW115794   0.704   6.815   1.855
 4965SOL    HW215795   0.708   6.825   2.018
 4966SOL     OW15796   2.734   6.782   4.918
 4966SOL    HW115797   2.782   6.841   4.853
 4966SOL    HW215798   2.761   6.806   5.011
 4967SOL     OW15799   3.542   4.866   5.609
 4967SOL    HW115800   3.503   4.855   5.518
 4967SOL    HW215801   3.551   4.777   5.652
 4968SOL     OW15802   0.245   1.126   3.081
 4968SOL    HW115803   0.313   1.163   3.144
 4968SOL    HW215804   0.203   1.044   3.122
 4969SOL     OW15805   2.253   6.159   2.594
 4969SOL    HW115806   2.157   6.184   2.585
 4969SOL    HW215807   2.266   6.106   2.678
 4970SOL     OW15808   2.643   1.903   1.438
 4970SOL    HW115809   2.638   1.856   1.351
 4970SOL    HW215810   2.601   1.847   1.509
 4971SOL     OW15811   5.689   5.485   3.101
 4971SOL    HW115812   5.591   5.475   3.120
 4971SOL    HW215813   5.701   5.544   3.021
 4972SOL     OW15814   0.906   3.852   1.267
 4972SOL    HW115815   0.818   3.820   1.302
 4972SOL    HW215816   0.928   3.804   1.182
 4973SOL     OW15817   1.645   0.133   1.906
 4973SOL    HW115818   1.653   0.212   1.845
 4973SOL    HW215819   1.654   0.049   1.853
 4974SOL     OW15820   5.990   5.011   0.807
 4974SOL    HW115821   6.054   5.080   0.839
 4974SOL    HW215822   6.022   4.972   0.721
 4975SOL     OW15823   5.899   4.067   6.179
 4975SOL    HW115824   5.970   4.113   6.233
 4975SOL    HW215825   5.914   4.085   6.082
 4976SOL     OW15826   2.188   2.123   4.022
 4976SOL    HW115827   2.234   2.038   4.048
 4976SOL    HW215828   2.162   2.173   4.105
 4977SOL     OW15829   4.607   5.114   6.990
 4977SOL    HW115830   4.522   5.081   6.948
 4977SOL    HW215831   4.594   5.121   0.063
 4978SOL     OW15832   6.114   4.579   5.024
 4978SOL    HW115833   6.201   4.602   5.068
 4978SOL    HW215834   6.112   4.480   5.005
 4979SOL     OW15835   6.721   6.660   5.866
 4979SOL    HW115836   6.687   6.618   5.950
 4979SOL    HW215837   6.692   6.756   5.863
 4980SOL     OW15838   5.262   5.443   3.752
 4980SOL    HW115839   5.167   5.445   3.718
 4980SOL    HW215840   5.262   5.413   3.847
 4981SOL     OW15841   4.076   5.093   0.750
 4981SOL    HW115842   4.137   5.062   0.677
 4981SOL    HW215843   4.116   5.172   0.796
 4982SOL     OW15844   3.295   1.934   5.873
 4982SOL    HW115845   3.376   1.987   5.899
 4982SOL    HW215846   3.268   1.957   5.779
 4983SOL     OW15847   5.984   3.274   5.875
 4983SOL    HW115848   5.957   3.358   5.827
 4983SOL    HW215849   6.080   3.254   5.854
 4984SOL     OW15850   5.435   4.161   2.892
 4984SOL    HW115851   5.457   4.099   2.968
 4984SOL    HW215852   5.384   4.112   2.822
 4985SOL     OW15853   6.122   6.856   3.170
 4985SOL    HW115854   6.048   6.843   3.104
 4985SOL    HW215855   6.201   6.896   3.125
 4986SOL     OW15856   7.019   4.863   0.510
 4986SOL    HW115857   7.017   4.963   0.513
 4986SOL    HW215858   6.984   4.827   0.596
 4987SOL     OW15859   0.341   6.424   2.371
 4987SOL    HW115860   0.430   6.401   2.333
 4987SOL    HW215861   0.352   6.463   2.462
 4988SOL     OW15862   5.301   1.017   2.224
 4988SOL    HW115863   5.266   0.923   2.219
 4988SOL    HW215864   5.399   1.016   2.208
 4989SOL     OW15865   5.513   6.580   0.942
 4989SOL    HW115866   5.474   6.598   1.033
 4989SOL    HW215867   5.567   6.495   0.946
 4990SOL     OW15868   2.379   1.865   5.788
 4990SOL    HW115869   2.334   1.878   5.876
 4990SOL    HW215870   2.381   1.952   5.739
 4991SOL     OW15871   6.541   5.731   4.354
 4991SOL    HW115872   6.480   5.809   4.371
 4991SOL    HW215873   6.488   5.653   4.322
 4992SOL     OW15874   4.731   0.379   2.104
 4992SOL    HW115875   4.783   0.300   2.074
 4992SOL    HW215876   4.793   0.456   2.120
 4993SOL     OW15877   2.931   6.284   5.004
 4993SOL    HW115878   2.841   6.328   5.000
 4993SOL    HW215879   2.922   6.193   5.045
 4994SOL     OW15880   1.998   0.182   4.526
 4994SOL    HW115881   2.000   0.146   4.433
 4994SOL    HW215882   2.075   0.145   4.578
 4995SOL     OW15883   1.225   2.093   5.109
 4995SOL    HW115884   1.231   2.016   5.173
 4995SOL    HW215885   1.178   2.063   5.026
 4996SOL     OW15886   0.382   1.762   3.326
 4996SOL    HW115887   0.410   1.835   3.265
 4996SOL    HW215888   0.440   1.762   3.408
 4997SOL     OW15889   4.414   2.183   2.545
 4997SOL    HW115890   4.365   2.096   2.542
 4997SOL    HW215891   4.420   2.221   2.453
 4998SOL     OW15892   2.191   3.221   5.012
 4998SOL    HW115893   2.115   3.184   5.065
 4998SOL    HW215894   2.275   3.214   5.065
 4999SOL     OW15895   6.611   3.596   5.834
 4999SOL    HW115896   6.570   3.629   5.918
 4999SOL    HW215897   6.592   3.498   5.824
 5000SOL     OW15898   3.762   7.009   3.159
 5000SOL    HW115899   3.668   6.979   3.175
 5000SOL    HW215900   3.820   6.978   3.234
 5001SOL     OW15901   1.347   4.632   2.052
 5001SOL    HW115902   1.374   4.595   1.963
 5001SOL    HW215903   1.266   4.583   2.085
 5002SOL     OW15904   0.975   3.601   2.087
 5002SOL    HW115905   0.893   3.640   2.045
 5002SOL    HW215906   0.980   3.628   2.183
 5003SOL     OW15907   3.503   5.457   2.886
 5003SOL    HW115908   3.493   5.556   2.900
 5003SOL    HW215909   3.491   5.410   2.973
 5004SOL     OW15910   2.404   5.020   5.043
 5004SOL    HW115911   2.451   5.083   5.105
 5004SOL    HW215912   2.392   5.063   4.954
 5005SOL     OW15913   3.518   3.130   0.954
 5005SOL    HW115914   3.480   3.110   0.863
 5005SOL    HW215915   3.500   3.226   0.977
 5006SOL     OW15916   4.950   0.670   1.539
 5006SOL    HW115917   5.026   0.693   1.477
 5006SOL    HW215918   4.885   0.746   1.540
 5007SOL     OW15919   0.774   6.491   0.869
 5007SOL    HW115920   0.774   6.585   0.905
 5007SOL    HW215921   0.865   6.467   0.837
 5008SOL     OW15922   5.244   6.477   1.282
 5008SOL    HW115923   5.326   6.519   1.321
 5008SOL    HW215924   5.268   6.428   1.199
 5009SOL     OW15925   0.030   1.784   0.520
 5009SOL    HW115926   0.019   1.721   0.597
 5009SOL    HW215927   0.021   1.878   0.553
 5010SOL     OW15928   4.178   3.076   1.757
 5010SOL    HW115929   4.159   3.115   1.848
 5010SOL    HW215930   4.271   3.099   1.730
 5011SOL     OW15931   1.677   4.677   2.379
 5011SOL    HW115932   1.687   4.582   2.350
 5011SOL    HW215933   1.706   4.685   2.475
 5012SOL     OW15934   5.606   3.497   5.658
 5012SOL    HW115935   5.560   3.581   5.627
 5012SOL    HW215936   5.539   3.424   5.668
 5013SOL     OW15937   5.187   1.405   6.825
 5013SOL    HW115938   5.167   1.319   6.871
 5013SOL    HW215939   5.286   1.411   6.807
 5014SOL     OW15940   6.072   4.708   1.142
 5014SOL    HW115941   6.070   4.729   1.240
 5014SOL    HW215942   6.002   4.762   1.095
 5015SOL     OW15943   4.916   2.012   5.127
 5015SOL    HW115944   4.923   1.914   5.146
 5015SOL    HW215945   4.820   2.037   5.115
 5016SOL     OW15946   2.161   2.886   6.232
 5016SOL    HW115947   2.086   2.950   6.215
 5016SOL    HW215948   2.213   2.872   6.148
 5017SOL     OW15949   2.703   2.642   1.449
 5017SOL    HW115950   2.678   2.669   1.543
 5017SOL    HW215951   2.652   2.698   1.384
 5018SOL     OW15952   1.188   4.614   3.009
 5018SOL    HW115953   1.256   4.676   3.047
 5018SOL    HW215954   1.105   4.666   2.986
 5019SOL     OW15955   1.209   5.328   5.943
 5019SOL    HW115956   1.275   5.261   5.908
 5019SOL    HW215957   1.213   5.411   5.887
 5020SOL     OW15958   5.517   0.224   0.021
 5020SOL    HW115959   5.568   0.269   0.095
 5020SOL    HW215960   5.478   0.139   0.055
 5021SOL     OW15961   0.521   1.590   0.096
 5021SOL    HW115962   0.592   1.532   0.057
 5021SOL    HW215963   0.461   1.535   0.154
 5022SOL     OW15964   1.720   1.530   0.936
 5022SOL    HW115965   1.621   1.541   0.932
 5022SOL    HW215966   1.761   1.615   0.971
 5023SOL     OW15967   0.139   3.368   1.952
 5023SOL    HW115968   0.198   3.325   1.884
 5023SOL    HW215969   0.100   3.298   2.012
 5024SOL     OW15970   6.054   5.423   1.551
 5024SOL    HW115971   6.014   5.349   1.498
 5024SOL    HW215972   6.069   5.393   1.645
 5025SOL     OW15973   4.277   1.470   2.845
 5025SOL    HW115974   4.320   1.462   2.935
 5025SOL    HW215975   4.344   1.503   2.779
 5026SOL     OW15976   6.293   6.127   5.302
 5026SOL    HW115977   6.277   6.114   5.204
 5026SOL    HW215978   6.224   6.189   5.339
 5027SOL     OW15979   0.074   6.083   1.656
 5027SOL    HW115980   0.122   6.056   1.573
 5027SOL    HW215981   0.096   6.179   1.677
 5028SOL     OW15982   0.600   1.972   2.288
 5028SOL    HW115983   0.640   1.975   2.379
 5028SOL    HW215984   0.571   1.878   2.268
 5029SOL     OW15985   6.555   2.202   2.376
 5029SOL    HW115986   6.519   2.242   2.460
 5029SOL    HW215987   6.480   2.175   2.316
 5030SOL     OW15988   6.829   6.361   6.899
 5030SOL    HW115989   6.729   6.367   6.895
 5030SOL    HW215990   6.856   6.265   6.907
 5031SOL     OW15991   6.640   0.569   6.008
 5031SOL    HW115992   6.586   0.643   5.969
 5031SOL    HW215993   6.737   0.594   6.008
 5032SOL     OW15994   1.568   2.177   0.226
 5032SOL    HW115995   1.567   2.091   0.276
 5032SOL    HW215996   1.592   2.251   0.289
 5033SOL     OW15997   2.264   6.684   5.812
 5033SOL    HW115998   2.314   6.751   5.867
 5033SOL    HW215999   2.327   6.644   5.745
 5034SOL     OW16000   5.953   0.540   3.343
 5034SOL    HW116001   6.014   0.474   3.386
 5034SOL    HW216002   5.971   0.631   3.380
 5035SOL     OW16003   0.577   3.547   6.680
 5035SOL    HW116004   0.487   3.572   6.716
 5035SOL    HW216005   0.573   3.455   6.641
 5036SOL     OW16006   0.616   4.884   6.930
 5036SOL    HW116007   0.534   4.826   6.935
 5036SOL    HW216008   0.657   4.875   6.839
 5037SOL     OW16009   5.653   3.899   1.775
 5037SOL    HW116010   5.681   3.989   1.807
 5037SOL    HW216011   5.632   3.841   1.854
 5038SOL     OW16012   3.393   3.783   5.970
 5038SOL    HW116013   3.492   3.800   5.976
 5038SOL    HW216014   3.347   3.865   5.935
 5039SOL     OW16015   2.863   4.206   6.025
 5039SOL    HW116016   2.878   4.171   6.117
 5039SOL    HW216017   2.765   4.205   6.004
 5040SOL     OW16018   1.742   6.166   5.455
 5040SOL    HW116019   1.700   6.085   5.496
 5040SOL    HW216020   1.841   6.154   5.452
 5041SOL     OW16021   2.080   1.683   2.828
 5041SOL    HW116022   2.163   1.739   2.837
 5041SOL    HW216023   1.999   1.743   2.830
 5042SOL     OW16024   6.535   3.188   0.232
 5042SOL    HW116025   6.514   3.095   0.201
 5042SOL    HW216026   6.458   3.224   0.284
 5043SOL     OW16027   3.050   0.298   6.199
 5043SOL    HW116028   3.018   0.207   6.223
 5043SOL    HW216029   3.129   0.322   6.255
 5044SOL     OW16030   0.535   6.590   6.924
 5044SOL    HW116031   0.634   6.584   6.913
 5044SOL    HW216032   0.497   6.497   6.928
 5045SOL     OW16033   5.223   0.394   6.332
 5045SOL    HW116034   5.265   0.427   6.416
 5045SOL    HW216035   5.282   0.325   6.290
 5046SOL     OW16036   3.333   4.093   2.570
 5046SOL    HW116037   3.432   4.085   2.555
 5046SOL    HW216038   3.316   4.129   2.662
 5047SOL     OW16039   1.185   4.375   2.871
 5047SOL    HW116040   1.112   4.376   2.803
 5047SOL    HW216041   1.170   4.450   2.936
 5048SOL     OW16042   1.016   1.781   2.650
 5048SOL    HW116043   0.922   1.754   2.630
 5048SOL    HW216044   1.058   1.716   2.713
 5049SOL     OW16045   5.522   1.887   6.583
 5049SOL    HW116046   5.546   1.926   6.672
 5049SOL    HW216047   5.426   1.907   6.562
 5050SOL     OW16048   1.765   1.327   1.578
 5050SOL    HW116049   1.668   1.348   1.596
 5050SOL    HW216050   1.800   1.390   1.509
 5051SOL     OW16051   4.244   4.375   0.783
 5051SOL    HW116052   4.171   4.443   0.781
 5051SOL    HW216053   4.207   4.285   0.761
 5052SOL     OW16054   2.484   1.082   6.233
 5052SOL    HW116055   2.531   1.149   6.291
 5052SOL    HW216056   2.391   1.068   6.267
 5053SOL     OW16057   2.160   3.937   3.703
 5053SOL    HW116058   2.166   4.017   3.764
 5053SOL    HW216059   2.208   3.860   3.745
 5054SOL     OW16060   3.279   5.565   4.930
 5054SOL    HW116061   3.312   5.613   4.849
 5054SOL    HW216062   3.354   5.517   4.974
 5055SOL     OW16063   1.967   2.213   5.818
 5055SOL    HW116064   2.005   2.270   5.745
 5055SOL    HW216065   1.939   2.270   5.895
 5056SOL     OW16066   6.080   4.092   6.984
 5056SOL    HW116067   6.178   4.110   6.991
 5056SOL    HW216068   6.042   4.076   0.050
 5057SOL     OW16069   6.603   5.630   3.920
 5057SOL    HW116070   6.633   5.595   4.009
 5057SOL    HW216071   6.601   5.730   3.923
 5058SOL     OW16072   2.516   3.186   5.606
 5058SOL    HW116073   2.548   3.199   5.512
 5058SOL    HW216074   2.517   3.088   5.628
 5059SOL     OW16075   6.134   1.294   3.629
 5059SOL    HW116076   6.131   1.375   3.569
 5059SOL    HW216077   6.053   1.293   3.687
 5060SOL     OW16078   0.856   2.154   5.862
 5060SOL    HW116079   0.818   2.064   5.879
 5060SOL    HW216080   0.861   2.169   5.763
 5061SOL     OW16081   4.403   2.607   1.750
 5061SOL    HW116082   4.333   2.677   1.742
 5061SOL    HW216083   4.395   2.543   1.673
 5062SOL     OW16084   5.300   0.745   3.293
 5062SOL    HW116085   5.227   0.761   3.226
 5062SOL    HW216086   5.388   0.746   3.246
 5063SOL     OW16087   1.209   6.856   1.820
 5063SOL    HW116088   1.289   6.848   1.880
 5063SOL    HW216089   1.125   6.849   1.874
 5064SOL     OW16090   4.770   4.036   1.284
 5064SOL    HW116091   4.751   4.054   1.380
 5064SOL    HW216092   4.843   3.967   1.276
 5065SOL     OW16093   2.059   0.369   3.479
 5065SOL    HW116094   2.133   0.401   3.421
 5065SOL    HW216095   1.971   0.394   3.437
 5066SOL     OW16096   4.784   5.094   1.915
 5066SOL    HW116097   4.704   5.100   1.975
 5066SOL    HW216098   4.812   5.186   1.887
 5067SOL     OW16099   4.918   0.947   1.153
 5067SOL    HW116100   4.942   0.851   1.168
 5067SOL    HW216101   4.914   0.994   1.241
 5068SOL     OW16102   3.749   4.512   0.620
 5068SOL    HW116103   3.790   4.430   0.580
 5068SOL    HW216104   3.743   4.501   0.719
 5069SOL     OW16105   1.959   3.513   5.510
 5069SOL    HW116106   1.870   3.560   5.514
 5069SOL    HW216107   1.982   3.494   5.415
 5070SOL     OW16108   4.820   4.253   3.967
 5070SOL    HW116109   4.816   4.178   4.033
 5070SOL    HW216110   4.742   4.314   3.981
 5071SOL     OW16111   4.157   2.289   3.158
 5071SOL    HW116112   4.199   2.307   3.247
 5071SOL    HW216113   4.059   2.275   3.170
 5072SOL     OW16114   0.958   0.335   1.311
 5072SOL    HW116115   1.007   0.342   1.224
 5072SOL    HW216116   0.877   0.394   1.309
 5073SOL     OW16117   0.255   5.793   1.946
 5073SOL    HW116118   0.308   5.720   1.904
 5073SOL    HW216119   0.309   5.877   1.948
 5074SOL     OW16120   3.416   2.784   1.315
 5074SOL    HW116121   3.499   2.791   1.371
 5074SOL    HW216122   3.355   2.715   1.354
 5075SOL     OW16123   1.034   2.136   6.909
 5075SOL    HW116124   1.026   2.186   6.996
 5075SOL    HW216125   0.948   2.144   6.859
 5076SOL     OW16126   4.069   1.220   0.739
 5076SOL    HW116127   4.024   1.199   0.652
 5076SOL    HW216128   4.016   1.290   0.787
 5077SOL     OW16129   1.222   4.451   5.464
 5077SOL    HW116130   1.315   4.484   5.482
 5077SOL    HW216131   1.213   4.429   5.367
 5078SOL     OW16132   1.513   0.850   3.933
 5078SOL    HW116133   1.602   0.862   3.890
 5078SOL    HW216134   1.465   0.773   3.891
 5079SOL     OW16135   2.449   3.236   6.240
 5079SOL    HW116136   2.404   3.156   6.202
 5079SOL    HW216137   2.547   3.217   6.250
 5080SOL     OW16138   6.284   6.313   6.262
 5080SOL    HW116139   6.286   6.381   6.189
 5080SOL    HW216140   6.373   6.269   6.269
 5081SOL     OW16141   3.389   3.020   4.163
 5081SOL    HW116142   3.291   3.011   4.182
 5081SOL    HW216143   3.441   2.960   4.224
 5082SOL     OW16144   4.590   6.013   6.962
 5082SOL    HW116145   4.672   5.992   6.908
 5082SOL    HW216146   4.567   6.109   6.952
 5083SOL     OW16147   2.350   6.994   2.746
 5083SOL    HW116148   2.323   0.053   2.791
 5083SOL    HW216149   2.339   6.918   2.810
 5084SOL     OW16150   0.411   4.879   4.510
 5084SOL    HW116151   0.315   4.890   4.534
 5084SOL    HW216152   0.421   4.804   4.445
 5085SOL     OW16153   5.180   3.423   6.735
 5085SOL    HW116154   5.110   3.354   6.749
 5085SOL    HW216155   5.152   3.484   6.661
 5086SOL     OW16156   0.179   5.144   3.379
 5086SOL    HW116157   0.210   5.179   3.467
 5086SOL    HW216158   0.103   5.200   3.345
 5087SOL     OW16159   1.217   4.878   1.908
 5087SOL    HW116160   1.264   4.799   1.947
 5087SOL    HW216161   1.235   4.959   1.963
 5088SOL     OW16162   6.648   1.272   5.388
 5088SOL    HW116163   6.658   1.371   5.402
 5088SOL    HW216164   6.631   1.254   5.291
 5089SOL     OW16165   4.973   3.790   4.297
 5089SOL    HW116166   4.964   3.729   4.218
 5089SOL    HW216167   5.069   3.795   4.324
 5090SOL     OW16168   2.084   3.715   3.106
 5090SOL    HW116169   1.987   3.700   3.087
 5090SOL    HW216170   2.132   3.731   3.020
 5091SOL     OW16171   0.775   7.023   2.271
 5091SOL    HW116172   0.744   0.010   2.177
 5091SOL    HW216173   0.697   0.006   2.333
 5092SOL     OW16174   4.006   2.993   1.562
 5092SOL    HW116175   3.981   2.921   1.628
 5092SOL    HW216176   4.085   3.044   1.596
 5093SOL     OW16177   2.860   1.423   1.649
 5093SOL    HW116178   2.831   1.503   1.597
 5093SOL    HW216179   2.792   1.351   1.639
 5094SOL     OW16180   2.167   5.866   5.434
 5094SOL    HW116181   2.169   5.789   5.370
 5094SOL    HW216182   2.248   5.922   5.421
 5095SOL     OW16183   6.257   2.296   5.049
 5095SOL    HW116184   6.333   2.242   5.085
 5095SOL    HW216185   6.226   2.361   5.119
 5096SOL     OW16186   4.272   4.036   0.794
 5096SOL    HW116187   4.328   4.084   0.727
 5096SOL    HW216188   4.330   3.981   0.854
 5097SOL     OW16189   1.250   0.641   6.646
 5097SOL    HW116190   1.305   0.686   6.576
 5097SOL    HW216191   1.261   0.542   6.639
 5098SOL     OW16192   1.460   0.845   1.695
 5098SOL    HW116193   1.486   0.789   1.774
 5098SOL    HW216194   1.361   0.846   1.686
 5099SOL     OW16195   0.518   6.321   6.807
 5099SOL    HW116196   0.485   6.229   6.788
 5099SOL    HW216197   0.618   6.322   6.804
 5100SOL     OW16198   4.204   5.479   5.543
 5100SOL    HW116199   4.177   5.470   5.447
 5100SOL    HW216200   4.155   5.411   5.597
 5101SOL     OW16201   4.895   6.686   0.348
 5101SOL    HW116202   4.896   6.736   0.262
 5101SOL    HW216203   4.845   6.739   0.417
 5102SOL     OW16204   5.623   0.732   4.262
 5102SOL    HW116205   5.578   0.730   4.351
 5102SOL    HW216206   5.589   0.657   4.205
 5103SOL     OW16207   0.499   1.569   4.414
 5103SOL    HW116208   0.523   1.583   4.318
 5103SOL    HW216209   0.400   1.575   4.425
 5104SOL     OW16210   1.374   6.653   2.974
 5104SOL    HW116211   1.342   6.573   2.923
 5104SOL    HW216212   1.386   6.628   3.070
 5105SOL     OW16213   3.490   2.766   0.407
 5105SOL    HW116214   3.586   2.747   0.423
 5105SOL    HW216215   3.480   2.856   0.364
 5106SOL     OW16216   3.114   1.061   0.497
 5106SOL    HW116217   3.069   1.002   0.564
 5106SOL    HW216218   3.158   1.003   0.427
 5107SOL     OW16219   3.567   0.692   0.337
 5107SOL    HW116220   3.661   0.701   0.368
 5107SOL    HW216221   3.558   0.728   0.245
 5108SOL     OW16222   3.030   3.780   4.573
 5108SOL    HW116223   3.062   3.875   4.575
 5108SOL    HW216224   2.982   3.763   4.487
 5109SOL     OW16225   1.439   0.829   0.702
 5109SOL    HW116226   1.508   0.855   0.635
 5109SOL    HW216227   1.349   0.862   0.672
 5110SOL     OW16228   0.425   0.740   6.713
 5110SOL    HW116229   0.463   0.665   6.767
 5110SOL    HW216230   0.414   0.820   6.771
 5111SOL     OW16231   2.677   1.235   5.274
 5111SOL    HW116232   2.598   1.210   5.330
 5111SOL    HW216233   2.718   1.319   5.310
 5112SOL     OW16234   0.606   6.588   2.561
 5112SOL    HW116235   0.510   6.609   2.579
 5112SOL    HW216236   0.657   6.588   2.647
 5113SOL     OW16237   2.335   6.813   1.671
 5113SOL    HW116238   2.348   6.730   1.725
 5113SOL    HW216239   2.424   6.852   1.648
 5114SOL     OW16240   3.040   2.120   0.863
 5114SOL    HW116241   3.007   2.076   0.946
 5114SOL    HW216242   2.985   2.201   0.844
 5115SOL     OW16243   2.169   4.998   4.489
 5115SOL    HW116244   2.158   4.973   4.585
 5115SOL    HW216245   2.108   5.075   4.468
 5116SOL     OW16246   5.739   6.886   6.606
 5116SOL    HW116247   5.804   6.811   6.612
 5116SOL    HW216248   5.788   6.973   6.611
 5117SOL     OW16249   2.989   4.844   4.903
 5117SOL    HW116250   2.936   4.781   4.960
 5117SOL    HW216251   3.011   4.800   4.816
 5118SOL     OW16252   4.929   0.567   0.539
 5118SOL    HW116253   5.009   0.611   0.499
 5118SOL    HW216254   4.847   0.619   0.516
 5119SOL     OW16255   5.690   0.793   1.823
 5119SOL    HW116256   5.684   0.803   1.724
 5119SOL    HW216257   5.604   0.756   1.858
 5120SOL     OW16258   4.090   1.509   3.993
 5120SOL    HW116259   4.174   1.480   3.947
 5120SOL    HW216260   4.011   1.481   3.939
 5121SOL     OW16261   2.427   2.311   0.724
 5121SOL    HW116262   2.483   2.263   0.656
 5121SOL    HW216263   2.333   2.318   0.690
 5122SOL     OW16264   2.958   6.961   3.335
 5122SOL    HW116265   2.917   7.024   3.400
 5122SOL    HW216266   2.965   6.870   3.375
 5123SOL     OW16267   5.770   2.003   5.368
 5123SOL    HW116268   5.706   1.988   5.293
 5123SOL    HW216269   5.852   1.946   5.354
 5124SOL     OW16270   3.036   5.301   5.000
 5124SOL    HW116271   3.037   5.223   5.062
 5124SOL    HW216272   2.941   5.326   4.978
 5125SOL     OW16273   6.242   2.814   4.001
 5125SOL    HW116274   6.284   2.728   4.030
 5125SOL    HW216275   6.163   2.834   4.059
 5126SOL     OW16276   6.181   5.384   5.841
 5126SOL    HW116277   6.188   5.317   5.767
 5126SOL    HW216278   6.198   5.339   5.929
 5127SOL     OW16279   6.942   3.919   0.135
 5127SOL    HW116280   6.989   3.991   0.082
 5127SOL    HW216281   7.010   3.862   0.180
 5128SOL     OW16282   0.134   0.648   6.654
 5128SOL    HW116283   0.154   0.551   6.642
 5128SOL    HW216284   0.219   0.701   6.654
 5129SOL     OW16285   4.719   6.898   3.121
 5129SOL    HW116286   4.661   6.884   3.040
 5129SOL    HW216287   4.788   6.826   3.125
 5130SOL     OW16288   1.228   5.845   4.224
 5130SOL    HW116289   1.210   5.935   4.265
 5130SOL    HW216290   1.180   5.775   4.277
 5131SOL     OW16291   2.944   4.862   3.564
 5131SOL    HW116292   2.866   4.810   3.599
 5131SOL    HW216293   2.993   4.903   3.640
 5132SOL     OW16294   3.649   1.549   6.250
 5132SOL    HW116295   3.554   1.556   6.280
 5132SOL    HW216296   3.658   1.593   6.160
 5133SOL     OW16297   2.459   5.450   6.578
 5133SOL    HW116298   2.547   5.407   6.598
 5133SOL    HW216299   2.455   5.476   6.481
 5134SOL     OW16300   6.536   0.748   2.167
 5134SOL    HW116301   6.584   0.685   2.228
 5134SOL    HW216302   6.493   0.821   2.221
 5135SOL     OW16303   4.915   3.351   3.899
 5135SOL    HW116304   4.941   3.421   3.833
 5135SOL    HW216305   4.972   3.359   3.981
 5136SOL     OW16306   5.345   0.597   6.526
 5136SOL    HW116307   5.331   0.692   6.553
 5136SOL    HW216308   5.363   0.541   6.606
 5137SOL     OW16309   5.213   3.389   4.974
 5137SOL    HW116310   5.255   3.326   4.909
 5137SOL    HW216311   5.247   3.370   5.066
 5138SOL     OW16312   3.457   4.158   4.577
 5138SOL    HW116313   3.444   4.059   4.578
 5138SOL    HW216314   3.437   4.195   4.668
 5139SOL     OW16315   0.698   0.045   4.612
 5139SOL    HW116316   0.625   0.083   4.555
 5139SOL    HW216317   0.660   7.003   4.674
 5140SOL     OW16318   4.034   1.453   5.450
 5140SOL    HW116319   3.944   1.496   5.450
 5140SOL    HW216320   4.101   1.518   5.486
 5141SOL     OW16321   6.607   3.644   1.511
 5141SOL    HW116322   6.595   3.556   1.558
 5141SOL    HW216323   6.603   3.719   1.577
 5142SOL     OW16324   5.571   6.543   4.460
 5142SOL    HW116325   5.601   6.622   4.406
 5142SOL    HW216326   5.649   6.480   4.473
 5143SOL     OW16327   0.316   4.015   4.204
 5143SOL    HW116328   0.278   4.042   4.116
 5143SOL    HW216329   0.413   4.041   4.207
 5144SOL     OW16330   1.495   4.893   5.562
 5144SOL    HW116331   1.458   4.907   5.470
 5144SOL    HW216332   1.420   4.869   5.625
 5145SOL     OW16333   3.594   5.964   5.977
 5145SOL    HW116334   3.611   6.047   5.923
 5145SOL    HW216335   3.610   5.983   6.074
 5146SOL     OW16336   3.412   3.684   5.267
 5146SOL    HW116337   3.432   3.776   5.230
 5146SOL    HW216338   3.492   3.652   5.318
 5147SOL     OW16339   6.348   5.536   3.913
 5147SOL    HW116340   6.444   5.564   3.914
 5147SOL    HW216341   6.292   5.610   3.952
 5148SOL     OW16342   0.004   1.130   2.307
 5148SOL    HW116343   7.016   1.150   2.404
 5148SOL    HW216344   6.942   1.114   2.263
 5149SOL     OW16345   5.856   5.685   4.855
 5149SOL    HW116346   5.887   5.603   4.905
 5149SOL    HW216347   5.899   5.686   4.765
 5150SOL     OW16348   2.269   4.631   4.154
 5150SOL    HW116349   2.171   4.626   4.135
 5150SOL    HW216350   2.318   4.570   4.092
 5151SOL     OW16351   0.333   3.957   2.053
 5151SOL    HW116352   0.383   3.906   2.124
 5151SOL    HW216353   0.388   4.035   2.023
 5152SOL     OW16354   1.876   5.588   0.056
 5152SOL    HW116355   1.841   5.517   0.117
 5152SOL    HW216356   1.974   5.574   0.041
 5153SOL     OW16357   0.311   2.022   1.187
 5153SOL    HW116358   0.297   2.079   1.269
 5153SOL    HW216359   0.275   2.069   1.107
 5154SOL     OW16360   1.130   3.020   5.889
 5154SOL    HW116361   1.227   3.031   5.864
 5154SOL    HW216362   1.074   3.034   5.807
 5155SOL     OW16363   3.985   0.177   2.140
 5155SOL    HW116364   4.077   0.141   2.125
 5155SOL    HW216365   3.984   0.227   2.227
 5156SOL     OW16366   5.600   4.628   5.103
 5156SOL    HW116367   5.557   4.646   5.192
 5156SOL    HW216368   5.640   4.713   5.068
 5157SOL     OW16369   3.177   1.910   2.870
 5157SOL    HW116370   3.223   1.992   2.837
 5157SOL    HW216371   3.083   1.909   2.837
 5158SOL     OW16372   4.204   2.224   0.913
 5158SOL    HW116373   4.169   2.199   0.823
 5158SOL    HW216374   4.295   2.265   0.903
 5159SOL     OW16375   5.918   3.256   5.490
 5159SOL    HW116376   5.910   3.167   5.535
 5159SOL    HW216377   5.921   3.328   5.559
 5160SOL     OW16378   6.761   4.730   3.049
 5160SOL    HW116379   6.699   4.698   2.978
 5160SOL    HW216380   6.738   4.686   3.136
 5161SOL     OW16381   1.852   3.746   0.380
 5161SOL    HW116382   1.919   3.723   0.450
 5161SOL    HW216383   1.793   3.666   0.364
 5162SOL     OW16384   1.051   5.456   2.720
 5162SOL    HW116385   1.003   5.392   2.660
 5162SOL    HW216386   1.149   5.451   2.701
 5163SOL     OW16387   3.283   6.497   0.488
 5163SOL    HW116388   3.286   6.553   0.571
 5163SOL    HW216389   3.315   6.405   0.509
 5164SOL     OW16390   3.418   3.005   0.249
 5164SOL    HW116391   3.336   2.989   0.193
 5164SOL    HW216392   3.492   3.039   0.192
 5165SOL     OW16393   0.725   4.196   6.086
 5165SOL    HW116394   0.820   4.227   6.077
 5165SOL    HW216395   0.670   4.268   6.128
 5166SOL     OW16396   2.642   5.245   2.403
 5166SOL    HW116397   2.621   5.341   2.385
 5166SOL    HW216398   2.708   5.239   2.478
 5167SOL     OW16399   6.104   4.331   5.628
 5167SOL    HW116400   6.186   4.343   5.683
 5167SOL    HW216401   6.127   4.288   5.541
 5168SOL     OW16402   5.209   3.289   2.871
 5168SOL    HW116403   5.192   3.305   2.774
 5168SOL    HW216404   5.129   3.246   2.913
 5169SOL     OW16405   3.936   2.160   3.222
 5169SOL    HW116406   3.880   2.108   3.158
 5169SOL    HW216407   3.972   2.099   3.293
 5170SOL     OW16408   1.309   3.552   4.898
 5170SOL    HW116409   1.296   3.530   4.801
 5170SOL    HW216410   1.341   3.646   4.907
 5171SOL     OW16411   0.052   4.114   6.061
 5171SOL    HW116412   6.997   4.128   6.003
 5171SOL    HW216413   0.124   4.072   6.006
 5172SOL     OW16414   1.805   3.715   3.054
 5172SOL    HW116415   1.746   3.673   2.985
 5172SOL    HW216416   1.766   3.700   3.145
 5173SOL     OW16417   4.016   5.485   5.197
 5173SOL    HW116418   4.106   5.446   5.214
 5173SOL    HW216419   3.949   5.443   5.259
 5174SOL     OW16420   2.394   4.927   3.395
 5174SOL    HW116421   2.331   4.999   3.422
 5174SOL    HW216422   2.436   4.950   3.307
 5175SOL     OW16423   2.837   3.611   6.323
 5175SOL    HW116424   2.747   3.617   6.366
 5175SOL    HW216425   2.826   3.607   6.223
 5176SOL     OW16426   5.188   4.200   6.839
 5176SOL    HW116427   5.106   4.199   6.781
 5176SOL    HW216428   5.165   4.239   6.928
 5177SOL     OW16429   5.347   6.886   0.629
 5177SOL    HW116430   5.281   6.830   0.679
 5177SOL    HW216431   5.299   6.953   0.574
 5178SOL     OW16432   1.549   4.276   2.164
 5178SOL    HW116433   1.472   4.303   2.221
 5178SOL    HW216434   1.524   4.286   2.068
 5179SOL     OW16435   4.609   4.425   3.974
 5179SOL    HW116436   4.531   4.454   4.029
 5179SOL    HW216437   4.600   4.463   3.881
 5180SOL     OW16438   3.637   1.635   1.651
 5180SOL    HW116439   3.553   1.585   1.633
 5180SOL    HW216440   3.615   1.729   1.677
 5181SOL     OW16441   5.895   0.518   2.124
 5181SOL    HW116442   5.796   0.513   2.137
 5181SOL    HW216443   5.922   0.459   2.048
 5182SOL     OW16444   4.585   4.577   2.313
 5182SOL    HW116445   4.538   4.549   2.229
 5182SOL    HW216446   4.634   4.498   2.351
 5183SOL     OW16447   3.495   1.660   3.053
 5183SOL    HW116448   3.499   1.561   3.062
 5183SOL    HW216449   3.577   1.701   3.093
 5184SOL     OW16450   1.871   2.529   3.641
 5184SOL    HW116451   1.774   2.555   3.643
 5184SOL    HW216452   1.878   2.429   3.634
 5185SOL     OW16453   4.955   1.359   2.921
 5185SOL    HW116454   5.016   1.284   2.892
 5185SOL    HW216455   4.924   1.409   2.840
 5186SOL     OW16456   6.199   1.864   6.266
 5186SOL    HW116457   6.224   1.789   6.327
 5186SOL    HW216458   6.221   1.951   6.310
 5187SOL     OW16459   1.364   5.741   5.361
 5187SOL    HW116460   1.445   5.725   5.305
 5187SOL    HW216461   1.365   5.835   5.396
 5188SOL     OW16462   6.373   6.278   1.558
 5188SOL    HW116463   6.366   6.236   1.468
 5188SOL    HW216464   6.287   6.325   1.579
 5189SOL     OW16465   4.638   5.948   0.193
 5189SOL    HW116466   4.738   5.945   0.200
 5189SOL    HW216467   4.611   5.961   0.098
 5190SOL     OW16468   0.733   3.514   4.083
 5190SOL    HW116469   0.686   3.496   3.997
 5190SOL    HW216470   0.670   3.557   4.148
 5191SOL     OW16471   3.184   6.327   2.099
 5191SOL    HW116472   3.173   6.425   2.081
 5191SOL    HW216473   3.268   6.313   2.152
 5192SOL     OW16474   1.452   6.007   1.423
 5192SOL    HW116475   1.517   6.059   1.368
 5192SOL    HW216476   1.501   5.961   1.498
 5193SOL     OW16477   5.306   5.752   5.695
 5193SOL    HW116478   5.245   5.803   5.634
 5193SOL    HW216479   5.285   5.776   5.790
 5194SOL     OW16480   3.440   2.708   0.038
 5194SOL    HW116481   3.475   2.739   0.127
 5194SOL    HW216482   3.340   2.716   0.037
 5195SOL     OW16483   0.375   0.584   3.949
 5195SOL    HW116484   0.380   0.569   4.047
 5195SOL    HW216485   0.462   0.558   3.907
 5196SOL     OW16486   5.097   0.041   2.020
 5196SOL    HW116487   5.122   0.065   1.927
 5196SOL    HW216488   5.151   6.988   2.050
 5197SOL     OW16489   2.583   3.638   6.387
 5197SOL    HW116490   2.546   3.636   6.294
 5197SOL    HW216491   2.516   3.682   6.448
 5198SOL     OW16492   4.457   5.742   2.833
 5198SOL    HW116493   4.459   5.784   2.924
 5198SOL    HW216494   4.396   5.663   2.835
 5199SOL     OW16495   1.141   5.885   0.514
 5199SOL    HW116496   1.154   5.805   0.457
 5199SOL    HW216497   1.098   5.858   0.600
 5200SOL     OW16498   6.840   4.013   5.147
 5200SOL    HW116499   6.741   4.027   5.156
 5200SOL    HW216500   6.879   4.086   5.091
 5201SOL     OW16501   0.616   6.341   2.988
 5201SOL    HW116502   0.699   6.292   2.961
 5201SOL    HW216503   0.636   6.403   3.063
 5202SOL     OW16504   4.881   2.732   6.030
 5202SOL    HW116505   4.896   2.759   6.125
 5202SOL    HW216506   4.922   2.642   6.014
 5203SOL     OW16507   2.169   2.184   6.199
 5203SOL    HW116508   2.161   2.085   6.202
 5203SOL    HW216509   2.126   2.224   6.280
 5204SOL     OW16510   3.638   4.881   6.732
 5204SOL    HW116511   3.639   4.979   6.710
 5204SOL    HW216512   3.731   4.845   6.724
 5205SOL     OW16513   0.691   6.614   0.489
 5205SOL    HW116514   0.704   6.521   0.523
 5205SOL    HW216515   0.779   6.660   0.481
 5206SOL     OW16516   6.865   4.477   5.024
 5206SOL    HW116517   6.849   4.536   4.946
 5206SOL    HW216518   6.953   4.498   5.066
 5207SOL     OW16519   1.131   6.012   3.672
 5207SOL    HW116520   1.221   6.054   3.687
 5207SOL    HW216521   1.075   6.025   3.754
 5208SOL     OW16522   3.292   2.064   6.629
 5208SOL    HW116523   3.220   1.998   6.611
 5208SOL    HW216524   3.381   2.022   6.615
 5209SOL     OW16525   5.901   6.085   3.387
 5209SOL    HW116526   5.908   6.067   3.485
 5209SOL    HW216527   5.987   6.059   3.342
 5210SOL     OW16528   5.468   2.389   5.440
 5210SOL    HW116529   5.549   2.441   5.469
 5210SOL    HW216530   5.483   2.292   5.457
 5211SOL     OW16531   3.472   2.877   4.557
 5211SOL    HW116532   3.434   2.867   4.649
 5211SOL    HW216533   3.517   2.966   4.549
 5212SOL     OW16534   6.266   1.751   0.656
 5212SOL    HW116535   6.309   1.683   0.597
 5212SOL    HW216536   6.200   1.705   0.717
 5213SOL     OW16537   4.204   3.833   6.738
 5213SOL    HW116538   4.123   3.847   6.681
 5213SOL    HW216539   4.281   3.808   6.679
 5214SOL     OW16540   4.869   1.560   5.915
 5214SOL    HW116541   4.950   1.609   5.945
 5214SOL    HW216542   4.833   1.504   5.989
 5215SOL     OW16543   5.848   5.044   3.151
 5215SOL    HW116544   5.941   5.077   3.134
 5215SOL    HW216545   5.820   5.068   3.244
 5216SOL     OW16546   4.399   5.586   1.554
 5216SOL    HW116547   4.415   5.645   1.475
 5216SOL    HW216548   4.301   5.580   1.571
 5217SOL     OW16549   3.374   5.291   4.098
 5217SOL    HW116550   3.392   5.390   4.098
 5217SOL    HW216551   3.293   5.272   4.152
 5218SOL     OW16552   0.935   0.799   3.640
 5218SOL    HW116553   0.934   0.843   3.551
 5218SOL    HW216554   1.011   0.734   3.644
 5219SOL     OW16555   4.366   0.576   5.832
 5219SOL    HW116556   4.287   0.595   5.773
 5219SOL    HW216557   4.351   0.492   5.883
 5220SOL     OW16558   1.425   5.914   2.424
 5220SOL    HW116559   1.500   5.899   2.359
 5220SOL    HW216560   1.368   5.990   2.392
 5221SOL     OW16561   5.491   2.036   3.713
 5221SOL    HW116562   5.536   2.094   3.645
 5221SOL    HW216563   5.460   2.092   3.790
 5222SOL     OW16564   3.358   6.109   3.511
 5222SOL    HW116565   3.402   6.059   3.437
 5222SOL    HW216566   3.281   6.056   3.546
 5223SOL     OW16567   5.467   1.369   0.603
 5223SOL    HW116568   5.396   1.418   0.552
 5223SOL    HW216569   5.522   1.434   0.655
 5224SOL     OW16570   6.868   2.244   4.117
 5224SOL    HW116571   6.966   2.263   4.131
 5224SOL    HW216572   6.832   2.196   4.196
 5225SOL     OW16573   0.443   0.085   2.961
 5225SOL    HW116574   0.394   0.168   2.934
 5225SOL    HW216575   0.427   0.014   2.892
 5226SOL     OW16576   0.222   5.540   5.005
 5226SOL    HW116577   0.137   5.531   5.057
 5226SOL    HW216578   0.246   5.637   4.997
 5227SOL     OW16579   1.394   4.221   3.976
 5227SOL    HW116580   1.473   4.185   3.928
 5227SOL    HW216581   1.399   4.321   3.980
 5228SOL     OW16582   6.566   2.077   1.319
 5228SOL    HW116583   6.591   2.073   1.223
 5228SOL    HW216584   6.631   2.135   1.369
 5229SOL     OW16585   2.022   4.796   0.007
 5229SOL    HW116586   2.105   4.808   6.978
 5229SOL    HW216587   1.967   4.722   6.996
 5230SOL     OW16588   0.450   6.093   0.894
 5230SOL    HW116589   0.372   6.049   0.939
 5230SOL    HW216590   0.464   6.184   0.933
 5231SOL     OW16591   4.121   3.371   5.040
 5231SOL    HW116592   4.133   3.435   4.965
 5231SOL    HW216593   4.043   3.311   5.022
 5232SOL     OW16594   3.027   1.897   5.997
 5232SOL    HW116595   2.958   1.866   5.931
 5232SOL    HW216596   3.109   1.927   5.948
 5233SOL     OW16597   6.013   0.407   1.845
 5233SOL    HW116598   6.091   0.352   1.875
 5233SOL    HW216599   5.928   0.362   1.873
 5234SOL     OW16600   2.397   0.593   0.134
 5234SOL    HW116601   2.425   0.682   0.169
 5234SOL    HW216602   2.451   0.570   0.053
 5235SOL     OW16603   1.816   2.944   1.117
 5235SOL    HW116604   1.732   2.998   1.108
 5235SOL    HW216605   1.842   2.940   1.214
 5236SOL     OW16606   6.042   4.000   2.267
 5236SOL    HW116607   5.999   3.957   2.347
 5236SOL    HW216608   5.974   4.054   2.218
 5237SOL     OW16609   2.226   0.532   5.310
 5237SOL    HW116610   2.266   0.576   5.230
 5237SOL    HW216611   2.202   0.601   5.378
 5238SOL     OW16612   1.463   4.670   0.676
 5238SOL    HW116613   1.435   4.758   0.713
 5238SOL    HW216614   1.563   4.666   0.670
 5239SOL     OW16615   4.003   3.822   4.540
 5239SOL    HW116616   4.031   3.906   4.586
 5239SOL    HW216617   3.984   3.751   4.607
 5240SOL     OW16618   3.066   1.928   6.523
 5240SOL    HW116619   3.003   2.005   6.527
 5240SOL    HW216620   3.080   1.900   6.428
 5241SOL     OW16621   0.593   5.446   5.772
 5241SOL    HW116622   0.544   5.359   5.775
 5241SOL    HW216623   0.655   5.446   5.694
 5242SOL     OW16624   6.785   6.266   5.962
 5242SOL    HW116625   6.858   6.248   6.027
 5242SOL    HW216626   6.821   6.319   5.885
 5243SOL     OW16627   1.193   5.804   1.773
 5243SOL    HW116628   1.204   5.789   1.675
 5243SOL    HW216629   1.248   5.737   1.823
 5244SOL     OW16630   3.260   4.006   5.804
 5244SOL    HW116631   3.180   3.990   5.862
 5244SOL    HW216632   3.230   4.017   5.709
 5245SOL     OW16633   4.733   4.567   0.227
 5245SOL    HW116634   4.764   4.600   0.316
 5245SOL    HW216635   4.691   4.477   0.238
 5246SOL     OW16636   5.669   4.314   2.416
 5246SOL    HW116637   5.637   4.231   2.371
 5246SOL    HW216638   5.607   4.389   2.395
 5247SOL     OW16639   1.177   6.555   0.464
 5247SOL    HW116640   1.265   6.513   0.485
 5247SOL    HW216641   1.110   6.484   0.444
 5248SOL     OW16642   6.167   0.402   4.522
 5248SOL    HW116643   6.249   0.389   4.578
 5248SOL    HW216644   6.191   0.397   4.425
 5249SOL     OW16645   0.146   4.839   4.676
 5249SOL    HW116646   0.081   4.772   4.639
 5249SOL    HW216647   0.191   4.801   4.757
 5250SOL     OW16648   1.065   1.243   5.422
 5250SOL    HW116649   0.998   1.174   5.448
 5250SOL    HW216650   1.070   1.249   5.322
 5251SOL     OW16651   0.549   3.574   0.365
 5251SOL    HW116652   0.472   3.623   0.325
 5251SOL    HW216653   0.515   3.495   0.417
 5252SOL     OW16654   2.587   5.666   1.065
 5252SOL    HW116655   2.510   5.639   1.007
 5252SOL    HW216656   2.661   5.600   1.054
 5253SOL     OW16657   5.695   3.815   4.705
 5253SOL    HW116658   5.718   3.835   4.800
 5253SOL    HW216659   5.638   3.733   4.701
 5254SOL     OW16660   4.827   1.038   3.080
 5254SOL    HW116661   4.846   0.940   3.090
 5254SOL    HW216662   4.740   1.050   3.032
 5255SOL     OW16663   4.538   0.420   6.125
 5255SOL    HW116664   4.527   0.490   6.195
 5255SOL    HW216665   4.633   0.416   6.095
 5256SOL     OW16666   4.358   0.595   3.626
 5256SOL    HW116667   4.429   0.547   3.574
 5256SOL    HW216668   4.368   0.575   3.723
 5257SOL     OW16669   4.572   7.010   2.287
 5257SOL    HW116670   4.666   0.012   2.304
 5257SOL    HW216671   4.568   6.910   2.278
 5258SOL     OW16672   4.973   3.146   1.320
 5258SOL    HW116673   4.921   3.091   1.385
 5258SOL    HW216674   5.044   3.089   1.278
 5259SOL     OW16675   4.429   5.993   1.097
 5259SOL    HW116676   4.520   6.027   1.119
 5259SOL    HW216677   4.382   6.060   1.039
 5260SOL     OW16678   5.555   3.539   0.961
 5260SOL    HW116679   5.483   3.476   0.932
 5260SOL    HW216680   5.642   3.510   0.922
 5261SOL     OW16681   1.640   3.359   0.032
 5261SOL    HW116682   1.579   3.437   0.016
 5261SOL    HW216683   1.587   3.274   0.026
 5262SOL     OW16684   2.458   0.400   2.856
 5262SOL    HW116685   2.491   0.372   2.946
 5262SOL    HW216686   2.518   0.363   2.785
 5263SOL     OW16687   1.275   1.129   5.516
 5263SOL    HW116688   1.260   1.105   5.612
 5263SOL    HW216689   1.191   1.167   5.478
 5264SOL     OW16690   6.185   0.980   2.568
 5264SOL    HW116691   6.104   0.923   2.583
 5264SOL    HW216692   6.164   1.075   2.590
 5265SOL     OW16693   5.438   4.590   3.261
 5265SOL    HW116694   5.414   4.504   3.307
 5265SOL    HW216695   5.518   4.575   3.203
 5266SOL     OW16696   2.726   0.472   2.263
 5266SOL    HW116697   2.820   0.485   2.231
 5266SOL    HW216698   2.719   0.383   2.308
 5267SOL     OW16699   4.868   4.585   5.951
 5267SOL    HW116700   4.830   4.675   5.971
 5267SOL    HW216701   4.853   4.524   6.028
 5268SOL     OW16702   6.123   6.678   6.135
 5268SOL    HW116703   6.193   6.616   6.169
 5268SOL    HW216704   6.166   6.756   6.090
 5269SOL     OW16705   2.010   0.254   4.166
 5269SOL    HW116706   1.998   0.341   4.213
 5269SOL    HW216707   2.070   0.194   4.221
 5270SOL     OW16708   5.573   1.587   2.395
 5270SOL    HW116709   5.628   1.506   2.374
 5270SOL    HW216710   5.581   1.608   2.492
 5271SOL     OW16711   5.352   5.131   5.059
 5271SOL    HW116712   5.270   5.162   5.108
 5271SOL    HW216713   5.383   5.203   4.997
 5272SOL     OW16714   1.809   6.355   2.270
 5272SOL    HW116715   1.884   6.413   2.239
 5272SOL    HW216716   1.741   6.347   2.197
 5273SOL     OW16717   6.833   3.119   2.968
 5273SOL    HW116718   6.816   3.032   2.922
 5273SOL    HW216719   6.901   3.105   3.040
 5274SOL     OW16720   6.198   5.977   2.383
 5274SOL    HW116721   6.100   5.957   2.381
 5274SOL    HW216722   6.240   5.950   2.296
 5275SOL     OW16723   3.462   2.234   6.517
 5275SOL    HW116724   3.542   2.229   6.578
 5275SOL    HW216725   3.384   2.190   6.562
 5276SOL     OW16726   1.252   0.843   1.310
 5276SOL    HW116727   1.248   0.745   1.333
 5276SOL    HW216728   1.197   0.895   1.375
 5277SOL     OW16729   1.784   2.542   3.107
 5277SOL    HW116730   1.791   2.552   3.206
 5277SOL    HW216731   1.783   2.632   3.064
 5278SOL     OW16732   4.809   0.186   4.112
 5278SOL    HW116733   4.877   0.118   4.085
 5278SOL    HW216734   4.856   0.267   4.148
 5279SOL     OW16735   1.686   5.309   6.832
 5279SOL    HW116736   1.751   5.246   6.874
 5279SOL    HW216737   1.684   5.294   6.733
 5280SOL     OW16738   3.050   6.393   5.750
 5280SOL    HW116739   3.015   6.470   5.696
 5280SOL    HW216740   3.063   6.313   5.691
 5281SOL     OW16741   0.912   1.487   3.222
 5281SOL    HW116742   0.911   1.422   3.145
 5281SOL    HW216743   0.980   1.558   3.204
 5282SOL     OW16744   1.837   1.614   3.203
 5282SOL    HW116745   1.848   1.703   3.247
 5282SOL    HW216746   1.744   1.607   3.166
 5283SOL     OW16747   3.150   0.056   2.110
 5283SOL    HW116748   3.179   0.112   2.188
 5283SOL    HW216749   3.206   6.999   2.106
 5284SOL     OW16750   5.194   2.640   3.133
 5284SOL    HW116751   5.194   2.702   3.054
 5284SOL    HW216752   5.195   2.545   3.101
 5285SOL     OW16753   1.355   4.093   4.496
 5285SOL    HW116754   1.323   4.034   4.570
 5285SOL    HW216755   1.429   4.046   4.447
 5286SOL     OW16756   0.214   3.985   1.424
 5286SOL    HW116757   0.243   3.998   1.519
 5286SOL    HW216758   0.127   3.936   1.422
 5287SOL     OW16759   1.647   5.924   1.613
 5287SOL    HW116760   1.644   5.950   1.710
 5287SOL    HW216761   1.721   5.860   1.598
 5288SOL     OW16762   4.067   0.768   2.298
 5288SOL    HW116763   4.067   0.789   2.201
 5288SOL    HW216764   4.117   0.839   2.348
 5289SOL     OW16765   1.482   5.393   6.434
 5289SOL    HW116766   1.471   5.468   6.369
 5289SOL    HW216767   1.397   5.381   6.485
 5290SOL     OW16768   1.501   4.153   5.253
 5290SOL    HW116769   1.544   4.087   5.191
 5290SOL    HW216770   1.564   4.228   5.271
 5291SOL     OW16771   3.069   4.911   5.817
 5291SOL    HW116772   2.985   4.861   5.842
 5291SOL    HW216773   3.057   5.008   5.836
 5292SOL     OW16774   6.593   5.068   0.137
 5292SOL    HW116775   6.563   5.146   0.081
 5292SOL    HW216776   6.690   5.080   0.161
 5293SOL     OW16777   1.209   0.208   4.325
 5293SOL    HW116778   1.192   0.306   4.309
 5293SOL    HW216779   1.176   0.156   4.247
 5294SOL     OW16780   6.025   2.829   4.165
 5294SOL    HW116781   5.961   2.755   4.145
 5294SOL    HW216782   6.008   2.865   4.257
 5295SOL     OW16783   4.268   0.836   2.523
 5295SOL    HW116784   4.324   0.907   2.480
 5295SOL    HW216785   4.328   0.770   2.568
 5296SOL     OW16786   2.419   4.830   0.202
 5296SOL    HW116787   2.482   4.868   0.134
 5296SOL    HW216788   2.373   4.750   0.164
 5297SOL     OW16789   2.861   2.369   0.884
 5297SOL    HW116790   2.773   2.410   0.909
 5297SOL    HW216791   2.926   2.382   0.959
 5298SOL     OW16792   1.199   5.361   0.009
 5298SOL    HW116793   1.212   5.395   6.942
 5298SOL    HW216794   1.272   5.396   0.068
 5299SOL     OW16795   2.250   2.733   0.918
 5299SOL    HW116796   2.202   2.646   0.911
 5299SOL    HW216797   2.300   2.750   0.833
 5300SOL     OW16798   0.809   6.199   0.991
 5300SOL    HW116799   0.736   6.143   1.031
 5300SOL    HW216800   0.774   6.290   0.971
 5301SOL     OW16801   3.650   2.667   6.515
 5301SOL    HW116802   3.634   2.762   6.489
 5301SOL    HW216803   3.565   2.627   6.550
 5302SOL     OW16804   5.748   5.695   3.884
 5302SOL    HW116805   5.712   5.788   3.887
 5302SOL    HW216806   5.673   5.630   3.877
 5303SOL     OW16807   6.512   5.713   3.177
 5303SOL    HW116808   6.439   5.773   3.210
 5303SOL    HW216809   6.601   5.756   3.191
 5304SOL     OW16810   5.407   1.158   6.566
 5304SOL    HW116811   5.374   1.199   6.481
 5304SOL    HW216812   5.336   1.100   6.605
 5305SOL     OW16813   0.922   5.440   2.951
 5305SOL    HW116814   0.864   5.359   2.941
 5305SOL    HW216815   0.983   5.448   2.872
 5306SOL     OW16816   0.506   4.310   4.782
 5306SOL    HW116817   0.474   4.400   4.754
 5306SOL    HW216818   0.605   4.304   4.772
 5307SOL     OW16819   4.288   0.931   0.395
 5307SOL    HW116820   4.216   0.911   0.462
 5307SOL    HW216821   4.295   0.854   0.331
 5308SOL     OW16822   0.695   5.892   3.688
 5308SOL    HW116823   0.596   5.905   3.677
 5308SOL    HW216824   0.713   5.839   3.771
 5309SOL     OW16825   4.010   4.690   1.474
 5309SOL    HW116826   4.030   4.607   1.424
 5309SOL    HW216827   3.988   4.668   1.569
 5310SOL     OW16828   6.271   3.604   2.446
 5310SOL    HW116829   6.236   3.624   2.537
 5310SOL    HW216830   6.249   3.679   2.384
 5311SOL     OW16831   6.243   5.838   0.503
 5311SOL    HW116832   6.281   5.829   0.595
 5311SOL    HW216833   6.287   5.914   0.455
 5312SOL     OW16834   0.469   5.046   2.020
 5312SOL    HW116835   0.449   4.972   1.955
 5312SOL    HW216836   0.543   5.102   1.984
 5313SOL     OW16837   1.864   4.147   6.160
 5313SOL    HW116838   1.807   4.229   6.151
 5313SOL    HW216839   1.961   4.172   6.152
 5314SOL     OW16840   3.176   6.450   6.891
 5314SOL    HW116841   3.082   6.443   6.856
 5314SOL    HW216842   3.193   6.376   6.955
 5315SOL     OW16843   4.812   3.039   1.586
 5315SOL    HW116844   4.747   3.014   1.658
 5315SOL    HW216845   4.788   2.992   1.501
 5316SOL     OW16846   0.358   4.106   4.694
 5316SOL    HW116847   0.401   4.039   4.754
 5316SOL    HW216848   0.397   4.197   4.711
 5317SOL     OW16849   6.737   6.931   5.158
 5317SOL    HW116850   6.718   6.865   5.230
 5317SOL    HW216851   6.795   6.889   5.088
 5318SOL     OW16852   6.986   2.764   6.384
 5318SOL    HW116853   6.918   2.819   6.335
 5318SOL    HW216854   0.050   2.808   6.378
 5319SOL     OW16855   3.949   6.874   6.847
 5319SOL    HW116856   3.923   6.852   6.941
 5319SOL    HW216857   3.893   6.949   6.813
 5320SOL     OW16858   6.134   5.111   0.237
 5320SOL    HW116859   6.219   5.059   0.232
 5320SOL    HW216860   6.154   5.209   0.239
 5321SOL     OW16861   0.700   3.956   3.610
 5321SOL    HW116862   0.728   4.003   3.526
 5321SOL    HW216863   0.694   3.858   3.593
 5322SOL     OW16864   4.359   6.212   6.655
 5322SOL    HW116865   4.311   6.125   6.667
 5322SOL    HW216866   4.291   6.284   6.635
 5323SOL     OW16867   3.504   2.302   7.014
 5323SOL    HW116868   3.416   2.315   0.034
 5323SOL    HW216869   3.525   2.383   6.959
 5324SOL     OW16870   4.305   1.997   0.603
 5324SOL    HW116871   4.236   2.058   0.640
 5324SOL    HW216872   4.264   1.909   0.580
 5325SOL     OW16873   4.483   0.772   4.530
 5325SOL    HW116874   4.515   0.752   4.437
 5325SOL    HW216875   4.507   0.866   4.554
 5326SOL     OW16876   0.435   5.319   4.117
 5326SOL    HW116877   0.356   5.259   4.109
 5326SOL    HW216878   0.504   5.294   4.050
 5327SOL     OW16879   5.513   3.369   4.925
 5327SOL    HW116880   5.528   3.296   4.858
 5327SOL    HW216881   5.574   3.355   5.003
 5328SOL     OW16882   4.652   2.680   5.426
 5328SOL    HW116883   4.599   2.764   5.413
 5328SOL    HW216884   4.592   2.601   5.422
 5329SOL     OW16885   6.855   4.662   6.682
 5329SOL    HW116886   6.790   4.639   6.609
 5329SOL    HW216887   6.947   4.638   6.653
 5330SOL     OW16888   3.677   4.124   5.406
 5330SOL    HW116889   3.591   4.076   5.420
 5330SOL    HW216890   3.668   4.189   5.332
 5331SOL     OW16891   5.066   1.279   0.582
 5331SOL    HW116892   5.001   1.228   0.639
 5331SOL    HW216893   5.160   1.254   0.609
 5332SOL     OW16894   0.488   4.100   1.346
 5332SOL    HW116895   0.502   4.167   1.418
 5332SOL    HW216896   0.397   4.060   1.353
 5333SOL     OW16897   0.992   1.097   3.128
 5333SOL    HW116898   1.034   1.130   3.212
 5333SOL    HW216899   1.058   1.040   3.078
 5334SOL     OW16900   3.704   6.691   4.290
 5334SOL    HW116901   3.702   6.768   4.354
 5334SOL    HW216902   3.698   6.606   4.342
 5335SOL     OW16903   6.102   5.527   2.145
 5335SOL    HW116904   6.188   5.578   2.143
 5335SOL    HW216905   6.114   5.444   2.199
 5336SOL     OW16906   2.408   2.052   3.374
 5336SOL    HW116907   2.408   1.997   3.458
 5336SOL    HW216908   2.399   1.991   3.295
 5337SOL     OW16909   5.354   4.493   2.107
 5337SOL    HW116910   5.299   4.573   2.082
 5337SOL    HW216911   5.403   4.461   2.027
 5338SOL     OW16912   6.036   0.671   5.549
 5338SOL    HW116913   6.044   0.607   5.625
 5338SOL    HW216914   6.012   0.620   5.466
 5339SOL     OW16915   6.566   2.036   3.867
 5339SOL    HW116916   6.516   2.039   3.780
 5339SOL    HW216917   6.654   2.083   3.857
 5340SOL     OW16918   5.377   2.446   0.965
 5340SOL    HW116919   5.374   2.517   1.035
 5340SOL    HW216920   5.296   2.388   0.974
 5341SOL     OW16921   3.610   4.568   6.077
 5341SOL    HW116922   3.672   4.615   6.140
 5341SOL    HW216923   3.638   4.584   5.983
 5342SOL     OW16924   4.253   6.643   3.996
 5342SOL    HW116925   4.191   6.635   3.918
 5342SOL    HW216926   4.259   6.738   4.025
 5343SOL     OW16927   3.613   3.098   4.521
 5343SOL    HW116928   3.712   3.108   4.513
 5343SOL    HW216929   3.578   3.164   4.587
 5344SOL     OW16930   2.049   1.919   1.404
 5344SOL    HW116931   2.135   1.936   1.452
 5344SOL    HW216932   1.972   1.942   1.463
 5345SOL     OW16933   3.285   6.625   0.731
 5345SOL    HW116934   3.339   6.703   0.699
 5345SOL    HW216935   3.193   6.656   0.756
 5346SOL     OW16936   3.300   5.777   3.883
 5346SOL    HW116937   3.262   5.869   3.875
 5346SOL    HW216938   3.384   5.771   3.830
 5347SOL     OW16939   7.006   2.989   1.813
 5347SOL    HW116940   6.963   3.032   1.892
 5347SOL    HW216941   6.941   2.927   1.769
 5348SOL     OW16942   6.561   1.754   0.959
 5348SOL    HW116943   6.507   1.681   0.918
 5348SOL    HW216944   6.501   1.831   0.982
 5349SOL     OW16945   2.207   2.787   0.478
 5349SOL    HW116946   2.227   2.884   0.460
 5349SOL    HW216947   2.112   2.777   0.508
 5350SOL     OW16948   1.361   6.873   5.092
 5350SOL    HW116949   1.297   6.831   5.027
 5350SOL    HW216950   1.425   6.803   5.126
 5351SOL     OW16951   6.807   4.946   2.226
 5351SOL    HW116952   6.856   4.973   2.143
 5351SOL    HW216953   6.872   4.903   2.290
 5352SOL     OW16954   1.932   5.381   3.285
 5352SOL    HW116955   1.846   5.420   3.252
 5352SOL    HW216956   1.913   5.302   3.344
 5353SOL     OW16957   3.908   5.124   3.998
 5353SOL    HW116958   3.866   5.147   3.910
 5353SOL    HW216959   3.884   5.030   4.023
 5354SOL     OW16960   2.253   5.026   1.555
 5354SOL    HW116961   2.325   4.994   1.616
 5354SOL    HW216962   2.204   5.102   1.598
 5355SOL     OW16963   6.334   4.190   4.582
 5355SOL    HW116964   6.411   4.227   4.635
 5355SOL    HW216965   6.250   4.236   4.609
 5356SOL     OW16966   6.095   4.399   2.585
 5356SOL    HW116967   6.034   4.388   2.664
 5356SOL    HW216968   6.173   4.456   2.611
 5357SOL     OW16969   3.436   6.304   0.225
 5357SOL    HW116970   3.349   6.264   0.196
 5357SOL    HW216971   3.419   6.391   0.271
 5358SOL     OW16972   4.820   1.175   6.918
 5358SOL    HW116973   4.728   1.199   6.950
 5358SOL    HW216974   4.833   1.076   6.925
 5359SOL     OW16975   1.696   0.916   5.763
 5359SOL    HW116976   1.724   0.928   5.858
 5359SOL    HW216977   1.750   0.975   5.704
 5360SOL     OW16978   3.443   6.129   3.799
 5360SOL    HW116979   3.531   6.084   3.814
 5360SOL    HW216980   3.433   6.150   3.702
 5361SOL     OW16981   3.103   1.294   4.741
 5361SOL    HW116982   3.034   1.362   4.765
 5361SOL    HW216983   3.087   1.260   4.649
 5362SOL     OW16984   6.741   6.130   2.671
 5362SOL    HW116985   6.695   6.217   2.686
 5362SOL    HW216986   6.676   6.055   2.685
 5363SOL     OW16987   6.989   0.206   5.765
 5363SOL    HW116988   6.987   0.235   5.861
 5363SOL    HW216989   6.917   0.139   5.748
 5364SOL     OW16990   7.007   6.803   2.278
 5364SOL    HW116991   6.967   6.893   2.264
 5364SOL    HW216992   6.935   6.738   2.303
 5365SOL     OW16993   3.912   2.753   0.700
 5365SOL    HW116994   3.974   2.824   0.666
 5365SOL    HW216995   3.835   2.796   0.748
 5366SOL     OW16996   5.926   6.118   1.389
 5366SOL    HW116997   5.968   6.101   1.479
 5366SOL    HW216998   5.998   6.137   1.322
 5367SOL     OW16999   0.574   6.791   0.684
 5367SOL    HW117000   0.646   6.828   0.743
 5367SOL    HW217001   0.612   6.723   0.622
 5368SOL     OW17002   5.645   0.143   2.734
 5368SOL    HW117003   5.607   0.052   2.753
 5368SOL    HW217004   5.743   0.142   2.748
 5369SOL     OW17005   2.693   6.642   0.821
 5369SOL    HW117006   2.668   6.683   0.909
 5369SOL    HW217007   2.643   6.689   0.748
 5370SOL     OW17008   4.728   2.243   1.587
 5370SOL    HW117009   4.737   2.204   1.679
 5370SOL    HW217010   4.684   2.176   1.527
 5371SOL     OW17011   0.252   3.822   4.890
 5371SOL    HW117012   0.277   3.757   4.962
 5371SOL    HW217013   0.251   3.914   4.928
 5372SOL     OW17014   1.869   6.153   3.429
 5372SOL    HW117015   1.936   6.081   3.451
 5372SOL    HW217016   1.863   6.163   3.329
 5373SOL     OW17017   3.334   6.604   4.558
 5373SOL    HW117018   3.310   6.514   4.520
 5373SOL    HW217019   3.278   6.621   4.639
 5374SOL     OW17020   2.013   4.470   0.789
 5374SOL    HW117021   1.969   4.387   0.754
 5374SOL    HW217022   1.965   4.500   0.872
 5375SOL     OW17023   0.620   5.443   4.379
 5375SOL    HW117024   0.609   5.500   4.297
 5375SOL    HW217025   0.547   5.465   4.444
 5376SOL     OW17026   1.789   2.632   1.116
 5376SOL    HW117027   1.839   2.608   1.199
 5376SOL    HW217028   1.808   2.727   1.092
 5377SOL     OW17029   0.220   6.725   2.132
 5377SOL    HW117030   0.216   6.792   2.057
 5377SOL    HW217031   0.156   6.752   2.204
 5378SOL     OW17032   0.076   0.530   2.561
 5378SOL    HW117033   7.025   0.473   2.589
 5378SOL    HW217034   0.049   0.627   2.566
 5379SOL     OW17035   0.883   4.897   4.913
 5379SOL    HW117036   0.920   4.885   4.821
 5379SOL    HW217037   0.868   4.807   4.954
 5380SOL     OW17038   2.681   0.985   2.937
 5380SOL    HW117039   2.770   0.957   2.901
 5380SOL    HW217040   2.616   0.994   2.861
 5381SOL     OW17041   6.568   4.810   2.186
 5381SOL    HW117042   6.483   4.857   2.162
 5381SOL    HW217043   6.635   4.877   2.218
 5382SOL     OW17044   2.854   1.216   2.063
 5382SOL    HW117045   2.826   1.295   2.009
 5382SOL    HW217046   2.952   1.199   2.050
 5383SOL     OW17047   2.120   2.059   5.094
 5383SOL    HW117048   2.186   2.055   5.169
 5383SOL    HW217049   2.167   2.080   5.009
 5384SOL     OW17050   5.794   6.898   5.644
 5384SOL    HW117051   5.784   6.938   5.553
 5384SOL    HW217052   5.711   6.916   5.697
 5385SOL     OW17053   3.619   3.441   3.986
 5385SOL    HW117054   3.680   3.514   4.013
 5385SOL    HW217055   3.626   3.365   4.051
 5386SOL     OW17056   5.080   1.181   4.155
 5386SOL    HW117057   5.050   1.208   4.247
 5386SOL    HW217058   5.124   1.258   4.110
 5387SOL     OW17059   2.015   0.042   3.333
 5387SOL    HW117060   2.099   7.023   3.304
 5387SOL    HW217061   2.026   0.076   3.427
 5388SOL     OW17062   0.310   1.693   3.712
 5388SOL    HW117063   0.269   1.775   3.671
 5388SOL    HW217064   0.258   1.667   3.793
 5389SOL     OW17065   3.704   1.666   3.402
 5389SOL    HW117066   3.626   1.608   3.423
 5389SOL    HW217067   3.692   1.707   3.311
 5390SOL     OW17068   4.736   4.173   3.123
 5390SOL    HW117069   4.680   4.140   3.200
 5390SOL    HW217070   4.832   4.157   3.142
 5391SOL     OW17071   2.478   1.443   1.081
 5391SOL    HW117072   2.508   1.485   0.996
 5391SOL    HW217073   2.420   1.363   1.060
 5392SOL     OW17074   5.359   3.646   1.146
 5392SOL    HW117075   5.273   3.678   1.106
 5392SOL    HW217076   5.424   3.626   1.073
 5393SOL     OW17077   4.865   0.053   5.513
 5393SOL    HW117078   4.910   0.060   5.603
 5393SOL    HW217079   4.906   7.004   5.462
 5394SOL     OW17080   0.319   5.305   1.136
 5394SOL    HW117081   0.244   5.265   1.188
 5394SOL    HW217082   0.283   5.361   1.062
 5395SOL     OW17083   4.615   0.919   1.185
 5395SOL    HW117084   4.713   0.934   1.197
 5395SOL    HW217085   4.567   1.005   1.204
 5396SOL     OW17086   5.194   4.264   1.620
 5396SOL    HW117087   5.105   4.269   1.665
 5396SOL    HW217088   5.220   4.354   1.587
 5397SOL     OW17089   0.909   2.930   1.399
 5397SOL    HW117090   0.844   2.858   1.425
 5397SOL    HW217091   0.968   2.950   1.477
 5398SOL     OW17092   3.063   2.207   3.777
 5398SOL    HW117093   3.090   2.164   3.691
 5398SOL    HW217094   2.991   2.274   3.760
 5399SOL     OW17095   2.624   6.373   0.878
 5399SOL    HW117096   2.657   6.467   0.876
 5399SOL    HW217097   2.633   6.337   0.971
 5400SOL     OW17098   3.397   3.669   6.926
 5400SOL    HW117099   3.354   3.580   6.941
 5400SOL    HW217100   3.327   3.736   6.900
 5401SOL     OW17101   5.870   4.081   2.085
 5401SOL    HW117102   5.914   4.070   1.996
 5401SOL    HW217103   5.791   4.142   2.076
 5402SOL     OW17104   2.280   5.997   1.660
 5402SOL    HW117105   2.247   5.903   1.651
 5402SOL    HW217106   2.296   6.017   1.756
 5403SOL     OW17107   5.904   2.804   5.359
 5403SOL    HW117108   5.853   2.837   5.280
 5403SOL    HW217109   5.858   2.724   5.398
 5404SOL     OW17110   0.757   0.031   2.968
 5404SOL    HW117111   0.692   0.048   3.042
 5404SOL    HW217112   0.845   0.005   3.007
 5405SOL     OW17113   5.781   6.071   0.141
 5405SOL    HW117114   5.741   6.128   0.069
 5405SOL    HW217115   5.781   6.122   0.228
 5406SOL     OW17116   2.092   0.166   5.560
 5406SOL    HW117117   2.019   0.162   5.492
 5406SOL    HW217118   2.140   0.078   5.562
 5407SOL     OW17119   3.773   1.745   2.034
 5407SOL    HW117120   3.802   1.732   1.939
 5407SOL    HW217121   3.718   1.667   2.063
 5408SOL     OW17122   3.092   0.710   5.481
 5408SOL    HW117123   3.163   0.756   5.534
 5408SOL    HW217124   3.015   0.773   5.469
 5409SOL     OW17125   6.837   1.973   3.096
 5409SOL    HW117126   6.911   1.907   3.087
 5409SOL    HW217127   6.867   2.050   3.152
 5410SOL     OW17128   1.351   2.613   6.813
 5410SOL    HW117129   1.270   2.575   6.769
 5410SOL    HW217130   1.363   2.708   6.784
 5411SOL     OW17131   6.183   4.728   5.426
 5411SOL    HW117132   6.236   4.808   5.456
 5411SOL    HW217133   6.203   4.707   5.331
 5412SOL     OW17134   3.956   1.180   6.780
 5412SOL    HW117135   3.926   1.084   6.782
 5412SOL    HW217136   3.884   1.236   6.740
 5413SOL     OW17137   0.604   0.112   1.082
 5413SOL    HW117138   0.571   0.027   1.041
 5413SOL    HW217139   0.677   0.150   1.025
 5414SOL     OW17140   6.399   3.279   5.309
 5414SOL    HW117141   6.487   3.318   5.281
 5414SOL    HW217142   6.328   3.349   5.303
 5415SOL     OW17143   0.821   5.975   1.581
 5415SOL    HW117144   0.789   5.934   1.667
 5415SOL    HW217145   0.895   6.039   1.601
 5416SOL     OW17146   3.457   5.014   6.231
 5416SOL    HW117147   3.427   5.005   6.135
 5416SOL    HW217148   3.549   5.052   6.233
 5417SOL     OW17149   4.225   6.673   4.378
 5417SOL    HW117150   4.301   6.647   4.438
 5417SOL    HW217151   4.197   6.595   4.323
 5418SOL     OW17152   5.223   0.869   4.400
 5418SOL    HW117153   5.302   0.918   4.364
 5418SOL    HW217154   5.154   0.934   4.431
 5419SOL     OW17155   3.645   5.274   0.129
 5419SOL    HW117156   3.610   5.190   0.170
 5419SOL    HW217157   3.595   5.295   0.046
 5420SOL     OW17158   1.848   3.032   1.631
 5420SOL    HW117159   1.819   3.088   1.554
 5420SOL    HW217160   1.940   2.997   1.614
 5421SOL     OW17161   2.578   4.741   3.131
 5421SOL    HW117162   2.624   4.722   3.218
 5421SOL    HW217163   2.491   4.787   3.149
 5422SOL     OW17164   1.122   5.862   5.206
 5422SOL    HW117165   1.042   5.859   5.266
 5422SOL    HW217166   1.187   5.791   5.235
 5423SOL     OW17167   6.131   3.581   6.764
 5423SOL    HW117168   6.083   3.628   6.839
 5423SOL    HW217169   6.173   3.498   6.799
 5424SOL     OW17170   6.193   3.557   4.258
 5424SOL    HW117171   6.169   3.551   4.162
 5424SOL    HW217172   6.152   3.480   4.308
 5425SOL     OW17173   5.274   1.957   4.277
 5425SOL    HW117174   5.188   1.907   4.292
 5425SOL    HW217175   5.293   2.015   4.356
 5426SOL     OW17176   5.854   4.949   3.680
 5426SOL    HW117177   5.946   4.986   3.679
 5426SOL    HW217178   5.824   4.930   3.587
 5427SOL     OW17179   5.343   4.738   0.445
 5427SOL    HW117180   5.261   4.710   0.394
 5427SOL    HW217181   5.358   4.836   0.432
 5428SOL     OW17182   6.309   6.873   2.053
 5428SOL    HW117183   6.327   6.820   2.136
 5428SOL    HW217184   6.395   6.891   2.007
 5429SOL     OW17185   1.337   0.838   4.916
 5429SOL    HW117186   1.263   0.782   4.952
 5429SOL    HW217187   1.374   0.896   4.989
 5430SOL     OW17188   2.430   2.303   6.240
 5430SOL    HW117189   2.421   2.355   6.325
 5430SOL    HW217190   2.346   2.251   6.223
 5431SOL     OW17191   3.031   4.516   6.354
 5431SOL    HW117192   3.073   4.543   6.441
 5431SOL    HW217193   3.089   4.547   6.278
 5432SOL     OW17194   3.591   5.734   5.842
 5432SOL    HW117195   3.657   5.729   5.766
 5432SOL    HW217196   3.611   5.813   5.899
 5433SOL     OW17197   0.311   1.208   2.588
 5433SOL    HW117198   0.358   1.132   2.543
 5433SOL    HW217199   0.308   1.192   2.687
 5434SOL     OW17200   4.394   1.545   4.847
 5434SOL    HW117201   4.444   1.629   4.868
 5434SOL    HW217202   4.296   1.565   4.841
 5435SOL     OW17203   6.290   2.167   1.299
 5435SOL    HW117204   6.269   2.186   1.203
 5435SOL    HW217205   6.388   2.152   1.309
 5436SOL     OW17206   5.609   4.308   4.451
 5436SOL    HW117207   5.570   4.298   4.359
 5436SOL    HW217208   5.641   4.219   4.483
 5437SOL     OW17209   2.801   5.092   5.826
 5437SOL    HW117210   2.766   5.129   5.912
 5437SOL    HW217211   2.792   4.992   5.827
 5438SOL     OW17212   6.255   3.986   2.462
 5438SOL    HW117213   6.192   3.963   2.535
 5438SOL    HW217214   6.205   4.024   2.384
 5439SOL     OW17215   6.983   2.398   0.254
 5439SOL    HW117216   6.897   2.409   0.304
 5439SOL    HW217217   6.964   2.360   0.163
 5440SOL     OW17218   6.804   0.258   3.224
 5440SOL    HW117219   6.722   0.244   3.168
 5440SOL    HW217220   6.851   0.341   3.193
 5441SOL     OW17221   4.645   2.544   3.680
 5441SOL    HW117222   4.696   2.526   3.764
 5441SOL    HW217223   4.696   2.609   3.623
 5442SOL     OW17224   3.341   6.709   3.531
 5442SOL    HW117225   3.278   6.652   3.583
 5442SOL    HW217226   3.351   6.797   3.577
 5443SOL     OW17227   3.193   5.733   4.163
 5443SOL    HW117228   3.221   5.762   4.071
 5443SOL    HW217229   3.261   5.670   4.200
 5444SOL     OW17230   6.953   0.828   3.132
 5444SOL    HW117231   6.868   0.778   3.117
 5444SOL    HW217232   6.933   0.916   3.176
 5445SOL     OW17233   6.637   4.106   4.024
 5445SOL    HW117234   6.621   4.186   4.083
 5445SOL    HW217235   6.549   4.065   4.001
 5446SOL     OW17236   5.949   5.095   4.888
 5446SOL    HW117237   5.927   5.052   4.976
 5446SOL    HW217238   5.873   5.154   4.860
 5447SOL     OW17239   1.300   1.856   0.860
 5447SOL    HW117240   1.216   1.818   0.900
 5447SOL    HW217241   1.317   1.814   0.771
 5448SOL     OW17242   5.745   4.046   4.343
 5448SOL    HW117243   5.709   3.953   4.348
 5448SOL    HW217244   5.735   4.080   4.249
 5449SOL     OW17245   1.590   1.337   0.707
 5449SOL    HW117246   1.511   1.397   0.693
 5449SOL    HW217247   1.674   1.391   0.712
 5450SOL     OW17248   3.262   0.119   0.773
 5450SOL    HW117249   3.230   0.162   0.858
 5450SOL    HW217250   3.358   0.142   0.759
 5451SOL     OW17251   2.113   5.955   3.923
 5451SOL    HW117252   2.036   5.918   3.871
 5451SOL    HW217253   2.164   6.019   3.866
 5452SOL     OW17254   3.044   4.145   7.009
 5452SOL    HW117255   3.025   4.086   6.931
 5452SOL    HW217256   3.095   4.225   6.979
 5453SOL     OW17257   5.453   4.169   1.644
 5453SOL    HW117258   5.480   4.149   1.550
 5453SOL    HW217259   5.354   4.180   1.649
 5454SOL     OW17260   5.479   5.192   5.845
 5454SOL    HW117261   5.569   5.180   5.802
 5454SOL    HW217262   5.409   5.146   5.791
 5455SOL     OW17263   0.036   2.178   3.015
 5455SOL    HW117264   0.050   2.243   3.090
 5455SOL    HW217265   0.094   2.098   3.029
 5456SOL     OW17266   2.760   0.139   0.555
 5456SOL    HW117267   2.767   0.206   0.480
 5456SOL    HW217268   2.751   0.047   0.517
 5457SOL     OW17269   0.126   2.321   1.671
 5457SOL    HW117270   0.122   2.224   1.696
 5457SOL    HW217271   0.050   2.370   1.716
 5458SOL     OW17272   0.520   4.663   0.348
 5458SOL    HW117273   0.467   4.675   0.432
 5458SOL    HW217274   0.556   4.752   0.318
 5459SOL     OW17275   3.340   3.720   6.662
 5459SOL    HW117276   3.408   3.703   6.591
 5459SOL    HW217277   3.369   3.676   6.747
 5460SOL     OW17278   3.876   6.339   3.052
 5460SOL    HW117279   3.832   6.428   3.038
 5460SOL    HW217280   3.969   6.341   3.013
 5461SOL     OW17281   0.453   0.900   5.689
 5461SOL    HW117282   0.383   0.837   5.723
 5461SOL    HW217283   0.411   0.973   5.636
 5462SOL     OW17284   6.037   6.891   1.309
 5462SOL    HW117285   5.988   6.818   1.356
 5462SOL    HW217286   5.973   6.947   1.257
 5463SOL     OW17287   0.376   1.409   6.897
 5463SOL    HW117288   0.347   1.477   6.830
 5463SOL    HW217289   0.468   1.431   6.929
 5464SOL     OW17290   6.815   0.309   4.560
 5464SOL    HW117291   6.743   0.254   4.517
 5464SOL    HW217292   6.774   0.388   4.605
 5465SOL     OW17293   4.873   0.670   4.655
 5465SOL    HW117294   4.948   0.611   4.686
 5465SOL    HW217295   4.849   0.647   4.561
 5466SOL     OW17296   5.237   3.100   4.874
 5466SOL    HW117297   5.268   3.047   4.952
 5466SOL    HW217298   5.137   3.099   4.870
 5467SOL     OW17299   5.103   4.314   3.274
 5467SOL    HW117300   5.158   4.298   3.191
 5467SOL    HW217301   5.037   4.239   3.285
 5468SOL     OW17302   6.859   2.643   3.812
 5468SOL    HW117303   6.835   2.713   3.745
 5468SOL    HW217304   6.779   2.620   3.867
 5469SOL     OW17305   2.725   6.754   5.631
 5469SOL    HW117306   2.772   6.670   5.605
 5469SOL    HW217307   2.737   6.770   5.729
 5470SOL     OW17308   3.817   5.504   3.126
 5470SOL    HW117309   3.806   5.454   3.211
 5470SOL    HW217310   3.779   5.450   3.050
 5471SOL     OW17311   6.030   0.164   3.119
 5471SOL    HW117312   6.092   0.142   3.195
 5471SOL    HW217313   5.957   0.096   3.115
 5472SOL     OW17314   2.593   3.700   6.813
 5472SOL    HW117315   2.546   3.772   6.865
 5472SOL    HW217316   2.526   3.638   6.773
 5473SOL     OW17317   1.369   3.193   2.008
 5473SOL    HW117318   1.346   3.235   2.096
 5473SOL    HW217319   1.452   3.235   1.972
 5474SOL     OW17320   1.045   4.170   3.964
 5474SOL    HW117321   1.058   4.167   3.865
 5474SOL    HW217322   1.072   4.260   3.999
 5475SOL     OW17323   2.033   2.564   0.918
 5475SOL    HW117324   2.075   2.486   0.965
 5475SOL    HW217325   1.941   2.579   0.954
 5476SOL     OW17326   2.194   4.097   5.299
 5476SOL    HW117327   2.248   4.096   5.215
 5476SOL    HW217328   2.252   4.068   5.376
 5477SOL     OW17329   2.255   4.791   2.332
 5477SOL    HW117330   2.245   4.877   2.382
 5477SOL    HW217331   2.181   4.782   2.264
 5478SOL     OW17332   2.930   6.065   4.163
 5478SOL    HW117333   2.917   5.972   4.130
 5478SOL    HW217334   2.988   6.115   4.098
 5479SOL     OW17335   5.690   0.938   6.422
 5479SOL    HW117336   5.633   0.907   6.346
 5479SOL    HW217337   5.663   0.888   6.505
 5480SOL     OW17338   5.851   5.491   4.056
 5480SOL    HW117339   5.791   5.545   3.997
 5480SOL    HW217340   5.921   5.551   4.096
 5481SOL     OW17341   4.692   1.702   4.563
 5481SOL    HW117342   4.592   1.709   4.558
 5481SOL    HW217343   4.726   1.648   4.486
 5482SOL     OW17344   3.705   4.381   1.679
 5482SOL    HW117345   3.636   4.442   1.717
 5482SOL    HW217346   3.663   4.322   1.611
 5483SOL     OW17347   0.059   2.081   5.473
 5483SOL    HW117348   7.022   2.096   5.397
 5483SOL    HW217349   0.150   2.115   5.449
 5484SOL     OW17350   4.035   1.230   3.486
 5484SOL    HW117351   3.938   1.211   3.472
 5484SOL    HW217352   4.052   1.328   3.476
 5485SOL     OW17353   3.951   7.002   4.329
 5485SOL    HW117354   3.879   6.933   4.340
 5485SOL    HW217355   4.023   6.985   4.396
 5486SOL     OW17356   2.080   6.441   4.860
 5486SOL    HW117357   2.130   6.375   4.916
 5486SOL    HW217358   2.143   6.511   4.826
 5487SOL     OW17359   5.660   2.984   6.909
 5487SOL    HW117360   5.713   2.966   6.992
 5487SOL    HW217361   5.719   3.027   6.841
 5488SOL     OW17362   6.026   0.180   1.527
 5488SOL    HW117363   5.934   0.153   1.498
 5488SOL    HW217364   6.033   0.280   1.528
 5489SOL     OW17365   0.440   4.211   2.216
 5489SOL    HW117366   0.375   4.153   2.264
 5489SOL    HW217367   0.530   4.169   2.218
 5490SOL     OW17368   3.235   0.132   1.350
 5490SOL    HW117369   3.202   0.040   1.332
 5490SOL    HW217370   3.248   0.144   1.449
 5491SOL     OW17371   1.220   4.327   0.826
 5491SOL    HW117372   1.136   4.378   0.841
 5491SOL    HW217373   1.228   4.254   0.894
 5492SOL     OW17374   0.216   3.424   5.820
 5492SOL    HW117375   0.151   3.349   5.831
 5492SOL    HW217376   0.170   3.511   5.840
 5493SOL     OW17377   2.913   3.684   4.310
 5493SOL    HW117378   2.923   3.604   4.370
 5493SOL    HW217379   2.965   3.670   4.226
 5494SOL     OW17380   0.202   3.116   5.946
 5494SOL    HW117381   0.290   3.106   5.900
 5494SOL    HW217382   0.207   3.187   6.015
 5495SOL     OW17383   4.065   1.339   1.371
 5495SOL    HW117384   4.063   1.355   1.272
 5495SOL    HW217385   4.051   1.242   1.389
 5496SOL     OW17386   3.694   1.080   3.557
 5496SOL    HW117387   3.748   1.139   3.616
 5496SOL    HW217388   3.648   1.010   3.612
 5497SOL     OW17389   7.002   1.324   4.788
 5497SOL    HW117390   6.981   1.374   4.872
 5497SOL    HW217391   0.032   1.381   4.728
 5498SOL     OW17392   6.640   6.101   1.096
 5498SOL    HW117393   6.543   6.128   1.102
 5498SOL    HW217394   6.668   6.098   1.000
 5499SOL     OW17395   0.311   0.787   4.997
 5499SOL    HW117396   0.319   0.796   5.096
 5499SOL    HW217397   0.280   0.695   4.974
 5500SOL     OW17398   1.043   0.623   0.684
 5500SOL    HW117399   1.103   0.661   0.613
 5500SOL    HW217400   0.987   0.696   0.723
 5501SOL     OW17401   3.298   1.588   0.289
 5501SOL    HW117402   3.356   1.528   0.234
 5501SOL    HW217403   3.311   1.569   0.386
 5502SOL     OW17404   5.336   3.858   6.913
 5502SOL    HW117405   5.386   3.944   6.903
 5502SOL    HW217406   5.241   3.871   6.883
 5503SOL     OW17407   0.025   4.748   2.043
 5503SOL    HW117408   6.989   4.779   1.971
 5503SOL    HW217409   0.119   4.771   2.018
 5504SOL     OW17410   4.799   1.426   5.681
 5504SOL    HW117411   4.739   1.363   5.730
 5504SOL    HW217412   4.835   1.495   5.745
 5505SOL     OW17413   2.235   5.323   4.518
 5505SOL    HW117414   2.297   5.267   4.462
 5505SOL    HW217415   2.142   5.286   4.510
 5506SOL     OW17416   0.866   3.658   0.280
 5506SOL    HW117417   0.930   3.581   0.278
 5506SOL    HW217418   0.885   3.719   0.203
 5507SOL     OW17419   3.895   1.272   4.693
 5507SOL    HW117420   3.897   1.173   4.709
 5507SOL    HW217421   3.822   1.313   4.746
 5508SOL     OW17422   1.251   1.454   0.636
 5508SOL    HW117423   1.257   1.360   0.668
 5508SOL    HW217424   1.239   1.515   0.715
 5509SOL     OW17425   0.206   6.156   6.760
 5509SOL    HW117426   0.165   6.200   6.839
 5509SOL    HW217427   0.259   6.077   6.789
 5510SOL     OW17428   4.951   5.487   0.538
 5510SOL    HW117429   4.985   5.444   0.621
 5510SOL    HW217430   5.024   5.491   0.470
 5511SOL     OW17431   1.576   1.151   3.193
 5511SOL    HW117432   1.581   1.061   3.236
 5511SOL    HW217433   1.654   1.206   3.221
 5512SOL     OW17434   5.018   2.351   0.851
 5512SOL    HW117435   4.919   2.336   0.853
 5512SOL    HW217436   5.063   2.282   0.907
 5513SOL     OW17437   3.886   4.429   5.939
 5513SOL    HW117438   3.835   4.358   5.890
 5513SOL    HW217439   3.982   4.424   5.915
 5514SOL     OW17440   3.695   6.929   4.435
 5514SOL    HW117441   3.671   7.022   4.463
 5514SOL    HW217442   3.622   6.866   4.462
 5515SOL     OW17443   0.957   5.986   2.224
 5515SOL    HW117444   0.896   5.981   2.145
 5515SOL    HW217445   0.916   5.937   2.301
 5516SOL     OW17446   1.639   3.987   6.143
 5516SOL    HW117447   1.590   3.992   6.230
 5516SOL    HW217448   1.722   4.042   6.148
 5517SOL     OW17449   2.132   3.284   1.828
 5517SOL    HW117450   2.183   3.259   1.746
 5517SOL    HW217451   2.180   3.358   1.876
 5518SOL     OW17452   5.773   6.257   6.464
 5518SOL    HW117453   5.754   6.258   6.366
 5518SOL    HW217454   5.715   6.324   6.510
 5519SOL     OW17455   5.599   3.800   3.211
 5519SOL    HW117456   5.506   3.778   3.184
 5519SOL    HW217457   5.600   3.831   3.306
 5520SOL     OW17458   6.605   6.926   2.435
 5520SOL    HW117459   6.661   6.863   2.489
 5520SOL    HW217460   6.629   6.917   2.338
 5521SOL     OW17461   5.497   6.457   1.961
 5521SOL    HW117462   5.415   6.400   1.957
 5521SOL    HW217463   5.498   6.507   2.047
 5522SOL     OW17464   6.009   5.295   1.095
 5522SOL    HW117465   6.067   5.243   1.157
 5522SOL    HW217466   6.030   5.269   1.000
 5523SOL     OW17467   3.705   1.126   1.805
 5523SOL    HW117468   3.620   1.108   1.756
 5523SOL    HW217469   3.780   1.077   1.761
 5524SOL     OW17470   4.955   0.590   4.393
 5524SOL    HW117471   5.052   0.585   4.416
 5524SOL    HW217472   4.936   0.680   4.352
 5525SOL     OW17473   0.423   2.446   1.034
 5525SOL    HW117474   0.469   2.365   0.998
 5525SOL    HW217475   0.370   2.421   1.115
 5526SOL     OW17476   4.808   5.868   3.617
 5526SOL    HW117477   4.722   5.823   3.593
 5526SOL    HW217478   4.803   5.965   3.592
 5527SOL     OW17479   5.131   3.360   4.075
 5527SOL    HW117480   5.154   3.264   4.088
 5527SOL    HW217481   5.215   3.414   4.067
 5528SOL     OW17482   1.114   0.778   0.047
 5528SOL    HW117483   1.169   0.713   0.099
 5528SOL    HW217484   1.022   0.742   0.035
 5529SOL     OW17485   3.488   6.868   3.870
 5529SOL    HW117486   3.440   6.781   3.864
 5529SOL    HW217487   3.568   6.858   3.930
 5530SOL     OW17488   5.642   2.354   1.038
 5530SOL    HW117489   5.548   2.354   1.005
 5530SOL    HW217490   5.705   2.353   0.960
 5531SOL     OW17491   3.751   3.618   1.889
 5531SOL    HW117492   3.839   3.602   1.933
 5531SOL    HW217493   3.677   3.589   1.950
 5532SOL     OW17494   1.173   3.689   1.155
 5532SOL    HW117495   1.187   3.595   1.123
 5532SOL    HW217496   1.213   3.700   1.246
 5533SOL     OW17497   3.559   2.029   2.769
 5533SOL    HW117498   3.537   1.933   2.785
 5533SOL    HW217499   3.557   2.049   2.671
 5534SOL     OW17500   0.746   1.587   6.751
 5534SOL    HW117501   0.691   1.532   6.688
 5534SOL    HW217502   0.843   1.577   6.730
 5535SOL     OW17503   0.415   2.906   3.049
 5535SOL    HW117504   0.482   2.845   3.091
 5535SOL    HW217505   0.422   2.899   2.950
 5536SOL     OW17506   3.466   1.027   4.076
 5536SOL    HW117507   3.405   1.019   3.997
 5536SOL    HW217508   3.443   1.110   4.127
 5537SOL     OW17509   2.733   1.052   2.575
 5537SOL    HW117510   2.668   1.124   2.600
 5537SOL    HW217511   2.692   0.963   2.591
 5538SOL     OW17512   2.661   5.954   5.431
 5538SOL    HW117513   2.676   6.049   5.403
 5538SOL    HW217514   2.724   5.894   5.382
 5539SOL     OW17515   1.287   3.638   1.407
 5539SOL    HW117516   1.345   3.675   1.479
 5539SOL    HW217517   1.257   3.546   1.432
 5540SOL     OW17518   4.669   4.466   3.684
 5540SOL    HW117519   4.749   4.408   3.699
 5540SOL    HW217520   4.634   4.452   3.592
 5541SOL     OW17521   4.975   6.819   6.407
 5541SOL    HW117522   4.948   6.738   6.355
 5541SOL    HW217523   4.931   6.900   6.369
 5542SOL     OW17524   4.597   3.552   6.362
 5542SOL    HW117525   4.617   3.474   6.421
 5542SOL    HW217526   4.628   3.636   6.406
 5543SOL     OW17527   3.385   4.924   5.990
 5543SOL    HW117528   3.457   4.941   5.923
 5543SOL    HW217529   3.347   4.832   5.976
 5544SOL     OW17530   4.537   5.659   6.715
 5544SOL    HW117531   4.461   5.621   6.767
 5544SOL    HW217532   4.536   5.759   6.722
 5545SOL     OW17533   4.653   1.301   2.286
 5545SOL    HW117534   4.675   1.205   2.299
 5545SOL    HW217535   4.635   1.344   2.375
 5546SOL     OW17536   0.429   4.699   4.254
 5546SOL    HW117537   0.425   4.788   4.209
 5546SOL    HW217538   0.485   4.637   4.199
 5547SOL     OW17539   2.621   6.512   5.205
 5547SOL    HW117540   2.700   6.550   5.253
 5547SOL    HW217541   2.555   6.477   5.273
 5548SOL     OW17542   6.607   1.634   5.216
 5548SOL    HW117543   6.605   1.734   5.208
 5548SOL    HW217544   6.523   1.596   5.177
 5549SOL     OW17545   4.985   4.470   6.467
 5549SOL    HW117546   5.012   4.518   6.550
 5549SOL    HW217547   4.910   4.520   6.422
 5550SOL     OW17548   2.658   5.852   2.178
 5550SOL    HW117549   2.647   5.924   2.246
 5550SOL    HW217550   2.720   5.884   2.106
 5551SOL     OW17551   2.203   0.483   2.847
 5551SOL    HW117552   2.299   0.463   2.827
 5551SOL    HW217553   2.175   0.565   2.796
 5552SOL     OW17554   6.823   0.540   6.771
 5552SOL    HW117555   6.771   0.530   6.686
 5552SOL    HW217556   6.918   0.513   6.755
 5553SOL     OW17557   3.976   6.318   0.104
 5553SOL    HW117558   4.028   6.356   0.027
 5553SOL    HW217559   3.902   6.380   0.128
 5554SOL     OW17560   3.167   1.631   5.334
 5554SOL    HW117561   3.225   1.563   5.378
 5554SOL    HW217562   3.210   1.661   5.249
 5555SOL     OW17563   0.167   4.659   4.306
 5555SOL    HW117564   0.266   4.671   4.295
 5555SOL    HW217565   0.129   4.740   4.352
 5556SOL     OW17566   0.518   2.687   4.325
 5556SOL    HW117567   0.511   2.780   4.360
 5556SOL    HW217568   0.546   2.625   4.398
 5557SOL     OW17569   3.914   5.516   2.826
 5557SOL    HW117570   3.969   5.509   2.743
 5557SOL    HW217571   3.884   5.425   2.854
 5558SOL     OW17572   5.243   3.739   6.540
 5558SOL    HW117573   5.152   3.700   6.558
 5558SOL    HW217574   5.295   3.675   6.483
 5559SOL     OW17575   2.446   6.820   2.310
 5559SOL    HW117576   2.506   6.880   2.256
 5559SOL    HW217577   2.471   6.826   2.406
 5560SOL     OW17578   0.490   6.970   3.518
 5560SOL    HW117579   0.415   7.017   3.470
 5560SOL    HW217580   0.522   0.002   3.593
 5561SOL     OW17581   2.397   1.863   3.999
 5561SOL    HW117582   2.330   1.811   3.946
 5561SOL    HW217583   2.431   1.808   4.074
 5562SOL     OW17584   2.464   2.736   7.008
 5562SOL    HW117585   2.512   2.659   0.024
 5562SOL    HW217586   2.375   2.748   0.025
 5563SOL     OW17587   4.959   6.473   2.477
 5563SOL    HW117588   4.915   6.557   2.446
 5563SOL    HW217589   5.057   6.476   2.453
 5564SOL     OW17590   4.574   1.965   1.586
 5564SOL    HW117591   4.670   1.937   1.584
 5564SOL    HW217592   4.561   2.031   1.659
 5565SOL     OW17593   4.639   1.202   6.316
 5565SOL    HW117594   4.714   1.260   6.346
 5565SOL    HW217595   4.675   1.117   6.278
 5566SOL     OW17596   1.827   5.544   0.997
 5566SOL    HW117597   1.847   5.525   0.901
 5566SOL    HW217598   1.733   5.515   1.018
 5567SOL     OW17599   1.018   4.529   1.699
 5567SOL    HW117600   1.086   4.466   1.736
 5567SOL    HW217601   1.011   4.610   1.758
 5568SOL     OW17602   5.106   2.425   2.509
 5568SOL    HW117603   5.030   2.431   2.573
 5568SOL    HW217604   5.076   2.450   2.418
 5569SOL     OW17605   3.538   1.936   1.672
 5569SOL    HW117606   3.455   1.978   1.636
 5569SOL    HW217607   3.613   2.002   1.669
 5570SOL     OW17608   5.823   4.461   4.608
 5570SOL    HW117609   5.738   4.435   4.562
 5570SOL    HW217610   5.870   4.379   4.641
 5571SOL     OW17611   0.416   6.846   6.860
 5571SOL    HW117612   0.470   6.894   6.791
 5571SOL    HW217613   0.468   6.768   6.896
 5572SOL     OW17614   2.076   2.896   6.501
 5572SOL    HW117615   2.113   2.984   6.531
 5572SOL    HW217616   2.098   2.882   6.405
 5573SOL     OW17617   1.500   3.111   0.066
 5573SOL    HW117618   1.431   3.133   0.135
 5573SOL    HW217619   1.513   3.012   0.062
 5574SOL     OW17620   0.182   1.147   3.802
 5574SOL    HW117621   0.095   1.099   3.806
 5574SOL    HW217622   0.197   1.198   3.886
 5575SOL     OW17623   1.317   1.019   1.907
 5575SOL    HW117624   1.290   0.923   1.914
 5575SOL    HW217625   1.417   1.025   1.910
 5576SOL     OW17626   6.562   5.997   1.655
 5576SOL    HW117627   6.500   6.069   1.626
 5576SOL    HW217628   6.657   6.029   1.648
 5577SOL     OW17629   2.780   2.840   6.272
 5577SOL    HW117630   2.714   2.765   6.276
 5577SOL    HW217631   2.866   2.807   6.233
 5578SOL     OW17632   4.291   3.083   0.805
 5578SOL    HW117633   4.296   3.167   0.859
 5578SOL    HW217634   4.374   3.075   0.749
 5579SOL     OW17635   6.406   3.676   6.048
 5579SOL    HW117636   6.412   3.762   6.098
 5579SOL    HW217637   6.316   3.635   6.064
 5580SOL     OW17638   4.625   1.696   6.900
 5580SOL    HW117639   4.705   1.755   6.886
 5580SOL    HW217640   4.655   1.602   6.918
 5581SOL     OW17641   2.545   0.233   1.015
 5581SOL    HW117642   2.470   0.290   0.982
 5581SOL    HW217643   2.545   0.146   0.965
 5582SOL     OW17644   3.306   3.367   3.527
 5582SOL    HW117645   3.384   3.305   3.541
 5582SOL    HW217646   3.259   3.382   3.613
 5583SOL     OW17647   3.974   6.495   2.805
 5583SOL    HW117648   3.954   6.435   2.728
 5583SOL    HW217649   4.071   6.489   2.828
 5584SOL     OW17650   5.601   3.814   4.178
 5584SOL    HW117651   5.584   3.728   4.226
 5584SOL    HW217652   5.538   3.884   4.212
 5585SOL     OW17653   4.918   0.810   3.961
 5585SOL    HW117654   4.891   0.906   3.962
 5585SOL    HW217655   4.893   0.768   3.873
 5586SOL     OW17656   1.236   2.458   0.139
 5586SOL    HW117657   1.193   2.462   0.049
 5586SOL    HW217658   1.194   2.385   0.193
 5587SOL     OW17659   4.130   6.837   2.274
 5587SOL    HW117660   4.185   6.852   2.356
 5587SOL    HW217661   4.049   6.784   2.297
 5588SOL     OW17662   0.992   6.846   4.418
 5588SOL    HW117663   0.944   6.797   4.345
 5588SOL    HW217664   1.090   6.829   4.410
 5589SOL     OW17665   5.078   3.161   6.724
 5589SOL    HW117666   4.992   3.115   6.703
 5589SOL    HW217667   5.154   3.099   6.706
 5590SOL     OW17668   6.746   5.269   2.928
 5590SOL    HW117669   6.742   5.335   3.003
 5590SOL    HW217670   6.718   5.179   2.962
 5591SOL     OW17671   5.877   0.392   6.668
 5591SOL    HW117672   5.973   0.420   6.676
 5591SOL    HW217673   5.864   0.305   6.715
 5592SOL     OW17674   2.667   4.692   2.891
 5592SOL    HW117675   2.627   4.728   2.975
 5592SOL    HW217676   2.755   4.649   2.911
 5593SOL     OW17677   6.965   2.845   5.491
 5593SOL    HW117678   7.000   2.912   5.425
 5593SOL    HW217679   6.995   2.870   5.583
 5594SOL     OW17680   2.456   1.423   7.018
 5594SOL    HW117681   2.522   1.388   0.057
 5594SOL    HW217682   2.418   1.347   6.964
 5595SOL     OW17683   6.382   0.621   5.073
 5595SOL    HW117684   6.481   0.618   5.090
 5595SOL    HW217685   6.361   0.702   5.019
 5596SOL     OW17686   5.375   0.113   3.166
 5596SOL    HW117687   5.333   0.179   3.228
 5596SOL    HW217688   5.395   0.028   3.216
 5597SOL     OW17689   5.182   2.832   5.456
 5597SOL    HW117690   5.148   2.748   5.500
 5597SOL    HW217691   5.139   2.843   5.367
 5598SOL     OW17692   4.903   2.387   4.018
 5598SOL    HW117693   4.866   2.296   4.003
 5598SOL    HW217694   4.990   2.397   3.970
 5599SOL     OW17695   5.566   3.794   2.030
 5599SOL    HW117696   5.655   3.781   2.074
 5599SOL    HW217697   5.503   3.835   2.096
 5600SOL     OW17698   2.626   0.356   2.576
 5600SOL    HW117699   2.658   0.292   2.506
 5600SOL    HW217700   2.566   0.424   2.533
 5601SOL     OW17701   4.605   2.266   5.864
 5601SOL    HW117702   4.646   2.307   5.945
 5601SOL    HW217703   4.608   2.166   5.873
 5602SOL     OW17704   6.671   1.306   3.157
 5602SOL    HW117705   6.681   1.366   3.237
 5602SOL    HW217706   6.574   1.292   3.139
 5603SOL     OW17707   4.463   2.564   5.157
 5603SOL    HW117708   4.525   2.631   5.116
 5603SOL    HW217709   4.391   2.612   5.207
 5604SOL     OW17710   1.079   1.736   4.409
 5604SOL    HW117711   1.115   1.653   4.365
 5604SOL    HW217712   0.995   1.713   4.458
 5605SOL     OW17713   1.091   0.177   5.108
 5605SOL    HW117714   1.013   0.238   5.124
 5605SOL    HW217715   1.059   0.083   5.100
 5606SOL     OW17716   4.328   1.195   0.380
 5606SOL    HW117717   4.308   1.252   0.300
 5606SOL    HW217718   4.278   1.109   0.373
 5607SOL     OW17719   6.444   2.187   3.658
 5607SOL    HW117720   6.363   2.201   3.601
 5607SOL    HW217721   6.517   2.147   3.603
 5608SOL     OW17722   6.213   1.175   2.938
 5608SOL    HW117723   6.238   1.082   2.966
 5608SOL    HW217724   6.264   1.200   2.856
 5609SOL     OW17725   4.903   6.415   0.332
 5609SOL    HW117726   4.814   6.377   0.309
 5609SOL    HW217727   4.893   6.513   0.353
 5610SOL     OW17728   5.503   4.003   0.602
 5610SOL    HW117729   5.577   4.059   0.639
 5610SOL    HW217730   5.527   3.972   0.510
 5611SOL     OW17731   0.907   5.038   1.970
 5611SOL    HW117732   0.972   4.991   2.029
 5611SOL    HW217733   0.953   5.072   1.888
 5612SOL     OW17734   2.930   2.762   0.621
 5612SOL    HW117735   2.905   2.744   0.716
 5612SOL    HW217736   2.995   2.838   0.617
 5613SOL     OW17737   6.663   4.498   4.771
 5613SOL    HW117738   6.588   4.559   4.795
 5613SOL    HW217739   6.627   4.408   4.746
 5614SOL     OW17740   6.275   1.938   4.623
 5614SOL    HW117741   6.226   1.997   4.687
 5614SOL    HW217742   6.262   1.973   4.530
 5615SOL     OW17743   7.009   1.492   2.564
 5615SOL    HW117744   0.056   1.558   2.547
 5615SOL    HW217745   6.946   1.530   2.632
 5616SOL     OW17746   2.654   1.883   5.217
 5616SOL    HW117747   2.733   1.854   5.163
 5616SOL    HW217748   2.581   1.913   5.155
 5617SOL     OW17749   1.463   4.265   4.237
 5617SOL    HW117750   1.439   4.229   4.147
 5617SOL    HW217751   1.381   4.269   4.294
 5618SOL     OW17752   6.250   5.333   3.242
 5618SOL    HW117753   6.287   5.332   3.149
 5618SOL    HW217754   6.257   5.241   3.281
 5619SOL     OW17755   3.785   3.050   3.655
 5619SOL    HW117756   3.827   3.037   3.565
 5619SOL    HW217757   3.853   3.085   3.719
 5620SOL     OW17758   4.511   4.202   5.604
 5620SOL    HW117759   4.484   4.151   5.522
 5620SOL    HW217760   4.568   4.144   5.662
 5621SOL     OW17761   1.523   3.229   6.439
 5621SOL    HW117762   1.572   3.308   6.401
 5621SOL    HW217763   1.445   3.207   6.380
 5622SOL     OW17764   4.498   6.381   5.442
 5622SOL    HW117765   4.446   6.467   5.443
 5622SOL    HW217766   4.440   6.308   5.406
 5623SOL     OW17767   4.727   6.739   5.197
 5623SOL    HW117768   4.733   6.836   5.170
 5623SOL    HW217769   4.658   6.729   5.268
 5624SOL     OW17770   1.010   5.175   3.316
 5624SOL    HW117771   1.032   5.253   3.258
 5624SOL    HW217772   1.046   5.191   3.408
 5625SOL     OW17773   0.707   5.143   4.827
 5625SOL    HW117774   0.613   5.155   4.794
 5625SOL    HW217775   0.714   5.055   4.874
 5626SOL     OW17776   2.390   4.429   4.354
 5626SOL    HW117777   2.481   4.468   4.370
 5626SOL    HW217778   2.336   4.493   4.298
 5627SOL     OW17779   6.906   5.854   5.867
 5627SOL    HW117780   6.909   5.810   5.957
 5627SOL    HW217781   6.981   5.920   5.859
 5628SOL     OW17782   3.059   2.885   1.090
 5628SOL    HW117783   3.074   2.957   1.157
 5628SOL    HW217784   3.144   2.835   1.074
 5629SOL     OW17785   4.005   2.886   1.301
 5629SOL    HW117786   3.969   2.798   1.331
 5629SOL    HW217787   4.002   2.952   1.376
 5630SOL     OW17788   1.734   3.765   6.051
 5630SOL    HW117789   1.832   3.781   6.060
 5630SOL    HW217790   1.684   3.846   6.081
 5631SOL     OW17791   5.214   0.907   1.719
 5631SOL    HW117792   5.269   0.990   1.717
 5631SOL    HW217793   5.216   0.864   1.629
 5632SOL     OW17794   5.108   1.692   5.951
 5632SOL    HW117795   5.171   1.747   5.896
 5632SOL    HW217796   5.140   1.598   5.954
 5633SOL     OW17797   0.075   5.104   4.709
 5633SOL    HW117798   0.104   5.134   4.799
 5633SOL    HW217799   0.105   5.010   4.693
 5634SOL     OW17800   1.944   4.795   4.241
 5634SOL    HW117801   1.907   4.885   4.218
 5634SOL    HW217802   1.963   4.792   4.339
 5635SOL     OW17803   2.938   6.818   6.656
 5635SOL    HW117804   3.023   6.843   6.703
 5635SOL    HW217805   2.961   6.770   6.571
 5636SOL     OW17806   6.154   0.937   5.403
 5636SOL    HW117807   6.198   0.901   5.320
 5636SOL    HW217808   6.081   0.875   5.431
 5637SOL     OW17809   5.124   0.016   3.826
 5637SOL    HW117810   5.108   6.950   3.792
 5637SOL    HW217811   5.131   0.079   3.749
 5638SOL     OW17812   5.461   5.777   1.338
 5638SOL    HW117813   5.483   5.863   1.291
 5638SOL    HW217814   5.391   5.727   1.287
 5639SOL     OW17815   1.155   0.772   1.945
 5639SOL    HW117816   1.169   0.718   1.863
 5639SOL    HW217817   1.058   0.792   1.957
 5640SOL     OW17818   2.812   6.951   2.087
 5640SOL    HW117819   2.763   0.004   2.121
 5640SOL    HW217820   2.801   6.874   2.151
 5641SOL     OW17821   0.463   4.701   5.945
 5641SOL    HW117822   0.474   4.645   5.863
 5641SOL    HW217823   0.367   4.698   5.975
 5642SOL     OW17824   1.377   5.143   5.842
 5642SOL    HW117825   1.386   5.179   5.749
 5642SOL    HW217826   1.466   5.144   5.887
 5643SOL     OW17827   3.451   0.785   4.947
 5643SOL    HW117828   3.480   0.793   4.852
 5643SOL    HW217829   3.356   0.815   4.956
 5644SOL     OW17830   4.757   0.589   3.720
 5644SOL    HW117831   4.800   0.519   3.777
 5644SOL    HW217832   4.691   0.640   3.775
 5645SOL     OW17833   6.760   4.196   2.908
 5645SOL    HW117834   6.771   4.261   2.984
 5645SOL    HW217835   6.775   4.243   2.821
 5646SOL     OW17836   2.080   5.542   3.470
 5646SOL    HW117837   2.002   5.501   3.422
 5646SOL    HW217838   2.069   5.529   3.568
 5647SOL     OW17839   6.472   6.721   7.009
 5647SOL    HW117840   6.566   6.723   6.973
 5647SOL    HW217841   6.411   6.768   6.946
 5648SOL     OW17842   1.710   1.139   2.955
 5648SOL    HW117843   1.661   1.166   3.038
 5648SOL    HW217844   1.682   1.047   2.928
 5649SOL     OW17845   1.104   6.354   5.943
 5649SOL    HW117846   1.085   6.272   5.997
 5649SOL    HW217847   1.024   6.415   5.946
 5650SOL     OW17848   0.792   5.555   1.215
 5650SOL    HW117849   0.776   5.631   1.153
 5650SOL    HW217850   0.711   5.496   1.217
 5651SOL     OW17851   0.001   1.307   1.843
 5651SOL    HW117852   0.040   1.376   1.782
 5651SOL    HW217853   6.989   1.232   1.789
 5652SOL     OW17854   5.748   6.465   1.862
 5652SOL    HW117855   5.668   6.464   1.922
 5652SOL    HW217856   5.726   6.417   1.777
 5653SOL     OW17857   0.388   6.530   6.637
 5653SOL    HW117858   0.314   6.552   6.701
 5653SOL    HW217859   0.455   6.472   6.683
 5654SOL     OW17860   6.932   5.936   5.570
 5654SOL    HW117861   6.948   5.952   5.667
 5654SOL    HW217862   6.855   5.991   5.539
 5655SOL     OW17863   1.529   3.325   4.191
 5655SOL    HW117864   1.495   3.372   4.272
 5655SOL    HW217865   1.469   3.249   4.168
 5656SOL     OW17866   2.031   4.738   0.642
 5656SOL    HW117867   2.045   4.685   0.725
 5656SOL    HW217868   2.104   4.715   0.576
 5657SOL     OW17869   5.574   0.220   0.972
 5657SOL    HW117870   5.608   0.150   0.910
 5657SOL    HW217871   5.612   0.204   1.063
 5658SOL     OW17872   3.315   5.915   5.923
 5658SOL    HW117873   3.282   5.881   5.835
 5658SOL    HW217874   3.414   5.927   5.918
 5659SOL     OW17875   3.235   3.923   3.236
 5659SOL    HW117876   3.238   3.915   3.136
 5659SOL    HW217877   3.164   3.863   3.273
 5660SOL     OW17878   5.789   0.385   6.014
 5660SOL    HW117879   5.691   0.396   5.999
 5660SOL    HW217880   5.838   0.385   5.927
 5661SOL     OW17881   6.882   4.794   5.909
 5661SOL    HW117882   6.964   4.752   5.870
 5661SOL    HW217883   6.908   4.874   5.963
 5662SOL     OW17884   2.713   4.981   3.990
 5662SOL    HW117885   2.763   4.897   3.971
 5662SOL    HW217886   2.617   4.959   4.010
 5663SOL     OW17887   1.892   4.039   6.979
 5663SOL    HW117888   1.844   4.025   0.039
 5663SOL    HW217889   1.947   4.122   6.984
 5664SOL     OW17890   6.894   4.211   4.226
 5664SOL    HW117891   6.895   4.175   4.133
 5664SOL    HW217892   6.808   4.259   4.242
 5665SOL     OW17893   1.870   1.897   0.291
 5665SOL    HW117894   1.828   1.947   0.367
 5665SOL    HW217895   1.832   1.929   0.204
 5666SOL     OW17896   5.735   6.040   0.600
 5666SOL    HW117897   5.760   6.135   0.619
 5666SOL    HW217898   5.800   5.978   0.646
 5667SOL     OW17899   0.949   4.428   3.614
 5667SOL    HW117900   0.947   4.431   3.514
 5667SOL    HW217901   0.861   4.459   3.650
 5668SOL     OW17902   5.432   2.039   5.822
 5668SOL    HW117903   5.525   2.071   5.840
 5668SOL    HW217904   5.406   1.971   5.890
 5669SOL     OW17905   0.820   3.386   6.383
 5669SOL    HW117906   0.747   3.394   6.315
 5669SOL    HW217907   0.850   3.478   6.410
 5670SOL     OW17908   0.284   3.034   3.874
 5670SOL    HW117909   0.229   2.960   3.834
 5670SOL    HW217910   0.375   3.032   3.834
 5671SOL     OW17911   0.917   6.435   6.454
 5671SOL    HW117912   1.005   6.389   6.447
 5671SOL    HW217913   0.888   6.465   6.363
 5672SOL     OW17914   4.340   4.777   6.672
 5672SOL    HW117915   4.344   4.744   6.766
 5672SOL    HW217916   4.383   4.868   6.667
 5673SOL     OW17917   0.966   6.169   1.989
 5673SOL    HW117918   1.013   6.146   1.904
 5673SOL    HW217919   1.025   6.149   2.067
 5674SOL     OW17920   6.894   4.129   3.432
 5674SOL    HW117921   6.982   4.125   3.478
 5674SOL    HW217922   6.822   4.149   3.498
 5675SOL     OW17923   4.417   1.763   6.322
 5675SOL    HW117924   4.332   1.718   6.351
 5675SOL    HW217925   4.400   1.820   6.242
 5676SOL     OW17926   1.903   1.976   2.083
 5676SOL    HW117927   1.852   2.018   2.007
 5676SOL    HW217928   1.877   2.020   2.169
 5677SOL     OW17929   0.830   2.452   2.765
 5677SOL    HW117930   0.835   2.355   2.789
 5677SOL    HW217931   0.809   2.462   2.668
 5678SOL     OW17932   2.753   6.768   2.963
 5678SOL    HW117933   2.843   6.805   2.942
 5678SOL    HW217934   2.718   6.812   3.046
 5679SOL     OW17935   1.123   0.615   3.210
 5679SOL    HW117936   1.155   0.540   3.152
 5679SOL    HW217937   1.166   0.607   3.300
 5680SOL     OW17938   1.369   5.359   0.490
 5680SOL    HW117939   1.400   5.306   0.412
 5680SOL    HW217940   1.364   5.300   0.571
 5681SOL     OW17941   0.232   3.636   6.391
 5681SOL    HW117942   0.173   3.679   6.460
 5681SOL    HW217943   0.238   3.538   6.409
 5682SOL     OW17944   1.977   4.785   5.404
 5682SOL    HW117945   2.021   4.823   5.323
 5682SOL    HW217946   1.878   4.796   5.396
 5683SOL     OW17947   4.138   1.634   6.832
 5683SOL    HW117948   4.219   1.651   6.890
 5683SOL    HW217949   4.069   1.586   6.886
 5684SOL     OW17950   3.884   3.180   4.500
 5684SOL    HW117951   3.947   3.257   4.501
 5684SOL    HW217952   3.871   3.145   4.592
 5685SOL     OW17953   1.766   3.557   1.857
 5685SOL    HW117954   1.832   3.570   1.930
 5685SOL    HW217955   1.812   3.568   1.768
 5686SOL     OW17956   2.963   0.029   6.302
 5686SOL    HW117957   2.885   6.994   6.303
 5686SOL    HW217958   3.046   7.003   6.324
 5687SOL     OW17959   6.814   3.796   4.926
 5687SOL    HW117960   6.735   3.735   4.928
 5687SOL    HW217961   6.812   3.856   5.006
 5688SOL     OW17962   6.459   1.939   0.192
 5688SOL    HW117963   6.416   1.880   0.124
 5688SOL    HW217964   6.433   2.034   0.174
 5689SOL     OW17965   4.358   0.643   6.912
 5689SOL    HW117966   4.352   0.560   6.967
 5689SOL    HW217967   4.267   0.682   6.900
 5690SOL     OW17968   2.550   6.570   0.521
 5690SOL    HW117969   2.517   6.657   0.558
 5690SOL    HW217970   2.516   6.495   0.578
 5691SOL     OW17971   2.644   6.297   1.665
 5691SOL    HW117972   2.694   6.258   1.742
 5691SOL    HW217973   2.579   6.230   1.630
 5692SOL     OW17974   7.013   3.428   6.047
 5692SOL    HW117975   6.923   3.418   6.091
 5692SOL    HW217976   7.000   3.457   5.952
 5693SOL     OW17977   5.935   2.944   2.795
 5693SOL    HW117978   6.017   2.938   2.739
 5693SOL    HW217979   5.959   2.967   2.889
 5694SOL     OW17980   1.015   1.669   3.671
 5694SOL    HW117981   1.031   1.602   3.599
 5694SOL    HW217982   1.090   1.666   3.737
 5695SOL     OW17983   1.118   2.745   2.724
 5695SOL    HW117984   1.212   2.773   2.705
 5695SOL    HW217985   1.080   2.698   2.645
 5696SOL     OW17986   1.154   6.930   3.388
 5696SOL    HW117987   1.133   0.001   3.375
 5696SOL    HW217988   1.250   6.920   3.415
 5697SOL     OW17989   5.966   2.317   1.107
 5697SOL    HW117990   5.904   2.288   1.034
 5697SOL    HW217991   6.059   2.323   1.071
 5698SOL     OW17992   0.496   3.087   2.098
 5698SOL    HW117993   0.461   3.104   2.190
 5698SOL    HW217994   0.475   3.165   2.039
 5699SOL     OW17995   6.214   2.223   3.252
 5699SOL    HW117996   6.119   2.238   3.224
 5699SOL    HW217997   6.216   2.170   3.336
 5700SOL     OW17998   6.621   6.625   4.683
 5700SOL    HW117999   6.546   6.668   4.633
 5700SOL    HW218000   6.585   6.553   4.742
 5701SOL     OW18001   1.203   6.074   3.155
 5701SOL    HW118002   1.197   5.989   3.207
 5701SOL    HW218003   1.152   6.146   3.203
 5702SOL     OW18004   1.229   0.503   5.190
 5702SOL    HW118005   1.234   0.409   5.156
 5702SOL    HW218006   1.272   0.508   5.280
 5703SOL     OW18007   5.167   4.266   1.132
 5703SOL    HW118008   5.256   4.249   1.173
 5703SOL    HW218009   5.178   4.316   1.046
 5704SOL     OW18010   4.434   5.272   2.050
 5704SOL    HW118011   4.414   5.221   1.966
 5704SOL    HW218012   4.353   5.324   2.077
 5705SOL     OW18013   4.985   0.993   0.267
 5705SOL    HW118014   4.991   1.087   0.299
 5705SOL    HW218015   5.040   0.934   0.325
 5706SOL     OW18016   0.789   2.123   0.450
 5706SOL    HW118017   0.807   2.127   0.548
 5706SOL    HW218018   0.852   2.058   0.407
 5707SOL     OW18019   0.562   0.020   0.178
 5707SOL    HW118020   0.646   0.056   0.138
 5707SOL    HW218021   0.558   6.947   0.165
 5708SOL     OW18022   5.065   6.455   0.910
 5708SOL    HW118023   5.107   6.537   0.872
 5708SOL    HW218024   5.102   6.374   0.863
 5709SOL     OW18025   0.837   6.925   3.710
 5709SOL    HW118026   0.863   6.907   3.615
 5709SOL    HW218027   0.751   6.878   3.730
 5710SOL     OW18028   2.795   3.053   6.019
 5710SOL    HW118029   2.857   3.027   6.093
 5710SOL    HW218030   2.848   3.087   5.941
 5711SOL     OW18031   4.657   0.457   3.211
 5711SOL    HW118032   4.593   0.507   3.269
 5711SOL    HW218033   4.659   0.498   3.120
 5712SOL     OW18034   0.792   5.819   6.058
 5712SOL    HW118035   0.890   5.838   6.066
 5712SOL    HW218036   0.779   5.729   6.015
 5713SOL     OW18037   1.259   2.317   1.345
 5713SOL    HW118038   1.221   2.384   1.409
 5713SOL    HW218039   1.333   2.358   1.293
 5714SOL     OW18040   0.821   6.139   6.572
 5714SOL    HW118041   0.751   6.206   6.549
 5714SOL    HW218042   0.911   6.183   6.570
 5715SOL     OW18043   1.040   6.319   3.326
 5715SOL    HW118044   0.969   6.372   3.373
 5715SOL    HW218045   1.038   6.224   3.358
 5716SOL     OW18046   1.642   4.487   6.442
 5716SOL    HW118047   1.667   4.390   6.434
 5716SOL    HW218048   1.639   4.528   6.351
 5717SOL     OW18049   2.149   6.398   0.526
 5717SOL    HW118050   2.243   6.391   0.561
 5717SOL    HW218051   2.124   6.494   0.516
 5718SOL     OW18052   0.756   3.777   6.243
 5718SOL    HW118053   0.705   3.856   6.207
 5718SOL    HW218054   0.747   3.701   6.179
 5719SOL     OW18055   2.345   1.571   6.041
 5719SOL    HW118056   2.408   1.514   5.989
 5719SOL    HW218057   2.390   1.604   6.124
 5720SOL     OW18058   0.769   4.928   4.654
 5720SOL    HW118059   0.866   4.911   4.638
 5720SOL    HW218060   0.758   5.015   4.703
 5721SOL     OW18061   7.025   3.681   0.938
 5721SOL    HW118062   6.966   3.634   1.004
 5721SOL    HW218063   0.094   3.653   0.952
 5722SOL     OW18064   5.773   1.815   4.923
 5722SOL    HW118065   5.753   1.722   4.892
 5722SOL    HW218066   5.836   1.858   4.858
 5723SOL     OW18067   4.135   3.410   0.187
 5723SOL    HW118068   4.157   3.504   0.215
 5723SOL    HW218069   4.050   3.411   0.135
 5724SOL     OW18070   3.947   2.534   5.360
 5724SOL    HW118071   3.898   2.447   5.368
 5724SOL    HW218072   4.027   2.522   5.300
 5725SOL     OW18073   6.186   5.570   3.624
 5725SOL    HW118074   6.172   5.493   3.686
 5725SOL    HW218075   6.208   5.537   3.533
 5726SOL     OW18076   6.619   3.365   4.321
 5726SOL    HW118077   6.586   3.423   4.246
 5726SOL    HW218078   6.548   3.358   4.391
 5727SOL     OW18079   1.149   2.490   4.167
 5727SOL    HW118080   1.117   2.511   4.075
 5727SOL    HW218081   1.184   2.573   4.210
 5728SOL     OW18082   4.824   1.355   6.448
 5728SOL    HW118083   4.760   1.426   6.478
 5728SOL    HW218084   4.827   1.282   6.515
 5729SOL     OW18085   0.790   1.708   0.491
 5729SOL    HW118086   0.743   1.674   0.573
 5729SOL    HW218087   0.823   1.630   0.437
 5730SOL     OW18088   4.168   5.031   5.413
 5730SOL    HW118089   4.090   4.999   5.468
 5730SOL    HW218090   4.135   5.080   5.332
 5731SOL     OW18091   1.883   6.738   3.931
 5731SOL    HW118092   1.930   6.827   3.932
 5731SOL    HW218093   1.790   6.751   3.898
 5732SOL     OW18094   6.842   4.813   5.576
 5732SOL    HW118095   6.776   4.826   5.501
 5732SOL    HW218096   6.813   4.737   5.633
 5733SOL     OW18097   2.969   0.457   5.539
 5733SOL    HW118098   2.994   0.554   5.535
 5733SOL    HW218099   2.971   0.426   5.634
 5734SOL     OW18100   1.700   6.357   6.305
 5734SOL    HW118101   1.648   6.442   6.296
 5734SOL    HW218102   1.784   6.363   6.252
 5735SOL     OW18103   4.019   1.602   2.859
 5735SOL    HW118104   4.098   1.544   2.843
 5735SOL    HW218105   4.005   1.664   2.781
 5736SOL     OW18106   5.708   4.189   0.688
 5736SOL    HW118107   5.763   4.192   0.771
 5736SOL    HW218108   5.718   4.276   0.638
 5737SOL     OW18109   5.398   6.289   6.568
 5737SOL    HW118110   5.396   6.190   6.584
 5737SOL    HW218111   5.409   6.336   6.656
 5738SOL     OW18112   3.395   2.600   6.619
 5738SOL    HW118113   3.347   2.628   6.536
 5738SOL    HW218114   3.357   2.514   6.653
 5739SOL     OW18115   1.311   6.237   5.724
 5739SOL    HW118116   1.304   6.280   5.814
 5739SOL    HW218117   1.320   6.307   5.653
 5740SOL     OW18118   4.264   4.240   1.058
 5740SOL    HW118119   4.212   4.156   1.041
 5740SOL    HW218120   4.272   4.292   0.973
 5741SOL     OW18121   6.815   4.012   4.452
 5741SOL    HW118122   6.724   4.053   4.448
 5741SOL    HW218123   6.883   4.081   4.426
 5742SOL     OW18124   4.298   6.216   2.342
 5742SOL    HW118125   4.239   6.283   2.386
 5742SOL    HW218126   4.258   6.189   2.254
 5743SOL     OW18127   2.060   5.779   5.709
 5743SOL    HW118128   2.070   5.680   5.698
 5743SOL    HW218129   2.110   5.826   5.636
 5744SOL     OW18130   4.951   1.095   1.394
 5744SOL    HW118131   4.971   1.140   1.481
 5744SOL    HW218132   4.977   1.155   1.319
 5745SOL     OW18133   1.656   0.889   3.309
 5745SOL    HW118134   1.683   0.830   3.234
 5745SOL    HW218135   1.735   0.944   3.339
 5746SOL     OW18136   4.863   0.178   2.016
 5746SOL    HW118137   4.917   0.093   2.012
 5746SOL    HW218138   4.852   0.215   1.924
 5747SOL     OW18139   1.576   5.253   1.664
 5747SOL    HW118140   1.576   5.350   1.640
 5747SOL    HW218141   1.564   5.198   1.582
 5748SOL     OW18142   1.095   0.170   1.470
 5748SOL    HW118143   1.050   0.242   1.417
 5748SOL    HW218144   1.088   0.083   1.421
 5749SOL     OW18145   1.782   6.493   5.258
 5749SOL    HW118146   1.835   6.561   5.309
 5749SOL    HW218147   1.729   6.437   5.322
 5750SOL     OW18148   6.157   6.271   4.623
 5750SOL    HW118149   6.110   6.189   4.590
 5750SOL    HW218150   6.131   6.288   4.718
 5751SOL     OW18151   2.472   2.634   5.008
 5751SOL    HW118152   2.524   2.665   5.087
 5751SOL    HW218153   2.403   2.702   4.984
 5752SOL     OW18154   5.146   0.568   0.361
 5752SOL    HW118155   5.127   0.490   0.421
 5752SOL    HW218156   5.083   0.566   0.283
 5753SOL     OW18157   3.703   4.151   4.044
 5753SOL    HW118158   3.679   4.165   4.141
 5753SOL    HW218159   3.764   4.225   4.015
 5754SOL     OW18160   0.313   5.525   1.942
 5754SOL    HW118161   0.319   5.575   2.029
 5754SOL    HW218162   0.405   5.512   1.905
 5755SOL     OW18163   1.784   2.096   6.416
 5755SOL    HW118164   1.767   2.015   6.360
 5755SOL    HW218165   1.750   2.079   6.509
 5756SOL     OW18166   6.972   0.167   2.733
 5756SOL    HW118167   7.000   0.172   2.829
 5756SOL    HW218168   6.941   0.074   2.712
 5757SOL     OW18169   6.772   5.378   3.368
 5757SOL    HW118170   6.729   5.345   3.452
 5757SOL    HW218171   6.702   5.406   3.303
 5758SOL     OW18172   2.107   1.159   3.284
 5758SOL    HW118173   2.147   1.126   3.199
 5758SOL    HW218174   2.145   1.249   3.306
 5759SOL     OW18175   5.023   0.576   6.682
 5759SOL    HW118176   5.117   0.543   6.680
 5759SOL    HW218177   4.962   0.500   6.703
 5760SOL     OW18178   6.634   2.096   1.051
 5760SOL    HW118179   6.660   2.064   0.960
 5760SOL    HW218180   6.623   2.195   1.050
 5761SOL     OW18181   6.063   4.606   6.059
 5761SOL    HW118182   6.021   4.533   6.113
 5761SOL    HW218183   6.043   4.591   5.962
 5762SOL     OW18184   4.941   4.261   1.262
 5762SOL    HW118185   4.887   4.177   1.275
 5762SOL    HW218186   5.033   4.236   1.233
 5763SOL     OW18187   6.620   5.683   0.604
 5763SOL    HW118188   6.664   5.602   0.642
 5763SOL    HW218189   6.604   5.670   0.506
 5764SOL     OW18190   4.973   5.048   5.038
 5764SOL    HW118191   4.958   4.961   5.085
 5764SOL    HW218192   5.036   5.104   5.092
 5765SOL     OW18193   6.646   3.287   0.520
 5765SOL    HW118194   6.548   3.287   0.498
 5765SOL    HW218195   6.698   3.259   0.439
 5766SOL     OW18196   1.607   1.941   5.925
 5766SOL    HW118197   1.567   1.978   5.841
 5766SOL    HW218198   1.667   2.009   5.966
 5767SOL     OW18199   2.015   0.376   0.908
 5767SOL    HW118200   1.916   0.370   0.925
 5767SOL    HW218201   2.052   0.455   0.957
 5768SOL     OW18202   0.985   6.525   4.021
 5768SOL    HW118203   1.085   6.527   4.024
 5768SOL    HW218204   0.955   6.442   3.976
 5769SOL     OW18205   1.913   5.732   4.299
 5769SOL    HW118206   1.917   5.674   4.218
 5769SOL    HW218207   1.970   5.691   4.371
 5770SOL     OW18208   6.426   5.920   6.445
 5770SOL    HW118209   6.516   5.924   6.400
 5770SOL    HW218210   6.434   5.870   6.531
 5771SOL     OW18211   0.956   6.939   4.685
 5771SOL    HW118212   0.898   7.019   4.695
 5771SOL    HW218213   0.932   6.890   4.601
 5772SOL     OW18214   5.609   1.053   1.890
 5772SOL    HW118215   5.667   0.991   1.837
 5772SOL    HW218216   5.656   1.141   1.901
 5773SOL     OW18217   4.104   0.570   3.245
 5773SOL    HW118218   4.078   0.531   3.333
 5773SOL    HW218219   4.061   0.518   3.172
 5774SOL     OW18220   3.069   6.260   4.022
 5774SOL    HW118221   3.119   6.333   4.069
 5774SOL    HW218222   3.069   6.279   3.924
 5775SOL     OW18223   1.487   0.192   2.778
 5775SOL    HW118224   1.485   0.163   2.874
 5775SOL    HW218225   1.559   0.141   2.730
 5776SOL     OW18226   0.426   0.945   4.107
 5776SOL    HW118227   0.369   0.897   4.040
 5776SOL    HW218228   0.521   0.916   4.096
 5777SOL     OW18229   7.003   0.200   4.995
 5777SOL    HW118230   7.023   0.298   4.997
 5777SOL    HW218231   6.935   0.177   5.064
 5778SOL     OW18232   1.566   0.385   0.077
 5778SOL    HW118233   1.596   0.440   0.155
 5778SOL    HW218234   1.588   0.289   0.094
 5779SOL     OW18235   4.394   2.662   1.227
 5779SOL    HW118236   4.374   2.572   1.266
 5779SOL    HW218237   4.403   2.729   1.301
 5780SOL     OW18238   6.350   5.935   4.415
 5780SOL    HW118239   6.366   6.031   4.395
 5780SOL    HW218240   6.287   5.927   4.493
 5781SOL     OW18241   6.452   5.322   4.557
 5781SOL    HW118242   6.429   5.227   4.576
 5781SOL    HW218243   6.548   5.329   4.529
 5782SOL     OW18244   1.179   1.572   0.879
 5782SOL    HW118245   1.176   1.604   0.974
 5782SOL    HW218246   1.087   1.575   0.840
 5783SOL     OW18247   1.218   0.597   1.748
 5783SOL    HW118248   1.150   0.607   1.676
 5783SOL    HW218249   1.226   0.500   1.774
 5784SOL     OW18250   6.920   5.752   6.125
 5784SOL    HW118251   6.954   5.790   6.211
 5784SOL    HW218252   6.823   5.733   6.133
 5785SOL     OW18253   2.025   1.611   0.541
 5785SOL    HW118254   2.089   1.540   0.513
 5785SOL    HW218255   2.060   1.658   0.622
 5786SOL     OW18256   1.091   3.978   0.655
 5786SOL    HW118257   1.185   4.009   0.643
 5786SOL    HW218258   1.032   4.022   0.587
 5787SOL     OW18259   3.461   2.119   4.967
 5787SOL    HW118260   3.407   2.052   4.917
 5787SOL    HW218261   3.400   2.188   5.006
 5788SOL     OW18262   3.037   1.104   1.316
 5788SOL    HW118263   3.013   1.084   1.411
 5788SOL    HW218264   3.081   1.024   1.276
 5789SOL     OW18265   3.351   4.531   6.760
 5789SOL    HW118266   3.338   4.618   6.713
 5789SOL    HW218267   3.262   4.495   6.790
 5790SOL     OW18268   1.010   4.814   4.647
 5790SOL    HW118269   1.021   4.715   4.635
 5790SOL    HW218270   1.098   4.859   4.632
 5791SOL     OW18271   3.677   1.460   2.862
 5791SOL    HW118272   3.748   1.456   2.792
 5791SOL    HW218273   3.694   1.390   2.932
 5792SOL     OW18274   5.967   3.344   2.350
 5792SOL    HW118275   5.927   3.286   2.279
 5792SOL    HW218276   6.063   3.364   2.326
 5793SOL     OW18277   4.912   1.088   3.973
 5793SOL    HW118278   4.909   1.163   3.907
 5793SOL    HW218279   4.980   1.108   4.043
 5794SOL     OW18280   2.628   0.539   0.395
 5794SOL    HW118281   2.589   0.609   0.335
 5794SOL    HW218282   2.690   0.583   0.461
 5795SOL     OW18283   6.520   0.260   6.817
 5795SOL    HW118284   6.594   0.325   6.833
 5795SOL    HW218285   6.546   0.198   6.742
 5796SOL     OW18286   4.805   1.421   6.131
 5796SOL    HW118287   4.741   1.443   6.204
 5796SOL    HW218288   4.899   1.430   6.166
 5797SOL     OW18289   4.687   2.086   6.329
 5797SOL    HW118290   4.622   2.148   6.374
 5797SOL    HW218291   4.769   2.138   6.304
 5798SOL     OW18292   1.125   4.626   5.040
 5798SOL    HW118293   1.082   4.584   4.960
 5798SOL    HW218294   1.120   4.563   5.117
 5799SOL     OW18295   0.532   0.510   3.325
 5799SOL    HW118296   0.490   0.489   3.414
 5799SOL    HW218297   0.606   0.445   3.307
 5800SOL     OW18298   6.060   6.128   1.994
 5800SOL    HW118299   6.020   6.037   1.983
 5800SOL    HW218300   6.152   6.129   1.955
 5801SOL     OW18301   2.149   2.568   3.278
 5801SOL    HW118302   2.159   2.577   3.179
 5801SOL    HW218303   2.210   2.496   3.311
 5802SOL     OW18304   0.924   4.124   2.464
 5802SOL    HW118305   1.001   4.126   2.529
 5802SOL    HW218306   0.888   4.031   2.458
 5803SOL     OW18307   2.366   5.346   2.119
 5803SOL    HW118308   2.429   5.269   2.104
 5803SOL    HW218309   2.419   5.430   2.133
 5804SOL     OW18310   0.172   5.867   3.877
 5804SOL    HW118311   0.094   5.925   3.901
 5804SOL    HW218312   0.257   5.916   3.894
 5805SOL     OW18313   2.282   3.323   0.155
 5805SOL    HW118314   2.244   3.239   0.116
 5805SOL    HW218315   2.382   3.315   0.160
 5806SOL     OW18316   6.607   5.175   5.077
 5806SOL    HW118317   6.603   5.125   5.163
 5806SOL    HW218318   6.639   5.114   5.004
 5807SOL     OW18319   0.374   3.860   1.777
 5807SOL    HW118320   0.365   3.825   1.870
 5807SOL    HW218321   0.466   3.842   1.744
 5808SOL     OW18322   6.077   5.875   4.901
 5808SOL    HW118323   5.999   5.855   4.843
 5808SOL    HW218324   6.095   5.797   4.961
 5809SOL     OW18325   5.359   1.951   4.671
 5809SOL    HW118326   5.312   1.924   4.756
 5809SOL    HW218327   5.404   1.871   4.632
 5810SOL     OW18328   4.038   1.312   4.936
 5810SOL    HW118329   4.132   1.277   4.938
 5810SOL    HW218330   4.006   1.317   4.842
 5811SOL     OW18331   3.312   1.145   4.808
 5811SOL    HW118332   3.228   1.198   4.806
 5811SOL    HW218333   3.383   1.191   4.753
 5812SOL     OW18334   6.338   2.304   4.489
 5812SOL    HW118335   6.289   2.260   4.564
 5812SOL    HW218336   6.298   2.394   4.472
 5813SOL     OW18337   1.741   1.994   1.090
 5813SOL    HW118338   1.646   1.967   1.075
 5813SOL    HW218339   1.759   2.000   1.188
 5814SOL     OW18340   6.282   4.435   1.780
 5814SOL    HW118341   6.212   4.414   1.711
 5814SOL    HW218342   6.343   4.356   1.790
 5815SOL     OW18343   3.722   1.895   4.454
 5815SOL    HW118344   3.631   1.895   4.413
 5815SOL    HW218345   3.790   1.917   4.384
 5816SOL     OW18346   4.546   5.167   0.220
 5816SOL    HW118347   4.626   5.206   0.267
 5816SOL    HW218348   4.464   5.216   0.247
 5817SOL     OW18349   5.361   3.747   5.856
 5817SOL    HW118350   5.415   3.764   5.938
 5817SOL    HW218351   5.276   3.799   5.861
 5818SOL     OW18352   6.499   6.013   4.810
 5818SOL    HW118353   6.583   5.975   4.772
 5818SOL    HW218354   6.495   5.996   4.908
 5819SOL     OW18355   3.540   6.530   6.621
 5819SOL    HW118356   3.553   6.513   6.719
 5819SOL    HW218357   3.592   6.463   6.568
 5820SOL     OW18358   4.626   5.094   3.769
 5820SOL    HW118359   4.559   5.104   3.696
 5820SOL    HW218360   4.703   5.039   3.735
 5821SOL     OW18361   0.111   6.706   1.419
 5821SOL    HW118362   0.033   6.738   1.472
 5821SOL    HW218363   0.166   6.644   1.475
 5822SOL     OW18364   2.071   2.320   1.483
 5822SOL    HW118365   1.997   2.271   1.436
 5822SOL    HW218366   2.072   2.295   1.580
 5823SOL     OW18367   1.701   0.699   5.606
 5823SOL    HW118368   1.701   0.780   5.664
 5823SOL    HW218369   1.650   0.719   5.522
 5824SOL     OW18370   6.936   5.485   2.342
 5824SOL    HW118371   0.006   5.500   2.365
 5824SOL    HW218372   6.878   5.531   2.410
 5825SOL     OW18373   1.073   1.810   5.496
 5825SOL    HW118374   1.109   1.729   5.450
 5825SOL    HW218375   0.989   1.785   5.545
 5826SOL     OW18376   7.018   5.084   5.817
 5826SOL    HW118377   6.955   5.092   5.894
 5826SOL    HW218378   6.975   5.120   5.735
 5827SOL     OW18379   2.319   4.311   5.125
 5827SOL    HW118380   2.373   4.343   5.047
 5827SOL    HW218381   2.296   4.215   5.111
 5828SOL     OW18382   6.508   1.863   1.475
 5828SOL    HW118383   6.518   1.909   1.386
 5828SOL    HW218384   6.541   1.923   1.547
 5829SOL     OW18385   1.395   0.798   3.139
 5829SOL    HW118386   1.349   0.728   3.085
 5829SOL    HW218387   1.494   0.788   3.129
 5830SOL     OW18388   5.469   6.500   5.793
 5830SOL    HW118389   5.481   6.432   5.721
 5830SOL    HW218390   5.555   6.549   5.807
 5831SOL     OW18391   1.121   1.509   5.507
 5831SOL    HW118392   1.091   1.415   5.495
 5831SOL    HW218393   1.045   1.564   5.542
 5832SOL     OW18394   3.042   4.816   6.897
 5832SOL    HW118395   2.981   4.751   6.943
 5832SOL    HW218396   3.130   4.818   6.945
 5833SOL     OW18397   3.607   3.790   4.610
 5833SOL    HW118398   3.518   3.830   4.632
 5833SOL    HW218399   3.675   3.821   4.677
 5834SOL     OW18400   0.101   3.152   0.166
 5834SOL    HW118401   0.125   3.099   0.084
 5834SOL    HW218402   0.088   3.247   0.140
 5835SOL     OW18403   5.055   3.036   3.656
 5835SOL    HW118404   5.096   3.042   3.565
 5835SOL    HW218405   4.973   3.093   3.660
 5836SOL     OW18406   2.802   6.466   2.063
 5836SOL    HW118407   2.826   6.484   2.158
 5836SOL    HW218408   2.707   6.495   2.046
 5837SOL     OW18409   3.908   3.830   5.961
 5837SOL    HW118410   3.927   3.809   5.866
 5837SOL    HW218411   3.889   3.928   5.971
 5838SOL     OW18412   2.491   2.167   0.999
 5838SOL    HW118413   2.481   2.204   0.906
 5838SOL    HW218414   2.417   2.203   1.056
 5839SOL     OW18415   0.749   1.664   2.593
 5839SOL    HW118416   0.750   1.567   2.617
 5839SOL    HW218417   0.760   1.675   2.494
 5840SOL     OW18418   0.346   5.674   6.242
 5840SOL    HW118419   0.273   5.609   6.264
 5840SOL    HW218420   0.417   5.628   6.189
 5841SOL     OW18421   4.973   2.106   2.655
 5841SOL    HW118422   4.993   2.196   2.694
 5841SOL    HW218423   5.019   2.096   2.567
 5842SOL     OW18424   4.722   3.257   1.249
 5842SOL    HW118425   4.722   3.293   1.156
 5842SOL    HW218426   4.812   3.218   1.270
 5843SOL     OW18427   1.799   4.132   3.235
 5843SOL    HW118428   1.702   4.139   3.214
 5843SOL    HW218429   1.813   4.139   3.334
 5844SOL     OW18430   2.025   6.114   5.707
 5844SOL    HW118431   2.011   6.109   5.608
 5844SOL    HW218432   1.961   6.180   5.746
 5845SOL     OW18433   0.518   0.614   2.614
 5845SOL    HW118434   0.444   0.569   2.664
 5845SOL    HW218435   0.561   0.548   2.552
 5846SOL     OW18436   6.976   2.765   4.747
 5846SOL    HW118437   0.008   2.816   4.810
 5846SOL    HW218438   6.920   2.700   4.799
 5847SOL     OW18439   2.456   2.203   2.012
 5847SOL    HW118440   2.405   2.124   2.044
 5847SOL    HW218441   2.497   2.183   1.923
 5848SOL     OW18442   2.170   6.353   3.261
 5848SOL    HW118443   2.256   6.399   3.238
 5848SOL    HW218444   2.120   6.408   3.327
 5849SOL     OW18445   0.512   0.323   6.091
 5849SOL    HW118446   0.587   0.357   6.034
 5849SOL    HW218447   0.489   0.230   6.064
 5850SOL     OW18448   6.791   3.210   2.330
 5850SOL    HW118449   6.775   3.254   2.419
 5850SOL    HW218450   6.868   3.147   2.337
 5851SOL     OW18451   4.990   3.548   2.890
 5851SOL    HW118452   5.035   3.563   2.978
 5851SOL    HW218453   4.950   3.457   2.888
 5852SOL     OW18454   6.143   5.763   2.826
 5852SOL    HW118455   6.048   5.778   2.851
 5852SOL    HW218456   6.150   5.746   2.727
 5853SOL     OW18457   3.499   5.931   4.114
 5853SOL    HW118458   3.586   5.939   4.163
 5853SOL    HW218459   3.477   5.834   4.102
 5854SOL     OW18460   5.148   4.363   6.270
 5854SOL    HW118461   5.116   4.428   6.201
 5854SOL    HW218462   5.100   4.381   6.356
 5855SOL     OW18463   0.800   1.534   4.860
 5855SOL    HW118464   0.895   1.563   4.870
 5855SOL    HW218465   0.748   1.561   4.941
 5856SOL     OW18466   1.990   5.523   3.749
 5856SOL    HW118467   1.894   5.536   3.724
 5856SOL    HW218468   1.997   5.504   3.847
 5857SOL     OW18469   6.479   1.878   5.920
 5857SOL    HW118470   6.506   1.941   5.993
 5857SOL    HW218471   6.408   1.920   5.865
 5858SOL     OW18472   2.637   2.050   2.284
 5858SOL    HW118473   2.692   2.111   2.227
 5858SOL    HW218474   2.569   2.104   2.334
 5859SOL     OW18475   5.720   6.288   1.317
 5859SOL    HW118476   5.692   6.283   1.221
 5859SOL    HW218477   5.787   6.215   1.336
 5860SOL     OW18478   1.089   3.414   1.775
 5860SOL    HW118479   1.111   3.393   1.870
 5860SOL    HW218480   1.138   3.497   1.748
 5861SOL     OW18481   4.419   1.696   4.515
 5861SOL    HW118482   4.395   1.604   4.484
 5861SOL    HW218483   4.340   1.737   4.562
 5862SOL     OW18484   5.186   5.077   1.310
 5862SOL    HW118485   5.231   5.160   1.343
 5862SOL    HW218486   5.222   4.998   1.360
 5863SOL     OW18487   3.270   1.784   5.060
 5863SOL    HW118488   3.299   1.831   5.143
 5863SOL    HW218489   3.302   1.834   4.980
 5864SOL     OW18490   4.146   3.654   1.708
 5864SOL    HW118491   4.245   3.654   1.704
 5864SOL    HW218492   4.116   3.584   1.774
 5865SOL     OW18493   5.779   0.172   5.069
 5865SOL    HW118494   5.784   0.184   4.970
 5865SOL    HW218495   5.834   0.093   5.096
 5866SOL     OW18496   4.323   4.702   6.964
 5866SOL    HW118497   4.395   4.693   0.007
 5866SOL    HW218498   4.330   4.626   6.898
 5867SOL     OW18499   1.480   3.736   0.747
 5867SOL    HW118500   1.544   3.710   0.675
 5867SOL    HW218501   1.397   3.680   0.740
 5868SOL     OW18502   1.060   1.542   5.883
 5868SOL    HW118503   1.114   1.459   5.869
 5868SOL    HW218504   1.122   1.620   5.894
 5869SOL     OW18505   1.506   5.922   3.392
 5869SOL    HW118506   1.539   5.845   3.447
 5869SOL    HW218507   1.417   5.900   3.354
 5870SOL     OW18508   5.186   5.746   4.886
 5870SOL    HW118509   5.212   5.812   4.956
 5870SOL    HW218510   5.187   5.790   4.796
 5871SOL     OW18511   4.116   2.626   1.511
 5871SOL    HW118512   4.174   2.705   1.526
 5871SOL    HW218513   4.146   2.550   1.568
 5872SOL     OW18514   4.109   6.476   1.307
 5872SOL    HW118515   4.143   6.530   1.230
 5872SOL    HW218516   4.012   6.495   1.321
 5873SOL     OW18517   3.012   1.986   1.702
 5873SOL    HW118518   2.994   2.050   1.628
 5873SOL    HW218519   3.023   2.037   1.788
 5874SOL     OW18520   2.999   3.997   6.771
 5874SOL    HW118521   3.041   3.962   6.687
 5874SOL    HW218522   2.912   4.041   6.749
 5875SOL     OW18523   4.370   0.851   6.538
 5875SOL    HW118524   4.279   0.883   6.513
 5875SOL    HW218525   4.364   0.782   6.609
 5876SOL     OW18526   3.379   3.819   0.752
 5876SOL    HW118527   3.386   3.720   0.736
 5876SOL    HW218528   3.332   3.835   0.839
 5877SOL     OW18529   0.438   0.268   1.236
 5877SOL    HW118530   0.482   0.355   1.260
 5877SOL    HW218531   0.490   0.223   1.164
 5878SOL     OW18532   6.126   5.141   4.245
 5878SOL    HW118533   6.127   5.045   4.218
 5878SOL    HW218534   6.194   5.155   4.317
 5879SOL     OW18535   2.210   3.723   6.764
 5879SOL    HW118536   2.216   3.812   6.810
 5879SOL    HW218537   2.226   3.650   6.831
 5880SOL     OW18538   5.577   4.635   6.723
 5880SOL    HW118539   5.578   4.678   6.633
 5880SOL    HW218540   5.506   4.564   6.724
 5881SOL     OW18541   1.089   6.323   2.238
 5881SOL    HW118542   1.138   6.406   2.212
 5881SOL    HW218543   1.151   6.259   2.282
 5882SOL     OW18544   0.175   5.472   6.339
 5882SOL    HW118545   0.083   5.466   6.301
 5882SOL    HW218546   0.178   5.424   6.427
 5883SOL     OW18547   0.689   1.910   6.654
 5883SOL    HW118548   0.647   1.890   6.742
 5883SOL    HW218549   0.618   1.921   6.585
 5884SOL     OW18550   4.613   1.306   4.184
 5884SOL    HW118551   4.700   1.303   4.233
 5884SOL    HW218552   4.617   1.375   4.112
 5885SOL     OW18553   0.203   5.823   2.382
 5885SOL    HW118554   0.206   5.920   2.360
 5885SOL    HW218555   0.133   5.807   2.452
 5886SOL     OW18556   0.226   2.041   3.877
 5886SOL    HW118557   0.198   1.985   3.955
 5886SOL    HW218558   0.262   2.128   3.909
 5887SOL     OW18559   2.350   2.259   1.738
 5887SOL    HW118560   2.270   2.241   1.681
 5887SOL    HW218561   2.384   2.351   1.720
 5888SOL     OW18562   1.794   0.356   1.293
 5888SOL    HW118563   1.893   0.359   1.304
 5888SOL    HW218564   1.759   0.448   1.276
 5889SOL     OW18565   6.634   1.371   0.157
 5889SOL    HW118566   6.680   1.419   0.232
 5889SOL    HW218567   6.702   1.321   0.103
 5890SOL     OW18568   2.047   0.659   2.439
 5890SOL    HW118569   2.082   0.604   2.363
 5890SOL    HW218570   2.085   0.751   2.435
 5891SOL     OW18571   3.350   4.119   6.988
 5891SOL    HW118572   3.397   4.109   0.050
 5891SOL    HW218573   3.315   4.030   6.959
 5892SOL     OW18574   1.055   5.305   1.825
 5892SOL    HW118575   1.093   5.232   1.768
 5892SOL    HW218576   1.108   5.312   1.909
 5893SOL     OW18577   2.354   4.272   2.271
 5893SOL    HW118578   2.316   4.268   2.363
 5893SOL    HW218579   2.368   4.179   2.236
 5894SOL     OW18580   0.515   5.712   4.564
 5894SOL    HW118581   0.513   5.663   4.652
 5894SOL    HW218582   0.535   5.809   4.580
 5895SOL     OW18583   5.352   3.670   3.606
 5895SOL    HW118584   5.426   3.621   3.651
 5895SOL    HW218585   5.265   3.624   3.623
 5896SOL     OW18586   4.046   1.598   1.430
 5896SOL    HW118587   3.979   1.656   1.384
 5896SOL    HW218588   4.030   1.502   1.407
 5897SOL     OW18589   4.080   0.724   1.687
 5897SOL    HW118590   4.122   0.668   1.615
 5897SOL    HW218591   4.068   0.669   1.770
 5898SOL     OW18592   2.676   0.919   4.547
 5898SOL    HW118593   2.748   0.987   4.535
 5898SOL    HW218594   2.589   0.957   4.516
 5899SOL     OW18595   6.072   5.469   0.016
 5899SOL    HW118596   6.082   5.431   0.108
 5899SOL    HW218597   6.162   5.472   6.997
 5900SOL     OW18598   6.789   4.522   3.305
 5900SOL    HW118599   6.707   4.528   3.247
 5900SOL    HW218600   6.766   4.551   3.398
 5901SOL     OW18601   3.328   0.506   1.027
 5901SOL    HW118602   3.259   0.571   0.993
 5901SOL    HW218603   3.419   0.546   1.016
 5902SOL     OW18604   6.248   3.217   5.804
 5902SOL    HW118605   6.260   3.173   5.893
 5902SOL    HW218606   6.292   3.162   5.733
 5903SOL     OW18607   5.054   4.487   5.707
 5903SOL    HW118608   5.005   4.465   5.623
 5903SOL    HW218609   4.993   4.533   5.771
 5904SOL     OW18610   1.166   4.906   0.675
 5904SOL    HW118611   1.112   4.859   0.744
 5904SOL    HW218612   1.175   4.848   0.594
 5905SOL     OW18613   6.747   0.078   3.765
 5905SOL    HW118614   6.668   0.123   3.807
 5905SOL    HW218615   6.831   0.118   3.799
 5906SOL     OW18616   4.399   1.874   3.872
 5906SOL    HW118617   4.454   1.856   3.953
 5906SOL    HW218618   4.408   1.971   3.846
 5907SOL     OW18619   0.796   5.932   0.520
 5907SOL    HW118620   0.862   5.942   0.594
 5907SOL    HW218621   0.775   5.835   0.508
 5908SOL     OW18622   6.332   3.389   0.668
 5908SOL    HW118623   6.242   3.357   0.697
 5908SOL    HW218624   6.333   3.489   0.664
 5909SOL     OW18625   6.410   4.881   6.649
 5909SOL    HW118626   6.398   4.856   6.745
 5909SOL    HW218627   6.503   4.913   6.634
 5910SOL     OW18628   0.375   4.472   2.167
 5910SOL    HW118629   0.402   4.377   2.178
 5910SOL    HW218630   0.315   4.498   2.243
 5911SOL     OW18631   6.337   4.408   6.642
 5911SOL    HW118632   6.367   4.441   6.731
 5911SOL    HW218633   6.254   4.352   6.653
 5912SOL     OW18634   5.827   3.106   6.728
 5912SOL    HW118635   5.886   3.084   6.650
 5912SOL    HW218636   5.826   3.205   6.742
 5913SOL     OW18637   3.485   3.443   6.452
 5913SOL    HW118638   3.408   3.395   6.411
 5913SOL    HW218639   3.558   3.455   6.384
 5914SOL     OW18640   2.504   5.561   6.334
 5914SOL    HW118641   2.591   5.608   6.348
 5914SOL    HW218642   2.429   5.626   6.344
 5915SOL     OW18643   5.428   4.589   1.651
 5915SOL    HW118644   5.445   4.530   1.730
 5915SOL    HW218645   5.344   4.559   1.605
 5916SOL     OW18646   4.331   6.031   5.193
 5916SOL    HW118647   4.299   5.938   5.173
 5916SOL    HW218648   4.297   6.094   5.123
 5917SOL     OW18649   3.570   3.792   3.687
 5917SOL    HW118650   3.557   3.737   3.770
 5917SOL    HW218651   3.525   3.880   3.698
 5918SOL     OW18652   1.996   3.151   5.330
 5918SOL    HW118653   1.952   3.238   5.305
 5918SOL    HW218654   2.095   3.160   5.316
 5919SOL     OW18655   4.274   2.719   0.993
 5919SOL    HW118656   4.327   2.699   1.075
 5919SOL    HW218657   4.223   2.804   1.008
 5920SOL     OW18658   3.714   0.342   0.245
 5920SOL    HW118659   3.741   0.378   0.334
 5920SOL    HW218660   3.633   0.390   0.213
 5921SOL     OW18661   3.757   5.548   5.973
 5921SOL    HW118662   3.789   5.484   5.903
 5921SOL    HW218663   3.673   5.593   5.942
 5922SOL     OW18664   6.540   5.449   3.245
 5922SOL    HW118665   6.452   5.402   3.237
 5922SOL    HW218666   6.531   5.543   3.213
 5923SOL     OW18667   5.680   1.021   0.940
 5923SOL    HW118668   5.728   1.050   0.857
 5923SOL    HW218669   5.747   0.984   1.005
 5924SOL     OW18670   0.146   1.598   3.921
 5924SOL    HW118671   0.232   1.554   3.948
 5924SOL    HW218672   0.094   1.535   3.862
 5925SOL     OW18673   4.092   5.452   2.098
 5925SOL    HW118674   4.136   5.536   2.066
 5925SOL    HW218675   4.088   5.452   2.198
 5926SOL     OW18676   3.828   5.021   1.886
 5926SOL    HW118677   3.789   5.053   1.972
 5926SOL    HW218678   3.843   5.099   1.825
 5927SOL     OW18679   1.786   4.473   3.120
 5927SOL    HW118680   1.757   4.436   3.209
 5927SOL    HW218681   1.750   4.415   3.047
 5928SOL     OW18682   3.550   0.212   0.807
 5928SOL    HW118683   3.537   0.139   0.874
 5928SOL    HW218684   3.639   0.201   0.763
 5929SOL     OW18685   1.087   6.117   6.114
 5929SOL    HW118686   1.022   6.110   6.190
 5929SOL    HW218687   1.103   6.026   6.076
 5930SOL     OW18688   6.959   2.362   3.452
 5930SOL    HW118689   6.902   2.444   3.456
 5930SOL    HW218690   6.995   2.342   3.544
 5931SOL     OW18691   6.892   5.292   3.746
 5931SOL    HW118692   6.872   5.331   3.656
 5931SOL    HW218693   6.935   5.361   3.804
 5932SOL     OW18694   1.796   6.959   0.418
 5932SOL    HW118695   1.821   6.884   0.356
 5932SOL    HW218696   1.714   6.934   0.469
 5933SOL     OW18697   0.424   5.972   3.887
 5933SOL    HW118698   0.441   5.974   3.789
 5933SOL    HW218699   0.506   6.003   3.936
 5934SOL     OW18700   3.890   4.023   4.417
 5934SOL    HW118701   3.793   4.024   4.391
 5934SOL    HW218702   3.909   3.941   4.471
 5935SOL     OW18703   4.361   3.889   5.853
 5935SOL    HW118704   4.354   3.877   5.952
 5935SOL    HW218705   4.320   3.810   5.808
 5936SOL     OW18706   4.153   3.606   1.037
 5936SOL    HW118707   4.199   3.540   0.978
 5936SOL    HW218708   4.067   3.635   0.993
 5937SOL     OW18709   0.526   4.657   2.936
 5937SOL    HW118710   0.538   4.561   2.911
 5937SOL    HW218711   0.586   4.680   3.012
 5938SOL     OW18712   0.922   4.954   4.295
 5938SOL    HW118713   1.021   4.961   4.285
 5938SOL    HW218714   0.885   5.044   4.320
 5939SOL     OW18715   2.937   0.073   3.087
 5939SOL    HW118716   2.984   0.024   3.161
 5939SOL    HW218717   2.879   0.145   3.126
 5940SOL     OW18718   4.323   5.593   1.124
 5940SOL    HW118719   4.370   5.636   1.201
 5940SOL    HW218720   4.242   5.544   1.157
 5941SOL     OW18721   5.939   3.276   1.727
 5941SOL    HW118722   5.910   3.228   1.810
 5941SOL    HW218723   5.903   3.369   1.728
 5942SOL     OW18724   5.190   2.927   0.318
 5942SOL    HW118725   5.160   2.854   0.379
 5942SOL    HW218726   5.239   2.888   0.240
 5943SOL     OW18727   3.869   5.430   0.295
 5943SOL    HW118728   3.798   5.411   0.227
 5943SOL    HW218729   3.914   5.345   0.322
 5944SOL     OW18730   6.360   2.428   1.129
 5944SOL    HW118731   6.299   2.364   1.082
 5944SOL    HW218732   6.342   2.426   1.227
 5945SOL     OW18733   6.298   5.117   5.066
 5945SOL    HW118734   6.354   5.182   5.117
 5945SOL    HW218735   6.277   5.155   4.976
 5946SOL     OW18736   3.015   3.480   5.575
 5946SOL    HW118737   3.086   3.530   5.526
 5946SOL    HW218738   2.944   3.544   5.605
 5947SOL     OW18739   4.047   3.426   1.888
 5947SOL    HW118740   4.075   3.466   1.975
 5947SOL    HW218741   4.033   3.327   1.899
 5948SOL     OW18742   4.369   5.228   2.855
 5948SOL    HW118743   4.297   5.185   2.800
 5948SOL    HW218744   4.341   5.322   2.878
 5949SOL     OW18745   4.471   3.410   1.628
 5949SOL    HW118746   4.540   3.442   1.693
 5949SOL    HW218747   4.512   3.344   1.566
 5950SOL     OW18748   4.770   2.634   5.671
 5950SOL    HW118749   4.812   2.720   5.701
 5950SOL    HW218750   4.728   2.647   5.581
 5951SOL     OW18751   0.090   5.553   4.763
 5951SOL    HW118752   0.156   5.546   4.838
 5951SOL    HW218753   0.130   5.517   4.679
 5952SOL     OW18754   5.497   4.838   4.005
 5952SOL    HW118755   5.581   4.855   4.057
 5952SOL    HW218756   5.419   4.836   4.067
 5953SOL     OW18757   6.162   2.729   5.043
 5953SOL    HW118758   6.096   2.763   4.976
 5953SOL    HW218759   6.241   2.690   4.996
 5954SOL     OW18760   0.464   4.342   5.754
 5954SOL    HW118761   0.423   4.378   5.838
 5954SOL    HW218762   0.560   4.371   5.749
 5955SOL     OW18763   5.151   5.675   2.528
 5955SOL    HW118764   5.248   5.652   2.533
 5955SOL    HW218765   5.140   5.761   2.479
 5956SOL     OW18766   3.571   1.046   5.729
 5956SOL    HW118767   3.616   1.118   5.781
 5956SOL    HW218768   3.634   0.970   5.714
 5957SOL     OW18769   4.432   0.810   5.463
 5957SOL    HW118770   4.412   0.873   5.539
 5957SOL    HW218771   4.397   0.719   5.485
 5958SOL     OW18772   6.397   6.083   2.607
 5958SOL    HW118773   6.324   6.034   2.560
 5958SOL    HW218774   6.426   6.032   2.687
 5959SOL     OW18775   3.872   2.138   5.652
 5959SOL    HW118776   3.882   2.038   5.653
 5959SOL    HW218777   3.927   2.177   5.725
 5960SOL     OW18778   3.951   5.389   4.081
 5960SOL    HW118779   3.915   5.427   4.166
 5960SOL    HW218780   3.916   5.296   4.068
 5961SOL     OW18781   5.284   1.158   3.316
 5961SOL    HW118782   5.204   1.207   3.280
 5961SOL    HW218783   5.363   1.219   3.319
 5962SOL     OW18784   5.063   6.165   1.075
 5962SOL    HW118785   5.055   6.254   1.031
 5962SOL    HW218786   5.048   6.174   1.174
 5963SOL     OW18787   3.511   3.260   4.730
 5963SOL    HW118788   3.508   3.358   4.752
 5963SOL    HW218789   3.457   3.209   4.797
 5964SOL     OW18790   0.253   5.100   5.702
 5964SOL    HW118791   0.188   5.052   5.761
 5964SOL    HW218792   0.236   5.076   5.607
 5965SOL     OW18793   0.989   2.362   0.033
 5965SOL    HW118794   0.890   2.349   0.031
 5965SOL    HW218795   1.025   2.332   0.121
 5966SOL     OW18796   2.284   5.694   5.207
 5966SOL    HW118797   2.371   5.647   5.198
 5966SOL    HW218798   2.272   5.756   5.129
 5967SOL     OW18799   4.102   6.242   0.354
 5967SOL    HW118800   4.046   6.253   0.271
 5967SOL    HW218801   4.167   6.168   0.340
 5968SOL     OW18802   5.148   0.663   1.290
 5968SOL    HW118803   5.073   0.627   1.235
 5968SOL    HW218804   5.233   0.659   1.238
 5969SOL     OW18805   0.207   0.759   0.039
 5969SOL    HW118806   0.280   0.693   0.021
 5969SOL    HW218807   0.123   0.710   0.066
 5970SOL     OW18808   0.809   4.245   2.807
 5970SOL    HW118809   0.731   4.201   2.764
 5970SOL    HW218810   0.842   4.189   2.883
 5971SOL     OW18811   0.970   1.212   2.472
 5971SOL    HW118812   1.061   1.242   2.443
 5971SOL    HW218813   0.962   1.113   2.460
 5972SOL     OW18814   5.172   6.305   6.412
 5972SOL    HW118815   5.144   6.393   6.450
 5972SOL    HW218816   5.252   6.272   6.462
 5973SOL     OW18817   2.125   3.391   2.474
 5973SOL    HW118818   2.031   3.357   2.473
 5973SOL    HW218819   2.141   3.448   2.393
 5974SOL     OW18820   5.962   4.487   6.476
 5974SOL    HW118821   5.867   4.482   6.446
 5974SOL    HW218822   5.968   4.459   6.572
 5975SOL     OW18823   3.550   1.963   0.801
 5975SOL    HW118824   3.585   1.947   0.893
 5975SOL    HW218825   3.450   1.966   0.803
 5976SOL     OW18826   2.928   3.419   4.919
 5976SOL    HW118827   2.931   3.358   4.839
 5976SOL    HW218828   2.845   3.475   4.914
 5977SOL     OW18829   2.955   5.413   0.698
 5977SOL    HW118830   2.956   5.316   0.722
 5977SOL    HW218831   2.861   5.444   0.687
 5978SOL     OW18832   5.196   5.651   3.458
 5978SOL    HW118833   5.178   5.565   3.411
 5978SOL    HW218834   5.202   5.726   3.392
 5979SOL     OW18835   6.363   0.186   2.635
 5979SOL    HW118836   6.299   0.165   2.561
 5979SOL    HW218837   6.423   0.107   2.651
 5980SOL     OW18838   3.679   3.213   0.339
 5980SOL    HW118839   3.673   3.175   0.247
 5980SOL    HW218840   3.702   3.141   0.404
 5981SOL     OW18841   6.018   1.530   1.839
 5981SOL    HW118842   6.088   1.459   1.839
 5981SOL    HW218843   5.941   1.502   1.782
 5982SOL     OW18844   6.394   2.697   1.067
 5982SOL    HW118845   6.459   2.722   0.995
 5982SOL    HW218846   6.389   2.597   1.075
 5983SOL     OW18847   1.916   0.884   4.458
 5983SOL    HW118848   1.877   0.795   4.436
 5983SOL    HW218849   1.867   0.925   4.535
 5984SOL     OW18850   6.281   6.400   4.981
 5984SOL    HW118851   6.346   6.404   4.905
 5984SOL    HW218852   6.327   6.423   5.067
 5985SOL     OW18853   6.615   2.998   4.463
 5985SOL    HW118854   6.677   3.050   4.404
 5985SOL    HW218855   6.535   3.055   4.484
 5986SOL     OW18856   3.428   3.377   4.366
 5986SOL    HW118857   3.497   3.327   4.313
 5986SOL    HW218858   3.473   3.437   4.431
 5987SOL     OW18859   4.309   0.278   4.857
 5987SOL    HW118860   4.356   0.341   4.795
 5987SOL    HW218861   4.318   0.185   4.823
 5988SOL     OW18862   5.442   6.684   5.241
 5988SOL    HW118863   5.378   6.664   5.168
 5988SOL    HW218864   5.412   6.639   5.325
 5989SOL     OW18865   2.786   5.909   0.322
 5989SOL    HW118866   2.822   5.845   0.390
 5989SOL    HW218867   2.691   5.888   0.302
 5990SOL     OW18868   4.219   4.774   0.630
 5990SOL    HW118869   4.157   4.848   0.603
 5990SOL    HW218870   4.230   4.710   0.553
 5991SOL     OW18871   3.733   5.723   6.317
 5991SOL    HW118872   3.659   5.659   6.296
 5991SOL    HW218873   3.706   5.815   6.289
 5992SOL     OW18874   3.321   0.288   3.065
 5992SOL    HW118875   3.393   0.342   3.108
 5992SOL    HW218876   3.282   0.226   3.132
 5993SOL     OW18877   2.940   5.953   5.913
 5993SOL    HW118878   2.960   5.870   5.965
 5993SOL    HW218879   2.977   6.032   5.962
 5994SOL     OW18880   6.871   2.627   2.430
 5994SOL    HW118881   6.922   2.562   2.487
 5994SOL    HW218882   6.823   2.692   2.489
 5995SOL     OW18883   5.775   5.133   2.741
 5995SOL    HW118884   5.722   5.172   2.666
 5995SOL    HW218885   5.726   5.145   2.827
 5996SOL     OW18886   1.169   6.128   0.403
 5996SOL    HW118887   1.182   6.125   0.304
 5996SOL    HW218888   1.167   6.035   0.439
 5997SOL     OW18889   0.776   5.657   2.842
 5997SOL    HW118890   0.831   5.588   2.888
 5997SOL    HW218891   0.692   5.674   2.893
 5998SOL     OW18892   6.323   2.131   2.221
 5998SOL    HW118893   6.302   2.132   2.123
 5998SOL    HW218894   6.256   2.186   2.270
 5999SOL     OW18895   1.689   1.609   2.550
 5999SOL    HW118896   1.754   1.536   2.570
 5999SOL    HW218897   1.704   1.643   2.457
 6000SOL     OW18898   4.152   6.817   1.442
 6000SOL    HW118899   4.228   6.755   1.426
 6000SOL    HW218900   4.071   6.765   1.470
 6001SOL     OW18901   0.548   4.041   6.495
 6001SOL    HW118902   0.579   3.952   6.529
 6001SOL    HW218903   0.448   4.042   6.490
 6002SOL     OW18904   6.604   0.015   1.362
 6002SOL    HW118905   6.559   6.954   1.342
 6002SOL    HW218906   6.703   7.025   1.369
 6003SOL     OW18907   0.109   2.280   4.233
 6003SOL    HW118908   0.147   2.339   4.304
 6003SOL    HW218909   0.126   2.184   4.257
 6004SOL     OW18910   0.495   4.493   3.673
 6004SOL    HW118911   0.447   4.410   3.702
 6004SOL    HW218912   0.478   4.508   3.576
 6005SOL     OW18913   5.007   5.341   4.771
 6005SOL    HW118914   4.921   5.293   4.787
 6005SOL    HW218915   5.071   5.279   4.725
 6006SOL     OW18916   2.572   0.566   6.962
 6006SOL    HW118917   2.545   0.518   6.879
 6006SOL    HW218918   2.616   0.653   6.938
 6007SOL     OW18919   5.105   3.637   5.060
 6007SOL    HW118920   5.142   3.548   5.033
 6007SOL    HW218921   5.008   3.641   5.037
 6008SOL     OW18922   1.725   5.020   5.177
 6008SOL    HW118923   1.798   4.999   5.113
 6008SOL    HW218924   1.708   4.941   5.236
 6009SOL     OW18925   3.804   0.822   4.028
 6009SOL    HW118926   3.846   0.820   4.119
 6009SOL    HW218927   3.872   0.794   3.960
 6010SOL     OW18928   1.593   4.403   3.616
 6010SOL    HW118929   1.654   4.362   3.549
 6010SOL    HW218930   1.582   4.500   3.596
 6011SOL     OW18931   5.107   2.763   3.359
 6011SOL    HW118932   5.148   2.696   3.298
 6011SOL    HW218933   5.102   2.725   3.452
 6012SOL     OW18934   5.377   0.920   6.890
 6012SOL    HW118935   5.290   0.935   6.937
 6012SOL    HW218936   5.434   0.858   6.944
 6013SOL     OW18937   5.747   2.780   2.689
 6013SOL    HW118938   5.827   2.830   2.724
 6013SOL    HW218939   5.668   2.799   2.747
 6014SOL     OW18940   4.254   3.211   1.072
 6014SOL    HW118941   4.234   3.113   1.081
 6014SOL    HW218942   4.264   3.251   1.163
 6015SOL     OW18943   5.855   2.063   4.747
 6015SOL    HW118944   5.759   2.058   4.719
 6015SOL    HW218945   5.913   2.074   4.667
 6016SOL     OW18946   6.640   1.467   5.894
 6016SOL    HW118947   6.582   1.531   5.842
 6016SOL    HW218948   6.642   1.495   5.990
 6017SOL     OW18949   0.345   4.274   2.932
 6017SOL    HW118950   0.309   4.201   2.991
 6017SOL    HW218951   0.313   4.259   2.838
 6018SOL     OW18952   2.899   0.915   6.526
 6018SOL    HW118953   2.909   0.817   6.545
 6018SOL    HW218954   2.801   0.937   6.522
 6019SOL     OW18955   6.449   1.626   4.116
 6019SOL    HW118956   6.495   1.715   4.119
 6019SOL    HW218957   6.454   1.590   4.023
 6020SOL     OW18958   2.291   5.283   1.324
 6020SOL    HW118959   2.346   5.366   1.327
 6020SOL    HW218960   2.250   5.267   1.414
 6021SOL     OW18961   4.078   0.855   2.037
 6021SOL    HW118962   3.990   0.896   2.013
 6021SOL    HW218963   4.114   0.804   1.959
 6022SOL     OW18964   4.805   1.902   4.002
 6022SOL    HW118965   4.892   1.854   3.991
 6022SOL    HW218966   4.729   1.838   3.994
 6023SOL     OW18967   6.172   1.052   1.792
 6023SOL    HW118968   6.083   1.091   1.768
 6023SOL    HW218969   6.237   1.069   1.719
 6024SOL     OW18970   0.570   5.259   3.027
 6024SOL    HW118971   0.476   5.249   2.995
 6024SOL    HW218972   0.573   5.316   3.108
 6025SOL     OW18973   3.578   1.774   2.800
 6025SOL    HW118974   3.554   1.714   2.876
 6025SOL    HW218975   3.626   1.721   2.730
 6026SOL     OW18976   6.723   4.029   4.748
 6026SOL    HW118977   6.765   4.034   4.657
 6026SOL    HW218978   6.730   3.936   4.783
 6027SOL     OW18979   1.471   3.990   6.361
 6027SOL    HW118980   1.501   3.946   6.445
 6027SOL    HW218981   1.397   4.054   6.381
 6028SOL     OW18982   0.794   4.365   0.180
 6028SOL    HW118983   0.844   4.372   0.093
 6028SOL    HW218984   0.706   4.411   0.171
 6029SOL     OW18985   2.551   6.410   4.563
 6029SOL    HW118986   2.601   6.330   4.530
 6029SOL    HW218987   2.573   6.426   4.659
 6030SOL     OW18988   4.142   6.237   2.685
 6030SOL    HW118989   4.055   6.241   2.636
 6030SOL    HW218990   4.177   6.144   2.683
 6031SOL     OW18991   3.765   5.300   2.925
 6031SOL    HW118992   3.814   5.214   2.944
 6031SOL    HW218993   3.680   5.279   2.876
 6032SOL     OW18994   2.421   4.529   3.033
 6032SOL    HW118995   2.343   4.590   3.018
 6032SOL    HW218996   2.506   4.581   3.024
 6033SOL     OW18997   2.857   1.483   2.543
 6033SOL    HW118998   2.889   1.509   2.634
 6033SOL    HW218999   2.876   1.386   2.527
 6034SOL     OW19000   0.826   5.192   4.408
 6034SOL    HW119001   0.903   5.226   4.462
 6034SOL    HW219002   0.782   5.269   4.360
 6035SOL     OW19003   6.801   0.447   2.848
 6035SOL    HW119004   6.793   0.402   2.759
 6035SOL    HW219005   6.847   0.535   2.836
 6036SOL     OW19006   5.992   6.049   4.468
 6036SOL    HW119007   6.038   6.057   4.380
 6036SOL    HW219008   5.904   6.002   4.456
 6037SOL     OW19009   4.600   4.965   6.181
 6037SOL    HW119010   4.533   5.038   6.196
 6037SOL    HW219011   4.608   4.910   6.265
 6038SOL     OW19012   1.464   2.902   6.308
 6038SOL    HW119013   1.536   2.903   6.378
 6038SOL    HW219014   1.431   2.809   6.296
 6039SOL     OW19015   3.147   3.035   2.639
 6039SOL    HW119016   3.113   3.100   2.570
 6039SOL    HW219017   3.090   2.953   2.637
 6040SOL     OW19018   0.606   2.341   6.346
 6040SOL    HW119019   0.554   2.269   6.390
 6040SOL    HW219020   0.590   2.428   6.392
 6041SOL     OW19021   2.220   0.401   4.946
 6041SOL    HW119022   2.242   0.462   4.870
 6041SOL    HW219023   2.131   0.427   4.985
 6042SOL     OW19024   5.193   5.897   2.354
 6042SOL    HW119025   5.208   5.832   2.279
 6042SOL    HW219026   5.096   5.897   2.380
 6043SOL     OW19027   0.843   4.886   5.759
 6043SOL    HW119028   0.792   4.815   5.711
 6043SOL    HW219029   0.919   4.845   5.809
 6044SOL     OW19030   1.652   1.917   1.338
 6044SOL    HW119031   1.627   1.839   1.281
 6044SOL    HW219032   1.636   1.894   1.434
 6045SOL     OW19033   6.560   4.965   1.336
 6045SOL    HW119034   6.474   4.971   1.387
 6045SOL    HW219035   6.614   4.889   1.371
 6046SOL     OW19036   3.105   1.738   6.770
 6046SOL    HW119037   3.024   1.726   6.827
 6046SOL    HW219038   3.084   1.796   6.692
 6047SOL     OW19039   6.050   2.397   2.027
 6047SOL    HW119040   5.962   2.358   2.054
 6047SOL    HW219041   6.121   2.367   2.091
 6048SOL     OW19042   4.656   6.009   4.196
 6048SOL    HW119043   4.701   6.097   4.210
 6048SOL    HW219044   4.617   5.978   4.283
 6049SOL     OW19045   5.866   3.027   5.822
 6049SOL    HW119046   5.875   3.126   5.834
 6049SOL    HW219047   5.881   3.004   5.726
 6050SOL     OW19048   3.158   5.109   4.500
 6050SOL    HW119049   3.164   5.157   4.588
 6050SOL    HW219050   3.120   5.171   4.431
 6051SOL     OW19051   2.723   1.598   4.512
 6051SOL    HW119052   2.647   1.563   4.566
 6051SOL    HW219053   2.731   1.546   4.427
 6052SOL     OW19054   6.180   6.957   0.900
 6052SOL    HW119055   6.125   0.013   0.883
 6052SOL    HW219056   6.258   6.956   0.837
 6053SOL     OW19057   3.263   1.081   6.360
 6053SOL    HW119058   3.231   1.095   6.453
 6053SOL    HW219059   3.197   1.121   6.296
 6054SOL     OW19060   3.004   3.862   0.047
 6054SOL    HW119061   3.020   3.828   0.139
 6054SOL    HW219062   2.983   3.959   0.051
 6055SOL     OW19063   4.992   1.376   5.467
 6055SOL    HW119064   5.087   1.359   5.491
 6055SOL    HW219065   4.937   1.386   5.550
 6056SOL     OW19066   5.035   3.053   4.634
 6056SOL    HW119067   4.995   3.143   4.653
 6056SOL    HW219068   5.055   3.045   4.536
 6057SOL     OW19069   5.260   2.699   4.530
 6057SOL    HW119070   5.290   2.793   4.547
 6057SOL    HW219071   5.219   2.662   4.613
 6058SOL     OW19072   5.049   2.401   1.902
 6058SOL    HW119073   4.972   2.385   1.963
 6058SOL    HW219074   5.016   2.404   1.808
 6059SOL     OW19075   5.054   4.914   4.791
 6059SOL    HW119076   5.151   4.934   4.779
 6059SOL    HW219077   5.015   4.977   4.858
 6060SOL     OW19078   3.483   4.147   6.086
 6060SOL    HW119079   3.385   4.133   6.101
 6060SOL    HW219080   3.503   4.143   5.988
 6061SOL     OW19081   3.988   2.062   1.742
 6061SOL    HW119082   3.979   2.136   1.809
 6061SOL    HW219083   4.042   1.988   1.782
 6062SOL     OW19084   2.036   1.791   4.826
 6062SOL    HW119085   2.063   1.850   4.750
 6062SOL    HW219086   1.988   1.845   4.895
 6063SOL     OW19087   3.660   1.216   6.604
 6063SOL    HW119088   3.633   1.309   6.582
 6063SOL    HW219089   3.581   1.155   6.596
 6064SOL     OW19090   2.440   6.168   1.023
 6064SOL    HW119091   2.522   6.111   1.032
 6064SOL    HW219092   2.362   6.111   0.998
 6065SOL     OW19093   5.569   6.798   2.328
 6065SOL    HW119094   5.573   6.790   2.427
 6065SOL    HW219095   5.596   6.890   2.300
 6066SOL     OW19096   4.654   2.037   6.582
 6066SOL    HW119097   4.683   2.038   6.486
 6066SOL    HW219098   4.581   1.970   6.594
 6067SOL     OW19099   5.540   1.623   5.947
 6067SOL    HW119100   5.571   1.597   5.856
 6067SOL    HW219101   5.516   1.540   5.999
 6068SOL     OW19102   5.588   2.752   4.753
 6068SOL    HW119103   5.542   2.840   4.741
 6068SOL    HW219104   5.679   2.768   4.792
 6069SOL     OW19105   6.723   3.052   4.933
 6069SOL    HW119106   6.751   2.959   4.955
 6069SOL    HW219107   6.803   3.112   4.935
 6070SOL     OW19108   2.257   2.556   0.327
 6070SOL    HW119109   2.219   2.629   0.382
 6070SOL    HW219110   2.343   2.525   0.367
 6071SOL     OW19111   5.834   4.897   4.728
 6071SOL    HW119112   5.841   4.955   4.809
 6071SOL    HW219113   5.834   4.801   4.754
 6072SOL     OW19114   0.311   6.579   1.736
 6072SOL    HW119115   0.245   6.651   1.718
 6072SOL    HW219116   0.360   6.599   1.820
 6073SOL     OW19117   6.490   4.241   0.857
 6073SOL    HW119118   6.438   4.323   0.835
 6073SOL    HW219119   6.450   4.195   0.937
 6074SOL     OW19120   1.220   6.287   4.292
 6074SOL    HW119121   1.193   6.299   4.197
 6074SOL    HW219122   1.239   6.376   4.334
 6075SOL     OW19123   0.001   2.221   6.773
 6075SOL    HW119124   0.040   2.182   6.856
 6075SOL    HW219125   6.944   2.172   6.748
 6076SOL     OW19126   1.976   6.241   4.371
 6076SOL    HW119127   1.896   6.185   4.390
 6076SOL    HW219128   2.034   6.244   4.453
 6077SOL     OW19129   4.991   5.901   1.821
 6077SOL    HW119130   5.051   5.869   1.748
 6077SOL    HW219131   4.968   5.825   1.882
 6078SOL     OW19132   3.861   5.108   1.112
 6078SOL    HW119133   3.906   5.121   1.200
 6078SOL    HW219134   3.773   5.062   1.126
 6079SOL     OW19135   3.168   2.897   6.286
 6079SOL    HW119136   3.224   2.928   6.209
 6079SOL    HW219137   3.150   2.975   6.347
 6080SOL     OW19138   0.165   0.452   1.740
 6080SOL    HW119139   0.205   0.541   1.719
 6080SOL    HW219140   0.170   0.436   1.839
 6081SOL     OW19141   6.193   3.123   4.876
 6081SOL    HW119142   6.214   3.057   4.805
 6081SOL    HW219143   6.268   3.126   4.942
 6082SOL     OW19144   2.376   1.894   3.603
 6082SOL    HW119145   2.459   1.845   3.576
 6082SOL    HW219146   2.329   1.843   3.676
 6083SOL     OW19147   0.197   4.906   6.845
 6083SOL    HW119148   0.116   4.861   6.885
 6083SOL    HW219149   0.272   4.841   6.842
 6084SOL     OW19150   0.320   5.441   3.691
 6084SOL    HW119151   0.250   5.481   3.749
 6084SOL    HW219152   0.404   5.494   3.699
 6085SOL     OW19153   0.403   4.251   0.081
 6085SOL    HW119154   0.352   4.204   0.153
 6085SOL    HW219155   0.462   4.320   0.121
 6086SOL     OW19156   3.359   1.414   5.656
 6086SOL    HW119157   3.380   1.391   5.561
 6086SOL    HW219158   3.384   1.509   5.674
 6087SOL     OW19159   4.582   5.802   0.431
 6087SOL    HW119160   4.591   5.835   0.337
 6087SOL    HW219161   4.489   5.770   0.446
 6088SOL     OW19162   5.807   6.373   4.543
 6088SOL    HW119163   5.860   6.333   4.618
 6088SOL    HW219164   5.844   6.343   4.456
 6089SOL     OW19165   6.548   3.195   1.399
 6089SOL    HW119166   6.466   3.252   1.400
 6089SOL    HW219167   6.570   3.170   1.304
 6090SOL     OW19168   2.472   6.371   5.388
 6090SOL    HW119169   2.537   6.295   5.385
 6090SOL    HW219170   2.379   6.335   5.381
 6091SOL     OW19171   2.240   1.876   2.496
 6091SOL    HW119172   2.153   1.835   2.523
 6091SOL    HW219173   2.227   1.934   2.415
 6092SOL     OW19174   3.616   0.156   3.500
 6092SOL    HW119175   3.599   0.073   3.553
 6092SOL    HW219176   3.577   0.235   3.548
 6093SOL     OW19177   1.531   3.496   2.595
 6093SOL    HW119178   1.580   3.515   2.510
 6093SOL    HW219179   1.434   3.480   2.575
 6094SOL     OW19180   3.928   1.052   1.171
 6094SOL    HW119181   3.910   1.047   1.073
 6094SOL    HW219182   3.889   0.972   1.216
 6095SOL     OW19183   4.030   3.467   6.661
 6095SOL    HW119184   4.065   3.455   6.568
 6095SOL    HW219185   3.939   3.427   6.668
 6096SOL     OW19186   5.924   0.749   3.881
 6096SOL    HW119187   5.837   0.733   3.833
 6096SOL    HW219188   5.916   0.716   3.975
 6097SOL     OW19189   1.702   0.202   2.202
 6097SOL    HW119190   1.646   0.120   2.216
 6097SOL    HW219191   1.662   0.258   2.130
 6098SOL     OW19192   1.265   2.684   6.501
 6098SOL    HW119193   1.206   2.607   6.525
 6098SOL    HW219194   1.361   2.657   6.513
 6099SOL     OW19195   6.986   6.005   0.331
 6099SOL    HW119196   6.963   6.069   0.257
 6099SOL    HW219197   0.044   6.034   0.375
 6100SOL     OW19198   4.884   3.613   6.971
 6100SOL    HW119199   4.835   3.700   6.978
 6100SOL    HW219200   4.980   3.627   6.997
 6101SOL     OW19201   6.012   1.977   4.535
 6101SOL    HW119202   5.932   1.938   4.489
 6101SOL    HW219203   6.069   1.904   4.572
 6102SOL     OW19204   3.444   0.042   3.336
 6102SOL    HW119205   3.503   0.096   3.397
 6102SOL    HW219206   3.412   6.987   3.384
 6103SOL     OW19207   0.701   2.467   2.515
 6103SOL    HW119208   0.634   2.402   2.552
 6103SOL    HW219209   0.679   2.487   2.419
 6104SOL     OW19210   5.893   1.323   5.269
 6104SOL    HW119211   5.992   1.331   5.285
 6104SOL    HW219212   5.852   1.270   5.343
 6105SOL     OW19213   1.549   0.710   5.379
 6105SOL    HW119214   1.590   0.695   5.289
 6105SOL    HW219215   1.524   0.806   5.389
 6106SOL     OW19216   1.540   3.923   5.481
 6106SOL    HW119217   1.565   3.874   5.564
 6106SOL    HW219218   1.617   3.980   5.452
 6107SOL     OW19219   2.641   4.612   4.095
 6107SOL    HW119220   2.661   4.533   4.153
 6107SOL    HW219221   2.545   4.611   4.069
 6108SOL     OW19222   1.050   2.496   1.927
 6108SOL    HW119223   0.968   2.449   1.962
 6108SOL    HW219224   1.076   2.457   1.839
 6109SOL     OW19225   4.851   3.022   6.671
 6109SOL    HW119226   4.814   3.053   6.583
 6109SOL    HW219227   4.828   2.926   6.685
 6110SOL     OW19228   3.652   2.817   6.899
 6110SOL    HW119229   3.621   2.858   6.813
 6110SOL    HW219230   3.573   2.783   6.950
 6111SOL     OW19231   2.480   4.474   2.171
 6111SOL    HW119232   2.546   4.434   2.108
 6111SOL    HW219233   2.447   4.404   2.234
 6112SOL     OW19234   3.204   0.141   3.251
 6112SOL    HW119235   3.117   0.093   3.258
 6112SOL    HW219236   3.268   0.103   3.318
 6113SOL     OW19237   1.344   0.866   6.087
 6113SOL    HW119238   1.268   0.881   6.150
 6113SOL    HW219239   1.430   0.882   6.135
 6114SOL     OW19240   4.745   5.154   0.913
 6114SOL    HW119241   4.664   5.103   0.941
 6114SOL    HW219242   4.718   5.243   0.877
 6115SOL     OW19243   4.920   6.998   3.567
 6115SOL    HW119244   5.004   6.944   3.557
 6115SOL    HW219245   4.884   7.020   3.477
 6116SOL     OW19246   3.097   0.632   0.283
 6116SOL    HW119247   2.999   0.651   0.291
 6116SOL    HW219248   3.130   0.665   0.194
 6117SOL     OW19249   6.924   0.640   5.770
 6117SOL    HW119250   6.934   0.738   5.752
 6117SOL    HW219251   6.997   0.589   5.725
 6118SOL     OW19252   6.174   0.628   1.759
 6118SOL    HW119253   6.098   0.575   1.798
 6118SOL    HW219254   6.244   0.642   1.830
 6119SOL     OW19255   0.568   3.594   5.430
 6119SOL    HW119256   0.593   3.544   5.513
 6119SOL    HW219257   0.624   3.677   5.423
 6120SOL     OW19258   4.313   6.867   4.221
 6120SOL    HW119259   4.267   6.812   4.291
 6120SOL    HW219260   4.403   6.826   4.201
 6121SOL     OW19261   0.873   3.390   5.026
 6121SOL    HW119262   0.828   3.301   5.023
 6121SOL    HW219263   0.905   3.408   5.120
 6122SOL     OW19264   3.923   0.070   1.506
 6122SOL    HW119265   3.953   0.004   1.574
 6122SOL    HW219266   3.970   0.157   1.521
 6123SOL     OW19267   6.713   0.432   6.534
 6123SOL    HW119268   6.633   0.492   6.540
 6123SOL    HW219269   6.683   0.336   6.532
 6124SOL     OW19270   2.348   1.226   6.888
 6124SOL    HW119271   2.387   1.134   6.897
 6124SOL    HW219272   2.248   1.221   6.895
 6125SOL     OW19273   2.265   6.018   0.229
 6125SOL    HW119274   2.209   5.954   0.175
 6125SOL    HW219275   2.208   6.095   0.259
 6126SOL     OW19276   6.941   6.697   4.351
 6126SOL    HW119277   6.857   6.648   4.329
 6126SOL    HW219278   6.996   6.708   4.268
 6127SOL     OW19279   2.925   0.100   2.291
 6127SOL    HW119280   2.937   0.072   2.195
 6127SOL    HW219281   2.994   0.053   2.347
 6128SOL     OW19282   6.250   3.700   0.862
 6128SOL    HW119283   6.241   3.687   0.763
 6128SOL    HW219284   6.334   3.656   0.894
 6129SOL     OW19285   6.740   3.457   2.806
 6129SOL    HW119286   6.775   3.461   2.900
 6129SOL    HW219287   6.654   3.508   2.801
 6130SOL     OW19288   6.383   2.077   4.071
 6130SOL    HW119289   6.303   2.085   4.011
 6130SOL    HW219290   6.465   2.067   4.015
 6131SOL     OW19291   0.098   1.750   5.346
 6131SOL    HW119292   0.034   1.826   5.357
 6131SOL    HW219293   0.161   1.748   5.424
 6132SOL     OW19294   4.954   1.248   0.329
 6132SOL    HW119295   4.999   1.261   0.417
 6132SOL    HW219296   4.855   1.253   0.341
 6133SOL     OW19297   0.953   2.290   2.509
 6133SOL    HW119298   0.985   2.324   2.420
 6133SOL    HW219299   0.858   2.316   2.523
 6134SOL     OW19300   3.986   4.323   6.423
 6134SOL    HW119301   3.921   4.337   6.348
 6134SOL    HW219302   4.010   4.226   6.429
 6135SOL     OW19303   0.431   6.998   1.852
 6135SOL    HW119304   0.453   0.069   1.862
 6135SOL    HW219305   0.507   6.943   1.887
 6136SOL     OW19306   1.097   2.660   2.118
 6136SOL    HW119307   1.084   2.582   2.058
 6136SOL    HW219308   1.052   2.740   2.079
 6137SOL     OW19309   5.479   2.182   3.936
 6137SOL    HW119310   5.466   2.277   3.963
 6137SOL    HW219311   5.572   2.153   3.957
 6138SOL     OW19312   4.529   6.187   1.891
 6138SOL    HW119313   4.454   6.247   1.921
 6138SOL    HW219314   4.585   6.237   1.825
 6139SOL     OW19315   2.176   1.831   5.468
 6139SOL    HW119316   2.103   1.842   5.535
 6139SOL    HW219317   2.240   1.761   5.499
 6140SOL     OW19318   0.721   6.232   1.670
 6140SOL    HW119319   0.703   6.134   1.677
 6140SOL    HW219320   0.635   6.283   1.668
 6141SOL     OW19321   5.788   5.629   6.477
 6141SOL    HW119322   5.715   5.670   6.423
 6141SOL    HW219323   5.809   5.539   6.441
 6142SOL     OW19324   0.112   4.936   0.977
 6142SOL    HW119325   0.053   5.006   1.017
 6142SOL    HW219326   0.131   4.865   1.045
 6143SOL     OW19327   6.016   4.863   0.541
 6143SOL    HW119328   6.029   4.800   0.464
 6143SOL    HW219329   6.000   4.955   0.505
 6144SOL     OW19330   6.395   4.778   2.977
 6144SOL    HW119331   6.303   4.747   3.001
 6144SOL    HW219332   6.423   4.736   2.891
 6145SOL     OW19333   4.563   5.367   4.100
 6145SOL    HW119334   4.657   5.397   4.085
 6145SOL    HW219335   4.555   5.270   4.080
 6146SOL     OW19336   3.697   0.446   3.705
 6146SOL    HW119337   3.696   0.520   3.637
 6146SOL    HW219338   3.611   0.396   3.701
 6147SOL     OW19339   1.550   3.794   4.586
 6147SOL    HW119340   1.527   3.841   4.501
 6147SOL    HW219341   1.624   3.730   4.570
 6148SOL     OW19342   0.164   6.991   4.935
 6148SOL    HW119343   0.255   7.004   4.898
 6148SOL    HW219344   0.122   0.053   4.955
 6149SOL     OW19345   3.727   5.105   1.604
 6149SOL    HW119346   3.748   5.014   1.570
 6149SOL    HW219347   3.637   5.104   1.648
 6150SOL     OW19348   4.043   4.591   6.796
 6150SOL    HW119349   4.142   4.601   6.804
 6150SOL    HW219350   4.021   4.497   6.770
 6151SOL     OW19351   6.122   3.943   5.657
 6151SOL    HW119352   6.076   4.020   5.613
 6151SOL    HW219353   6.059   3.866   5.663
 6152SOL     OW19354   5.750   5.739   5.344
 6152SOL    HW119355   5.821   5.759   5.411
 6152SOL    HW219356   5.790   5.694   5.264
 6153SOL     OW19357   4.963   3.947   2.032
 6153SOL    HW119358   5.006   3.936   1.943
 6153SOL    HW219359   4.972   3.863   2.084
 6154SOL     OW19360   5.768   1.618   2.663
 6154SOL    HW119361   5.867   1.606   2.657
 6154SOL    HW219362   5.748   1.715   2.677
 6155SOL     OW19363   1.707   2.395   4.566
 6155SOL    HW119364   1.686   2.331   4.639
 6155SOL    HW219365   1.676   2.487   4.592
 6156SOL     OW19366   4.636   4.762   1.976
 6156SOL    HW119367   4.624   4.677   2.027
 6156SOL    HW219368   4.570   4.830   2.008
 6157SOL     OW19369   1.202   1.345   4.483
 6157SOL    HW119370   1.174   1.389   4.569
 6157SOL    HW219371   1.269   1.273   4.503
 6158SOL     OW19372   4.585   0.731   5.794
 6158SOL    HW119373   4.515   0.662   5.807
 6158SOL    HW219374   4.596   0.784   5.878
 6159SOL     OW19375   4.853   1.935   1.505
 6159SOL    HW119376   4.907   1.954   1.587
 6159SOL    HW219377   4.898   1.975   1.425
 6160SOL     OW19378   4.528   6.875   6.334
 6160SOL    HW119379   4.563   6.939   6.402
 6160SOL    HW219380   4.604   6.844   6.276
 6161SOL     OW19381   5.803   1.114   5.045
 6161SOL    HW119382   5.708   1.140   5.025
 6161SOL    HW219383   5.843   1.180   5.108
 6162SOL     OW19384   1.333   6.338   3.494
 6162SOL    HW119385   1.394   6.307   3.421
 6162SOL    HW219386   1.384   6.395   3.558
 6163SOL     OW19387   5.682   6.072   1.520
 6163SOL    HW119388   5.768   6.070   1.469
 6163SOL    HW219389   5.698   6.109   1.611
 6164SOL     OW19390   3.025   2.663   1.737
 6164SOL    HW119391   3.041   2.628   1.644
 6164SOL    HW219392   2.979   2.592   1.791
 6165SOL     OW19393   4.996   0.207   6.594
 6165SOL    HW119394   4.946   0.212   6.508
 6165SOL    HW219395   4.956   0.270   6.660
 6166SOL     OW19396   4.118   0.989   6.501
 6166SOL    HW119397   4.018   0.993   6.496
 6166SOL    HW219398   4.153   1.066   6.554
 6167SOL     OW19399   0.943   3.769   3.344
 6167SOL    HW119400   1.001   3.845   3.374
 6167SOL    HW219401   0.967   3.687   3.397
 6168SOL     OW19402   0.709   3.703   0.916
 6168SOL    HW119403   0.622   3.672   0.878
 6168SOL    HW219404   0.776   3.630   0.910
 6169SOL     OW19405   1.818   2.875   1.373
 6169SOL    HW119406   1.821   2.959   1.426
 6169SOL    HW219407   1.776   2.802   1.427
 6170SOL     OW19408   1.054   3.688   5.498
 6170SOL    HW119409   1.094   3.700   5.407
 6170SOL    HW219410   1.091   3.757   5.560
 6171SOL     OW19411   0.246   2.473   0.457
 6171SOL    HW119412   0.345   2.488   0.466
 6171SOL    HW219413   0.230   2.380   0.424
 6172SOL     OW19414   1.479   3.196   2.408
 6172SOL    HW119415   1.481   3.102   2.376
 6172SOL    HW219416   1.500   3.198   2.506
 6173SOL     OW19417   6.518   5.014   2.883
 6173SOL    HW119418   6.458   4.946   2.926
 6173SOL    HW219419   6.595   5.034   2.943
 6174SOL     OW19420   5.380   6.044   3.924
 6174SOL    HW119421   5.350   6.080   4.012
 6174SOL    HW219422   5.302   6.039   3.862
 6175SOL     OW19423   4.044   0.808   3.869
 6175SOL    HW119424   4.034   0.728   3.810
 6175SOL    HW219425   4.069   0.887   3.813
 6176SOL     OW19426   5.603   4.575   5.598
 6176SOL    HW119427   5.538   4.629   5.546
 6176SOL    HW219428   5.615   4.486   5.553
 6177SOL     OW19429   5.433   1.736   1.985
 6177SOL    HW119430   5.477   1.648   1.965
 6177SOL    HW219431   5.446   1.797   1.907
 6178SOL     OW19432   5.420   5.157   2.089
 6178SOL    HW119433   5.511   5.182   2.057
 6178SOL    HW219434   5.400   5.062   2.065
 6179SOL     OW19435   6.868   4.379   3.074
 6179SOL    HW119436   6.916   4.294   3.093
 6179SOL    HW219437   6.856   4.431   3.158
 6180SOL     OW19438   2.481   4.896   1.048
 6180SOL    HW119439   2.512   4.877   0.955
 6180SOL    HW219440   2.420   4.975   1.047
 6181SOL     OW19441   4.664   6.312   6.006
 6181SOL    HW119442   4.763   6.325   6.015
 6181SOL    HW219443   4.643   6.287   5.911
 6182SOL     OW19444   4.364   3.065   5.917
 6182SOL    HW119445   4.357   2.967   5.898
 6182SOL    HW219446   4.273   3.106   5.912
 6183SOL     OW19447   1.732   2.239   3.741
 6183SOL    HW119448   1.804   2.225   3.810
 6183SOL    HW219449   1.773   2.239   3.650
 6184SOL     OW19450   2.886   6.426   6.407
 6184SOL    HW119451   2.907   6.521   6.429
 6184SOL    HW219452   2.885   6.414   6.308
 6185SOL     OW19453   0.070   3.713   6.620
 6185SOL    HW119454   0.147   3.763   6.661
 6185SOL    HW219455   7.019   3.712   6.684
 6186SOL     OW19456   6.084   1.473   0.462
 6186SOL    HW119457   6.075   1.547   0.529
 6186SOL    HW219458   6.177   1.437   0.465
 6187SOL     OW19459   5.053   3.107   4.311
 6187SOL    HW119460   5.143   3.086   4.350
 6187SOL    HW219461   5.002   3.023   4.297
 6188SOL     OW19462   1.664   1.403   6.181
 6188SOL    HW119463   1.693   1.312   6.209
 6188SOL    HW219464   1.739   1.468   6.195
 6189SOL     OW19465   4.169   5.196   2.678
 6189SOL    HW119466   4.084   5.237   2.714
 6189SOL    HW219467   4.164   5.097   2.686
 6190SOL     OW19468   0.031   4.128   4.640
 6190SOL    HW119469   0.079   4.062   4.582
 6190SOL    HW219470   7.003   4.079   4.708
 6191SOL     OW19471   2.902   2.825   6.526
 6191SOL    HW119472   2.871   2.886   6.453
 6191SOL    HW219473   2.936   2.740   6.485
 6192SOL     OW19474   2.375   1.904   6.458
 6192SOL    HW119475   2.294   1.896   6.399
 6192SOL    HW219476   2.347   1.928   6.551
 6193SOL     OW19477   4.738   5.967   1.286
 6193SOL    HW119478   4.684   5.972   1.370
 6193SOL    HW219479   4.780   5.876   1.279
 6194SOL     OW19480   0.080   0.457   6.385
 6194SOL    HW119481   0.122   0.368   6.364
 6194SOL    HW219482   7.007   0.450   6.375
 6195SOL     OW19483   4.771   5.641   4.169
 6195SOL    HW119484   4.820   5.728   4.172
 6195SOL    HW219485   4.827   5.569   4.209
 6196SOL     OW19486   5.001   4.223   2.084
 6196SOL    HW119487   4.977   4.128   2.067
 6196SOL    HW219488   5.084   4.247   2.034
 6197SOL     OW19489   2.224   5.739   1.661
 6197SOL    HW119490   2.241   5.720   1.564
 6197SOL    HW219491   2.155   5.676   1.696
 6198SOL     OW19492   4.655   7.004   0.958
 6198SOL    HW119493   4.609   0.051   1.008
 6198SOL    HW219494   4.750   0.004   0.940
 6199SOL     OW19495   0.328   1.046   0.352
 6199SOL    HW119496   0.302   1.083   0.263
 6199SOL    HW219497   0.294   0.952   0.361
 6200SOL     OW19498   0.855   1.662   5.579
 6200SOL    HW119499   0.765   1.701   5.560
 6200SOL    HW219500   0.857   1.625   5.671
 6201SOL     OW19501   0.880   3.570   5.673
 6201SOL    HW119502   0.928   3.620   5.602
 6201SOL    HW219503   0.946   3.528   5.736
 6202SOL     OW19504   5.064   1.096   2.060
 6202SOL    HW119505   5.024   1.038   1.988
 6202SOL    HW219506   5.155   1.061   2.083
 6203SOL     OW19507   6.026   5.855   2.099
 6203SOL    HW119508   6.001   5.859   2.195
 6203SOL    HW219509   6.124   5.838   2.091
 6204SOL     OW19510   0.924   5.881   4.739
 6204SOL    HW119511   0.986   5.948   4.698
 6204SOL    HW219512   0.965   5.845   4.823
 6205SOL     OW19513   6.344   5.050   1.493
 6205SOL    HW119514   6.274   5.019   1.558
 6205SOL    HW219515   6.302   5.061   1.403
 6206SOL     OW19516   6.099   1.613   2.322
 6206SOL    HW119517   6.124   1.587   2.229
 6206SOL    HW219518   6.069   1.531   2.373
 6207SOL     OW19519   2.398   5.976   5.317
 6207SOL    HW119520   2.397   5.923   5.232
 6207SOL    HW219521   2.484   5.960   5.365
 6208SOL     OW19522   3.805   2.306   5.436
 6208SOL    HW119523   3.823   2.247   5.515
 6208SOL    HW219524   3.729   2.367   5.455
 6209SOL     OW19525   3.022   5.788   6.716
 6209SOL    HW119526   3.093   5.814   6.651
 6209SOL    HW219527   2.941   5.845   6.702
 6210SOL     OW19528   4.838   3.988   2.889
 6210SOL    HW119529   4.761   4.040   2.925
 6210SOL    HW219530   4.860   3.913   2.951
 6211SOL     OW19531   2.816   6.598   5.381
 6211SOL    HW119532   2.887   6.659   5.416
 6211SOL    HW219533   2.788   6.534   5.453
 6212SOL     OW19534   2.796   4.759   4.435
 6212SOL    HW119535   2.844   4.798   4.514
 6212SOL    HW219536   2.729   4.692   4.467
 6213SOL     OW19537   4.751   6.789   6.959
 6213SOL    HW119538   4.847   6.798   6.984
 6213SOL    HW219539   4.698   6.763   0.014
 6214SOL     OW19540   5.510   5.983   5.600
 6214SOL    HW119541   5.475   6.042   5.672
 6214SOL    HW219542   5.451   5.903   5.591
 6215SOL     OW19543   3.597   3.026   6.699
 6215SOL    HW119544   3.590   2.982   6.609
 6215SOL    HW219545   3.586   3.125   6.688
 6216SOL     OW19546   6.183   2.339   2.346
 6216SOL    HW119547   6.185   2.439   2.345
 6216SOL    HW219548   6.088   2.308   2.348
 6217SOL     OW19549   0.941   4.386   3.073
 6217SOL    HW119550   0.932   4.289   3.094
 6217SOL    HW219551   0.939   4.399   2.974
 6218SOL     OW19552   3.687   0.088   6.812
 6218SOL    HW119553   3.697   0.017   6.741
 6218SOL    HW219554   3.645   0.048   6.893
 6219SOL     OW19555   1.013   1.156   4.664
 6219SOL    HW119556   1.001   1.113   4.574
 6219SOL    HW219557   1.104   1.133   4.700
 6220SOL     OW19558   3.057   1.284   5.486
 6220SOL    HW119559   3.152   1.305   5.507
 6220SOL    HW219560   3.000   1.307   5.565
 6221SOL     OW19561   5.993   0.394   0.197
 6221SOL    HW119562   6.036   0.311   0.161
 6221SOL    HW219563   6.024   0.473   0.145
 6222SOL     OW19564   0.874   0.658   2.280
 6222SOL    HW119565   0.894   0.561   2.291
 6222SOL    HW219566   0.919   0.692   2.197
 6223SOL     OW19567   1.457   5.102   3.005
 6223SOL    HW119568   1.450   5.045   2.923
 6223SOL    HW219569   1.366   5.136   3.029
 6224SOL     OW19570   3.883   0.839   6.097
 6224SOL    HW119571   3.957   0.882   6.149
 6224SOL    HW219572   3.906   0.839   6.000
 6225SOL     OW19573   3.523   2.532   6.869
 6225SOL    HW119574   3.475   2.584   6.939
 6225SOL    HW219575   3.481   2.551   6.780
 6226SOL     OW19576   1.313   1.596   4.111
 6226SOL    HW119577   1.352   1.677   4.154
 6226SOL    HW219578   1.270   1.538   4.180
 6227SOL     OW19579   3.683   5.334   5.412
 6227SOL    HW119580   3.758   5.292   5.361
 6227SOL    HW219581   3.625   5.263   5.451
 6228SOL     OW19582   0.969   2.622   2.499
 6228SOL    HW119583   0.875   2.597   2.478
 6228SOL    HW219584   1.032   2.574   2.436
 6229SOL     OW19585   0.787   3.104   5.028
 6229SOL    HW119586   0.864   3.040   5.032
 6229SOL    HW219587   0.725   3.086   5.104
 6230SOL     OW19588   0.982   2.231   3.553
 6230SOL    HW119589   0.981   2.147   3.500
 6230SOL    HW219590   1.030   2.216   3.639
 6231SOL     OW19591   5.682   4.911   0.156
 6231SOL    HW119592   5.683   4.889   0.254
 6231SOL    HW219593   5.755   4.860   0.110
 6232SOL     OW19594   6.189   1.669   0.236
 6232SOL    HW119595   6.262   1.666   0.167
 6232SOL    HW219596   6.223   1.633   0.322
 6233SOL     OW19597   5.886   2.624   1.933
 6233SOL    HW119598   5.872   2.635   1.834
 6233SOL    HW219599   5.970   2.573   1.950
 6234SOL     OW19600   0.159   7.015   5.583
 6234SOL    HW119601   0.061   0.008   5.582
 6234SOL    HW219602   0.181   6.947   5.513
 6235SOL     OW19603   0.409   0.342   1.596
 6235SOL    HW119604   0.392   0.255   1.550
 6235SOL    HW219605   0.323   0.383   1.625
 6236SOL     OW19606   0.291   4.483   0.781
 6236SOL    HW119607   0.316   4.535   0.863
 6236SOL    HW219608   0.273   4.388   0.807
 6237SOL     OW19609   3.787   0.277   6.944
 6237SOL    HW119610   3.725   0.286   7.022
 6237SOL    HW219611   3.743   0.223   6.872
 6238SOL     OW19612   4.485   6.339   3.060
 6238SOL    HW119613   4.472   6.428   3.104
 6238SOL    HW219614   4.582   6.323   3.044
 6239SOL     OW19615   3.937   0.994   0.875
 6239SOL    HW119616   3.995   0.945   0.810
 6239SOL    HW219617   3.939   1.092   0.855
 6240SOL     OW19618   3.205   3.621   5.445
 6240SOL    HW119619   3.256   3.671   5.515
 6240SOL    HW219620   3.269   3.580   5.379
 6241SOL     OW19621   3.765   0.756   3.246
 6241SOL    HW119622   3.721   0.666   3.240
 6241SOL    HW219623   3.845   0.749   3.306
 6242SOL     OW19624   3.784   0.274   3.198
 6242SOL    HW119625   3.817   0.276   3.292
 6242SOL    HW219626   3.774   0.179   3.168
 6243SOL     OW19627   6.981   0.059   6.147
 6243SOL    HW119628   6.968   7.022   6.071
 6243SOL    HW219629   6.984   0.153   6.112
 6244SOL     OW19630   5.294   3.758   3.327
 6244SOL    HW119631   5.291   3.660   3.306
 6244SOL    HW219632   5.332   3.771   3.419
 6245SOL     OW19633   1.505   4.043   1.689
 6245SOL    HW119634   1.572   4.021   1.618
 6245SOL    HW219635   1.472   4.137   1.676
 6246SOL     OW19636   1.250   1.052   4.741
 6246SOL    HW119637   1.329   1.110   4.719
 6246SOL    HW219638   1.279   0.979   4.802
 6247SOL     OW19639   1.841   6.407   3.519
 6247SOL    HW119640   1.798   6.404   3.609
 6247SOL    HW219641   1.855   6.314   3.485
 6248SOL     OW19642   3.528   3.700   0.396
 6248SOL    HW119643   3.565   3.610   0.372
 6248SOL    HW219644   3.598   3.752   0.444
 6249SOL     OW19645   6.863   2.999   0.884
 6249SOL    HW119646   6.814   2.949   0.955
 6249SOL    HW219647   6.803   3.069   0.845
 6250SOL     OW19648   6.523   6.943   0.921
 6250SOL    HW119649   6.619   6.969   0.913
 6250SOL    HW219650   6.470   6.991   0.851
 6251SOL     OW19651   4.030   5.943   4.607
 6251SOL    HW119652   3.952   5.968   4.665
 6251SOL    HW219653   4.098   6.016   4.610
 6252SOL     OW19654   2.615   4.492   7.009
 6252SOL    HW119655   2.653   4.402   0.004
 6252SOL    HW219656   2.515   4.486   7.006
 6253SOL     OW19657   2.599   4.984   4.459
 6253SOL    HW119658   2.537   5.045   4.410
 6253SOL    HW219659   2.636   4.916   4.396
 6254SOL     OW19660   6.558   0.249   0.933
 6254SOL    HW119661   6.481   0.198   0.970
 6254SOL    HW219662   6.641   0.194   0.940
 6255SOL     OW19663   2.429   1.599   0.854
 6255SOL    HW119664   2.489   1.664   0.806
 6255SOL    HW219665   2.370   1.650   0.917
 6256SOL     OW19666   4.315   5.125   2.377
 6256SOL    HW119667   4.235   5.184   2.388
 6256SOL    HW219668   4.381   5.146   2.449
 6257SOL     OW19669   4.117   2.825   0.359
 6257SOL    HW119670   4.135   2.744   0.416
 6257SOL    HW219671   4.019   2.844   0.359
 6258SOL     OW19672   3.158   6.642   4.801
 6258SOL    HW119673   3.114   6.727   4.829
 6258SOL    HW219674   3.240   6.627   4.857
 6259SOL     OW19675   1.927   0.916   6.233
 6259SOL    HW119676   1.894   0.851   6.165
 6259SOL    HW219677   1.895   0.888   6.324
 6260SOL     OW19678   3.536   0.110   0.286
 6260SOL    HW119679   3.541   0.053   0.204
 6260SOL    HW219680   3.607   0.180   0.282
 6261SOL     OW19681   4.750   6.803   0.534
 6261SOL    HW119682   4.759   6.886   0.588
 6261SOL    HW219683   4.752   6.723   0.594
 6262SOL     OW19684   1.647   5.864   2.252
 6262SOL    HW119685   1.659   5.765   2.263
 6262SOL    HW219686   1.737   5.907   2.239
 6263SOL     OW19687   0.871   6.517   5.263
 6263SOL    HW119688   0.806   6.511   5.187
 6263SOL    HW219689   0.826   6.556   5.343
 6264SOL     OW19690   2.000   0.344   1.715
 6264SOL    HW119691   2.090   0.323   1.676
 6264SOL    HW219692   2.007   0.425   1.772
 6265SOL     OW19693   4.709   3.470   0.456
 6265SOL    HW119694   4.648   3.416   0.398
 6265SOL    HW219695   4.769   3.526   0.399
 6266SOL     OW19696   4.431   6.564   3.204
 6266SOL    HW119697   4.502   6.593   3.268
 6266SOL    HW219698   4.371   6.641   3.183
 6267SOL     OW19699   2.167   0.045   4.704
 6267SOL    HW119700   2.255   0.049   4.657
 6267SOL    HW219701   2.160   6.987   4.757
 6268SOL     OW19702   3.272   0.684   1.773
 6268SOL    HW119703   3.352   0.716   1.823
 6268SOL    HW219704   3.244   0.595   1.809
 6269SOL     OW19705   6.094   0.038   2.350
 6269SOL    HW119706   6.193   0.031   2.363
 6269SOL    HW219707   6.076   0.081   2.261
 6270SOL     OW19708   0.377   0.220   0.013
 6270SOL    HW119709   0.304   0.152   0.004
 6270SOL    HW219710   0.459   0.175   0.049
 6271SOL     OW19711   6.379   2.480   5.904
 6271SOL    HW119712   6.304   2.443   5.849
 6271SOL    HW219713   6.453   2.509   5.844
 6272SOL     OW19714   0.627   1.793   0.277
 6272SOL    HW119715   0.681   1.765   0.356
 6272SOL    HW219716   0.626   1.719   0.209
 6273SOL     OW19717   0.035   5.533   2.763
 6273SOL    HW119718   0.040   5.434   2.780
 6273SOL    HW219719   0.085   5.582   2.834
 6274SOL     OW19720   3.152   7.024   4.426
 6274SOL    HW119721   3.189   0.055   4.353
 6274SOL    HW219722   3.185   6.930   4.415
 6275SOL     OW19723   1.851   6.041   0.618
 6275SOL    HW119724   1.925   5.993   0.666
 6275SOL    HW219725   1.854   6.138   0.642
 6276SOL     OW19726   3.145   5.512   3.545
 6276SOL    HW119727   3.062   5.485   3.594
 6276SOL    HW219728   3.120   5.561   3.461
 6277SOL     OW19729   4.743   2.364   0.881
 6277SOL    HW119730   4.717   2.455   0.912
 6277SOL    HW219731   4.690   2.295   0.931
 6278SOL     OW19732   3.865   0.653   4.967
 6278SOL    HW119733   3.962   0.647   4.943
 6278SOL    HW219734   3.832   0.563   4.995
 6279SOL     OW19735   4.068   6.003   0.790
 6279SOL    HW119736   4.003   6.058   0.738
 6279SOL    HW219737   4.025   5.915   0.813
 6280SOL     OW19738   0.369   1.583   6.576
 6280SOL    HW119739   0.292   1.548   6.521
 6280SOL    HW219740   0.333   1.623   6.661
 6281SOL     OW19741   6.512   4.741   4.072
 6281SOL    HW119742   6.552   4.756   4.163
 6281SOL    HW219743   6.577   4.692   4.015
 6282SOL     OW19744   5.896   3.097   4.879
 6282SOL    HW119745   5.989   3.113   4.845
 6282SOL    HW219746   5.887   3.135   4.971
 6283SOL     OW19747   0.855   4.286   4.366
 6283SOL    HW119748   0.814   4.195   4.360
 6283SOL    HW219749   0.799   4.352   4.317
 6284SOL     OW19750   1.282   5.429   6.786
 6284SOL    HW119751   1.298   5.379   6.701
 6284SOL    HW219752   1.368   5.472   6.815
 6285SOL     OW19753   0.761   3.059   3.175
 6285SOL    HW119754   0.844   3.061   3.231
 6285SOL    HW219755   0.756   2.971   3.126
 6286SOL     OW19756   0.705   3.273   4.501
 6286SOL    HW119757   0.762   3.273   4.419
 6286SOL    HW219758   0.651   3.357   4.504
 6287SOL     OW19759   3.503   5.127   5.226
 6287SOL    HW119760   3.477   5.154   5.318
 6287SOL    HW219761   3.459   5.186   5.159
 6288SOL     OW19762   5.216   4.858   1.466
 6288SOL    HW119763   5.194   4.763   1.446
 6288SOL    HW219764   5.135   4.904   1.504
 6289SOL     OW19765   2.321   4.677   6.658
 6289SOL    HW119766   2.257   4.729   6.601
 6289SOL    HW219767   2.343   4.731   6.739
 6290SOL     OW19768   6.148   5.567   6.254
 6290SOL    HW119769   6.074   5.554   6.187
 6290SOL    HW219770   6.135   5.504   6.330
 6291SOL     OW19771   3.339   3.702   3.531
 6291SOL    HW119772   3.415   3.704   3.595
 6291SOL    HW219773   3.321   3.608   3.502
 6292SOL     OW19774   2.541   2.079   5.415
 6292SOL    HW119775   2.556   2.163   5.362
 6292SOL    HW219776   2.586   2.002   5.370
 6293SOL     OW19777   4.439   1.805   0.794
 6293SOL    HW119778   4.441   1.713   0.754
 6293SOL    HW219779   4.419   1.872   0.721
 6294SOL     OW19780   4.299   0.230   3.532
 6294SOL    HW119781   4.225   0.163   3.540
 6294SOL    HW219782   4.326   0.259   3.624
 6295SOL     OW19783   5.318   4.949   4.722
 6295SOL    HW119784   5.362   4.915   4.805
 6295SOL    HW219785   5.375   4.928   4.642
 6296SOL     OW19786   0.171   4.311   5.366
 6296SOL    HW119787   0.138   4.399   5.399
 6296SOL    HW219788   0.262   4.293   5.402
 6297SOL     OW19789   6.222   0.539   5.271
 6297SOL    HW119790   6.124   0.553   5.283
 6297SOL    HW219791   6.248   0.562   5.177
 6298SOL     OW19792   0.082   3.946   6.290
 6298SOL    HW119793   0.075   3.851   6.260
 6298SOL    HW219794   0.088   4.006   6.210
 6299SOL     OW19795   5.467   2.691   1.878
 6299SOL    HW119796   5.559   2.709   1.843
 6299SOL    HW219797   5.420   2.778   1.894
 6300SOL     OW19798   6.238   0.696   6.734
 6300SOL    HW119799   6.185   0.625   6.688
 6300SOL    HW219800   6.230   0.782   6.683
 6301SOL     OW19801   2.971   6.052   6.472
 6301SOL    HW119802   3.001   6.125   6.534
 6301SOL    HW219803   2.872   6.038   6.484
 6302SOL     OW19804   2.031   1.529   5.513
 6302SOL    HW119805   2.023   1.629   5.511
 6302SOL    HW219806   2.094   1.502   5.586
 6303SOL     OW19807   0.403   6.229   6.146
 6303SOL    HW119808   0.393   6.263   6.053
 6303SOL    HW219809   0.426   6.306   6.207
 6304SOL     OW19810   3.487   1.496   3.412
 6304SOL    HW119811   3.472   1.410   3.461
 6304SOL    HW219812   3.411   1.558   3.430
 6305SOL     OW19813   5.975   5.906   0.658
 6305SOL    HW119814   6.033   5.935   0.734
 6305SOL    HW219815   6.019   5.830   0.610
 6306SOL     OW19816   0.510   3.808   4.095
 6306SOL    HW119817   0.415   3.819   4.067
 6306SOL    HW219818   0.566   3.788   4.014
 6307SOL     OW19819   3.393   2.928   3.920
 6307SOL    HW119820   3.378   2.957   4.015
 6307SOL    HW219821   3.486   2.892   3.910
 6308SOL     OW19822   1.173   1.955   5.688
 6308SOL    HW119823   1.135   1.905   5.611
 6308SOL    HW219824   1.197   2.048   5.660
 6309SOL     OW19825   0.167   0.042   4.292
 6309SOL    HW119826   0.169   0.110   4.365
 6309SOL    HW219827   0.258   7.025   4.283
 6310SOL     OW19828   2.195   6.580   2.495
 6310SOL    HW119829   2.173   6.667   2.450
 6310SOL    HW219830   2.131   6.564   2.570
 6311SOL     OW19831   5.085   1.926   6.108
 6311SOL    HW119832   5.012   1.906   6.173
 6311SOL    HW219833   5.106   1.844   6.054
 6312SOL     OW19834   0.720   6.333   5.887
 6312SOL    HW119835   0.729   6.268   5.963
 6312SOL    HW219836   0.645   6.304   5.827
 6313SOL     OW19837   6.228   6.878   2.784
 6313SOL    HW119838   6.134   6.900   2.756
 6313SOL    HW219839   6.258   6.943   2.853
 6314SOL     OW19840   3.035   6.825   2.210
 6314SOL    HW119841   3.028   6.888   2.132
 6314SOL    HW219842   3.035   6.878   2.295
 6315SOL     OW19843   3.014   1.860   4.851
 6315SOL    HW119844   3.087   1.826   4.792
 6315SOL    HW219845   2.926   1.855   4.803
 6316SOL     OW19846   4.355   2.026   5.447
 6316SOL    HW119847   4.258   2.008   5.466
 6316SOL    HW219848   4.365   2.120   5.414
 6317SOL     OW19849   4.988   3.724   2.458
 6317SOL    HW119850   4.978   3.812   2.503
 6317SOL    HW219851   5.002   3.738   2.360
 6318SOL     OW19852   4.580   0.164   6.244
 6318SOL    HW119853   4.512   0.091   6.237
 6318SOL    HW219854   4.557   0.237   6.180
 6319SOL     OW19855   6.628   1.922   5.183
 6319SOL    HW119856   6.596   1.996   5.241
 6319SOL    HW219857   6.710   1.951   5.134
 6320SOL     OW19858   6.932   6.572   4.862
 6320SOL    HW119859   7.015   6.611   4.902
 6320SOL    HW219860   6.868   6.646   4.840
 6321SOL     OW19861   5.131   3.198   0.321
 6321SOL    HW119862   5.155   3.101   0.320
 6321SOL    HW219863   5.074   3.219   0.242
 6322SOL     OW19864   2.765   2.781   0.416
 6322SOL    HW119865   2.829   2.777   0.493
 6322SOL    HW219866   2.723   2.691   0.402
 6323SOL     OW19867   1.416   2.214   1.538
 6323SOL    HW119868   1.510   2.237   1.511
 6323SOL    HW219869   1.353   2.242   1.466
 6324SOL     OW19870   4.210   1.457   0.304
 6324SOL    HW119871   4.203   1.513   0.387
 6324SOL    HW219872   4.125   1.407   0.290
 6325SOL     OW19873   2.125   3.245   2.914
 6325SOL    HW119874   2.191   3.173   2.936
 6325SOL    HW219875   2.033   3.206   2.914
 6326SOL     OW19876   5.702   5.291   6.844
 6326SOL    HW119877   5.792   5.328   6.823
 6326SOL    HW219878   5.639   5.365   6.866
 6327SOL     OW19879   0.241   1.770   4.126
 6327SOL    HW119880   0.209   1.721   4.045
 6327SOL    HW219881   0.335   1.742   4.147
 6328SOL     OW19882   4.239   3.367   6.826
 6328SOL    HW119883   4.272   3.277   6.797
 6328SOL    HW219884   4.175   3.403   6.758
 6329SOL     OW19885   1.228   2.791   5.233
 6329SOL    HW119886   1.144   2.843   5.244
 6329SOL    HW219887   1.228   2.745   5.144
 6330SOL     OW19888   5.840   6.973   1.842
 6330SOL    HW119889   5.937   6.998   1.843
 6330SOL    HW219890   5.795   7.015   1.763
 6331SOL     OW19891   6.574   3.643   4.961
 6331SOL    HW119892   6.592   3.545   4.951
 6331SOL    HW219893   6.479   3.663   4.937
 6332SOL     OW19894   0.884   3.000   1.136
 6332SOL    HW119895   0.899   2.970   1.231
 6332SOL    HW219896   0.853   3.095   1.136
 6333SOL     OW19897   4.462   0.197   5.507
 6333SOL    HW119898   4.419   0.200   5.597
 6333SOL    HW219899   4.507   0.108   5.494
 6334SOL     OW19900   3.133   1.216   2.377
 6334SOL    HW119901   3.205   1.148   2.385
 6334SOL    HW219902   3.168   1.296   2.327
 6335SOL     OW19903   4.266   0.647   0.294
 6335SOL    HW119904   4.304   0.589   0.222
 6335SOL    HW219905   4.174   0.677   0.268
 6336SOL     OW19906   0.392   2.989   6.547
 6336SOL    HW119907   0.357   3.022   6.459
 6336SOL    HW219908   0.350   3.042   6.621
 6337SOL     OW19909   4.041   5.369   4.947
 6337SOL    HW119910   4.057   5.361   4.848
 6337SOL    HW219911   3.996   5.457   4.965
 6338SOL     OW19912   2.724   2.316   4.409
 6338SOL    HW119913   2.633   2.318   4.449
 6338SOL    HW219914   2.762   2.223   4.418
 6339SOL     OW19915   0.927   3.666   3.958
 6339SOL    HW119916   1.017   3.649   3.997
 6339SOL    HW219917   0.856   3.635   4.021
 6340SOL     OW19918   2.389   4.159   1.468
 6340SOL    HW119919   2.293   4.167   1.492
 6340SOL    HW219920   2.401   4.089   1.397
 6341SOL     OW19921   6.833   3.760   4.282
 6341SOL    HW119922   6.853   3.842   4.335
 6341SOL    HW219923   6.918   3.714   4.258
 6342SOL     OW19924   3.387   1.560   0.850
 6342SOL    HW119925   3.297   1.516   0.843
 6342SOL    HW219926   3.391   1.638   0.787
 6343SOL     OW19927   4.068   0.247   6.893
 6343SOL    HW119928   4.097   0.176   6.956
 6343SOL    HW219929   3.970   0.264   6.904
 6344SOL     OW19930   5.570   1.865   4.400
 6344SOL    HW119931   5.610   1.956   4.392
 6344SOL    HW219932   5.500   1.853   4.329
 6345SOL     OW19933   4.620   2.800   1.726
 6345SOL    HW119934   4.565   2.718   1.745
 6345SOL    HW219935   4.592   2.874   1.787
 6346SOL     OW19936   6.944   5.320   4.699
 6346SOL    HW119937   6.990   5.399   4.738
 6346SOL    HW219938   7.008   5.243   4.692
 6347SOL     OW19939   2.011   1.274   1.241
 6347SOL    HW119940   2.095   1.328   1.248
 6347SOL    HW219941   2.026   1.183   1.280
 6348SOL     OW19942   1.141   3.182   6.100
 6348SOL    HW119943   1.065   3.242   6.075
 6348SOL    HW219944   1.153   3.112   6.030
 6349SOL     OW19945   1.861   0.605   0.733
 6349SOL    HW119946   1.914   0.542   0.791
 6349SOL    HW219947   1.772   0.622   0.775
 6350SOL     OW19948   0.834   4.840   3.792
 6350SOL    HW119949   0.871   4.750   3.770
 6350SOL    HW219950   0.736   4.832   3.809
 6351SOL     OW19951   6.488   3.695   3.204
 6351SOL    HW119952   6.481   3.701   3.303
 6351SOL    HW219953   6.522   3.782   3.167
 6352SOL     OW19954   2.427   0.280   4.759
 6352SOL    HW119955   2.351   0.344   4.770
 6352SOL    HW219956   2.491   0.317   4.691
 6353SOL     OW19957   1.827   6.260   7.001
 6353SOL    HW119958   1.778   6.195   6.943
 6353SOL    HW219959   1.926   6.243   6.994
 6354SOL     OW19960   3.484   6.020   2.860
 6354SOL    HW119961   3.430   6.077   2.922
 6354SOL    HW219962   3.559   6.073   2.821
 6355SOL     OW19963   2.843   5.590   0.110
 6355SOL    HW119964   2.885   5.591   0.019
 6355SOL    HW219965   2.913   5.569   0.179
 6356SOL     OW19966   5.609   4.768   0.401
 6356SOL    HW119967   5.521   4.726   0.380
 6356SOL    HW219968   5.656   4.716   0.473
 6357SOL     OW19969   6.544   2.788   2.315
 6357SOL    HW119970   6.566   2.738   2.231
 6357SOL    HW219971   6.449   2.818   2.311
 6358SOL     OW19972   0.158   1.962   6.477
 6358SOL    HW119973   0.094   1.959   6.554
 6358SOL    HW219974   0.179   2.057   6.453
 6359SOL     OW19975   6.273   6.654   0.662
 6359SOL    HW119976   6.362   6.660   0.708
 6359SOL    HW219977   6.203   6.627   0.727
 6360SOL     OW19978   1.073   3.445   4.414
 6360SOL    HW119979   1.137   3.483   4.347
 6360SOL    HW219980   1.116   3.368   4.461
 6361SOL     OW19981   1.142   0.886   1.063
 6361SOL    HW119982   1.185   0.872   1.152
 6361SOL    HW219983   1.180   0.968   1.020
 6362SOL     OW19984   1.192   5.956   6.482
 6362SOL    HW119985   1.254   5.942   6.559
 6362SOL    HW219986   1.243   5.997   6.406
 6363SOL     OW19987   3.002   5.503   4.102
 6363SOL    HW119988   3.013   5.574   4.173
 6363SOL    HW219989   2.906   5.498   4.074
 6364SOL     OW19990   2.875   2.817   5.576
 6364SOL    HW119991   2.879   2.812   5.676
 6364SOL    HW219992   2.793   2.770   5.543
 6365SOL     OW19993   5.674   6.577   4.196
 6365SOL    HW119994   5.737   6.654   4.207
 6365SOL    HW219995   5.639   6.575   4.102
 6366SOL     OW19996   0.380   5.664   5.413
 6366SOL    HW119997   0.352   5.568   5.421
 6366SOL    HW219998   0.317   5.721   5.466
 6367SOL     OW19999   3.257   2.149   2.760
 6367SOL    HW120000   3.188   2.160   2.688
 6367SOL    HW220001   3.342   2.194   2.733
 6368SOL     OW20002   4.279   4.724   4.443
 6368SOL    HW120003   4.284   4.717   4.543
 6368SOL    HW220004   4.185   4.745   4.416
 6369SOL     OW20005   1.892   0.601   4.537
 6369SOL    HW120006   1.793   0.613   4.526
 6369SOL    HW220007   1.911   0.554   4.623
 6370SOL     OW20008   5.210   4.445   3.465
 6370SOL    HW120009   5.302   4.409   3.482
 6370SOL    HW220010   5.164   4.388   3.397
 6371SOL     OW20011   5.278   4.312   2.334
 6371SOL    HW120012   5.200   4.251   2.341
 6371SOL    HW220013   5.275   4.361   2.247
 6372SOL     OW20014   1.175   1.489   2.436
 6372SOL    HW120015   1.222   1.402   2.427
 6372SOL    HW220016   1.127   1.511   2.351
 6373SOL     OW20017   5.636   4.334   2.874
 6373SOL    HW120018   5.613   4.402   2.804
 6373SOL    HW220019   5.558   4.274   2.889
 6374SOL     OW20020   4.975   3.466   1.024
 6374SOL    HW120021   4.986   3.563   0.999
 6374SOL    HW220022   4.885   3.434   0.995
 6375SOL     OW20023   0.441   2.337   2.050
 6375SOL    HW120024   0.530   2.309   2.088
 6375SOL    HW220025   0.442   2.325   1.951
 6376SOL     OW20026   3.901   1.709   6.135
 6376SOL    HW120027   3.877   1.785   6.075
 6376SOL    HW220028   3.822   1.684   6.190
 6377SOL     OW20029   0.319   1.886   5.584
 6377SOL    HW120030   0.308   1.960   5.518
 6377SOL    HW220031   0.284   1.915   5.673
 6378SOL     OW20032   5.687   5.398   3.650
 6378SOL    HW120033   5.679   5.300   3.629
 6378SOL    HW220034   5.683   5.410   3.749
 6379SOL     OW20035   0.548   4.939   5.848
 6379SOL    HW120036   0.521   4.846   5.872
 6379SOL    HW220037   0.644   4.940   5.821
 6380SOL     OW20038   6.898   2.253   4.769
 6380SOL    HW120039   6.878   2.339   4.722
 6380SOL    HW220040   6.846   2.249   4.854
 6381SOL     OW20041   4.112   2.912   0.670
 6381SOL    HW120042   4.160   2.941   0.753
 6381SOL    HW220043   4.146   2.965   0.592
 6382SOL     OW20044   3.338   2.023   1.062
 6382SOL    HW120045   3.422   2.075   1.074
 6382SOL    HW220046   3.275   2.044   1.138
 6383SOL     OW20047   1.919   3.140   2.255
 6383SOL    HW120048   1.853   3.082   2.208
 6383SOL    HW220049   2.012   3.117   2.225
 6384SOL     OW20050   5.856   3.135   2.545
 6384SOL    HW120051   5.757   3.127   2.540
 6384SOL    HW220052   5.888   3.196   2.472
 6385SOL     OW20053   6.327   4.170   2.632
 6385SOL    HW120054   6.321   4.110   2.552
 6385SOL    HW220055   6.236   4.184   2.670
 6386SOL     OW20056   2.100   3.272   6.856
 6386SOL    HW120057   2.133   3.194   6.804
 6386SOL    HW220058   2.000   3.274   6.855
 6387SOL     OW20059   5.909   1.637   0.255
 6387SOL    HW120060   5.852   1.555   0.254
 6387SOL    HW220061   6.005   1.611   0.264
 6388SOL     OW20062   5.735   5.486   1.824
 6388SOL    HW120063   5.784   5.413   1.873
 6388SOL    HW220064   5.732   5.568   1.880
 6389SOL     OW20065   1.032   0.268   1.035
 6389SOL    HW120066   1.055   0.341   0.971
 6389SOL    HW220067   0.949   0.221   1.004
 6390SOL     OW20068   6.372   0.151   5.801
 6390SOL    HW120069   6.368   0.251   5.802
 6390SOL    HW220070   6.415   0.120   5.715
 6391SOL     OW20071   1.757   1.000   6.029
 6391SOL    HW120072   1.760   0.901   6.040
 6391SOL    HW220073   1.679   1.037   6.081
 6392SOL     OW20074   3.181   5.926   3.180
 6392SOL    HW120075   3.269   5.973   3.184
 6392SOL    HW220076   3.153   5.915   3.085
 6393SOL     OW20077   6.089   5.753   1.691
 6393SOL    HW120078   6.176   5.726   1.732
 6393SOL    HW220079   6.084   5.715   1.598
 6394SOL     OW20080   2.175   5.668   0.787
 6394SOL    HW120081   2.168   5.752   0.840
 6394SOL    HW220082   2.258   5.618   0.813
 6395SOL     OW20083   6.736   3.587   1.948
 6395SOL    HW120084   6.716   3.512   2.012
 6395SOL    HW220085   6.827   3.575   1.911
 6396SOL     OW20086   6.668   3.850   6.166
 6396SOL    HW120087   6.718   3.806   6.092
 6396SOL    HW220088   6.618   3.928   6.131
 6397SOL     OW20089   6.262   1.225   2.177
 6397SOL    HW120090   6.269   1.255   2.081
 6397SOL    HW220091   6.340   1.167   2.200
 6398SOL     OW20092   1.937   6.943   1.843
 6398SOL    HW120093   1.935   0.014   1.866
 6398SOL    HW220094   1.845   6.913   1.818
 6399SOL     OW20095   1.310   0.366   6.645
 6399SOL    HW120096   1.348   0.287   6.597
 6399SOL    HW220097   1.226   0.340   6.692
 6400SOL     OW20098   2.100   4.901   2.587
 6400SOL    HW120099   2.154   4.979   2.622
 6400SOL    HW220100   2.039   4.933   2.514
 6401SOL     OW20101   5.701   5.199   2.990
 6401SOL    HW120102   5.720   5.275   3.053
 6401SOL    HW220103   5.744   5.116   3.024
 6402SOL     OW20104   2.326   2.846   4.007
 6402SOL    HW120105   2.365   2.819   3.919
 6402SOL    HW220106   2.298   2.765   4.058
 6403SOL     OW20107   6.152   6.044   5.973
 6403SOL    HW120108   6.204   6.097   5.906
 6403SOL    HW220109   6.212   6.017   6.048
 6404SOL     OW20110   4.702   1.141   2.707
 6404SOL    HW120111   4.662   1.232   2.698
 6404SOL    HW220112   4.794   1.141   2.669
 6405SOL     OW20113   4.593   1.146   4.683
 6405SOL    HW120114   4.595   1.240   4.715
 6405SOL    HW220115   4.567   1.085   4.758
 6406SOL     OW20116   1.274   2.726   1.784
 6406SOL    HW120117   1.184   2.686   1.802
 6406SOL    HW220118   1.300   2.786   1.860
 6407SOL     OW20119   2.161   0.059   4.285
 6407SOL    HW120120   2.210   0.011   4.213
 6407SOL    HW220121   2.214   0.055   4.370
 6408SOL     OW20122   5.518   0.899   1.102
 6408SOL    HW120123   5.489   0.939   1.189
 6408SOL    HW220124   5.575   0.964   1.052
 6409SOL     OW20125   7.011   4.976   2.817
 6409SOL    HW120126   0.064   4.961   2.758
 6409SOL    HW220127   6.927   4.959   2.765
 6410SOL     OW20128   2.000   1.154   5.972
 6410SOL    HW120129   1.926   1.102   6.016
 6410SOL    HW220130   2.059   1.193   6.043
 6411SOL     OW20131   1.268   2.780   2.326
 6411SOL    HW120132   1.203   2.750   2.256
 6411SOL    HW220133   1.232   2.862   2.372
 6412SOL     OW20134   2.275   0.605   6.453
 6412SOL    HW120135   2.361   0.636   6.413
 6412SOL    HW220136   2.240   0.527   6.401
 6413SOL     OW20137   3.720   4.930   4.207
 6413SOL    HW120138   3.764   4.905   4.121
 6413SOL    HW220139   3.622   4.938   4.193
 6414SOL     OW20140   5.897   0.201   6.904
 6414SOL    HW120141   5.973   0.189   6.969
 6414SOL    HW220142   5.818   0.240   6.952
 6415SOL     OW20143   1.333   3.610   3.870
 6415SOL    HW120144   1.299   3.691   3.824
 6415SOL    HW220145   1.433   3.609   3.866
 6416SOL     OW20146   2.204   6.431   6.046
 6416SOL    HW120147   2.254   6.375   6.111
 6416SOL    HW220148   2.260   6.446   5.964
 6417SOL     OW20149   5.256   3.166   0.671
 6417SOL    HW120150   5.261   3.228   0.750
 6417SOL    HW220151   5.195   3.204   0.602
 6418SOL     OW20152   5.160   4.238   2.757
 6418SOL    HW120153   5.235   4.244   2.691
 6418SOL    HW220154   5.074   4.223   2.708
 6419SOL     OW20155   1.488   5.657   3.514
 6419SOL    HW120156   1.421   5.628   3.446
 6419SOL    HW220157   1.440   5.703   3.590
 6420SOL     OW20158   2.233   1.315   4.118
 6420SOL    HW120159   2.187   1.308   4.029
 6420SOL    HW220160   2.166   1.342   4.188
 6421SOL     OW20161   3.976   0.498   0.754
 6421SOL    HW120162   4.053   0.464   0.808
 6421SOL    HW220163   3.935   0.423   0.703
 6422SOL     OW20164   6.430   1.690   4.990
 6422SOL    HW120165   6.505   1.691   4.925
 6422SOL    HW220166   6.382   1.778   4.987
 6423SOL     OW20167   4.955   5.590   4.903
 6423SOL    HW120168   4.977   5.502   4.859
 6423SOL    HW220169   5.040   5.639   4.923
 6424SOL     OW20170   1.239   4.201   5.006
 6424SOL    HW120171   1.215   4.177   4.913
 6424SOL    HW220172   1.265   4.298   5.010
 6425SOL     OW20173   6.751   5.847   3.239
 6425SOL    HW120174   6.740   5.939   3.277
 6425SOL    HW220175   6.840   5.839   3.194
 6426SOL     OW20176   6.127   5.322   3.669
 6426SOL    HW120177   6.076   5.312   3.754
 6426SOL    HW220178   6.085   5.263   3.599
 6427SOL     OW20179   3.036   3.725   3.359
 6427SOL    HW120180   2.998   3.684   3.442
 6427SOL    HW220181   2.992   3.684   3.279
 6428SOL     OW20182   5.527   3.110   0.320
 6428SOL    HW120183   5.518   3.196   0.368
 6428SOL    HW220184   5.517   3.125   0.221
 6429SOL     OW20185   0.613   1.064   5.841
 6429SOL    HW120186   0.555   1.144   5.858
 6429SOL    HW220187   0.559   0.993   5.794
 6430SOL     OW20188   6.617   0.980   4.310
 6430SOL    HW120189   6.549   0.918   4.272
 6430SOL    HW220190   6.625   1.061   4.251
 6431SOL     OW20191   4.583   5.951   3.275
 6431SOL    HW120192   4.626   5.956   3.185
 6431SOL    HW220193   4.499   5.898   3.269
 6432SOL     OW20194   4.120   4.400   5.846
 6432SOL    HW120195   4.210   4.375   5.883
 6432SOL    HW220196   4.108   4.358   5.756
 6433SOL     OW20197   3.158   4.771   0.509
 6433SOL    HW120198   3.157   4.671   0.507
 6433SOL    HW220199   3.179   4.806   0.417
 6434SOL     OW20200   2.555   0.303   6.503
 6434SOL    HW120201   2.487   0.281   6.432
 6434SOL    HW220202   2.616   0.374   6.469
 6435SOL     OW20203   5.829   6.865   0.928
 6435SOL    HW120204   5.879   6.852   0.842
 6435SOL    HW220205   5.731   6.855   0.910
 6436SOL     OW20206   1.401   3.590   3.013
 6436SOL    HW120207   1.448   3.548   3.090
 6436SOL    HW220208   1.446   3.675   2.988
 6437SOL     OW20209   1.541   2.848   0.012
 6437SOL    HW120210   1.488   2.798   0.081
 6437SOL    HW220211   1.504   2.829   6.947
 6438SOL     OW20212   0.333   4.917   6.253
 6438SOL    HW120213   0.332   4.937   6.155
 6438SOL    HW220214   0.428   4.917   6.286
 6439SOL     OW20215   5.183   0.775   2.204
 6439SOL    HW120216   5.237   0.720   2.267
 6439SOL    HW220217   5.102   0.723   2.175
 6440SOL     OW20218   3.045   0.983   6.003
 6440SOL    HW120219   3.122   0.942   6.053
 6440SOL    HW220220   3.074   1.005   5.910
 6441SOL     OW20221   0.988   0.831   1.522
 6441SOL    HW120222   0.991   0.733   1.502
 6441SOL    HW220223   0.927   0.848   1.599
 6442SOL     OW20224   3.115   1.665   4.443
 6442SOL    HW120225   3.108   1.593   4.374
 6442SOL    HW220226   3.082   1.630   4.531
 6443SOL     OW20227   3.233   3.102   5.738
 6443SOL    HW120228   3.287   3.029   5.782
 6443SOL    HW220229   3.222   3.080   5.641
 6444SOL     OW20230   6.065   2.196   4.406
 6444SOL    HW120231   6.163   2.204   4.386
 6444SOL    HW220232   6.045   2.104   4.439
 6445SOL     OW20233   3.867   3.344   3.333
 6445SOL    HW120234   3.770   3.320   3.339
 6445SOL    HW220235   3.907   3.341   3.425
 6446SOL     OW20236   0.357   1.891   0.457
 6446SOL    HW120237   0.348   1.821   0.386
 6446SOL    HW220238   0.442   1.942   0.442
 6447SOL     OW20239   6.551   4.363   2.079
 6447SOL    HW120240   6.491   4.309   2.138
 6447SOL    HW220241   6.608   4.302   2.024
 6448SOL     OW20242   5.355   4.982   1.671
 6448SOL    HW120243   5.317   4.933   1.592
 6448SOL    HW220244   5.283   4.997   1.738
 6449SOL     OW20245   2.856   5.602   1.956
 6449SOL    HW120246   2.921   5.635   2.025
 6449SOL    HW220247   2.888   5.627   1.865
 6450SOL     OW20248   0.864   4.026   0.453
 6450SOL    HW120249   0.788   3.961   0.452
 6450SOL    HW220250   0.830   4.117   0.431
 6451SOL     OW20251   2.455   1.226   5.652
 6451SOL    HW120252   2.539   1.188   5.691
 6451SOL    HW220253   2.378   1.165   5.672
 6452SOL     OW20254   4.799   4.010   2.359
 6452SOL    HW120255   4.770   4.090   2.306
 6452SOL    HW220256   4.727   3.940   2.356
 6453SOL     OW20257   2.831   0.500   1.316
 6453SOL    HW120258   2.892   0.472   1.241
 6453SOL    HW220259   2.883   0.500   1.402
 6454SOL     OW20260   0.641   1.318   2.764
 6454SOL    HW120261   0.618   1.222   2.747
 6454SOL    HW220262   0.627   1.339   2.860
 6455SOL     OW20263   6.509   3.029   3.667
 6455SOL    HW120264   6.454   2.956   3.707
 6455SOL    HW220265   6.589   3.045   3.725
 6456SOL     OW20266   1.585   0.601   2.873
 6456SOL    HW120267   1.574   0.529   2.941
 6456SOL    HW220268   1.572   0.562   2.781
 6457SOL     OW20269   5.292   0.428   1.457
 6457SOL    HW120270   5.318   0.487   1.381
 6457SOL    HW220271   5.204   0.385   1.438
 6458SOL     OW20272   1.386   5.548   4.586
 6458SOL    HW120273   1.331   5.534   4.669
 6458SOL    HW220274   1.381   5.645   4.559
 6459SOL     OW20275   6.275   2.738   2.495
 6459SOL    HW120276   6.195   2.793   2.522
 6459SOL    HW220277   6.268   2.715   2.398
 6460SOL     OW20278   6.033   5.593   5.781
 6460SOL    HW120279   6.101   5.534   5.825
 6460SOL    HW220280   5.941   5.565   5.808
 6461SOL     OW20281   2.934   4.446   6.777
 6461SOL    HW120282   2.916   4.348   6.766
 6461SOL    HW220283   2.927   4.490   6.688
 6462SOL     OW20284   1.210   3.215   4.480
 6462SOL    HW120285   1.129   3.199   4.423
 6462SOL    HW220286   1.231   3.132   4.533
 6463SOL     OW20287   5.514   0.067   0.389
 6463SOL    HW120288   5.557   0.156   0.405
 6463SOL    HW220289   5.427   0.062   0.439
 6464SOL     OW20290   1.874   5.916   5.248
 6464SOL    HW120291   1.777   5.939   5.255
 6464SOL    HW220292   1.904   5.926   5.154
 6465SOL     OW20293   0.211   3.003   2.701
 6465SOL    HW120294   0.220   3.094   2.663
 6465SOL    HW220295   0.120   2.967   2.680
 6466SOL     OW20296   6.505   0.854   6.708
 6466SOL    HW120297   6.470   0.763   6.727
 6466SOL    HW220298   6.485   0.879   6.613
 6467SOL     OW20299   4.097   0.136   1.135
 6467SOL    HW120300   4.189   0.097   1.131
 6467SOL    HW220301   4.050   0.118   1.049
 6468SOL     OW20302   3.473   6.992   2.011
 6468SOL    HW120303   3.438   6.919   1.952
 6468SOL    HW220304   3.476   6.959   2.106
 6469SOL     OW20305   3.719   2.097   3.552
 6469SOL    HW120306   3.739   2.144   3.467
 6469SOL    HW220307   3.779   2.017   3.560
 6470SOL     OW20308   5.853   2.574   0.955
 6470SOL    HW120309   5.824   2.499   1.014
 6470SOL    HW220310   5.835   2.551   0.859
 6471SOL     OW20311   0.845   6.276   5.617
 6471SOL    HW120312   0.850   6.364   5.665
 6471SOL    HW220313   0.876   6.204   5.679
 6472SOL     OW20314   6.397   5.745   2.906
 6472SOL    HW120315   6.411   5.702   2.995
 6472SOL    HW220316   6.299   5.758   2.890
 6473SOL     OW20317   2.004   1.838   5.249
 6473SOL    HW120318   2.051   1.845   5.160
 6473SOL    HW220319   2.072   1.827   5.321
 6474SOL     OW20320   4.501   5.655   5.858
 6474SOL    HW120321   4.579   5.700   5.902
 6474SOL    HW220322   4.438   5.723   5.824
 6475SOL     OW20323   5.934   4.040   3.647
 6475SOL    HW120324   5.951   4.134   3.675
 6475SOL    HW220325   6.021   3.991   3.641
 6476SOL     OW20326   4.892   2.948   7.019
 6476SOL    HW120327   4.906   2.919   6.925
 6476SOL    HW220328   4.927   2.878   0.055
 6477SOL     OW20329   6.421   5.336   1.173
 6477SOL    HW120330   6.449   5.400   1.101
 6477SOL    HW220331   6.419   5.384   1.261
 6478SOL     OW20332   3.142   6.455   2.708
 6478SOL    HW120333   3.097   6.454   2.797
 6478SOL    HW220334   3.241   6.445   2.720
 6479SOL     OW20335   3.647   5.663   4.180
 6479SOL    HW120336   3.692   5.680   4.092
 6479SOL    HW220337   3.669   5.738   4.243
 6480SOL     OW20338   2.538   0.796   0.255
 6480SOL    HW120339   2.628   0.827   0.226
 6480SOL    HW220340   2.503   0.856   0.327
 6481SOL     OW20341   3.516   2.351   1.699
 6481SOL    HW120342   3.449   2.296   1.748
 6481SOL    HW220343   3.602   2.353   1.750
 6482SOL     OW20344   6.385   2.227   6.771
 6482SOL    HW120345   6.354   2.227   6.676
 6482SOL    HW220346   6.378   2.320   6.807
 6483SOL     OW20347   0.237   6.389   3.023
 6483SOL    HW120348   0.282   6.337   2.951
 6483SOL    HW220349   0.253   6.345   3.111
 6484SOL     OW20350   2.948   1.363   2.834
 6484SOL    HW120351   2.985   1.333   2.922
 6484SOL    HW220352   2.979   1.302   2.762
 6485SOL     OW20353   2.097   5.388   4.015
 6485SOL    HW120354   2.093   5.288   4.011
 6485SOL    HW220355   2.170   5.417   4.077
 6486SOL     OW20356   1.439   5.388   2.432
 6486SOL    HW120357   1.496   5.354   2.358
 6486SOL    HW220358   1.379   5.460   2.398
 6487SOL     OW20359   1.299   6.776   5.634
 6487SOL    HW120360   1.249   6.853   5.675
 6487SOL    HW220361   1.310   6.704   5.703
 6488SOL     OW20362   3.996   5.525   4.600
 6488SOL    HW120363   4.060   5.525   4.524
 6488SOL    HW220364   4.035   5.574   4.677
 6489SOL     OW20365   3.217   3.478   6.312
 6489SOL    HW120366   3.199   3.489   6.215
 6489SOL    HW220367   3.283   3.547   6.342
 6490SOL     OW20368   3.227   0.834   6.222
 6490SOL    HW120369   3.129   0.832   6.242
 6490SOL    HW220370   3.269   0.908   6.274
 6491SOL     OW20371   3.308   0.644   1.308
 6491SOL    HW120372   3.343   0.612   1.396
 6491SOL    HW220373   3.284   0.564   1.252
 6492SOL     OW20374   3.625   3.788   5.031
 6492SOL    HW120375   3.614   3.824   5.124
 6492SOL    HW220376   3.540   3.800   4.980
 6493SOL     OW20377   1.308   4.360   6.423
 6493SOL    HW120378   1.308   4.321   6.330
 6493SOL    HW220379   1.260   4.448   6.421
 6494SOL     OW20380   6.887   6.933   2.795
 6494SOL    HW120381   6.808   6.930   2.857
 6494SOL    HW220382   6.871   6.869   2.719
 6495SOL     OW20383   0.087   0.902   4.313
 6495SOL    HW120384   0.046   0.934   4.229
 6495SOL    HW220385   0.148   0.825   4.293
 6496SOL     OW20386   5.772   0.665   2.353
 6496SOL    HW120387   5.686   0.680   2.304
 6496SOL    HW220388   5.802   0.570   2.339
 6497SOL     OW20389   0.772   0.552   1.294
 6497SOL    HW120390   0.830   0.592   1.365
 6497SOL    HW220391   0.680   0.538   1.331
 6498SOL     OW20392   0.915   3.604   4.587
 6498SOL    HW120393   0.986   3.565   4.528
 6498SOL    HW220394   0.937   3.586   4.683
 6499SOL     OW20395   5.373   3.585   5.119
 6499SOL    HW120396   5.399   3.505   5.065
 6499SOL    HW220397   5.283   3.616   5.090
 6500SOL     OW20398   0.195   4.008   2.997
 6500SOL    HW120399   0.194   3.911   2.974
 6500SOL    HW220400   0.124   4.056   2.944
 6501SOL     OW20401   6.811   1.421   0.910
 6501SOL    HW120402   6.746   1.405   0.984
 6501SOL    HW220403   6.763   1.461   0.832
 6502SOL     OW20404   0.145   3.700   1.666
 6502SOL    HW120405   0.234   3.745   1.659
 6502SOL    HW220406   0.103   3.695   1.576
 6503SOL     OW20407   5.680   0.965   3.901
 6503SOL    HW120408   5.660   0.991   3.995
 6503SOL    HW220409   5.778   0.948   3.891
 6504SOL     OW20410   3.535   6.487   6.232
 6504SOL    HW120411   3.519   6.565   6.293
 6504SOL    HW220412   3.560   6.407   6.286
 6505SOL     OW20413   5.253   6.082   6.216
 6505SOL    HW120414   5.196   6.036   6.285
 6505SOL    HW220415   5.229   6.179   6.212
 6506SOL     OW20416   6.974   2.841   3.402
 6506SOL    HW120417   6.953   2.854   3.306
 6506SOL    HW220418   0.017   2.770   3.412
 6507SOL     OW20419   2.687   6.053   6.188
 6507SOL    HW120420   2.764   6.114   6.167
 6507SOL    HW220421   2.717   5.958   6.177
 6508SOL     OW20422   2.022   0.391   3.095
 6508SOL    HW120423   2.044   0.427   3.005
 6508SOL    HW220424   2.079   0.310   3.113
 6509SOL     OW20425   4.694   1.970   4.816
 6509SOL    HW120426   4.726   1.876   4.826
 6509SOL    HW220427   4.744   2.029   4.880
 6510SOL     OW20428   5.382   5.144   6.898
 6510SOL    HW120429   5.322   5.104   6.967
 6510SOL    HW220430   5.423   5.071   6.843
 6511SOL     OW20431   4.398   1.202   4.897
 6511SOL    HW120432   4.450   1.119   4.879
 6511SOL    HW220433   4.456   1.269   4.943
 6512SOL     OW20434   3.502   6.931   2.258
 6512SOL    HW120435   3.552   6.953   2.342
 6512SOL    HW220436   3.477   6.834   2.259
 6513SOL     OW20437   1.782   5.671   3.892
 6513SOL    HW120438   1.691   5.686   3.852
 6513SOL    HW220439   1.844   5.742   3.858
 6514SOL     OW20440   6.093   0.964   4.088
 6514SOL    HW120441   6.058   0.981   3.996
 6514SOL    HW220442   6.078   0.868   4.113
 6515SOL     OW20443   1.496   3.340   3.554
 6515SOL    HW120444   1.542   3.392   3.482
 6515SOL    HW220445   1.503   3.242   3.534
 6516SOL     OW20446   0.388   3.154   1.270
 6516SOL    HW120447   0.462   3.091   1.296
 6516SOL    HW220448   0.399   3.178   1.173
 6517SOL     OW20449   6.839   1.979   1.752
 6517SOL    HW120450   6.909   1.975   1.681
 6517SOL    HW220451   6.883   1.982   1.842
 6518SOL     OW20452   0.694   0.258   1.628
 6518SOL    HW120453   0.777   0.310   1.649
 6518SOL    HW220454   0.614   0.316   1.642
 6519SOL     OW20455   0.276   1.473   2.890
 6519SOL    HW120456   0.328   1.446   2.808
 6519SOL    HW220457   0.188   1.427   2.889
 6520SOL     OW20458   6.915   4.899   0.047
 6520SOL    HW120459   6.900   4.995   0.073
 6520SOL    HW220460   7.005   4.869   0.079
 6521SOL     OW20461   2.237   2.822   4.416
 6521SOL    HW120462   2.255   2.910   4.372
 6521SOL    HW220463   2.283   2.819   4.505
 6522SOL     OW20464   2.690   4.654   5.267
 6522SOL    HW120465   2.616   4.588   5.274
 6522SOL    HW220466   2.769   4.611   5.224
 6523SOL     OW20467   3.962   0.552   6.662
 6523SOL    HW120468   3.872   0.562   6.704
 6523SOL    HW220469   3.968   0.610   6.581
 6524SOL     OW20470   2.661   3.075   1.338
 6524SOL    HW120471   2.626   2.982   1.325
 6524SOL    HW220472   2.748   3.071   1.387
 6525SOL     OW20473   1.827   4.927   2.959
 6525SOL    HW120474   1.884   5.004   2.931
 6525SOL    HW220475   1.736   4.960   2.983
 6526SOL     OW20476   0.940   0.351   1.676
 6526SOL    HW120477   0.954   0.440   1.718
 6526SOL    HW220478   1.026   0.319   1.635
 6527SOL     OW20479   6.665   2.203   6.787
 6527SOL    HW120480   6.570   2.235   6.783
 6527SOL    HW220481   6.687   2.177   6.881
 6528SOL     OW20482   6.176   1.357   5.258
 6528SOL    HW120483   6.226   1.367   5.344
 6528SOL    HW220484   6.239   1.329   5.185
 6529SOL     OW20485   2.280   0.195   2.868
 6529SOL    HW120486   2.326   0.283   2.876
 6529SOL    HW220487   2.193   0.207   2.820
 6530SOL     OW20488   6.866   1.963   1.183
 6530SOL    HW120489   6.837   1.944   1.276
 6530SOL    HW220490   6.793   2.010   1.134
 6531SOL     OW20491   4.922   3.346   4.966
 6531SOL    HW120492   5.016   3.381   4.973
 6531SOL    HW220493   4.858   3.422   4.976
 6532SOL     OW20494   1.337   1.450   1.376
 6532SOL    HW120495   1.393   1.473   1.297
 6532SOL    HW220496   1.274   1.375   1.352
 6533SOL     OW20497   4.238   5.913   0.465
 6533SOL    HW120498   4.253   5.966   0.549
 6533SOL    HW220499   4.307   5.938   0.397
 6534SOL     OW20500   4.585   5.027   1.439
 6534SOL    HW120501   4.531   5.112   1.440
 6534SOL    HW220502   4.534   4.956   1.389
 6535SOL     OW20503   6.628   4.329   4.241
 6535SOL    HW120504   6.574   4.254   4.279
 6535SOL    HW220505   6.567   4.403   4.212
 6536SOL     OW20506   0.306   2.169   5.466
 6536SOL    HW120507   0.362   2.243   5.502
 6536SOL    HW220508   0.323   2.159   5.368
 6537SOL     OW20509   6.765   4.737   6.154
 6537SOL    HW120510   6.756   4.638   6.144
 6537SOL    HW220511   6.801   4.776   6.069
 6538SOL     OW20512   1.656   3.810   5.694
 6538SOL    HW120513   1.738   3.865   5.708
 6538SOL    HW220514   1.645   3.748   5.772
 6539SOL     OW20515   5.250   0.608   6.980
 6539SOL    HW120516   5.318   0.667   7.023
 6539SOL    HW220517   5.172   0.663   6.950
 6540SOL     OW20518   3.735   2.908   6.207
 6540SOL    HW120519   3.795   2.903   6.127
 6540SOL    HW220520   3.717   3.003   6.230
 6541SOL     OW20521   5.170   1.570   5.146
 6541SOL    HW120522   5.076   1.551   5.175
 6541SOL    HW220523   5.231   1.498   5.181
 6542SOL     OW20524   0.949   3.027   3.578
 6542SOL    HW120525   0.975   2.933   3.601
 6542SOL    HW220526   1.015   3.090   3.620
 6543SOL     OW20527   4.536   2.957   5.632
 6543SOL    HW120528   4.528   2.957   5.732
 6543SOL    HW220529   4.632   2.953   5.607
 6544SOL     OW20530   1.330   6.418   3.199
 6544SOL    HW120531   1.247   6.394   3.248
 6544SOL    HW220532   1.406   6.362   3.233
 6545SOL     OW20533   3.853   0.718   0.634
 6545SOL    HW120534   3.927   0.785   0.632
 6545SOL    HW220535   3.878   0.643   0.696
 6546SOL     OW20536   2.607   4.211   5.945
 6546SOL    HW120537   2.616   4.228   5.847
 6546SOL    HW220538   2.511   4.209   5.970
 6547SOL     OW20539   5.006   0.917   6.320
 6547SOL    HW120540   5.056   0.953   6.242
 6547SOL    HW220541   5.024   0.819   6.330
 6548SOL     OW20542   1.616   3.862   0.950
 6548SOL    HW120543   1.586   3.817   0.866
 6548SOL    HW220544   1.612   3.961   0.939
 6549SOL     OW20545   4.428   0.773   2.103
 6549SOL    HW120546   4.384   0.695   2.147
 6549SOL    HW220547   4.384   0.790   2.014
 6550SOL     OW20548   0.125   6.705   4.573
 6550SOL    HW120549   0.094   6.787   4.526
 6550SOL    HW220550   0.089   6.624   4.527
 6551SOL     OW20551   2.101   3.655   1.833
 6551SOL    HW120552   2.151   3.584   1.882
 6551SOL    HW220553   2.165   3.727   1.804
 6552SOL     OW20554   1.712   0.111   0.133
 6552SOL    HW120555   1.730   0.048   0.209
 6552SOL    HW220556   1.732   0.065   0.046
 6553SOL     OW20557   0.516   2.562   3.113
 6553SOL    HW120558   0.588   2.504   3.149
 6553SOL    HW220559   0.534   2.583   3.017
 6554SOL     OW20560   1.387   6.985   4.455
 6554SOL    HW120561   1.308   0.021   4.456
 6554SOL    HW220562   1.423   6.977   4.548
 6555SOL     OW20563   5.219   2.087   3.007
 6555SOL    HW120564   5.119   2.093   3.011
 6555SOL    HW220565   5.258   2.179   3.016
 6556SOL     OW20566   5.858   4.380   3.416
 6556SOL    HW120567   5.919   4.314   3.461
 6556SOL    HW220568   5.890   4.397   3.323
 6557SOL     OW20569   2.671   0.726   3.103
 6557SOL    HW120570   2.634   0.746   3.013
 6557SOL    HW220571   2.638   0.637   3.134
 6558SOL     OW20572   6.360   4.946   0.178
 6558SOL    HW120573   6.442   4.998   0.152
 6558SOL    HW220574   6.386   4.872   0.240
 6559SOL     OW20575   0.431   4.058   6.814
 6559SOL    HW120576   0.375   4.090   6.891
 6559SOL    HW220577   0.524   4.042   6.845
 6560SOL     OW20578   4.007   4.584   1.740
 6560SOL    HW120579   3.940   4.513   1.718
 6560SOL    HW220580   4.096   4.542   1.755
 6561SOL     OW20581   3.395   4.042   1.337
 6561SOL    HW120582   3.315   3.991   1.307
 6561SOL    HW220583   3.477   3.987   1.323
 6562SOL     OW20584   5.946   2.088   1.293
 6562SOL    HW120585   5.857   2.083   1.338
 6562SOL    HW220586   5.993   2.172   1.321
 6563SOL     OW20587   5.305   5.390   5.977
 6563SOL    HW120588   5.360   5.428   6.052
 6563SOL    HW220589   5.346   5.303   5.947
 6564SOL     OW20590   6.284   4.020   2.124
 6564SOL    HW120591   6.197   4.006   2.172
 6564SOL    HW220592   6.334   4.094   2.169
 6565SOL     OW20593   5.936   1.187   3.032
 6565SOL    HW120594   5.881   1.152   2.956
 6565SOL    HW220595   6.030   1.199   3.001
 6566SOL     OW20596   3.952   6.642   2.382
 6566SOL    HW120597   3.881   6.616   2.447
 6566SOL    HW220598   3.938   6.594   2.296
 6567SOL     OW20599   4.957   0.609   2.084
 6567SOL    HW120600   4.886   0.669   2.047
 6567SOL    HW220601   5.022   0.586   2.011
 6568SOL     OW20602   3.097   1.694   3.745
 6568SOL    HW120603   3.050   1.697   3.657
 6568SOL    HW220604   3.069   1.773   3.800
 6569SOL     OW20605   2.894   2.779   0.150
 6569SOL    HW120606   2.839   2.759   0.231
 6569SOL    HW220607   2.857   2.728   0.072
 6570SOL     OW20608   3.209   0.955   2.257
 6570SOL    HW120609   3.279   0.975   2.326
 6570SOL    HW220610   3.125   0.926   2.302
 6571SOL     OW20611   2.949   4.959   2.389
 6571SOL    HW120612   2.935   4.910   2.303
 6571SOL    HW220613   2.861   4.988   2.426
 6572SOL     OW20614   0.169   3.756   4.340
 6572SOL    HW120615   0.166   3.847   4.383
 6572SOL    HW220616   0.204   3.765   4.247
 6573SOL     OW20617   0.621   1.931   2.554
 6573SOL    HW120618   0.683   1.853   2.553
 6573SOL    HW220619   0.541   1.909   2.610
 6574SOL     OW20620   2.629   5.934   2.985
 6574SOL    HW120621   2.621   5.976   2.895
 6574SOL    HW220622   2.542   5.893   3.012
 6575SOL     OW20623   0.611   6.936   4.063
 6575SOL    HW120624   0.687   6.997   4.086
 6575SOL    HW220625   0.643   6.863   4.003
 6576SOL     OW20626   3.084   6.049   0.457
 6576SOL    HW120627   3.107   5.971   0.399
 6576SOL    HW220628   3.022   6.110   0.408
 6577SOL     OW20629   1.286   1.920   3.387
 6577SOL    HW120630   1.200   1.895   3.431
 6577SOL    HW220631   1.266   1.976   3.306
 6578SOL     OW20632   0.547   6.169   2.513
 6578SOL    HW120633   0.627   6.164   2.573
 6578SOL    HW220634   0.563   6.239   2.443
 6579SOL     OW20635   0.054   3.083   3.504
 6579SOL    HW120636   7.025   3.008   3.467
 6579SOL    HW220637   0.151   3.057   3.501
 6580SOL     OW20638   0.444   1.772   0.719
 6580SOL    HW120639   0.500   1.709   0.664
 6580SOL    HW220640   0.388   1.828   0.659
 6581SOL     OW20641   2.400   0.797   0.675
 6581SOL    HW120642   2.306   0.823   0.694
 6581SOL    HW220643   2.420   0.708   0.716
 6582SOL     OW20644   7.018   1.276   3.392
 6582SOL    HW120645   6.972   1.345   3.448
 6582SOL    HW220646   0.075   1.245   3.438
 6583SOL     OW20647   4.893   6.783   5.785
 6583SOL    HW120648   4.840   6.762   5.867
 6583SOL    HW220649   4.916   6.698   5.737
 6584SOL     OW20650   4.832   2.351   0.244
 6584SOL    HW120651   4.923   2.321   0.274
 6584SOL    HW220652   4.832   2.362   0.145
 6585SOL     OW20653   5.830   5.860   7.018
 6585SOL    HW120654   5.834   5.930   0.063
 6585SOL    HW220655   5.795   5.775   0.031
 6586SOL     OW20656   5.826   1.172   5.740
 6586SOL    HW120657   5.733   1.138   5.750
 6586SOL    HW220658   5.881   1.140   5.818
 6587SOL     OW20659   1.274   4.860   5.746
 6587SOL    HW120660   1.241   4.875   5.840
 6587SOL    HW220661   1.247   4.938   5.689
 6588SOL     OW20662   0.610   3.019   1.465
 6588SOL    HW120663   0.583   3.086   1.535
 6588SOL    HW220664   0.708   3.027   1.448
 6589SOL     OW20665   4.487   0.342   2.086
 6589SOL    HW120666   4.482   0.243   2.072
 6589SOL    HW220667   4.582   0.372   2.075
 6590SOL     OW20668   0.251   1.286   6.627
 6590SOL    HW120669   0.211   1.197   6.648
 6590SOL    HW220670   0.321   1.308   6.695
 6591SOL     OW20671   5.568   5.625   3.399
 6591SOL    HW120672   5.520   5.564   3.462
 6591SOL    HW220673   5.663   5.597   3.391
 6592SOL     OW20674   5.652   6.651   3.258
 6592SOL    HW120675   5.594   6.570   3.271
 6592SOL    HW220676   5.732   6.627   3.204
 6593SOL     OW20677   2.606   2.422   2.531
 6593SOL    HW120678   2.561   2.443   2.444
 6593SOL    HW220679   2.702   2.400   2.514
 6594SOL     OW20680   3.393   1.305   5.938
 6594SOL    HW120681   3.486   1.318   5.973
 6594SOL    HW220682   3.395   1.300   5.838
 6595SOL     OW20683   1.616   4.334   6.726
 6595SOL    HW120684   1.614   4.244   6.771
 6595SOL    HW220685   1.614   4.321   6.627
 6596SOL     OW20686   3.619   0.018   4.153
 6596SOL    HW120687   3.639   0.024   4.251
 6596SOL    HW220688   3.654   6.957   4.118
 6597SOL     OW20689   1.409   5.436   0.868
 6597SOL    HW120690   1.353   5.515   0.843
 6597SOL    HW220691   1.446   5.449   0.960
 6598SOL     OW20692   1.764   4.837   3.827
 6598SOL    HW120693   1.849   4.887   3.808
 6598SOL    HW220694   1.697   4.898   3.868
 6599SOL     OW20695   4.537   6.499   6.369
 6599SOL    HW120696   4.553   6.410   6.325
 6599SOL    HW220697   4.461   6.490   6.434
 6600SOL     OW20698   3.544   6.406   5.373
 6600SOL    HW120699   3.493   6.323   5.349
 6600SOL    HW220700   3.503   6.448   5.453
 6601SOL     OW20701   1.088   2.646   4.710
 6601SOL    HW120702   1.118   2.732   4.667
 6601SOL    HW220703   1.138   2.570   4.669
 6602SOL     OW20704   1.698   0.595   1.378
 6602SOL    HW120705   1.616   0.589   1.436
 6602SOL    HW220706   1.774   0.631   1.432
 6603SOL     OW20707   0.506   3.011   3.395
 6603SOL    HW120708   0.557   2.941   3.346
 6603SOL    HW220709   0.570   3.067   3.448
 6604SOL     OW20710   1.641   7.009   1.554
 6604SOL    HW120711   1.579   0.003   1.479
 6604SOL    HW220712   1.721   0.043   1.550
 6605SOL     OW20713   5.752   5.637   2.041
 6605SOL    HW120714   5.810   5.717   2.051
 6605SOL    HW220715   5.660   5.656   2.076
 6606SOL     OW20716   6.642   5.382   2.308
 6606SOL    HW120717   6.735   5.415   2.292
 6606SOL    HW220718   6.597   5.444   2.372
 6607SOL     OW20719   0.893   4.715   3.387
 6607SOL    HW120720   0.793   4.718   3.392
 6607SOL    HW220721   0.927   4.798   3.342
 6608SOL     OW20722   0.002   6.934   6.888
 6608SOL    HW120723   7.006   6.899   6.797
 6608SOL    HW220724   6.943   6.944   6.940
 6609SOL     OW20725   5.601   0.522   6.999
 6609SOL    HW120726   5.624   0.531   6.902
 6609SOL    HW220727   5.596   0.425   7.023
 6610SOL     OW20728   2.224   6.629   6.519
 6610SOL    HW120729   2.214   6.714   6.468
 6610SOL    HW220730   2.307   6.633   6.575
 6611SOL     OW20731   4.760   2.911   3.304
 6611SOL    HW120732   4.759   2.916   3.403
 6611SOL    HW220733   4.702   2.834   3.274
 6612SOL     OW20734   6.520   2.068   6.119
 6612SOL    HW120735   6.596   2.023   6.165
 6612SOL    HW220736   6.496   2.152   6.169
 6613SOL     OW20737   6.614   6.283   5.646
 6613SOL    HW120738   6.690   6.345   5.664
 6613SOL    HW220739   6.627   6.199   5.698
 6614SOL     OW20740   4.519   5.402   6.963
 6614SOL    HW120741   4.451   5.411   6.891
 6614SOL    HW220742   4.552   5.307   6.966
 6615SOL     OW20743   1.684   5.793   1.294
 6615SOL    HW120744   1.681   5.876   1.350
 6615SOL    HW220745   1.702   5.817   1.199
 6616SOL     OW20746   4.314   0.144   6.726
 6616SOL    HW120747   4.308   0.234   6.682
 6616SOL    HW220748   4.321   0.156   6.825
 6617SOL     OW20749   4.552   5.534   3.569
 6617SOL    HW120750   4.641   5.489   3.574
 6617SOL    HW220751   4.563   5.633   3.579
 6618SOL     OW20752   1.835   2.110   2.300
 6618SOL    HW120753   1.861   2.082   2.393
 6618SOL    HW220754   1.741   2.082   2.283
 6619SOL     OW20755   5.414   6.849   3.946
 6619SOL    HW120756   5.477   6.905   4.001
 6619SOL    HW220757   5.327   6.839   3.995
 6620SOL     OW20758   2.048   2.443   5.673
 6620SOL    HW120759   1.995   2.475   5.594
 6620SOL    HW220760   2.134   2.494   5.678
 6621SOL     OW20761   3.545   3.314   5.401
 6621SOL    HW120762   3.454   3.317   5.361
 6621SOL    HW220763   3.606   3.262   5.340
 6622SOL     OW20764   5.878   5.364   2.016
 6622SOL    HW120765   5.862   5.452   2.059
 6622SOL    HW220766   5.812   5.297   2.051
 6623SOL     OW20767   3.848   2.843   5.095
 6623SOL    HW120768   3.837   2.846   4.996
 6623SOL    HW220769   3.904   2.764   5.120
 6624SOL     OW20770   0.063   4.647   5.146
 6624SOL    HW120771   0.006   4.623   5.225
 6624SOL    HW220772   0.056   4.745   5.128
 6625SOL     OW20773   5.095   2.186   5.443
 6625SOL    HW120774   5.074   2.094   5.409
 6625SOL    HW220775   5.173   2.182   5.505
 6626SOL     OW20776   2.908   6.883   5.440
 6626SOL    HW120777   2.829   6.834   5.477
 6626SOL    HW220778   2.890   6.981   5.439
 6627SOL     OW20779   1.653   6.834   4.542
 6627SOL    HW120780   1.676   6.925   4.507
 6627SOL    HW220781   1.587   6.843   4.617
 6628SOL     OW20782   6.146   4.843   4.880
 6628SOL    HW120783   6.090   4.777   4.931
 6628SOL    HW220784   6.095   4.928   4.870
 6629SOL     OW20785   4.801   6.523   6.509
 6629SOL    HW120786   4.711   6.551   6.476
 6629SOL    HW220787   4.846   6.467   6.440
 6630SOL     OW20788   3.839   1.749   1.317
 6630SOL    HW120789   3.789   1.666   1.294
 6630SOL    HW220790   3.774   1.823   1.335
 6631SOL     OW20791   2.019   5.960   4.188
 6631SOL    HW120792   1.978   5.871   4.209
 6631SOL    HW220793   2.063   5.956   4.098
 6632SOL     OW20794   0.881   0.804   1.023
 6632SOL    HW120795   0.975   0.824   1.051
 6632SOL    HW220796   0.819   0.820   1.100
 6633SOL     OW20797   2.374   5.091   6.365
 6633SOL    HW120798   2.275   5.105   6.353
 6633SOL    HW220799   2.415   5.069   6.276
 6634SOL     OW20800   5.578   1.131   5.372
 6634SOL    HW120801   5.673   1.130   5.402
 6634SOL    HW220802   5.527   1.201   5.422
 6635SOL     OW20803   4.674   4.413   2.974
 6635SOL    HW120804   4.748   4.421   2.908
 6635SOL    HW220805   4.702   4.352   3.048
 6636SOL     OW20806   4.770   1.468   6.893
 6636SOL    HW120807   4.753   1.371   6.881
 6636SOL    HW220808   4.848   1.496   6.836
 6637SOL     OW20809   1.201   6.939   6.802
 6637SOL    HW120810   1.135   6.933   6.727
 6637SOL    HW220811   1.277   6.877   6.785
 6638SOL     OW20812   2.898   3.332   3.292
 6638SOL    HW120813   2.899   3.342   3.391
 6638SOL    HW220814   2.835   3.398   3.252
 6639SOL     OW20815   4.824   4.652   6.855
 6639SOL    HW120816   4.899   4.658   6.789
 6639SOL    HW220817   4.766   4.573   6.832
 6640SOL     OW20818   6.204   1.627   5.131
 6640SOL    HW120819   6.286   1.648   5.079
 6640SOL    HW220820   6.228   1.571   5.210
 6641SOL     OW20821   2.795   1.411   6.958
 6641SOL    HW120822   2.732   1.374   0.000
 6641SOL    HW220823   2.884   1.367   6.968
 6642SOL     OW20824   2.667   6.101   6.496
 6642SOL    HW120825   2.647   6.042   6.418
 6642SOL    HW220826   2.664   6.197   6.467
 6643SOL     OW20827   5.061   6.284   6.785
 6643SOL    HW120828   5.033   6.255   6.876
 6643SOL    HW220829   5.003   6.359   6.754
 6644SOL     OW20830   2.691   5.953   1.437
 6644SOL    HW120831   2.631   6.027   1.470
 6644SOL    HW220832   2.731   5.905   1.515
 6645SOL     OW20833   5.416   4.022   1.043
 6645SOL    HW120834   5.316   4.024   1.042
 6645SOL    HW220835   5.447   3.996   1.135
 6646SOL     OW20836   4.567   1.366   5.068
 6646SOL    HW120837   4.578   1.463   5.091
 6646SOL    HW220838   4.656   1.320   5.071
 6647SOL     OW20839   4.512   0.446   1.003
 6647SOL    HW120840   4.539   0.355   1.033
 6647SOL    HW220841   4.414   0.459   1.019
 6648SOL     OW20842   3.720   6.811   4.037
 6648SOL    HW120843   3.811   6.781   4.008
 6648SOL    HW220844   3.688   6.754   4.113
 6649SOL     OW20845   6.053   1.711   6.564
 6649SOL    HW120846   5.971   1.768   6.567
 6649SOL    HW220847   6.037   1.633   6.503
 6650SOL     OW20848   3.835   1.253   5.524
 6650SOL    HW120849   3.902   1.323   5.500
 6650SOL    HW220850   3.819   1.194   5.444
 6651SOL     OW20851   1.674   0.587   5.851
 6651SOL    HW120852   1.693   0.614   5.757
 6651SOL    HW220853   1.733   0.639   5.913
 6652SOL     OW20854   0.120   4.600   6.690
 6652SOL    HW120855   0.194   4.534   6.681
 6652SOL    HW220856   0.104   4.620   6.787
 6653SOL     OW20857   4.100   3.619   1.434
 6653SOL    HW120858   4.104   3.616   1.534
 6653SOL    HW220859   4.052   3.538   1.400
 6654SOL     OW20860   1.480   5.705   1.623
 6654SOL    HW120861   1.525   5.792   1.642
 6654SOL    HW220862   1.545   5.642   1.581
 6655SOL     OW20863   0.369   6.696   3.605
 6655SOL    HW120864   0.328   6.701   3.697
 6655SOL    HW220865   0.349   6.780   3.556
 6656SOL     OW20866   6.187   2.500   2.693
 6656SOL    HW120867   6.243   2.521   2.774
 6656SOL    HW220868   6.199   2.573   2.625
 6657SOL     OW20869   5.488   4.222   5.269
 6657SOL    HW120870   5.487   4.253   5.174
 6657SOL    HW220871   5.397   4.190   5.295
 6658SOL     OW20872   4.965   1.133   5.340
 6658SOL    HW120873   4.947   1.224   5.377
 6658SOL    HW220874   4.908   1.066   5.387
 6659SOL     OW20875   2.318   2.847   1.181
 6659SOL    HW120876   2.332   2.944   1.160
 6659SOL    HW220877   2.303   2.796   1.096
 6660SOL     OW20878   1.742   5.211   0.907
 6660SOL    HW120879   1.755   5.251   0.998
 6660SOL    HW220880   1.795   5.126   0.900
 6661SOL     OW20881   2.050   0.322   5.285
 6661SOL    HW120882   2.095   0.409   5.307
 6661SOL    HW220883   2.106   0.271   5.220
 6662SOL     OW20884   1.168   0.647   0.427
 6662SOL    HW120885   1.212   0.557   0.423
 6662SOL    HW220886   1.133   0.671   0.337
 6663SOL     OW20887   6.486   6.410   4.809
 6663SOL    HW120888   6.495   6.337   4.742
 6663SOL    HW220889   6.548   6.393   4.886
 6664SOL     OW20890   2.197   0.114   0.230
 6664SOL    HW120891   2.243   0.140   0.315
 6664SOL    HW220892   2.165   0.196   0.183
 6665SOL     OW20893   1.503   6.178   4.667
 6665SOL    HW120894   1.515   6.181   4.766
 6665SOL    HW220895   1.550   6.256   4.626
 6666SOL     OW20896   6.478   6.293   5.985
 6666SOL    HW120897   6.574   6.293   5.957
 6666SOL    HW220898   6.421   6.255   5.912
 6667SOL     OW20899   6.837   6.443   5.760
 6667SOL    HW120900   6.930   6.448   5.725
 6667SOL    HW220901   6.807   6.534   5.790
 6668SOL     OW20902   0.136   6.087   1.061
 6668SOL    HW120903   0.156   6.171   1.110
 6668SOL    HW220904   0.106   6.017   1.125
 6669SOL     OW20905   2.760   2.143   1.905
 6669SOL    HW120906   2.743   2.183   1.815
 6669SOL    HW220907   2.809   2.208   1.962
 6670SOL     OW20908   2.821   1.433   5.386
 6670SOL    HW120909   2.847   1.526   5.413
 6670SOL    HW220910   2.903   1.379   5.369
 6671SOL     OW20911   4.319   6.856   0.483
 6671SOL    HW120912   4.377   6.786   0.525
 6671SOL    HW220913   4.262   6.815   0.412
 6672SOL     OW20914   6.536   2.447   0.143
 6672SOL    HW120915   6.512   2.350   0.133
 6672SOL    HW220916   6.587   2.460   0.228
 6673SOL     OW20917   4.811   4.137   3.694
 6673SOL    HW120918   4.908   4.144   3.718
 6673SOL    HW220919   4.756   4.140   3.776
 6674SOL     OW20920   0.217   3.807   0.384
 6674SOL    HW120921   0.275   3.781   0.307
 6674SOL    HW220922   0.218   3.907   0.395
 6675SOL     OW20923   6.203   2.871   0.978
 6675SOL    HW120924   6.128   2.834   1.032
 6675SOL    HW220925   6.288   2.827   1.004
 6676SOL     OW20926   0.369   3.580   5.055
 6676SOL    HW120927   0.365   3.552   5.151
 6676SOL    HW220928   0.341   3.504   4.997
 6677SOL     OW20929   1.070   1.441   6.196
 6677SOL    HW120930   1.081   1.448   6.096
 6677SOL    HW220931   1.087   1.530   6.238
 6678SOL     OW20932   3.246   3.711   0.493
 6678SOL    HW120933   3.231   3.634   0.555
 6678SOL    HW220934   3.343   3.714   0.466
 6679SOL     OW20935   3.518   0.777   4.244
 6679SOL    HW120936   3.446   0.710   4.227
 6679SOL    HW220937   3.522   0.841   4.167
 6680SOL     OW20938   4.268   6.823   6.336
 6680SOL    HW120939   4.253   6.766   6.417
 6680SOL    HW220940   4.361   6.857   6.336
 6681SOL     OW20941   4.801   5.725   0.552
 6681SOL    HW120942   4.853   5.649   0.513
 6681SOL    HW220943   4.728   5.752   0.489
 6682SOL     OW20944   2.304   4.912   0.653
 6682SOL    HW120945   2.221   4.856   0.653
 6682SOL    HW220946   2.285   5.000   0.695
 6683SOL     OW20947   6.079   3.220   5.289
 6683SOL    HW120948   6.019   3.250   5.363
 6683SOL    HW220949   6.088   3.120   5.292
 6684SOL     OW20950   3.557   6.536   1.873
 6684SOL    HW120951   3.608   6.515   1.790
 6684SOL    HW220952   3.532   6.633   1.874
 6685SOL     OW20953   5.102   2.857   6.542
 6685SOL    HW120954   5.089   2.885   6.447
 6685SOL    HW220955   5.020   2.809   6.574
 6686SOL     OW20956   5.163   5.360   4.101
 6686SOL    HW120957   5.135   5.456   4.104
 6686SOL    HW220958   5.183   5.328   4.193
 6687SOL     OW20959   0.550   3.311   1.926
 6687SOL    HW120960   0.535   3.400   1.969
 6687SOL    HW220961   0.643   3.306   1.890
 6688SOL     OW20962   5.248   4.510   1.453
 6688SOL    HW120963   5.301   4.457   1.387
 6688SOL    HW220964   5.164   4.543   1.410
 6689SOL     OW20965   3.965   3.794   5.700
 6689SOL    HW120966   4.008   3.876   5.661
 6689SOL    HW220967   3.994   3.714   5.648
 6690SOL     OW20968   0.451   0.026   0.768
 6690SOL    HW120969   0.384   6.989   0.731
 6690SOL    HW220970   0.405   0.109   0.801
 6691SOL     OW20971   2.426   0.534   2.424
 6691SOL    HW120972   2.494   0.579   2.367
 6691SOL    HW220973   2.343   0.591   2.429
 6692SOL     OW20974   3.958   3.973   3.626
 6692SOL    HW120975   3.983   3.976   3.722
 6692SOL    HW220976   3.915   3.885   3.606
 6693SOL     OW20977   4.000   2.131   5.313
 6693SOL    HW120978   4.034   2.069   5.384
 6693SOL    HW220979   3.919   2.179   5.347
 6694SOL     OW20980   3.803   5.815   1.361
 6694SOL    HW120981   3.795   5.719   1.387
 6694SOL    HW220982   3.872   5.825   1.289
 6695SOL     OW20983   2.908   2.103   6.827
 6695SOL    HW120984   2.880   2.149   6.910
 6695SOL    HW220985   2.829   2.091   6.767
 6696SOL     OW20986   3.767   2.942   4.111
 6696SOL    HW120987   3.739   2.909   4.020
 6696SOL    HW220988   3.692   2.927   4.176
 6697SOL     OW20989   5.194   1.504   3.010
 6697SOL    HW120990   5.223   1.497   3.105
 6697SOL    HW220991   5.136   1.425   2.988
 6698SOL     OW20992   3.381   2.239   0.792
 6698SOL    HW120993   3.473   2.201   0.785
 6698SOL    HW220994   3.314   2.171   0.760
 6699SOL     OW20995   2.276   5.856   5.837
 6699SOL    HW120996   2.340   5.872   5.762
 6699SOL    HW220997   2.188   5.826   5.799
 6700SOL     OW20998   0.110   1.479   1.638
 6700SOL    HW120999   0.159   1.496   1.553
 6700SOL    HW221000   0.027   1.534   1.641
 6701SOL     OW21001   5.583   5.261   1.767
 6701SOL    HW121002   5.657   5.202   1.799
 6701SOL    HW221003   5.609   5.357   1.781
 6702SOL     OW21004   2.260   2.506   1.364
 6702SOL    HW121005   2.204   2.585   1.389
 6702SOL    HW221006   2.214   2.422   1.390
 6703SOL     OW21007   6.361   0.141   1.110
 6703SOL    HW121008   6.284   0.205   1.115
 6703SOL    HW221009   6.346   0.065   1.174
 6704SOL     OW21010   3.835   2.069   2.734
 6704SOL    HW121011   3.737   2.050   2.730
 6704SOL    HW221012   3.883   2.007   2.672
 6705SOL     OW21013   6.157   3.516   1.567
 6705SOL    HW121014   6.065   3.480   1.555
 6705SOL    HW221015   6.222   3.460   1.515
 6706SOL     OW21016   1.192   5.345   1.514
 6706SOL    HW121017   1.165   5.265   1.567
 6706SOL    HW221018   1.260   5.319   1.446
 6707SOL     OW21019   5.811   6.839   3.383
 6707SOL    HW121020   5.754   6.770   3.339
 6707SOL    HW221021   5.788   6.846   3.479
 6708SOL     OW21022   5.941   5.316   0.647
 6708SOL    HW121023   5.868   5.263   0.688
 6708SOL    HW221024   5.916   5.341   0.553
 6709SOL     OW21025   1.535   6.339   2.693
 6709SOL    HW121026   1.550   6.432   2.661
 6709SOL    HW221027   1.508   6.281   2.616
 6710SOL     OW21028   3.654   0.977   6.234
 6710SOL    HW121029   3.585   1.040   6.198
 6710SOL    HW221030   3.714   0.948   6.160
 6711SOL     OW21031   5.019   6.373   5.297
 6711SOL    HW121032   5.065   6.451   5.339
 6711SOL    HW221033   4.923   6.395   5.281
 6712SOL     OW21034   5.830   3.949   0.585
 6712SOL    HW121035   5.793   4.042   0.592
 6712SOL    HW221036   5.771   3.886   0.634
 6713SOL     OW21037   2.111   0.724   2.745
 6713SOL    HW121038   2.096   0.762   2.836
 6713SOL    HW221039   2.026   0.730   2.692
 6714SOL     OW21040   6.405   0.927   6.461
 6714SOL    HW121041   6.436   1.015   6.425
 6714SOL    HW221042   6.354   0.878   6.391
 6715SOL     OW21043   0.984   0.367   0.555
 6715SOL    HW121044   0.894   0.332   0.579
 6715SOL    HW221045   1.000   0.454   0.603
 6716SOL     OW21046   0.664   5.716   2.131
 6716SOL    HW121047   0.680   5.628   2.085
 6716SOL    HW221048   0.577   5.713   2.180
 6717SOL     OW21049   3.349   2.938   6.844
 6717SOL    HW121050   3.309   2.921   6.754
 6717SOL    HW221051   3.423   3.004   6.836
 6718SOL     OW21052   5.041   0.280   0.538
 6718SOL    HW121053   4.949   0.264   0.575
 6718SOL    HW221054   5.087   0.351   0.591
 6719SOL     OW21055   3.132   6.453   0.245
 6719SOL    HW121056   3.158   6.487   0.336
 6719SOL    HW221057   3.075   6.522   0.199
 6720SOL     OW21058   1.903   6.979   4.179
 6720SOL    HW121059   1.938   6.908   4.241
 6720SOL    HW221060   1.930   0.042   4.214
 6721SOL     OW21061   6.356   6.385   0.237
 6721SOL    HW121062   6.446   6.426   0.222
 6721SOL    HW221063   6.333   6.389   0.334
 6722SOL     OW21064   6.513   3.049   1.122
 6722SOL    HW121065   6.429   2.997   1.139
 6722SOL    HW221066   6.591   2.987   1.118
 6723SOL     OW21067   1.455   6.956   4.755
 6723SOL    HW121068   1.369   6.967   4.805
 6723SOL    HW221069   1.519   0.002   4.781
 6724SOL     OW21070   2.378   3.398   6.029
 6724SOL    HW121071   2.400   3.317   6.083
 6724SOL    HW221072   2.431   3.396   5.943
 6725SOL     OW21073   6.615   3.190   1.867
 6725SOL    HW121074   6.522   3.226   1.870
 6725SOL    HW221075   6.651   3.198   1.774
 6726SOL     OW21076   1.203   2.958   4.613
 6726SOL    HW121077   1.139   2.972   4.689
 6726SOL    HW221078   1.161   2.899   4.544
 6727SOL     OW21079   0.131   4.740   5.914
 6727SOL    HW121080   0.133   4.705   6.008
 6727SOL    HW221081   0.196   4.815   5.904
 6728SOL     OW21082   4.058   2.190   2.393
 6728SOL    HW121083   3.968   2.228   2.374
 6728SOL    HW221084   4.082   2.205   2.489
 6729SOL     OW21085   6.138   0.657   1.104
 6729SOL    HW121086   6.184   0.691   1.186
 6729SOL    HW221087   6.194   0.586   1.062
 6730SOL     OW21088   2.062   6.884   1.595
 6730SOL    HW121089   2.161   6.869   1.598
 6730SOL    HW221090   2.029   6.904   1.688
 6731SOL     OW21091   1.586   6.714   1.199
 6731SOL    HW121092   1.564   6.636   1.141
 6731SOL    HW221093   1.508   6.776   1.203
 6732SOL     OW21094   5.660   3.974   4.944
 6732SOL    HW121095   5.758   3.954   4.945
 6732SOL    HW221096   5.617   3.930   5.022
 6733SOL     OW21097   3.526   5.553   6.246
 6733SOL    HW121098   3.482   5.576   6.333
 6733SOL    HW221099   3.534   5.454   6.238
 6734SOL     OW21100   5.839   1.797   4.421
 6734SOL    HW121101   5.742   1.809   4.443
 6734SOL    HW221102   5.881   1.737   4.490
 6735SOL     OW21103   6.290   3.786   4.948
 6735SOL    HW121104   6.244   3.702   4.920
 6735SOL    HW221105   6.302   3.846   4.869
 6736SOL     OW21106   2.975   3.628   6.935
 6736SOL    HW121107   2.978   3.714   6.986
 6736SOL    HW221108   2.892   3.578   6.958
 6737SOL     OW21109   1.504   2.957   0.833
 6737SOL    HW121110   1.447   2.894   0.886
 6737SOL    HW221111   1.555   3.017   0.895
 6738SOL     OW21112   1.795   5.774   3.552
 6738SOL    HW121113   1.847   5.821   3.480
 6738SOL    HW221114   1.776   5.680   3.523
 6739SOL     OW21115   5.122   5.838   4.582
 6739SOL    HW121116   5.034   5.793   4.569
 6739SOL    HW221117   5.182   5.816   4.505
 6740SOL     OW21118   0.059   0.142   5.342
 6740SOL    HW121119   6.989   0.118   5.358
 6740SOL    HW221120   0.116   0.104   5.415
 6741SOL     OW21121   4.270   2.176   5.673
 6741SOL    HW121122   4.290   2.237   5.750
 6741SOL    HW221123   4.352   2.124   5.650
 6742SOL     OW21124   5.907   5.808   3.204
 6742SOL    HW121125   5.824   5.773   3.248
 6742SOL    HW221126   5.940   5.888   3.255
 6743SOL     OW21127   4.603   4.443   6.550
 6743SOL    HW121128   4.536   4.512   6.576
 6743SOL    HW221129   4.664   4.481   6.479
 6744SOL     OW21130   6.148   4.267   5.968
 6744SOL    HW121131   6.191   4.328   6.035
 6744SOL    HW221132   6.204   4.185   5.958
 6745SOL     OW21133   0.287   0.208   3.742
 6745SOL    HW121134   0.263   0.189   3.837
 6745SOL    HW221135   0.342   0.292   3.738
 6746SOL     OW21136   0.815   1.035   4.199
 6746SOL    HW121137   0.767   0.953   4.167
 6746SOL    HW221138   0.757   1.115   4.189
 6747SOL     OW21139   5.561   1.067   5.847
 6747SOL    HW121140   5.509   0.982   5.846
 6747SOL    HW221141   5.597   1.083   5.939
 6748SOL     OW21142   3.103   1.899   3.257
 6748SOL    HW121143   3.142   1.825   3.202
 6748SOL    HW221144   3.101   1.983   3.203
 6749SOL     OW21145   3.678   4.079   1.071
 6749SOL    HW121146   3.641   4.129   0.992
 6749SOL    HW221147   3.622   3.998   1.087
 6750SOL     OW21148   3.426   1.886   4.282
 6750SOL    HW121149   3.410   1.974   4.237
 6750SOL    HW221150   3.396   1.891   4.377
 6751SOL     OW21151   5.507   6.913   2.766
 6751SOL    HW121152   5.482   6.841   2.831
 6751SOL    HW221153   5.477   6.888   2.674
 6752SOL     OW21154   1.447   6.932   3.235
 6752SOL    HW121155   1.495   6.962   3.153
 6752SOL    HW221156   1.398   6.846   3.216
 6753SOL     OW21157   3.140   1.410   6.239
 6753SOL    HW121158   3.090   1.324   6.230
 6753SOL    HW221159   3.152   1.451   6.149
 6754SOL     OW21160   0.175   1.517   1.389
 6754SOL    HW121161   0.102   1.526   1.321
 6754SOL    HW221162   0.264   1.534   1.345
 6755SOL     OW21163   4.247   1.060   2.155
 6755SOL    HW121164   4.193   0.979   2.177
 6755SOL    HW221165   4.253   1.071   2.055
 6756SOL     OW21166   3.561   5.725   5.345
 6756SOL    HW121167   3.582   5.747   5.440
 6756SOL    HW221168   3.503   5.643   5.342
 6757SOL     OW21169   3.614   2.182   0.559
 6757SOL    HW121170   3.658   2.093   0.547
 6757SOL    HW221171   3.657   2.230   0.636
 6758SOL     OW21172   6.425   2.490   2.076
 6758SOL    HW121173   6.374   2.512   2.159
 6758SOL    HW221174   6.499   2.557   2.064
 6759SOL     OW21175   1.712   4.175   4.287
 6759SOL    HW121176   1.710   4.097   4.224
 6759SOL    HW221177   1.625   4.225   4.280
 6760SOL     OW21178   6.900   3.978   1.877
 6760SOL    HW121179   6.921   3.957   1.782
 6760SOL    HW221180   6.893   3.892   1.929
 6761SOL     OW21181   0.091   2.366   5.652
 6761SOL    HW121182   0.043   2.441   5.607
 6761SOL    HW221183   0.079   2.282   5.600
 6762SOL     OW21184   0.615   4.678   4.627
 6762SOL    HW121185   0.519   4.658   4.645
 6762SOL    HW221186   0.633   4.775   4.644
 6763SOL     OW21187   6.489   5.627   3.486
 6763SOL    HW121188   6.543   5.579   3.416
 6763SOL    HW221189   6.392   5.607   3.473
 6764SOL     OW21190   2.014   5.708   1.077
 6764SOL    HW121191   1.948   5.779   1.104
 6764SOL    HW221192   1.965   5.625   1.051
 6765SOL     OW21193   5.583   4.909   3.748
 6765SOL    HW121194   5.556   4.871   3.836
 6765SOL    HW221195   5.682   4.919   3.745
 6766SOL     OW21196   5.409   6.353   6.017
 6766SOL    HW121197   5.506   6.340   6.038
 6766SOL    HW221198   5.400   6.410   5.936
 6767SOL     OW21199   2.246   1.547   1.180
 6767SOL    HW121200   2.329   1.514   1.134
 6767SOL    HW221201   2.265   1.560   1.277
 6768SOL     OW21202   1.179   6.428   4.815
 6768SOL    HW121203   1.235   6.454   4.893
 6768SOL    HW221204   1.134   6.341   4.833
 6769SOL     OW21205   2.520   0.680   6.371
 6769SOL    HW121206   2.591   0.616   6.400
 6769SOL    HW221207   2.563   0.758   6.325
 6770SOL     OW21208   5.953   1.597   3.055
 6770SOL    HW121209   5.907   1.512   3.032
 6770SOL    HW221210   6.046   1.595   3.019
 6771SOL     OW21211   4.139   1.654   3.262
 6771SOL    HW121212   4.203   1.679   3.189
 6771SOL    HW221213   4.048   1.637   3.223
 6772SOL     OW21214   4.617   2.282   3.018
 6772SOL    HW121215   4.583   2.264   2.926
 6772SOL    HW221216   4.569   2.224   3.083
 6773SOL     OW21217   6.818   6.073   1.604
 6773SOL    HW121218   6.826   6.001   1.536
 6773SOL    HW221219   6.910   6.103   1.632
 6774SOL     OW21220   0.583   3.933   4.815
 6774SOL    HW121221   0.510   3.864   4.810
 6774SOL    HW221222   0.641   3.913   4.895
 6775SOL     OW21223   2.678   2.303   2.166
 6775SOL    HW121224   2.620   2.265   2.095
 6775SOL    HW221225   2.768   2.323   2.129
 6776SOL     OW21226   4.762   3.837   7.018
 6776SOL    HW121227   4.670   3.876   7.023
 6776SOL    HW221228   4.830   3.906   0.017
 6777SOL     OW21229   5.000   4.546   0.619
 6777SOL    HW121230   5.031   4.624   0.566
 6777SOL    HW221231   4.932   4.494   0.566
 6778SOL     OW21232   6.178   5.166   2.076
 6778SOL    HW121233   6.254   5.175   2.140
 6778SOL    HW221234   6.182   5.239   2.008
 6779SOL     OW21235   5.693   5.804   5.993
 6779SOL    HW121236   5.773   5.861   5.973
 6779SOL    HW221237   5.617   5.863   6.020
 6780SOL     OW21238   2.044   2.707   2.456
 6780SOL    HW121239   2.013   2.768   2.529
 6780SOL    HW221240   2.133   2.737   2.423
 6781SOL     OW21241   6.826   2.020   4.319
 6781SOL    HW121242   6.867   1.948   4.264
 6781SOL    HW221243   6.731   1.998   4.339
 6782SOL     OW21244   0.587   1.083   2.519
 6782SOL    HW121245   0.537   1.041   2.443
 6782SOL    HW221246   0.634   1.012   2.571
 6783SOL     OW21247   6.542   1.136   5.621
 6783SOL    HW121248   6.555   1.224   5.577
 6783SOL    HW221249   6.444   1.116   5.629
 6784SOL     OW21250   1.367   3.468   1.026
 6784SOL    HW121251   1.349   3.504   0.934
 6784SOL    HW221252   1.448   3.512   1.064
 6785SOL     OW21253   5.959   5.724   4.601
 6785SOL    HW121254   6.006   5.653   4.548
 6785SOL    HW221255   5.965   5.812   4.554
 6786SOL     OW21256   1.732   2.487   0.707
 6786SOL    HW121257   1.673   2.484   0.626
 6786SOL    HW221258   1.827   2.502   0.678
 6787SOL     OW21259   2.486   2.999   0.007
 6787SOL    HW121260   2.387   3.017   0.011
 6787SOL    HW221261   2.501   2.900   0.002
 6788SOL     OW21262   1.307   4.225   1.350
 6788SOL    HW121263   1.225   4.186   1.307
 6788SOL    HW221264   1.351   4.288   1.287
 6789SOL     OW21265   0.583   5.404   3.270
 6789SOL    HW121266   0.592   5.488   3.324
 6789SOL    HW221267   0.643   5.334   3.309
 6790SOL     OW21268   6.989   3.711   0.341
 6790SOL    HW121269   6.936   3.687   0.422
 6790SOL    HW221270   0.044   3.763   0.368
 6791SOL     OW21271   4.094   1.627   2.354
 6791SOL    HW121272   4.131   1.536   2.333
 6791SOL    HW221273   4.101   1.686   2.273
 6792SOL     OW21274   5.966   0.189   4.852
 6792SOL    HW121275   5.976   0.093   4.878
 6792SOL    HW221276   6.050   0.239   4.871
 6793SOL     OW21277   2.237   1.250   0.742
 6793SOL    HW121278   2.211   1.345   0.759
 6793SOL    HW221279   2.169   1.189   0.784
 6794SOL     OW21280   5.068   0.665   5.738
 6794SOL    HW121281   4.977   0.653   5.777
 6794SOL    HW221282   5.070   0.626   5.646
 6795SOL     OW21283   2.202   6.670   0.452
 6795SOL    HW121284   2.199   6.743   0.383
 6795SOL    HW221285   2.241   6.705   0.536
 6796SOL     OW21286   6.069   0.489   2.891
 6796SOL    HW121287   5.999   0.439   2.942
 6796SOL    HW221288   6.123   0.545   2.955
 6797SOL     OW21289   6.836   2.804   1.715
 6797SOL    HW121290   6.750   2.806   1.765
 6797SOL    HW221291   6.826   2.747   1.633
 6798SOL     OW21292   5.416   6.798   1.943
 6798SOL    HW121293   5.381   6.751   1.862
 6798SOL    HW221294   5.515   6.784   1.950
 6799SOL     OW21295   0.063   0.239   2.099
 6799SOL    HW121296   0.126   0.208   2.171
 6799SOL    HW221297   0.015   0.160   2.062
 6800SOL     OW21298   2.180   3.020   2.204
 6800SOL    HW121299   2.207   3.051   2.113
 6800SOL    HW221300   2.212   2.927   2.220
 6801SOL     OW21301   0.410   6.860   2.795
 6801SOL    HW121302   0.393   6.763   2.813
 6801SOL    HW221303   0.500   6.870   2.752
 6802SOL     OW21304   3.197   5.784   1.682
 6802SOL    HW121305   3.158   5.698   1.650
 6802SOL    HW221306   3.177   5.856   1.615
 6803SOL     OW21307   4.266   3.353   5.582
 6803SOL    HW121308   4.253   3.383   5.487
 6803SOL    HW221309   4.250   3.254   5.588
 6804SOL     OW21310   3.457   4.971   4.099
 6804SOL    HW121311   3.491   4.945   4.009
 6804SOL    HW221312   3.426   5.066   4.097
 6805SOL     OW21313   0.362   4.804   6.627
 6805SOL    HW121314   0.363   4.738   6.552
 6805SOL    HW221315   0.270   4.841   6.638
 6806SOL     OW21316   6.740   0.662   3.068
 6806SOL    HW121317   6.684   0.742   3.049
 6806SOL    HW221318   6.760   0.614   2.982
 6807SOL     OW21319   3.451   3.748   1.454
 6807SOL    HW121320   3.474   3.831   1.505
 6807SOL    HW221321   3.528   3.684   1.458
 6808SOL     OW21322   0.151   2.441   5.924
 6808SOL    HW121323   0.119   2.381   5.997
 6808SOL    HW221324   0.132   2.399   5.836
 6809SOL     OW21325   0.925   3.289   1.538
 6809SOL    HW121326   0.876   3.362   1.586
 6809SOL    HW221327   0.954   3.219   1.604
 6810SOL     OW21328   1.691   0.951   2.407
 6810SOL    HW121329   1.743   0.963   2.491
 6810SOL    HW221330   1.593   0.947   2.429
 6811SOL     OW21331   5.321   3.514   1.734
 6811SOL    HW121332   5.320   3.415   1.726
 6811SOL    HW221333   5.368   3.540   1.818
 6812SOL     OW21334   3.123   3.523   4.611
 6812SOL    HW121335   3.076   3.476   4.537
 6812SOL    HW221336   3.101   3.620   4.609
 6813SOL     OW21337   5.103   3.027   3.400
 6813SOL    HW121338   5.112   2.930   3.379
 6813SOL    HW221339   5.053   3.073   3.327
 6814SOL     OW21340   3.630   1.696   6.004
 6814SOL    HW121341   3.664   1.790   5.997
 6814SOL    HW221342   3.531   1.695   5.999
 6815SOL     OW21343   3.744   6.126   0.868
 6815SOL    HW121344   3.750   6.095   0.773
 6815SOL    HW221345   3.731   6.047   0.927
 6816SOL     OW21346   6.819   0.718   6.370
 6816SOL    HW121347   6.814   0.662   6.287
 6816SOL    HW221348   6.792   0.811   6.348
 6817SOL     OW21349   2.327   2.758   2.634
 6817SOL    HW121350   2.315   2.737   2.537
 6817SOL    HW221351   2.394   2.697   2.674
 6818SOL     OW21352   2.474   6.498   1.591
 6818SOL    HW121353   2.538   6.575   1.600
 6818SOL    HW221354   2.524   6.412   1.599
 6819SOL     OW21355   4.242   1.782   3.026
 6819SOL    HW121356   4.196   1.717   2.966
 6819SOL    HW221357   4.318   1.826   2.978
 6820SOL     OW21358   2.078   6.167   1.515
 6820SOL    HW121359   2.133   6.111   1.577
 6820SOL    HW221360   1.986   6.178   1.552
 6821SOL     OW21361   3.987   2.150   5.005
 6821SOL    HW121362   4.041   2.170   4.924
 6821SOL    HW221363   3.892   2.134   4.979
 6822SOL     OW21364   5.555   2.255   6.123
 6822SOL    HW121365   5.566   2.337   6.180
 6822SOL    HW221366   5.500   2.187   6.172
 6823SOL     OW21367   4.910   3.733   5.729
 6823SOL    HW121368   4.870   3.784   5.653
 6823SOL    HW221369   4.841   3.718   5.800
 6824SOL     OW21370   1.122   2.238   0.251
 6824SOL    HW121371   1.201   2.189   0.213
 6824SOL    HW221372   1.121   2.227   0.350
 6825SOL     OW21373   5.280   6.778   1.021
 6825SOL    HW121374   5.237   6.767   1.111
 6825SOL    HW221375   5.229   6.726   0.953
 6826SOL     OW21376   1.753   3.274   3.348
 6826SOL    HW121377   1.692   3.201   3.382
 6826SOL    HW221378   1.841   3.235   3.323
 6827SOL     OW21379   4.483   5.215   6.237
 6827SOL    HW121380   4.548   5.257   6.301
 6827SOL    HW221381   4.398   5.267   6.236
 6828SOL     OW21382   3.089   1.292   1.709
 6828SOL    HW121383   3.148   1.326   1.635
 6828SOL    HW221384   2.996   1.327   1.696
 6829SOL     OW21385   5.258   5.919   5.079
 6829SOL    HW121386   5.211   6.005   5.098
 6829SOL    HW221387   5.356   5.936   5.065
 6830SOL     OW21388   5.132   0.748   3.626
 6830SOL    HW121389   5.187   0.812   3.572
 6830SOL    HW221390   5.189   0.670   3.653
 6831SOL     OW21391   1.090   0.415   6.931
 6831SOL    HW121392   1.066   0.329   6.886
 6831SOL    HW221393   1.188   0.431   6.921
 6832SOL     OW21394   2.871   4.255   0.786
 6832SOL    HW121395   2.782   4.268   0.829
 6832SOL    HW221396   2.860   4.198   0.705
 6833SOL     OW21397   3.530   4.374   6.256
 6833SOL    HW121398   3.551   4.446   6.190
 6833SOL    HW221399   3.479   4.301   6.211
 6834SOL     OW21400   5.067   6.997   0.689
 6834SOL    HW121401   5.080   6.971   0.593
 6834SOL    HW221402   5.141   0.032   0.717
 6835SOL     OW21403   4.221   0.867   4.560
 6835SOL    HW121404   4.225   0.924   4.478
 6835SOL    HW221405   4.304   0.812   4.566
 6836SOL     OW21406   2.664   4.581   0.517
 6836SOL    HW121407   2.610   4.665   0.521
 6836SOL    HW221408   2.651   4.537   0.429
 6837SOL     OW21409   0.653   2.025   2.035
 6837SOL    HW121410   0.641   2.027   2.134
 6837SOL    HW221411   0.741   1.984   2.012
 6838SOL     OW21412   3.572   6.279   7.001
 6838SOL    HW121413   3.634   6.223   0.031
 6838SOL    HW221414   3.490   6.301   0.028
 6839SOL     OW21415   6.051   1.083   6.234
 6839SOL    HW121416   6.046   1.183   6.235
 6839SOL    HW221417   6.022   1.047   6.322
 6840SOL     OW21418   3.509   0.830   4.694
 6840SOL    HW121419   3.438   0.780   4.643
 6840SOL    HW221420   3.599   0.807   4.657
 6841SOL     OW21421   4.384   4.285   6.998
 6841SOL    HW121422   4.479   4.255   7.006
 6841SOL    HW221423   4.341   4.240   6.921
 6842SOL     OW21424   3.023   3.942   0.549
 6842SOL    HW121425   3.106   3.982   0.586
 6842SOL    HW221426   3.045   3.860   0.496
 6843SOL     OW21427   6.074   6.468   1.266
 6843SOL    HW121428   5.996   6.510   1.219
 6843SOL    HW221429   6.087   6.375   1.231
 6844SOL     OW21430   5.128   0.464   3.922
 6844SOL    HW121431   5.202   0.496   3.863
 6844SOL    HW221432   5.097   0.540   3.980
 6845SOL     OW21433   6.620   4.158   3.600
 6845SOL    HW121434   6.683   4.154   3.677
 6845SOL    HW221435   6.528   4.177   3.633
 6846SOL     OW21436   3.653   3.114   0.109
 6846SOL    HW121437   3.604   3.161   0.035
 6846SOL    HW221438   3.723   3.054   0.069
 6847SOL     OW21439   0.586   3.629   4.283
 6847SOL    HW121440   0.534   3.699   4.235
 6847SOL    HW221441   0.660   3.671   4.336
 6848SOL     OW21442   4.663   6.422   3.408
 6848SOL    HW121443   4.657   6.322   3.417
 6848SOL    HW221444   4.662   6.463   3.499
 6849SOL     OW21445   3.872   4.925   5.011
 6849SOL    HW121446   3.922   4.839   4.999
 6849SOL    HW221447   3.811   4.939   4.933
 6850SOL     OW21448   5.674   4.278   2.026
 6850SOL    HW121449   5.602   4.233   2.078
 6850SOL    HW221450   5.715   4.351   2.080
 6851SOL     OW21451   0.632   2.188   3.069
 6851SOL    HW121452   0.675   2.192   2.979
 6851SOL    HW221453   0.645   2.097   3.109
 6852SOL     OW21454   2.849   4.785   0.409
 6852SOL    HW121455   2.921   4.761   0.475
 6852SOL    HW221456   2.769   4.728   0.424
 6853SOL     OW21457   5.808   4.488   0.233
 6853SOL    HW121458   5.869   4.502   0.311
 6853SOL    HW221459   5.820   4.562   0.167
 6854SOL     OW21460   4.707   1.728   6.433
 6854SOL    HW121461   4.684   1.671   6.512
 6854SOL    HW221462   4.628   1.737   6.374
 6855SOL     OW21463   4.090   5.556   3.609
 6855SOL    HW121464   3.992   5.574   3.619
 6855SOL    HW221465   4.136   5.575   3.695
 6856SOL     OW21466   5.737   2.874   5.158
 6856SOL    HW121467   5.680   2.824   5.223
 6856SOL    HW221468   5.682   2.945   5.114
 6857SOL     OW21469   3.165   2.814   6.610
 6857SOL    HW121470   3.079   2.839   6.566
 6857SOL    HW221471   3.220   2.758   6.547
 6858SOL     OW21472   4.093   3.651   3.162
 6858SOL    HW121473   4.054   3.573   3.212
 6858SOL    HW221474   4.073   3.736   3.210
 6859SOL     OW21475   0.345   1.630   1.194
 6859SOL    HW121476   0.319   1.714   1.242
 6859SOL    HW221477   0.376   1.653   1.102
 6860SOL     OW21478   6.764   4.882   0.950
 6860SOL    HW121479   6.685   4.941   0.937
 6860SOL    HW221480   6.737   4.798   0.998
 6861SOL     OW21481   4.299   5.308   0.315
 6861SOL    HW121482   4.322   5.385   0.257
 6861SOL    HW221483   4.236   5.338   0.387
 6862SOL     OW21484   1.247   5.287   6.562
 6862SOL    HW121485   1.215   5.196   6.589
 6862SOL    HW221486   1.198   5.315   6.480
 6863SOL     OW21487   6.041   6.542   5.821
 6863SOL    HW121488   6.066   6.500   5.909
 6863SOL    HW221489   5.975   6.483   5.774
 6864SOL     OW21490   2.780   5.222   4.551
 6864SOL    HW121491   2.758   5.140   4.498
 6864SOL    HW221492   2.844   5.199   4.623
 6865SOL     OW21493   1.278   6.304   3.901
 6865SOL    HW121494   1.186   6.264   3.902
 6865SOL    HW221495   1.345   6.236   3.932
 6866SOL     OW21496   6.149   4.876   4.121
 6866SOL    HW121497   6.104   4.888   4.032
 6866SOL    HW221498   6.113   4.794   4.166
 6867SOL     OW21499   2.321   4.441   1.575
 6867SOL    HW121500   2.372   4.517   1.537
 6867SOL    HW221501   2.375   4.396   1.646
 6868SOL     OW21502   1.310   5.630   6.526
 6868SOL    HW121503   1.301   5.709   6.587
 6868SOL    HW221504   1.264   5.650   6.439
 6869SOL     OW21505   5.915   1.060   5.975
 6869SOL    HW121506   5.985   1.104   6.032
 6869SOL    HW221507   5.886   0.975   6.018
 6870SOL     OW21508   0.716   5.205   1.680
 6870SOL    HW121509   0.796   5.161   1.639
 6870SOL    HW221510   0.643   5.209   1.612
 6871SOL     OW21511   5.760   4.065   3.397
 6871SOL    HW121512   5.819   4.054   3.477
 6871SOL    HW221513   5.705   4.148   3.407
 6872SOL     OW21514   0.544   2.470   1.321
 6872SOL    HW121515   0.452   2.475   1.360
 6872SOL    HW221516   0.595   2.552   1.349
 6873SOL     OW21517   6.806   3.533   4.461
 6873SOL    HW121518   6.765   3.469   4.396
 6873SOL    HW221519   6.812   3.624   4.419
 6874SOL     OW21520   6.849   5.510   3.041
 6874SOL    HW121521   6.940   5.523   2.999
 6874SOL    HW221522   6.813   5.599   3.069
 6875SOL     OW21523   2.498   2.483   2.287
 6875SOL    HW121524   2.560   2.412   2.254
 6875SOL    HW221525   2.404   2.451   2.281
 6876SOL     OW21526   3.785   6.935   3.754
 6876SOL    HW121527   3.781   6.884   3.840
 6876SOL    HW221528   3.788   0.007   3.774
 6877SOL     OW21529   2.374   3.939   0.732
 6877SOL    HW121530   2.385   3.865   0.798
 6877SOL    HW221531   2.419   3.914   0.646
 6878SOL     OW21532   3.628   1.163   4.346
 6878SOL    HW121533   3.708   1.216   4.372
 6878SOL    HW221534   3.632   1.073   4.388
 6879SOL     OW21535   0.696   2.709   0.740
 6879SOL    HW121536   0.596   2.707   0.736
 6879SOL    HW221537   0.726   2.702   0.836
 6880SOL     OW21538   2.523   5.570   5.127
 6880SOL    HW121539   2.537   5.602   5.034
 6880SOL    HW221540   2.547   5.473   5.132
 6881SOL     OW21541   1.496   4.937   0.787
 6881SOL    HW121542   1.595   4.931   0.800
 6881SOL    HW221543   1.465   5.028   0.813
 6882SOL     OW21544   2.752   0.476   0.113
 6882SOL    HW121545   2.674   0.486   0.051
 6882SOL    HW221546   2.752   0.552   0.178
 6883SOL     OW21547   4.956   1.530   6.691
 6883SOL    HW121548   5.043   1.497   6.728
 6883SOL    HW221549   4.955   1.515   6.592
 6884SOL     OW21550   1.832   4.675   3.586
 6884SOL    HW121551   1.781   4.715   3.662
 6884SOL    HW221552   1.879   4.592   3.617
 6885SOL     OW21553   3.822   4.865   3.973
 6885SOL    HW121554   3.764   4.850   3.894
 6885SOL    HW221555   3.915   4.832   3.954
 6886SOL     OW21556   0.038   0.966   4.055
 6886SOL    HW121557   0.122   0.949   4.003
 6886SOL    HW221558   0.019   1.064   4.057
 6887SOL     OW21559   4.931   5.571   6.428
 6887SOL    HW121560   4.898   5.635   6.497
 6887SOL    HW221561   5.013   5.525   6.462
 6888SOL     OW21562   5.540   5.817   6.607
 6888SOL    HW121563   5.564   5.824   6.511
 6888SOL    HW221564   5.610   5.764   6.656
 6889SOL     OW21565   1.863   2.566   5.203
 6889SOL    HW121566   1.821   2.522   5.124
 6889SOL    HW221567   1.813   2.650   5.224
 6890SOL     OW21568   4.261   6.487   1.934
 6890SOL    HW121569   4.346   6.468   1.887
 6890SOL    HW221570   4.275   6.562   1.999
 6891SOL     OW21571   2.405   4.301   3.174
 6891SOL    HW121572   2.406   4.372   3.105
 6891SOL    HW221573   2.462   4.224   3.144
 6892SOL     OW21574   3.119   2.058   3.561
 6892SOL    HW121575   3.076   1.968   3.567
 6892SOL    HW221576   3.213   2.047   3.528
 6893SOL     OW21577   4.587   4.714   0.028
 6893SOL    HW121578   4.632   4.691   6.969
 6893SOL    HW221579   4.628   4.662   0.103
 6894SOL     OW21580   6.154   5.258   0.825
 6894SOL    HW121581   6.083   5.279   0.758
 6894SOL    HW221582   6.225   5.329   0.821
 6895SOL     OW21583   3.378   4.793   0.976
 6895SOL    HW121584   3.476   4.804   0.960
 6895SOL    HW221585   3.331   4.773   0.890
 6896SOL     OW21586   2.326   0.088   3.858
 6896SOL    HW121587   2.401   0.123   3.801
 6896SOL    HW221588   2.351   7.023   3.893
 6897SOL     OW21589   4.875   3.382   5.267
 6897SOL    HW121590   4.874   3.298   5.213
 6897SOL    HW221591   4.837   3.457   5.213
 6898SOL     OW21592   4.476   1.578   2.074
 6898SOL    HW121593   4.500   1.629   1.992
 6898SOL    HW221594   4.415   1.503   2.050
 6899SOL     OW21595   5.248   6.143   1.517
 6899SOL    HW121596   5.210   6.210   1.580
 6899SOL    HW221597   5.179   6.118   1.449
 6900SOL     OW21598   6.185   5.821   5.295
 6900SOL    HW121599   6.190   5.780   5.204
 6900SOL    HW221600   6.274   5.811   5.341
 6901SOL     OW21601   6.820   6.155   6.285
 6901SOL    HW121602   6.885   6.113   6.222
 6901SOL    HW221603   6.869   6.185   6.367
 6902SOL     OW21604   5.392   6.051   6.661
 6902SOL    HW121605   5.375   6.044   6.760
 6902SOL    HW221606   5.456   5.979   6.634
 6903SOL     OW21607   3.073   5.069   5.134
 6903SOL    HW121608   3.163   5.028   5.122
 6903SOL    HW221609   3.002   4.999   5.124
 6904SOL     OW21610   6.678   0.939   4.577
 6904SOL    HW121611   6.660   0.950   4.479
 6904SOL    HW221612   6.746   1.006   4.606
 6905SOL     OW21613   6.056   6.439   6.420
 6905SOL    HW121614   6.138   6.403   6.376
 6905SOL    HW221615   6.020   6.371   6.484
 6906SOL     OW21616   4.479   1.161   4.433
 6906SOL    HW121617   4.535   1.220   4.374
 6906SOL    HW221618   4.521   1.157   4.524
 6907SOL     OW21619   5.038   2.991   1.704
 6907SOL    HW121620   5.063   2.906   1.658
 6907SOL    HW221621   4.954   3.028   1.663
 6908SOL     OW21622   0.599   4.968   6.573
 6908SOL    HW121623   0.669   4.904   6.542
 6908SOL    HW221624   0.518   4.917   6.602
 6909SOL     OW21625   4.743   4.420   1.480
 6909SOL    HW121626   4.796   4.465   1.551
 6909SOL    HW221627   4.780   4.328   1.464
 6910SOL     OW21628   0.565   2.687   3.381
 6910SOL    HW121629   0.658   2.724   3.383
 6910SOL    HW221630   0.552   2.635   3.297
 6911SOL     OW21631   4.276   6.100   4.035
 6911SOL    HW121632   4.292   6.001   4.037
 6911SOL    HW221633   4.312   6.141   4.119
 6912SOL     OW21634   3.992   4.070   6.267
 6912SOL    HW121635   4.002   3.974   6.293
 6912SOL    HW221636   3.906   4.081   6.215
 6913SOL     OW21637   5.607   5.959   3.792
 6913SOL    HW121638   5.555   6.021   3.850
 6913SOL    HW221639   5.544   5.907   3.734
 6914SOL     OW21640   6.198   3.957   3.683
 6914SOL    HW121641   6.197   3.948   3.783
 6914SOL    HW221642   6.273   3.902   3.646
 6915SOL     OW21643   6.065   2.768   1.783
 6915SOL    HW121644   6.051   2.811   1.873
 6915SOL    HW221645   6.125   2.689   1.793
 6916SOL     OW21646   5.886   1.998   6.992
 6916SOL    HW121647   5.853   1.904   6.985
 6916SOL    HW221648   5.984   1.998   7.011
 6917SOL     OW21649   3.375   0.040   1.611
 6917SOL    HW121650   3.353   6.972   1.586
 6917SOL    HW221651   3.467   0.062   1.577
 6918SOL     OW21652   0.375   2.700   4.689
 6918SOL    HW121653   0.404   2.683   4.783
 6918SOL    HW221654   0.362   2.798   4.676
 6919SOL     OW21655   6.246   5.832   3.643
 6919SOL    HW121656   6.224   5.735   3.631
 6919SOL    HW221657   6.296   5.844   3.729
 6920SOL     OW21658   4.038   6.204   5.495
 6920SOL    HW121659   3.999   6.166   5.578
 6920SOL    HW221660   3.966   6.248   5.441
 6921SOL     OW21661   5.046   5.703   3.950
 6921SOL    HW121662   4.975   5.771   3.969
 6921SOL    HW221663   5.014   5.641   3.878
 6922SOL     OW21664   1.733   6.185   4.927
 6922SOL    HW121665   1.757   6.279   4.954
 6922SOL    HW221666   1.636   6.169   4.944
 6923SOL     OW21667   4.798   5.804   3.341
 6923SOL    HW121668   4.727   5.872   3.320
 6923SOL    HW221669   4.763   5.713   3.319
 6924SOL     OW21670   2.396   4.065   6.620
 6924SOL    HW121671   2.481   4.021   6.646
 6924SOL    HW221672   2.408   4.110   6.531
 6925SOL     OW21673   5.021   6.207   3.783
 6925SOL    HW121674   5.086   6.132   3.772
 6925SOL    HW221675   4.969   6.194   3.868
 6926SOL     OW21676   3.008   2.387   1.110
 6926SOL    HW121677   2.994   2.476   1.153
 6926SOL    HW221678   2.993   2.315   1.177
 6927SOL     OW21679   4.116   3.187   6.154
 6927SOL    HW121680   4.052   3.260   6.176
 6927SOL    HW221681   4.095   3.150   6.063
 6928SOL     OW21682   5.777   5.861   0.980
 6928SOL    HW121683   5.848   5.794   0.958
 6928SOL    HW221684   5.697   5.846   0.921
 6929SOL     OW21685   5.421   5.481   1.537
 6929SOL    HW121686   5.322   5.495   1.530
 6929SOL    HW221687   5.451   5.499   1.631
 6930SOL     OW21688   0.902   0.406   2.407
 6930SOL    HW121689   0.895   0.462   2.491
 6930SOL    HW221690   0.854   0.320   2.421
 6931SOL     OW21691   1.778   0.574   2.511
 6931SOL    HW121692   1.856   0.625   2.474
 6931SOL    HW221693   1.694   0.610   2.472
 6932SOL     OW21694   4.635   6.334   0.255
 6932SOL    HW121695   4.581   6.359   0.174
 6932SOL    HW221696   4.585   6.267   0.310
 6933SOL     OW21697   3.182   6.204   5.584
 6933SOL    HW121698   3.207   6.257   5.503
 6933SOL    HW221699   3.265   6.174   5.631
 6934SOL     OW21700   4.663   3.803   6.458
 6934SOL    HW121701   4.589   3.855   6.416
 6934SOL    HW221702   4.742   3.802   6.396
 6935SOL     OW21703   4.588   5.513   2.358
 6935SOL    HW121704   4.546   5.596   2.319
 6935SOL    HW221705   4.536   5.485   2.438
 6936SOL     OW21706   6.053   1.690   3.291
 6936SOL    HW121707   6.059   1.789   3.285
 6936SOL    HW221708   6.003   1.655   3.211
 6937SOL     OW21709   6.361   6.045   0.353
 6937SOL    HW121710   6.350   6.096   0.267
 6937SOL    HW221711   6.282   6.064   0.412
 6938SOL     OW21712   5.901   2.786   4.936
 6938SOL    HW121713   5.830   2.801   5.004
 6938SOL    HW221714   5.902   2.861   4.870
 6939SOL     OW21715   1.097   5.064   1.700
 6939SOL    HW121716   1.129   4.994   1.764
 6939SOL    HW221717   1.035   5.022   1.633
 6940SOL     OW21718   3.873   0.530   6.206
 6940SOL    HW121719   3.938   0.455   6.214
 6940SOL    HW221720   3.893   0.584   6.124
 6941SOL     OW21721   3.337   4.108   1.921
 6941SOL    HW121722   3.369   4.050   1.846
 6941SOL    HW221723   3.254   4.068   1.960
 6942SOL     OW21724   6.367   6.981   1.571
 6942SOL    HW121725   6.404   6.888   1.570
 6942SOL    HW221726   6.350   7.012   1.478
 6943SOL     OW21727   3.148   5.774   6.987
 6943SOL    HW121728   3.212   5.733   6.923
 6943SOL    HW221729   3.054   5.754   6.959
 6944SOL     OW21730   0.605   4.295   6.554
 6944SOL    HW121731   0.695   4.326   6.525
 6944SOL    HW221732   0.595   4.198   6.533
 6945SOL     OW21733   6.208   0.969   6.638
 6945SOL    HW121734   6.139   1.036   6.612
 6945SOL    HW221735   6.284   0.972   6.573
 6946SOL     OW21736   4.185   0.031   0.689
 6946SOL    HW121737   4.231   0.116   0.713
 6946SOL    HW221738   4.241   7.007   0.623
 6947SOL     OW21739   3.140   5.722   6.306
 6947SOL    HW121740   3.217   5.690   6.251
 6947SOL    HW221741   3.066   5.655   6.302
 6948SOL     OW21742   0.641   0.625   0.617
 6948SOL    HW121743   0.616   0.649   0.523
 6948SOL    HW221744   0.650   0.525   0.625
 6949SOL     OW21745   4.084   0.031   3.470
 6949SOL    HW121746   4.099   6.997   3.392
 6949SOL    HW221747   4.010   0.095   3.449
 6950SOL     OW21748   1.423   2.139   4.410
 6950SOL    HW121749   1.446   2.220   4.354
 6950SOL    HW221750   1.377   2.169   4.494
 6951SOL     OW21751   6.569   5.137   6.105
 6951SOL    HW121752   6.514   5.097   6.032
 6951SOL    HW221753   6.516   5.136   6.190
 6952SOL     OW21754   0.283   5.975   2.971
 6952SOL    HW121755   0.283   6.050   3.037
 6952SOL    HW221756   0.373   5.967   2.928
 6953SOL     OW21757   4.211   6.645   1.137
 6953SOL    HW121758   4.123   6.690   1.123
 6953SOL    HW221759   4.280   6.687   1.079
 6954SOL     OW21760   6.944   3.888   2.343
 6954SOL    HW121761   6.980   3.840   2.423
 6954SOL    HW221762   6.844   3.885   2.344
 6955SOL     OW21763   6.063   0.022   2.054
 6955SOL    HW121764   6.106   0.096   2.004
 6955SOL    HW221765   6.130   6.977   2.075
 6956SOL     OW21766   6.127   6.125   3.703
 6956SOL    HW121767   6.028   6.116   3.688
 6956SOL    HW221768   6.172   6.039   3.683
 6957SOL     OW21769   6.444   5.352   0.524
 6957SOL    HW121770   6.427   5.267   0.475
 6957SOL    HW221771   6.388   5.425   0.486
 6958SOL     OW21772   4.103   3.374   4.433
 6958SOL    HW121773   4.147   3.322   4.359
 6958SOL    HW221774   4.098   3.470   4.408
 6959SOL     OW21775   1.996   3.315   3.722
 6959SOL    HW121776   1.974   3.329   3.819
 6959SOL    HW221777   1.990   3.403   3.674
 6960SOL     OW21778   1.806   4.720   1.293
 6960SOL    HW121779   1.775   4.632   1.330
 6960SOL    HW221780   1.905   4.724   1.296
 6961SOL     OW21781   5.889   1.204   4.026
 6961SOL    HW121782   5.967   1.194   4.088
 6961SOL    HW221783   5.804   1.192   4.077
 6962SOL     OW21784   5.061   6.230   1.881
 6962SOL    HW121785   5.143   6.282   1.907
 6962SOL    HW221786   5.088   6.142   1.843
 6963SOL     OW21787   5.367   5.876   0.722
 6963SOL    HW121788   5.302   5.807   0.692
 6963SOL    HW221789   5.396   5.855   0.815
 6964SOL     OW21790   3.186   1.034   5.413
 6964SOL    HW121791   3.264   1.086   5.447
 6964SOL    HW221792   3.104   1.090   5.415
 6965SOL     OW21793   0.917   1.190   0.637
 6965SOL    HW121794   0.911   1.110   0.577
 6965SOL    HW221795   0.922   1.160   0.733
 6966SOL     OW21796   1.165   2.392   3.106
 6966SOL    HW121797   1.217   2.445   3.039
 6966SOL    HW221798   1.122   2.314   3.060
 6967SOL     OW21799   2.848   0.862   5.549
 6967SOL    HW121800   2.789   0.928   5.595
 6967SOL    HW221801   2.808   0.837   5.461
 6968SOL     OW21802   3.918   0.018   2.866
 6968SOL    HW121803   3.945   6.966   2.809
 6968SOL    HW221804   3.849   7.014   2.932
 6969SOL     OW21805   3.048   2.263   1.672
 6969SOL    HW121806   3.054   2.251   1.771
 6969SOL    HW221807   3.015   2.356   1.652
 6970SOL     OW21808   4.454   4.847   5.336
 6970SOL    HW121809   4.409   4.875   5.421
 6970SOL    HW221810   4.553   4.841   5.351
 6971SOL     OW21811   6.544   4.553   1.513
 6971SOL    HW121812   6.607   4.618   1.468
 6971SOL    HW221813   6.474   4.604   1.562
 6972SOL     OW21814   5.435   4.859   3.200
 6972SOL    HW121815   5.460   4.867   3.103
 6972SOL    HW221816   5.437   4.762   3.227
 6973SOL     OW21817   1.004   3.188   3.342
 6973SOL    HW121818   1.085   3.178   3.284
 6973SOL    HW221819   1.031   3.192   3.438
 6974SOL     OW21820   2.932   3.604   3.127
 6974SOL    HW121821   2.934   3.679   3.062
 6974SOL    HW221822   2.978   3.524   3.088
 6975SOL     OW21823   1.828   6.279   6.538
 6975SOL    HW121824   1.776   6.275   6.453
 6975SOL    HW221825   1.806   6.362   6.588
 6976SOL     OW21826   5.686   5.160   5.142
 6976SOL    HW121827   5.749   5.189   5.214
 6976SOL    HW221828   5.624   5.236   5.120
 6977SOL     OW21829   3.920   2.828   1.782
 6977SOL    HW121830   3.864   2.748   1.760
 6977SOL    HW221831   3.882   2.875   1.862
 6978SOL     OW21832   5.945   1.816   1.992
 6978SOL    HW121833   6.026   1.869   2.020
 6978SOL    HW221834   5.910   1.765   2.071
 6979SOL     OW21835   0.827   4.346   1.671
 6979SOL    HW121836   0.896   4.417   1.681
 6979SOL    HW221837   0.852   4.285   1.596
 6980SOL     OW21838   2.188   0.872   4.043
 6980SOL    HW121839   2.105   0.916   4.074
 6980SOL    HW221840   2.224   0.814   4.116
 6981SOL     OW21841   3.933   2.719   5.811
 6981SOL    HW121842   3.920   2.794   5.875
 6981SOL    HW221843   3.940   2.633   5.861
 6982SOL     OW21844   1.534   1.008   4.830
 6982SOL    HW121845   1.539   1.097   4.874
 6982SOL    HW221846   1.482   0.945   4.889
 6983SOL     OW21847   3.378   1.954   3.453
 6983SOL    HW121848   3.414   1.970   3.545
 6983SOL    HW221849   3.450   1.974   3.386
 6984SOL     OW21850   1.664   1.569   3.430
 6984SOL    HW121851   1.698   1.476   3.446
 6984SOL    HW221852   1.719   1.633   3.483
 6985SOL     OW21853   5.943   5.215   1.412
 6985SOL    HW121854   5.884   5.189   1.336
 6985SOL    HW221855   5.966   5.134   1.465
 6986SOL     OW21856   2.384   0.358   6.201
 6986SOL    HW121857   2.462   0.329   6.145
 6986SOL    HW221858   2.316   0.402   6.143
 6987SOL     OW21859   6.030   1.386   6.186
 6987SOL    HW121860   6.053   1.461   6.248
 6987SOL    HW221861   5.937   1.399   6.151
 6988SOL     OW21862   0.535   6.788   6.129
 6988SOL    HW121863   0.440   6.755   6.126
 6988SOL    HW221864   0.566   6.788   6.224
 6989SOL     OW21865   1.014   3.617   3.118
 6989SOL    HW121866   0.972   3.682   3.181
 6989SOL    HW221867   0.973   3.527   3.130
 6990SOL     OW21868   5.230   2.518   1.197
 6990SOL    HW121869   5.160   2.586   1.178
 6990SOL    HW221870   5.237   2.504   1.296
 6991SOL     OW21871   4.328   4.703   3.370
 6991SOL    HW121872   4.349   4.626   3.311
 6991SOL    HW221873   4.413   4.742   3.406
 6992SOL     OW21874   5.267   6.827   6.321
 6992SOL    HW121875   5.289   6.754   6.386
 6992SOL    HW221876   5.168   6.838   6.316
 6993SOL     OW21877   5.879   0.410   3.111
 6993SOL    HW121878   5.891   0.454   3.200
 6993SOL    HW221879   5.932   0.325   3.108
 6994SOL     OW21880   0.227   2.353   4.458
 6994SOL    HW121881   0.196   2.429   4.516
 6994SOL    HW221882   0.232   2.270   4.513
 6995SOL     OW21883   0.125   4.851   6.444
 6995SOL    HW121884   0.088   4.763   6.414
 6995SOL    HW221885   0.187   4.887   6.373
 6996SOL     OW21886   1.647   0.284   6.622
 6996SOL    HW121887   1.613   0.249   6.535
 6996SOL    HW221888   1.617   0.224   6.696
 6997SOL     OW21889   6.892   5.776   5.338
 6997SOL    HW121890   6.956   5.825   5.279
 6997SOL    HW221891   6.901   5.808   5.432
 6998SOL     OW21892   2.302   0.414   1.611
 6998SOL    HW121893   2.397   0.440   1.626
 6998SOL    HW221894   2.291   0.378   1.518
 6999SOL     OW21895   1.945   2.088   6.898
 6999SOL    HW121896   2.001   2.105   6.979
 6999SOL    HW221897   1.953   2.165   6.835
 7000SOL     OW21898   5.056   6.968   1.342
 7000SOL    HW121899   5.130   6.903   1.329
 7000SOL    HW221900   5.086   0.017   1.401
 7001SOL     OW21901   1.911   3.031   6.055
 7001SOL    HW121902   1.817   2.999   6.050
 7001SOL    HW221903   1.946   3.045   5.962
 7002SOL     OW21904   1.636   5.405   3.811
 7002SOL    HW121905   1.679   5.401   3.721
 7002SOL    HW221906   1.579   5.487   3.818
 7003SOL     OW21907   4.444   5.559   0.621
 7003SOL    HW121908   4.459   5.471   0.576
 7003SOL    HW221909   4.354   5.595   0.596
 7004SOL     OW21910   0.646   5.462   2.014
 7004SOL    HW121911   0.642   5.513   1.928
 7004SOL    HW221912   0.654   5.364   1.995
 7005SOL     OW21913   0.895   6.923   0.718
 7005SOL    HW121914   0.968   6.954   0.780
 7005SOL    HW221915   0.929   6.850   0.660
 7006SOL     OW21916   5.177   5.115   3.969
 7006SOL    HW121917   5.189   5.203   4.014
 7006SOL    HW221918   5.213   5.042   4.028
 7007SOL     OW21919   4.551   0.487   4.062
 7007SOL    HW121920   4.460   0.450   4.045
 7007SOL    HW221921   4.583   0.537   3.982
 7008SOL     OW21922   7.015   4.352   4.470
 7008SOL    HW121923   0.004   4.302   4.385
 7008SOL    HW221924   0.006   4.292   4.548
 7009SOL     OW21925   5.318   6.104   2.224
 7009SOL    HW121926   5.362   6.184   2.266
 7009SOL    HW221927   5.284   6.043   2.295
 7010SOL     OW21928   5.539   3.871   3.900
 7010SOL    HW121929   5.573   3.856   3.993
 7010SOL    HW221930   5.447   3.912   3.904
 7011SOL     OW21931   2.833   6.552   0.117
 7011SOL    HW121932   2.862   6.632   0.170
 7011SOL    HW221933   2.835   6.471   0.175
 7012SOL     OW21934   0.369   1.810   1.462
 7012SOL    HW121935   0.393   1.903   1.433
 7012SOL    HW221936   0.295   1.815   1.530
 7013SOL     OW21937   0.809   0.121   0.102
 7013SOL    HW121938   0.844   0.170   0.182
 7013SOL    HW221939   0.840   0.166   0.019
 7014SOL     OW21940   4.259   3.401   0.890
 7014SOL    HW121941   4.236   3.346   0.971
 7014SOL    HW221942   4.357   3.398   0.874
 7015SOL     OW21943   6.412   4.303   1.477
 7015SOL    HW121944   6.459   4.382   1.516
 7015SOL    HW221945   6.363   4.330   1.395
 7016SOL     OW21946   3.180   4.802   1.402
 7016SOL    HW121947   3.241   4.735   1.359
 7016SOL    HW221948   3.097   4.812   1.347
 7017SOL     OW21949   2.583   5.121   3.268
 7017SOL    HW121950   2.664   5.115   3.326
 7017SOL    HW221951   2.525   5.197   3.299
 7018SOL     OW21952   5.445   3.201   4.196
 7018SOL    HW121953   5.409   3.260   4.268
 7018SOL    HW221954   5.522   3.247   4.151
 7019SOL     OW21955   4.137   4.210   0.411
 7019SOL    HW121956   4.215   4.149   0.401
 7019SOL    HW221957   4.169   4.303   0.428
 7020SOL     OW21958   6.484   4.504   5.980
 7020SOL    HW121959   6.553   4.485   6.050
 7020SOL    HW221960   6.494   4.598   5.948
 7021SOL     OW21961   1.555   2.041   5.680
 7021SOL    HW121962   1.639   2.069   5.634
 7021SOL    HW221963   1.483   2.027   5.613
 7022SOL     OW21964   4.545   6.509   5.739
 7022SOL    HW121965   4.502   6.419   5.728
 7022SOL    HW221966   4.625   6.515   5.679
 7023SOL     OW21967   0.810   2.627   3.616
 7023SOL    HW121968   0.845   2.533   3.618
 7023SOL    HW221969   0.750   2.638   3.537
 7024SOL     OW21970   2.719   3.640   5.301
 7024SOL    HW121971   2.753   3.547   5.295
 7024SOL    HW221972   2.782   3.702   5.253
 7025SOL     OW21973   3.410   0.839   0.506
 7025SOL    HW121974   3.449   0.762   0.455
 7025SOL    HW221975   3.335   0.806   0.564
 7026SOL     OW21976   3.313   2.015   2.147
 7026SOL    HW121977   3.298   1.932   2.200
 7026SOL    HW221978   3.404   2.013   2.106
 7027SOL     OW21979   2.248   4.937   4.226
 7027SOL    HW121980   2.221   4.951   4.322
 7027SOL    HW221981   2.242   4.840   4.203
 7028SOL     OW21982   3.290   1.681   3.434
 7028SOL    HW121983   3.194   1.709   3.433
 7028SOL    HW221984   3.349   1.762   3.429
 7029SOL     OW21985   4.773   4.807   4.664
 7029SOL    HW121986   4.786   4.791   4.566
 7029SOL    HW221987   4.861   4.800   4.711
 7030SOL     OW21988   1.104   0.689   5.023
 7030SOL    HW121989   1.161   0.642   5.090
 7030SOL    HW221990   1.059   0.622   4.964
 7031SOL     OW21991   4.027   5.799   6.012
 7031SOL    HW121992   4.109   5.760   6.055
 7031SOL    HW221993   3.965   5.726   5.986
 7032SOL     OW21994   4.341   1.523   3.881
 7032SOL    HW121995   4.365   1.585   3.807
 7032SOL    HW221996   4.362   1.429   3.854
 7033SOL     OW21997   1.653   2.405   3.388
 7033SOL    HW121998   1.583   2.438   3.451
 7033SOL    HW221999   1.609   2.358   3.311
 7034SOL     OW22000   0.124   0.625   3.425
 7034SOL    HW122001   0.147   0.528   3.437
 7034SOL    HW222002   0.098   0.642   3.330
 7035SOL     OW22003   1.688   6.910   1.004
 7035SOL    HW122004   1.738   6.963   1.073
 7035SOL    HW222005   1.620   6.852   1.049
 7036SOL     OW22006   0.036   0.262   2.956
 7036SOL    HW122007   6.992   0.332   2.965
 7036SOL    HW222008   0.124   0.298   2.988
 7037SOL     OW22009   1.526   1.134   6.711
 7037SOL    HW122010   1.593   1.202   6.742
 7037SOL    HW222011   1.478   1.097   6.790
 7038SOL     OW22012   2.217   3.562   5.107
 7038SOL    HW122013   2.218   3.652   5.151
 7038SOL    HW222014   2.199   3.574   5.009
 7039SOL     OW22015   1.782   5.473   2.553
 7039SOL    HW122016   1.820   5.537   2.619
 7039SOL    HW222017   1.855   5.441   2.492
 7040SOL     OW22018   5.347   2.339   5.871
 7040SOL    HW122019   5.334   2.253   5.920
 7040SOL    HW222020   5.299   2.335   5.783
 7041SOL     OW22021   6.764   1.609   1.874
 7041SOL    HW122022   6.770   1.517   1.912
 7041SOL    HW222023   6.697   1.662   1.927
 7042SOL     OW22024   4.257   5.771   5.156
 7042SOL    HW122025   4.300   5.685   5.183
 7042SOL    HW222026   4.178   5.752   5.098
 7043SOL     OW22027   2.353   5.130   2.888
 7043SOL    HW122028   2.436   5.182   2.911
 7043SOL    HW222029   2.314   5.091   2.971
 7044SOL     OW22030   5.754   4.921   4.464
 7044SOL    HW122031   5.794   4.943   4.553
 7044SOL    HW222032   5.763   5.001   4.403
 7045SOL     OW22033   4.809   5.411   2.660
 7045SOL    HW122034   4.737   5.429   2.593
 7045SOL    HW222035   4.839   5.316   2.652
 7046SOL     OW22036   2.805   1.135   3.578
 7046SOL    HW122037   2.731   1.183   3.625
 7046SOL    HW222038   2.829   1.184   3.494
 7047SOL     OW22039   6.421   0.999   2.395
 7047SOL    HW122040   6.488   0.935   2.432
 7047SOL    HW222041   6.350   1.015   2.464
 7048SOL     OW22042   5.430   0.013   3.748
 7048SOL    HW122043   5.372   0.090   3.721
 7048SOL    HW222044   5.389   6.993   3.827
 7049SOL     OW22045   3.356   1.744   0.666
 7049SOL    HW122046   3.361   1.808   0.743
 7049SOL    HW222047   3.409   1.781   0.589
 7050SOL     OW22048   4.035   3.881   1.807
 7050SOL    HW122049   4.067   3.790   1.782
 7050SOL    HW222050   4.018   3.885   1.905
 7051SOL     OW22051   6.585   6.542   1.083
 7051SOL    HW122052   6.599   6.512   0.988
 7051SOL    HW222053   6.647   6.491   1.143
 7052SOL     OW22054   5.871   1.956   3.610
 7052SOL    HW122055   5.886   1.962   3.511
 7052SOL    HW222056   5.786   1.905   3.627
 7053SOL     OW22057   1.833   3.029   4.922
 7053SOL    HW122058   1.914   2.972   4.934
 7053SOL    HW222059   1.798   3.056   5.012
 7054SOL     OW22060   6.667   0.048   0.564
 7054SOL    HW122061   6.641   6.978   0.551
 7054SOL    HW222062   6.760   0.053   0.599
 7055SOL     OW22063   2.730   6.855   6.246
 7055SOL    HW122064   2.656   6.825   6.306
 7055SOL    HW222065   2.696   6.924   6.183
 7056SOL     OW22066   6.922   5.305   1.705
 7056SOL    HW122067   6.868   5.262   1.777
 7056SOL    HW222068   6.990   5.366   1.746
 7057SOL     OW22069   2.709   4.730   3.658
 7057SOL    HW122070   2.658   4.816   3.668
 7057SOL    HW222071   2.648   4.653   3.675
 7058SOL     OW22072   5.499   3.857   5.134
 7058SOL    HW122073   5.492   3.759   5.115
 7058SOL    HW222074   5.407   3.895   5.143
 7059SOL     OW22075   0.683   1.784   3.926
 7059SOL    HW122076   0.733   1.870   3.917
 7059SOL    HW222077   0.723   1.715   3.865
 7060SOL     OW22078   3.371   0.208   1.871
 7060SOL    HW122079   3.390   0.125   1.924
 7060SOL    HW222080   3.340   0.182   1.780
 7061SOL     OW22081   0.055   3.117   4.020
 7061SOL    HW122082   0.124   3.057   3.979
 7061SOL    HW222083   7.020   3.063   4.077
 7062SOL     OW22084   3.560   2.502   5.431
 7062SOL    HW122085   3.532   2.447   5.510
 7062SOL    HW222086   3.479   2.547   5.392
 7063SOL     OW22087   1.651   6.519   1.851
 7063SOL    HW122088   1.744   6.549   1.872
 7063SOL    HW222089   1.632   6.534   1.754
 7064SOL     OW22090   3.783   1.960   6.822
 7064SOL    HW122091   3.863   2.011   6.852
 7064SOL    HW222092   3.812   1.885   6.762
 7065SOL     OW22093   4.605   3.919   6.096
 7065SOL    HW122094   4.583   3.822   6.104
 7065SOL    HW222095   4.618   3.942   5.999
 7066SOL     OW22096   4.126   0.030   6.374
 7066SOL    HW122097   4.031   0.004   6.389
 7066SOL    HW222098   4.180   6.973   6.356
 7067SOL     OW22099   1.439   3.046   5.323
 7067SOL    HW122100   1.464   3.086   5.235
 7067SOL    HW222101   1.433   2.946   5.313
 7068SOL     OW22102   6.081   4.243   4.681
 7068SOL    HW122103   6.018   4.250   4.759
 7068SOL    HW222104   6.032   4.207   4.602
 7069SOL     OW22105   5.138   2.334   4.620
 7069SOL    HW122106   5.174   2.387   4.697
 7069SOL    HW222107   5.054   2.376   4.586
 7070SOL     OW22108   0.382   6.800   4.524
 7070SOL    HW122109   0.365   6.837   4.432
 7070SOL    HW222110   0.305   6.742   4.551
 7071SOL     OW22111   3.617   6.175   5.780
 7071SOL    HW122112   3.575   6.250   5.830
 7071SOL    HW222113   3.715   6.193   5.770
 7072SOL     OW22114   1.796   5.840   6.998
 7072SOL    HW122115   1.803   5.747   0.008
 7072SOL    HW222116   1.729   5.892   0.026
 7073SOL     OW22117   5.795   0.280   3.849
 7073SOL    HW122118   5.876   0.286   3.908
 7073SOL    HW222119   5.735   0.207   3.883
 7074SOL     OW22120   6.206   2.549   1.848
 7074SOL    HW122121   6.299   2.537   1.883
 7074SOL    HW222122   6.152   2.467   1.868
 7075SOL     OW22123   1.709   4.440   4.955
 7075SOL    HW122124   1.705   4.479   4.863
 7075SOL    HW222125   1.803   4.412   4.975
 7076SOL     OW22126   5.499   2.830   0.295
 7076SOL    HW122127   5.490   2.929   0.292
 7076SOL    HW222128   5.595   2.805   0.310
 7077SOL     OW22129   2.172   4.664   3.768
 7077SOL    HW122130   2.109   4.588   3.771
 7077SOL    HW222131   2.205   4.677   3.674
 7078SOL     OW22132   6.712   6.296   2.159
 7078SOL    HW122133   6.701   6.212   2.212
 7078SOL    HW222134   6.808   6.307   2.132
 7079SOL     OW22135   0.899   0.089   4.385
 7079SOL    HW122136   0.834   0.096   4.460
 7079SOL    HW222137   0.965   0.016   4.405
 7080SOL     OW22138   3.479   1.557   4.939
 7080SOL    HW122139   3.496   1.654   4.953
 7080SOL    HW222140   3.431   1.544   4.852
 7081SOL     OW22141   2.046   5.908   0.109
 7081SOL    HW122142   1.953   5.877   0.093
 7081SOL    HW222143   2.069   5.981   0.044
 7082SOL     OW22144   6.653   4.635   6.839
 7082SOL    HW122145   6.671   4.662   6.933
 7082SOL    HW222146   6.740   4.627   6.789
 7083SOL     OW22147   1.895   0.821   1.837
 7083SOL    HW122148   1.849   0.859   1.757
 7083SOL    HW222149   1.989   0.855   1.841
 7084SOL     OW22150   0.524   5.264   5.115
 7084SOL    HW122151   0.469   5.300   5.040
 7084SOL    HW222152   0.600   5.326   5.135
 7085SOL     OW22153   0.213   1.648   2.586
 7085SOL    HW122154   0.282   1.579   2.609
 7085SOL    HW222155   0.256   1.738   2.582
 7086SOL     OW22156   6.044   0.533   5.771
 7086SOL    HW122157   6.089   0.617   5.802
 7086SOL    HW222158   6.107   0.456   5.779
 7087SOL     OW22159   5.825   3.966   3.150
 7087SOL    HW122160   5.832   4.015   3.236
 7087SOL    HW222161   5.760   3.891   3.159
 7088SOL     OW22162   4.845   2.641   4.190
 7088SOL    HW122163   4.808   2.639   4.097
 7088SOL    HW222164   4.849   2.548   4.227
 7089SOL     OW22165   2.779   2.141   4.751
 7089SOL    HW122166   2.858   2.140   4.811
 7089SOL    HW222167   2.714   2.210   4.782
 7090SOL     OW22168   1.927   0.957   0.628
 7090SOL    HW122169   1.944   0.957   0.529
 7090SOL    HW222170   1.843   1.007   0.646
 7091SOL     OW22171   0.118   1.695   0.950
 7091SOL    HW122172   0.209   1.736   0.939
 7091SOL    HW222173   0.080   1.723   1.038
 7092SOL     OW22174   4.250   2.906   5.337
 7092SOL    HW122175   4.232   2.807   5.334
 7092SOL    HW222176   4.348   2.921   5.337
 7093SOL     OW22177   3.113   4.063   2.063
 7093SOL    HW122178   3.056   3.981   2.059
 7093SOL    HW222179   3.172   4.059   2.143
 7094SOL     OW22180   0.306   6.062   5.698
 7094SOL    HW122181   0.364   5.983   5.719
 7094SOL    HW222182   0.348   6.114   5.624
 7095SOL     OW22183   3.276   4.715   5.805
 7095SOL    HW122184   3.290   4.698   5.707
 7095SOL    HW222185   3.198   4.777   5.817
 7096SOL     OW22186   6.693   0.582   2.313
 7096SOL    HW122187   6.783   0.624   2.301
 7096SOL    HW222188   6.684   0.549   2.407
 7097SOL     OW22189   4.747   0.843   1.486
 7097SOL    HW122190   4.693   0.927   1.497
 7097SOL    HW222191   4.685   0.765   1.480
 7098SOL     OW22192   2.401   5.588   5.519
 7098SOL    HW122193   2.427   5.539   5.602
 7098SOL    HW222194   2.309   5.559   5.491
 7099SOL     OW22195   3.697   1.480   5.190
 7099SOL    HW122196   3.645   1.561   5.165
 7099SOL    HW222197   3.714   1.425   5.108
 7100SOL     OW22198   6.712   3.486   6.983
 7100SOL    HW122199   6.737   3.534   0.040
 7100SOL    HW222200   6.625   3.439   6.996
 7101SOL     OW22201   2.661   1.776   5.668
 7101SOL    HW122202   2.582   1.798   5.726
 7101SOL    HW222203   2.628   1.741   5.580
 7102SOL     OW22204   5.274   0.112   1.116
 7102SOL    HW122205   5.338   0.078   1.185
 7102SOL    HW222206   5.213   0.179   1.157
 7103SOL     OW22207   6.085   5.396   1.837
 7103SOL    HW122208   6.076   5.495   1.829
 7103SOL    HW222209   6.022   5.363   1.907
 7104SOL     OW22210   6.538   3.772   2.799
 7104SOL    HW122211   6.594   3.821   2.866
 7104SOL    HW222212   6.457   3.734   2.844
 7105SOL     OW22213   2.800   3.338   5.204
 7105SOL    HW122214   2.813   3.326   5.106
 7105SOL    HW222215   2.708   3.306   5.230
 7106SOL     OW22216   3.514   3.209   2.195
 7106SOL    HW122217   3.612   3.228   2.207
 7106SOL    HW222218   3.470   3.206   2.285
 7107SOL     OW22219   4.789   0.344   0.599
 7107SOL    HW122220   4.700   0.382   0.621
 7107SOL    HW222221   4.849   0.417   0.566
 7108SOL     OW22222   3.289   5.947   2.676
 7108SOL    HW122223   3.262   6.014   2.608
 7108SOL    HW222224   3.371   5.979   2.724
 7109SOL     OW22225   1.735   6.765   5.576
 7109SOL    HW122226   1.799   6.783   5.502
 7109SOL    HW222227   1.738   6.668   5.600
 7110SOL     OW22228   2.810   5.460   4.369
 7110SOL    HW122229   2.888   5.512   4.405
 7110SOL    HW222230   2.810   5.368   4.407
 7111SOL     OW22231   1.033   2.430   5.177
 7111SOL    HW122232   1.019   2.352   5.117
 7111SOL    HW222233   1.131   2.442   5.194
 7112SOL     OW22234   1.606   5.264   4.259
 7112SOL    HW122235   1.672   5.319   4.311
 7112SOL    HW222236   1.547   5.324   4.205
 7113SOL     OW22237   3.427   4.123   4.846
 7113SOL    HW122238   3.436   4.024   4.851
 7113SOL    HW222239   3.339   4.151   4.884
 7114SOL     OW22240   5.247   5.644   0.857
 7114SOL    HW122241   5.335   5.627   0.900
 7114SOL    HW222242   5.205   5.725   0.898
 7115SOL     OW22243   4.448   2.733   0.079
 7115SOL    HW122244   4.522   2.794   0.107
 7115SOL    HW222245   4.372   2.742   0.143
 7116SOL     OW22246   5.630   4.551   3.070
 7116SOL    HW122247   5.716   4.594   3.042
 7116SOL    HW222248   5.623   4.461   3.026
 7117SOL     OW22249   0.733   6.073   5.184
 7117SOL    HW122250   0.652   6.114   5.226
 7117SOL    HW222251   0.813   6.087   5.243
 7118SOL     OW22252   3.425   4.759   6.391
 7118SOL    HW122253   3.518   4.740   6.422
 7118SOL    HW222254   3.418   4.854   6.361
 7119SOL     OW22255   5.252   0.953   4.096
 7119SOL    HW122256   5.319   1.010   4.049
 7119SOL    HW222257   5.182   1.011   4.138
 7120SOL     OW22258   3.546   1.991   2.013
 7120SOL    HW122259   3.596   1.922   1.960
 7120SOL    HW222260   3.596   2.078   2.010
 7121SOL     OW22261   0.599   6.803   3.744
 7121SOL    HW122262   0.540   6.727   3.774
 7121SOL    HW222263   0.553   6.854   3.672
 7122SOL     OW22264   1.212   0.648   5.988
 7122SOL    HW122265   1.259   0.726   6.031
 7122SOL    HW222266   1.275   0.602   5.926
 7123SOL     OW22267   1.293   4.956   3.726
 7123SOL    HW122268   1.328   5.038   3.772
 7123SOL    HW222269   1.288   4.973   3.628
 7124SOL     OW22270   0.031   2.623   1.564
 7124SOL    HW122271   7.020   2.541   1.609
 7124SOL    HW222272   0.074   2.682   1.632
 7125SOL     OW22273   0.685   0.371   0.588
 7125SOL    HW122274   0.692   0.362   0.489
 7125SOL    HW222275   0.678   0.279   0.629
 7126SOL     OW22276   3.488   5.065   0.794
 7126SOL    HW122277   3.428   5.113   0.857
 7126SOL    HW222278   3.435   5.037   0.714
 7127SOL     OW22279   2.438   6.040   6.756
 7127SOL    HW122280   2.470   5.987   6.677
 7127SOL    HW222281   2.349   6.006   6.784
 7128SOL     OW22282   3.519   4.060   6.600
 7128SOL    HW122283   3.501   4.146   6.648
 7128SOL    HW222284   3.458   4.051   6.522
 7129SOL     OW22285   2.205   1.428   0.471
 7129SOL    HW122286   2.224   1.330   0.480
 7129SOL    HW222287   2.290   1.477   0.454
 7130SOL     OW22288   3.522   5.766   3.713
 7130SOL    HW122289   3.541   5.670   3.689
 7130SOL    HW222290   3.576   5.826   3.653
 7131SOL     OW22291   2.947   1.068   1.580
 7131SOL    HW122292   2.921   1.119   1.662
 7131SOL    HW222293   3.014   0.998   1.604
 7132SOL     OW22294   4.020   4.178   0.109
 7132SOL    HW122295   4.061   4.263   0.074
 7132SOL    HW222296   4.050   4.163   0.203
 7133SOL     OW22297   4.096   4.761   5.243
 7133SOL    HW122298   4.043   4.831   5.291
 7133SOL    HW222299   4.040   4.678   5.233
 7134SOL     OW22300   4.685   6.558   1.713
 7134SOL    HW122301   4.763   6.518   1.762
 7134SOL    HW222302   4.631   6.613   1.777
 7135SOL     OW22303   1.885   2.293   3.509
 7135SOL    HW122304   1.926   2.225   3.448
 7135SOL    HW222305   1.834   2.360   3.456
 7136SOL     OW22306   2.735   1.951   0.275
 7136SOL    HW122307   2.823   1.999   0.265
 7136SOL    HW222308   2.680   1.997   0.344
 7137SOL     OW22309   2.653   1.690   0.322
 7137SOL    HW122310   2.652   1.775   0.270
 7137SOL    HW222311   2.744   1.650   0.319
 7138SOL     OW22312   1.882   2.109   0.633
 7138SOL    HW122313   1.936   2.078   0.712
 7138SOL    HW222314   1.943   2.149   0.565
 7139SOL     OW22315   5.115   5.120   1.797
 7139SOL    HW122316   5.189   5.187   1.805
 7139SOL    HW222317   5.040   5.159   1.745
 7140SOL     OW22318   6.332   4.160   1.043
 7140SOL    HW122319   6.253   4.166   0.981
 7140SOL    HW222320   6.317   4.219   1.122
 7141SOL     OW22321   3.429   6.461   0.905
 7141SOL    HW122322   3.434   6.490   1.000
 7141SOL    HW222323   3.359   6.514   0.857
 7142SOL     OW22324   4.331   6.547   3.547
 7142SOL    HW122325   4.335   6.459   3.498
 7142SOL    HW222326   4.418   6.563   3.593
 7143SOL     OW22327   2.113   3.574   0.181
 7143SOL    HW122328   2.186   3.594   0.246
 7143SOL    HW222329   2.125   3.483   0.142
 7144SOL     OW22330   1.550   1.496   2.976
 7144SOL    HW122331   1.578   1.586   2.943
 7144SOL    HW222332   1.469   1.505   3.034
 7145SOL     OW22333   3.666   0.858   6.619
 7145SOL    HW122334   3.671   0.810   6.532
 7145SOL    HW222335   3.591   0.924   6.617
 7146SOL     OW22336   1.549   0.529   6.607
 7146SOL    HW122337   1.569   0.435   6.634
 7146SOL    HW222338   1.581   0.592   6.677
 7147SOL     OW22339   0.247   6.161   3.213
 7147SOL    HW122340   0.226   6.078   3.264
 7147SOL    HW222341   0.343   6.186   3.227
 7148SOL     OW22342   6.658   6.378   1.323
 7148SOL    HW122343   6.687   6.447   1.390
 7148SOL    HW222344   6.560   6.388   1.306
 7149SOL     OW22345   0.317   6.143   4.583
 7149SOL    HW122346   0.344   6.178   4.673
 7149SOL    HW222347   0.286   6.219   4.526
 7150SOL     OW22348   3.668   2.886   0.775
 7150SOL    HW122349   3.603   2.812   0.759
 7150SOL    HW222350   3.678   2.940   0.692
 7151SOL     OW22351   3.537   6.698   1.063
 7151SOL    HW122352   3.604   6.755   1.016
 7151SOL    HW222353   3.501   6.747   1.143
 7152SOL     OW22354   6.947   0.747   5.483
 7152SOL    HW122355   6.907   0.745   5.392
 7152SOL    HW222356   6.874   0.750   5.552
 7153SOL     OW22357   4.121   5.111   1.576
 7153SOL    HW122358   4.110   5.167   1.659
 7153SOL    HW222359   4.158   5.167   1.503
 7154SOL     OW22360   5.106   6.096   2.966
 7154SOL    HW122361   5.115   6.094   3.066
 7154SOL    HW222362   5.123   6.189   2.933
 7155SOL     OW22363   2.910   3.394   1.213
 7155SOL    HW122364   2.836   3.344   1.259
 7155SOL    HW222365   2.931   3.348   1.126
 7156SOL     OW22366   6.509   3.840   2.539
 7156SOL    HW122367   6.428   3.887   2.506
 7156SOL    HW222368   6.502   3.824   2.637
 7157SOL     OW22369   0.287   4.792   1.423
 7157SOL    HW122370   0.367   4.811   1.480
 7157SOL    HW222371   0.211   4.763   1.481
 7158SOL     OW22372   0.746   0.301   3.969
 7158SOL    HW122373   0.784   0.264   4.053
 7158SOL    HW222374   0.820   0.329   3.908
 7159SOL     OW22375   0.770   4.960   4.066
 7159SOL    HW122376   0.791   4.893   3.995
 7159SOL    HW222377   0.842   4.958   4.136
 7160SOL     OW22378   6.348   7.021   2.990
 7160SOL    HW122379   6.443   7.019   3.021
 7160SOL    HW222380   6.304   0.080   3.020
 7161SOL     OW22381   3.273   3.892   2.964
 7161SOL    HW122382   3.284   3.803   3.009
 7161SOL    HW222383   3.226   3.879   2.876
 7162SOL     OW22384   1.485   5.235   6.198
 7162SOL    HW122385   1.403   5.248   6.143
 7162SOL    HW222386   1.487   5.303   6.271
 7163SOL     OW22387   2.894   0.405   2.636
 7163SOL    HW122388   2.949   0.448   2.564
 7163SOL    HW222389   2.797   0.421   2.617
 7164SOL     OW22390   3.203   0.924   5.114
 7164SOL    HW122391   3.167   0.859   5.048
 7164SOL    HW222392   3.135   0.994   5.133
 7165SOL     OW22393   5.832   6.728   1.735
 7165SOL    HW122394   5.806   6.657   1.801
 7165SOL    HW222395   5.846   6.814   1.784
 7166SOL     OW22396   5.017   1.981   0.335
 7166SOL    HW122397   4.961   1.933   0.402
 7166SOL    HW222398   4.997   1.945   0.243
 7167SOL     OW22399   5.277   3.302   4.696
 7167SOL    HW122400   5.179   3.304   4.674
 7167SOL    HW222401   5.297   3.221   4.751
 7168SOL     OW22402   2.161   2.183   3.625
 7168SOL    HW122403   2.107   2.255   3.580
 7168SOL    HW222404   2.258   2.199   3.608
 7169SOL     OW22405   6.620   4.092   5.840
 7169SOL    HW122406   6.599   3.996   5.820
 7169SOL    HW222407   6.594   4.113   5.934
 7170SOL     OW22408   4.522   0.091   2.511
 7170SOL    HW122409   4.513   0.061   2.416
 7170SOL    HW222410   4.590   0.164   2.517
 7171SOL     OW22411   6.162   4.306   0.468
 7171SOL    HW122412   6.243   4.336   0.416
 7171SOL    HW222413   6.137   4.214   0.441
 7172SOL     OW22414   1.628   0.150   4.716
 7172SOL    HW122415   1.646   0.137   4.619
 7172SOL    HW222416   1.703   0.112   4.770
 7173SOL     OW22417   6.470   4.327   0.338
 7173SOL    HW122418   6.474   4.407   0.278
 7173SOL    HW222419   6.422   4.253   0.292
 7174SOL     OW22420   0.962   4.066   0.885
 7174SOL    HW122421   1.016   4.040   0.805
 7174SOL    HW222422   0.958   3.989   0.949
 7175SOL     OW22423   6.115   2.928   5.217
 7175SOL    HW122424   6.142   2.870   5.141
 7175SOL    HW222425   6.049   2.880   5.275
 7176SOL     OW22426   0.187   1.404   3.195
 7176SOL    HW122427   0.166   1.392   3.098
 7176SOL    HW222428   0.124   1.349   3.250
 7177SOL     OW22429   1.248   4.838   4.933
 7177SOL    HW122430   1.338   4.808   4.903
 7177SOL    HW222431   1.197   4.760   4.970
 7178SOL     OW22432   6.923   1.948   5.683
 7178SOL    HW122433   6.988   1.942   5.758
 7178SOL    HW222434   6.964   2.001   5.608
 7179SOL     OW22435   1.809   3.669   4.583
 7179SOL    HW122436   1.900   3.663   4.543
 7179SOL    HW222437   1.816   3.676   4.682
 7180SOL     OW22438   2.166   4.347   0.533
 7180SOL    HW122439   2.103   4.403   0.587
 7180SOL    HW222440   2.115   4.296   0.464
 7181SOL     OW22441   2.403   0.368   0.351
 7181SOL    HW122442   2.474   0.438   0.354
 7181SOL    HW222443   2.335   0.392   0.281
 7182SOL     OW22444   0.251   3.788   3.997
 7182SOL    HW122445   0.254   3.888   3.992
 7182SOL    HW222446   0.172   3.755   3.945
 7183SOL     OW22447   1.899   5.673   1.633
 7183SOL    HW122448   1.850   5.632   1.555
 7183SOL    HW222449   1.910   5.604   1.704
 7184SOL     OW22450   6.919   1.244   4.001
 7184SOL    HW122451   6.898   1.256   3.904
 7184SOL    HW222452   7.012   1.275   4.018
 7185SOL     OW22453   5.226   1.297   5.566
 7185SOL    HW122454   5.281   1.313   5.648
 7185SOL    HW222455   5.225   1.199   5.545
 7186SOL     OW22456   6.583   1.996   1.727
 7186SOL    HW122457   6.683   1.991   1.729
 7186SOL    HW222458   6.546   1.965   1.814
 7187SOL     OW22459   2.847   3.981   5.255
 7187SOL    HW122460   2.846   3.911   5.184
 7187SOL    HW222461   2.754   4.011   5.274
 7188SOL     OW22462   4.648   6.304   6.952
 7188SOL    HW122463   4.591   6.369   7.002
 7188SOL    HW222464   4.640   6.321   6.854
 7189SOL     OW22465   6.835   1.493   5.695
 7189SOL    HW122466   6.885   1.414   5.658
 7189SOL    HW222467   6.786   1.466   5.778
 7190SOL     OW22468   6.582   5.138   1.667
 7190SOL    HW122469   6.504   5.113   1.611
 7190SOL    HW222470   6.665   5.096   1.630
 7191SOL     OW22471   1.658   4.917   2.641
 7191SOL    HW122472   1.706   4.838   2.678
 7191SOL    HW222473   1.680   4.928   2.545
 7192SOL     OW22474   1.571   4.248   5.677
 7192SOL    HW122475   1.627   4.247   5.760
 7192SOL    HW222476   1.593   4.169   5.621
 7193SOL     OW22477   1.488   2.488   2.020
 7193SOL    HW122478   1.402   2.442   1.996
 7193SOL    HW222479   1.551   2.481   1.943
 7194SOL     OW22480   1.807   2.787   7.003
 7194SOL    HW122481   1.820   2.688   6.999
 7194SOL    HW222482   1.713   2.807   0.006
 7195SOL     OW22483   0.150   4.189   0.308
 7195SOL    HW122484   0.234   4.222   0.353
 7195SOL    HW222485   0.119   4.106   0.353
 7196SOL     OW22486   2.367   3.705   1.678
 7196SOL    HW122487   2.369   3.786   1.737
 7196SOL    HW222488   2.404   3.627   1.727
 7197SOL     OW22489   0.713   3.022   5.539
 7197SOL    HW122490   0.697   3.116   5.568
 7197SOL    HW222491   0.646   2.962   5.583
 7198SOL     OW22492   0.081   1.208   0.528
 7198SOL    HW122493   0.025   1.189   0.447
 7198SOL    HW222494   0.168   1.247   0.500
 7199SOL     OW22495   0.791   0.152   2.551
 7199SOL    HW122496   0.700   0.115   2.571
 7199SOL    HW222497   0.857   0.077   2.545
 7200SOL     OW22498   2.105   2.722   6.707
 7200SOL    HW122499   2.160   2.639   6.718
 7200SOL    HW222500   2.110   2.753   6.612
 7201SOL     OW22501   0.800   5.774   3.911
 7201SOL    HW122502   0.885   5.769   3.963
 7201SOL    HW222503   0.722   5.768   3.975
 7202SOL     OW22504   4.222   6.924   6.790
 7202SOL    HW122505   4.123   6.922   6.798
 7202SOL    HW222506   4.253   7.017   6.770
 7203SOL     OW22507   6.696   0.938   1.398
 7203SOL    HW122508   6.713   0.845   1.431
 7203SOL    HW222509   6.658   0.934   1.306
 7204SOL     OW22510   0.339   1.161   5.857
 7204SOL    HW122511   0.290   1.243   5.887
 7204SOL    HW222512   0.319   1.144   5.760
 7205SOL     OW22513   1.232   4.122   5.255
 7205SOL    HW122514   1.259   4.099   5.162
 7205SOL    HW222515   1.312   4.154   5.306
 7206SOL     OW22516   1.166   0.264   2.389
 7206SOL    HW122517   1.167   0.363   2.404
 7206SOL    HW222518   1.163   0.217   2.477
 7207SOL     OW22519   3.789   0.190   3.815
 7207SOL    HW122520   3.844   0.196   3.899
 7207SOL    HW222521   3.768   0.282   3.782
 7208SOL     OW22522   4.545   6.957   3.912
 7208SOL    HW122523   4.528   7.026   3.982
 7208SOL    HW222524   4.467   6.951   3.850
 7209SOL     OW22525   2.655   2.976   1.707
 7209SOL    HW122526   2.737   2.961   1.653
 7209SOL    HW222527   2.644   3.074   1.725
 7210SOL     OW22528   3.842   1.245   2.740
 7210SOL    HW122529   3.766   1.265   2.677
 7210SOL    HW222530   3.808   1.192   2.817
 7211SOL     OW22531   1.977   6.021   4.978
 7211SOL    HW122532   1.938   6.113   4.972
 7211SOL    HW222533   2.067   6.019   4.935
 7212SOL     OW22534   0.628   6.548   5.106
 7212SOL    HW122535   0.683   6.521   5.028
 7212SOL    HW222536   0.541   6.498   5.105
 7213SOL     OW22537   3.954   6.583   6.841
 7213SOL    HW122538   4.043   6.548   6.872
 7213SOL    HW222539   3.957   6.683   6.841
 7214SOL     OW22540   0.017   0.279   4.700
 7214SOL    HW122541   6.961   0.278   4.643
 7214SOL    HW222542   7.023   0.233   4.787
 7215SOL     OW22543   6.616   3.121   4.005
 7215SOL    HW122544   6.675   3.044   4.031
 7215SOL    HW222545   6.530   3.115   4.056
 7216SOL     OW22546   3.288   6.894   0.910
 7216SOL    HW122547   3.379   6.855   0.899
 7216SOL    HW222548   3.278   6.975   0.852
 7217SOL     OW22549   2.076   4.246   3.526
 7217SOL    HW122550   2.125   4.166   3.562
 7217SOL    HW222551   2.095   4.254   3.428
 7218SOL     OW22552   6.323   2.550   4.050
 7218SOL    HW122553   6.341   2.481   4.120
 7218SOL    HW222554   6.268   2.510   3.977
 7219SOL     OW22555   3.634   0.509   3.188
 7219SOL    HW122556   3.663   0.534   3.096
 7219SOL    HW222557   3.691   0.434   3.222
 7220SOL     OW22558   6.536   4.254   4.752
 7220SOL    HW122559   6.518   4.256   4.850
 7220SOL    HW222560   6.600   4.179   4.731
 7221SOL     OW22561   3.478   5.736   4.484
 7221SOL    HW122562   3.506   5.803   4.416
 7221SOL    HW222563   3.419   5.668   4.441
 7222SOL     OW22564   6.371   6.479   3.676
 7222SOL    HW122565   6.319   6.524   3.748
 7222SOL    HW222566   6.328   6.392   3.653
 7223SOL     OW22567   3.463   1.636   1.353
 7223SOL    HW122568   3.532   1.577   1.311
 7223SOL    HW222569   3.417   1.689   1.282
 7224SOL     OW22570   5.314   1.988   4.002
 7224SOL    HW122571   5.308   1.963   4.099
 7224SOL    HW222572   5.378   2.065   3.992
 7225SOL     OW22573   1.354   6.037   0.616
 7225SOL    HW122574   1.287   5.983   0.567
 7225SOL    HW222575   1.422   6.072   0.552
 7226SOL     OW22576   6.208   0.212   1.876
 7226SOL    HW122577   6.307   0.218   1.878
 7226SOL    HW222578   6.180   0.147   1.805
 7227SOL     OW22579   2.868   2.072   1.442
 7227SOL    HW122580   2.778   2.035   1.421
 7227SOL    HW222581   2.900   2.129   1.366
 7228SOL     OW22582   1.090   2.023   2.761
 7228SOL    HW122583   1.078   2.111   2.714
 7228SOL    HW222584   1.088   1.949   2.693
 7229SOL     OW22585   1.187   5.806   5.795
 7229SOL    HW122586   1.262   5.863   5.830
 7229SOL    HW222587   1.209   5.710   5.811
 7230SOL     OW22588   3.666   5.418   4.871
 7230SOL    HW122589   3.583   5.378   4.833
 7230SOL    HW222590   3.695   5.364   4.950
 7231SOL     OW22591   4.067   0.371   6.225
 7231SOL    HW122592   4.093   0.291   6.171
 7231SOL    HW222593   4.075   0.349   6.322
 7232SOL     OW22594   4.898   6.093   2.159
 7232SOL    HW122595   4.968   6.146   2.112
 7232SOL    HW222596   4.874   6.138   2.245
 7233SOL     OW22597   1.752   1.521   4.192
 7233SOL    HW122598   1.683   1.562   4.251
 7233SOL    HW222599   1.708   1.477   4.114
 7234SOL     OW22600   5.806   2.561   3.378
 7234SOL    HW122601   5.777   2.604   3.464
 7234SOL    HW222602   5.738   2.493   3.350
 7235SOL     OW22603   6.847   4.637   2.785
 7235SOL    HW122604   6.887   4.663   2.873
 7235SOL    HW222605   6.840   4.719   2.727
 7236SOL     OW22606   2.587   1.683   2.128
 7236SOL    HW122607   2.640   1.670   2.212
 7236SOL    HW222608   2.634   1.748   2.069
 7237SOL     OW22609   4.015   0.470   4.780
 7237SOL    HW122610   3.994   0.568   4.777
 7237SOL    HW222611   4.030   0.443   4.875
 7238SOL     OW22612   4.132   1.873   6.661
 7238SOL    HW122613   4.135   1.805   6.734
 7238SOL    HW222614   4.103   1.962   6.698
 7239SOL     OW22615   0.920   1.845   1.972
 7239SOL    HW122616   0.908   1.802   1.882
 7239SOL    HW222617   1.014   1.831   2.003
 7240SOL     OW22618   1.096   1.167   6.099
 7240SOL    HW122619   1.158   1.094   6.127
 7240SOL    HW222620   1.134   1.216   6.020
 7241SOL     OW22621   2.338   0.361   1.330
 7241SOL    HW122622   2.293   0.329   1.246
 7241SOL    HW222623   2.418   0.416   1.307
 7242SOL     OW22624   6.691   5.597   6.590
 7242SOL    HW122625   6.613   5.547   6.553
 7242SOL    HW222626   6.767   5.533   6.605
 7243SOL     OW22627   6.544   3.978   6.689
 7243SOL    HW122628   6.453   3.945   6.716
 7243SOL    HW222629   6.608   3.902   6.687
 7244SOL     OW22630   6.870   0.900   1.900
 7244SOL    HW122631   6.870   0.803   1.876
 7244SOL    HW222632   6.783   0.924   1.944
 7245SOL     OW22633   1.748   3.046   5.216
 7245SOL    HW122634   1.839   3.072   5.249
 7245SOL    HW222635   1.678   3.096   5.268
 7246SOL     OW22636   0.592   0.464   3.811
 7246SOL    HW122637   0.652   0.539   3.785
 7246SOL    HW222638   0.634   0.412   3.885
 7247SOL     OW22639   2.413   1.558   4.555
 7247SOL    HW122640   2.393   1.533   4.460
 7247SOL    HW222641   2.370   1.645   4.577
 7248SOL     OW22642   2.542   1.454   3.245
 7248SOL    HW122643   2.512   1.363   3.272
 7248SOL    HW222644   2.553   1.458   3.146
 7249SOL     OW22645   6.065   4.944   2.279
 7249SOL    HW122646   6.078   5.038   2.248
 7249SOL    HW222647   6.015   4.944   2.366
 7250SOL     OW22648   5.707   6.400   5.968
 7250SOL    HW122649   5.754   6.401   5.880
 7250SOL    HW222650   5.707   6.493   6.007
 7251SOL     OW22651   0.445   6.606   5.337
 7251SOL    HW122652   0.524   6.640   5.288
 7251SOL    HW222653   0.464   6.515   5.373
 7252SOL     OW22654   3.946   3.055   2.304
 7252SOL    HW122655   3.883   3.019   2.372
 7252SOL    HW222656   4.016   3.111   2.350
 7253SOL     OW22657   1.677   6.064   0.203
 7253SOL    HW122658   1.705   6.124   0.128
 7253SOL    HW222659   1.756   6.046   0.262
 7254SOL     OW22660   4.805   5.097   4.734
 7254SOL    HW122661   4.785   5.006   4.770
 7254SOL    HW222662   4.858   5.088   4.650
 7255SOL     OW22663   3.863   3.387   0.270
 7255SOL    HW122664   3.784   3.342   0.313
 7255SOL    HW222665   3.917   3.433   0.340
 7256SOL     OW22666   2.974   5.799   4.696
 7256SOL    HW122667   2.876   5.817   4.692
 7256SOL    HW222668   3.020   5.875   4.743
 7257SOL     OW22669   6.295   1.434   3.253
 7257SOL    HW122670   6.240   1.400   3.329
 7257SOL    HW222671   6.255   1.519   3.218
 7258SOL     OW22672   5.027   1.624   2.811
 7258SOL    HW122673   5.084   1.588   2.885
 7258SOL    HW222674   5.037   1.723   2.806
 7259SOL     OW22675   2.388   3.981   1.274
 7259SOL    HW122676   2.291   3.975   1.298
 7259SOL    HW222677   2.397   4.028   1.186
 7260SOL     OW22678   4.644   1.385   1.309
 7260SOL    HW122679   4.596   1.473   1.311
 7260SOL    HW222680   4.582   1.313   1.339
 7261SOL     OW22681   1.626   3.304   1.833
 7261SOL    HW122682   1.720   3.272   1.840
 7261SOL    HW222683   1.622   3.401   1.856
 7262SOL     OW22684   5.666   2.784   6.337
 7262SOL    HW122685   5.580   2.829   6.313
 7262SOL    HW222686   5.675   2.779   6.437
 7263SOL     OW22687   1.108   6.624   6.862
 7263SOL    HW122688   1.033   6.600   6.800
 7263SOL    HW222689   1.072   6.640   6.954
 7264SOL     OW22690   5.019   2.028   6.501
 7264SOL    HW122691   4.967   2.034   6.587
 7264SOL    HW222692   4.979   2.090   6.434
 7265SOL     OW22693   5.997   5.220   5.630
 7265SOL    HW122694   6.096   5.216   5.612
 7265SOL    HW222695   5.970   5.141   5.685
 7266SOL     OW22696   5.243   6.880   2.139
 7266SOL    HW122697   5.317   6.854   2.077
 7266SOL    HW222698   5.282   6.918   2.223
 7267SOL     OW22699   6.365   6.508   5.218
 7267SOL    HW122700   6.401   6.462   5.298
 7267SOL    HW222701   6.379   6.607   5.227
 7268SOL     OW22702   6.114   5.026   3.670
 7268SOL    HW122703   6.176   5.052   3.744
 7268SOL    HW222704   6.143   5.069   3.585
 7269SOL     OW22705   0.248   5.864   6.436
 7269SOL    HW122706   0.320   5.934   6.432
 7269SOL    HW222707   0.289   5.773   6.425
 7270SOL     OW22708   1.197   3.178   5.393
 7270SOL    HW122709   1.223   3.268   5.428
 7270SOL    HW222710   1.279   3.130   5.362
 7271SOL     OW22711   0.431   5.703   3.981
 7271SOL    HW122712   0.349   5.647   3.990
 7271SOL    HW222713   0.409   5.798   4.005
 7272SOL     OW22714   6.194   5.362   2.347
 7272SOL    HW122715   6.146   5.302   2.412
 7272SOL    HW222716   6.276   5.315   2.313
 7273SOL     OW22717   6.076   4.720   1.417
 7273SOL    HW122718   5.978   4.734   1.402
 7273SOL    HW222719   6.111   4.791   1.479
 7274SOL     OW22720   0.200   5.166   6.169
 7274SOL    HW122721   0.111   5.184   6.210
 7274SOL    HW222722   0.242   5.086   6.212
 7275SOL     OW22723   0.103   6.239   2.494
 7275SOL    HW122724   0.012   6.237   2.536
 7275SOL    HW222725   0.130   6.334   2.479
 7276SOL     OW22726   4.088   1.054   3.203
 7276SOL    HW122727   4.107   1.152   3.207
 7276SOL    HW222728   3.990   1.038   3.196
 7277SOL     OW22729   4.608   0.743   3.884
 7277SOL    HW122730   4.629   0.810   3.956
 7277SOL    HW222731   4.514   0.756   3.853
 7278SOL     OW22732   3.626   2.598   1.489
 7278SOL    HW122733   3.576   2.517   1.520
 7278SOL    HW222734   3.616   2.608   1.390
 7279SOL     OW22735   4.609   4.382   5.980
 7279SOL    HW122736   4.655   4.454   5.929
 7279SOL    HW222737   4.616   4.296   5.930
 7280SOL     OW22738   0.550   1.751   3.570
 7280SOL    HW122739   0.633   1.708   3.607
 7280SOL    HW222740   0.472   1.728   3.628
 7281SOL     OW22741   2.027   1.118   0.876
 7281SOL    HW122742   1.990   1.088   0.788
 7281SOL    HW222743   1.962   1.178   0.921
 7282SOL     OW22744   5.878   5.217   2.342
 7282SOL    HW122745   5.938   5.180   2.413
 7282SOL    HW222746   5.921   5.298   2.301
 7283SOL     OW22747   4.838   0.291   2.696
 7283SOL    HW122748   4.820   0.214   2.758
 7283SOL    HW222749   4.909   0.349   2.736
 7284SOL     OW22750   0.397   2.847   5.816
 7284SOL    HW122751   0.418   2.944   5.805
 7284SOL    HW222752   0.298   2.833   5.807
 7285SOL     OW22753   5.551   3.054   2.466
 7285SOL    HW122754   5.576   3.111   2.388
 7285SOL    HW222755   5.534   3.112   2.545
 7286SOL     OW22756   2.318   0.877   1.193
 7286SOL    HW122757   2.357   0.822   1.267
 7286SOL    HW222758   2.385   0.889   1.120
 7287SOL     OW22759   0.850   2.547   5.822
 7287SOL    HW122760   0.817   2.495   5.901
 7287SOL    HW222761   0.934   2.506   5.787
 7288SOL     OW22762   2.099   1.013   2.124
 7288SOL    HW122763   2.108   1.113   2.130
 7288SOL    HW222764   2.011   0.985   2.164
 7289SOL     OW22765   5.635   1.809   4.042
 7289SOL    HW122766   5.552   1.771   4.003
 7289SOL    HW222767   5.699   1.735   4.062
 7290SOL     OW22768   3.801   1.576   5.431
 7290SOL    HW122769   3.802   1.676   5.431
 7290SOL    HW222770   3.762   1.543   5.345
 7291SOL     OW22771   0.920   6.887   0.048
 7291SOL    HW122772   0.886   6.963   0.103
 7291SOL    HW222773   1.020   6.887   0.049
 7292SOL     OW22774   3.357   0.683   3.514
 7292SOL    HW122775   3.362   0.689   3.415
 7292SOL    HW222776   3.275   0.730   3.547
 7293SOL     OW22777   1.524   2.237   4.810
 7293SOL    HW122778   1.450   2.225   4.744
 7293SOL    HW222779   1.517   2.165   4.880
 7294SOL     OW22780   2.579   4.562   6.693
 7294SOL    HW122781   2.480   4.552   6.680
 7294SOL    HW222782   2.603   4.536   6.787
 7295SOL     OW22783   5.539   3.418   1.521
 7295SOL    HW122784   5.548   3.332   1.571
 7295SOL    HW222785   5.489   3.484   1.577
 7296SOL     OW22786   3.436   6.274   2.246
 7296SOL    HW122787   3.439   6.175   2.253
 7296SOL    HW222788   3.524   6.307   2.210
 7297SOL     OW22789   4.171   0.267   1.563
 7297SOL    HW122790   4.229   0.316   1.629
 7297SOL    HW222791   4.177   0.312   1.474
 7298SOL     OW22792   4.873   5.332   6.294
 7298SOL    HW122793   4.889   5.422   6.335
 7298SOL    HW222794   4.826   5.343   6.207
 7299SOL     OW22795   0.793   2.513   1.163
 7299SOL    HW122796   0.731   2.436   1.175
 7299SOL    HW222797   0.830   2.541   1.251
 7300SOL     OW22798   0.460   6.660   2.267
 7300SOL    HW122799   0.377   6.698   2.227
 7300SOL    HW222800   0.436   6.607   2.349
 7301SOL     OW22801   5.748   1.427   4.457
 7301SOL    HW122802   5.769   1.465   4.547
 7301SOL    HW222803   5.772   1.330   4.454
 7302SOL     OW22804   1.172   2.258   5.465
 7302SOL    HW122805   1.185   2.290   5.372
 7302SOL    HW222806   1.257   2.272   5.517
 7303SOL     OW22807   4.084   0.930   7.022
 7303SOL    HW122808   4.008   0.906   6.962
 7303SOL    HW222809   4.162   0.958   6.966
 7304SOL     OW22810   3.141   5.765   1.944
 7304SOL    HW122811   3.182   5.773   1.853
 7304SOL    HW222812   3.177   5.683   1.989
 7305SOL     OW22813   5.149   0.841   0.411
 7305SOL    HW122814   5.161   0.747   0.379
 7305SOL    HW222815   5.223   0.863   0.475
 7306SOL     OW22816   4.420   1.661   1.034
 7306SOL    HW122817   4.367   1.588   1.078
 7306SOL    HW222818   4.360   1.711   0.972
 7307SOL     OW22819   2.661   6.492   2.763
 7307SOL    HW122820   2.561   6.499   2.767
 7307SOL    HW222821   2.698   6.570   2.713
 7308SOL     OW22822   6.660   2.953   5.270
 7308SOL    HW122823   6.664   3.020   5.344
 7308SOL    HW222824   6.570   2.958   5.225
 7309SOL     OW22825   4.216   5.039   0.520
 7309SOL    HW122826   4.300   5.087   0.493
 7309SOL    HW222827   4.167   5.009   0.438
 7310SOL     OW22828   2.462   4.275   0.532
 7310SOL    HW122829   2.367   4.285   0.505
 7310SOL    HW222830   2.504   4.201   0.480
 7311SOL     OW22831   1.685   2.185   1.457
 7311SOL    HW122832   1.733   2.242   1.390
 7311SOL    HW222833   1.646   2.105   1.410
 7312SOL     OW22834   1.220   3.364   5.081
 7312SOL    HW122835   1.241   3.432   5.011
 7312SOL    HW222836   1.170   3.288   5.039
 7313SOL     OW22837   2.100   0.860   1.034
 7313SOL    HW122838   2.182   0.864   1.090
 7313SOL    HW222839   2.080   0.950   0.997
 7314SOL     OW22840   6.988   5.163   6.301
 7314SOL    HW122841   6.952   5.256   6.296
 7314SOL    HW222842   0.005   5.149   6.390
 7315SOL     OW22843   6.335   6.108   1.895
 7315SOL    HW122844   6.407   6.039   1.893
 7315SOL    HW222845   6.373   6.194   1.931
 7316SOL     OW22846   3.785   3.657   6.285
 7316SOL    HW122847   3.732   3.712   6.349
 7316SOL    HW222848   3.870   3.704   6.262
 7317SOL     OW22849   4.744   1.434   2.067
 7317SOL    HW122850   4.670   1.492   2.034
 7317SOL    HW222851   4.709   1.372   2.138
 7318SOL     OW22852   2.924   0.406   1.974
 7318SOL    HW122853   2.949   0.483   1.915
 7318SOL    HW222854   2.969   0.416   2.063
 7319SOL     OW22855   6.587   3.196   6.851
 7319SOL    HW122856   6.642   3.247   6.785
 7319SOL    HW222857   6.631   3.109   6.871
 7320SOL     OW22858   0.831   3.881   2.388
 7320SOL    HW122859   0.879   3.793   2.396
 7320SOL    HW222860   0.734   3.868   2.409
 7321SOL     OW22861   1.607   0.154   6.389
 7321SOL    HW122862   1.681   0.092   6.363
 7321SOL    HW222863   1.586   0.214   6.313
 7322SOL     OW22864   0.118   2.925   3.004
 7322SOL    HW122865   0.151   2.974   2.923
 7322SOL    HW222866   0.187   2.860   3.034
 7323SOL     OW22867   2.136   2.753   1.381
 7323SOL    HW122868   2.175   2.802   1.303
 7323SOL    HW222869   2.116   2.817   1.454
 7324SOL     OW22870   5.474   5.668   1.751
 7324SOL    HW122871   5.502   5.762   1.730
 7324SOL    HW222872   5.470   5.655   1.850
 7325SOL     OW22873   2.608   0.880   6.628
 7325SOL    HW122874   2.677   0.863   6.699
 7325SOL    HW222875   2.537   0.809   6.632
 7326SOL     OW22876   2.602   6.347   6.420
 7326SOL    HW122877   2.544   6.419   6.381
 7326SOL    HW222878   2.698   6.373   6.410
 7327SOL     OW22879   6.331   1.685   6.027
 7327SOL    HW122880   6.396   1.634   6.083
 7327SOL    HW222881   6.365   1.777   6.012
 7328SOL     OW22882   3.776   0.448   5.887
 7328SOL    HW122883   3.712   0.491   5.823
 7328SOL    HW222884   3.863   0.497   5.885
 7329SOL     OW22885   0.970   3.784   1.014
 7329SOL    HW122886   0.950   3.735   0.929
 7329SOL    HW222887   1.042   3.737   1.064
 7330SOL     OW22888   1.805   2.755   6.691
 7330SOL    HW122889   1.898   2.736   6.660
 7330SOL    HW222890   1.808   2.807   6.776
 7331SOL     OW22891   5.464   6.105   1.341
 7331SOL    HW122892   5.396   6.137   1.406
 7331SOL    HW222893   5.553   6.097   1.386
 7332SOL     OW22894   3.503   6.137   6.742
 7332SOL    HW122895   3.568   6.062   6.759
 7332SOL    HW222896   3.506   6.202   6.818
 7333SOL     OW22897   6.705   3.449   2.192
 7333SOL    HW122898   6.759   3.367   2.213
 7333SOL    HW222899   6.642   3.467   2.268
 7334SOL     OW22900   2.347   5.835   6.563
 7334SOL    HW122901   2.320   5.766   6.496
 7334SOL    HW222902   2.293   5.823   6.647
 7335SOL     OW22903   0.830   2.760   3.343
 7335SOL    HW122904   0.870   2.804   3.424
 7335SOL    HW222905   0.903   2.731   3.282
 7336SOL     OW22906   1.658   6.622   2.717
 7336SOL    HW122907   1.600   6.692   2.674
 7336SOL    HW222908   1.713   6.577   2.647
 7337SOL     OW22909   0.965   3.302   1.250
 7337SOL    HW122910   0.954   3.298   1.350
 7337SOL    HW222911   1.063   3.298   1.228
 7338SOL     OW22912   5.077   1.310   2.229
 7338SOL    HW122913   5.047   1.240   2.164
 7338SOL    HW222914   5.118   1.267   2.309
 7339SOL     OW22915   6.231   0.527   4.245
 7339SOL    HW122916   6.235   0.534   4.145
 7339SOL    HW222917   6.320   0.496   4.279
 7340SOL     OW22918   3.091   1.326   0.558
 7340SOL    HW122919   3.098   1.231   0.526
 7340SOL    HW222920   3.181   1.369   0.553
 7341SOL     OW22921   0.741   4.384   5.706
 7341SOL    HW122922   0.762   4.466   5.652
 7341SOL    HW222923   0.792   4.306   5.670
 7342SOL     OW22924   6.834   1.298   6.992
 7342SOL    HW122925   6.845   1.317   6.894
 7342SOL    HW222926   6.893   1.222   7.018
 7343SOL     OW22927   6.046   4.288   1.645
 7343SOL    HW122928   5.953   4.317   1.671
 7343SOL    HW222929   6.081   4.350   1.575
 7344SOL     OW22930   0.816   1.023   6.066
 7344SOL    HW122931   0.755   1.052   5.992
 7344SOL    HW222932   0.869   1.102   6.098
 7345SOL     OW22933   4.840   5.131   5.333
 7345SOL    HW122934   4.876   5.038   5.327
 7345SOL    HW222935   4.746   5.133   5.298
 7346SOL     OW22936   4.361   5.141   1.834
 7346SOL    HW122937   4.275   5.189   1.817
 7346SOL    HW222938   4.356   5.049   1.795
 7347SOL     OW22939   0.128   2.351   0.698
 7347SOL    HW122940   0.032   2.324   0.694
 7347SOL    HW222941   0.158   2.382   0.608
 7348SOL     OW22942   1.732   4.179   4.581
 7348SOL    HW122943   1.819   4.215   4.615
 7348SOL    HW222944   1.728   4.191   4.482
 7349SOL     OW22945   5.205   1.393   1.313
 7349SOL    HW122946   5.158   1.345   1.239
 7349SOL    HW222947   5.149   1.470   1.344
 7350SOL     OW22948   2.011   2.785   5.619
 7350SOL    HW122949   2.088   2.841   5.649
 7350SOL    HW222950   1.927   2.841   5.619
 7351SOL     OW22951   5.259   6.654   5.027
 7351SOL    HW122952   5.161   6.671   5.041
 7351SOL    HW222953   5.276   6.556   5.022
 7352SOL     OW22954   2.100   1.830   3.099
 7352SOL    HW122955   2.101   1.906   3.034
 7352SOL    HW222956   2.021   1.839   3.160
 7353SOL     OW22957   0.980   0.609   6.768
 7353SOL    HW122958   1.058   0.633   6.710
 7353SOL    HW222959   1.009   0.541   6.836
 7354SOL     OW22960   0.747   1.996   5.527
 7354SOL    HW122961   0.812   2.072   5.520
 7354SOL    HW222962   0.675   2.007   5.458
 7355SOL     OW22963   1.999   0.588   1.061
 7355SOL    HW122964   1.901   0.582   1.081
 7355SOL    HW222965   2.022   0.682   1.037
 7356SOL     OW22966   4.044   4.117   5.763
 7356SOL    HW122967   4.010   4.103   5.670
 7356SOL    HW222968   4.144   4.119   5.762
 7357SOL     OW22969   3.994   6.572   1.863
 7357SOL    HW122970   4.081   6.525   1.873
 7357SOL    HW222971   3.995   6.657   1.917
 7358SOL     OW22972   6.118   3.260   2.972
 7358SOL    HW122973   6.188   3.303   2.915
 7358SOL    HW222974   6.030   3.265   2.926
 7359SOL     OW22975   2.975   1.511   6.461
 7359SOL    HW122976   2.990   1.491   6.364
 7359SOL    HW222977   2.915   1.590   6.470
 7360SOL     OW22978   3.018   3.767   5.718
 7360SOL    HW122979   3.059   3.805   5.635
 7360SOL    HW222980   2.921   3.750   5.702
 7361SOL     OW22981   4.481   0.078   2.047
 7361SOL    HW122982   4.537   0.056   2.127
 7361SOL    HW222983   4.522   0.037   1.965
 7362SOL     OW22984   1.715   4.609   4.720
 7362SOL    HW122985   1.738   4.555   4.639
 7362SOL    HW222986   1.756   4.700   4.713
 7363SOL     OW22987   4.294   1.906   1.561
 7363SOL    HW122988   4.385   1.879   1.592
 7363SOL    HW222989   4.228   1.893   1.634
 7364SOL     OW22990   4.522   0.678   1.552
 7364SOL    HW122991   4.489   0.767   1.584
 7364SOL    HW222992   4.591   0.643   1.615
 7365SOL     OW22993   0.753   5.611   1.575
 7365SOL    HW122994   0.782   5.602   1.479
 7365SOL    HW222995   0.824   5.572   1.634
 7366SOL     OW22996   2.623   5.955   7.026
 7366SOL    HW122997   2.626   6.053   7.008
 7366SOL    HW222998   2.613   5.906   6.939
 7367SOL     OW22999   4.570   2.497   1.079
 7367SOL    HW123000   4.536   2.422   1.022
 7367SOL    HW223001   4.495   2.560   1.099
 7368SOL     OW23002   3.784   2.938   2.842
 7368SOL    HW123003   3.688   2.911   2.837
 7368SOL    HW223004   3.815   2.933   2.937
 7369SOL     OW23005   3.858   2.921   0.310
 7369SOL    HW123006   3.897   2.953   0.224
 7369SOL    HW223007   3.784   2.857   0.291
 7370SOL     OW23008   2.690   0.392   4.158
 7370SOL    HW123009   2.700   0.368   4.061
 7370SOL    HW223010   2.682   0.492   4.166
 7371SOL     OW23011   1.910   6.657   3.429
 7371SOL    HW123012   1.830   6.717   3.431
 7371SOL    HW223013   1.885   6.567   3.465
 7372SOL     OW23014   4.036   1.145   4.461
 7372SOL    HW123015   4.064   1.159   4.556
 7372SOL    HW223016   4.117   1.132   4.404
 7373SOL     OW23017   5.880   1.668   3.981
 7373SOL    HW123018   5.955   1.604   4.000
 7373SOL    HW223019   5.918   1.752   3.943
 7374SOL     OW23020   2.288   1.833   5.180
 7374SOL    HW123021   2.353   1.770   5.220
 7374SOL    HW223022   2.232   1.785   5.112
 7375SOL     OW23023   2.212   2.563   3.001
 7375SOL    HW123024   2.311   2.554   3.002
 7375SOL    HW223025   2.181   2.591   2.910
 7376SOL     OW23026   2.669   1.462   0.640
 7376SOL    HW123027   2.619   1.546   0.661
 7376SOL    HW223028   2.767   1.478   0.653
 7377SOL     OW23029   5.713   4.430   0.540
 7377SOL    HW123030   5.803   4.435   0.497
 7377SOL    HW223031   5.643   4.409   0.471
 7378SOL     OW23032   0.554   0.685   5.918
 7378SOL    HW123033   0.653   0.688   5.931
 7378SOL    HW223034   0.509   0.736   5.991
 7379SOL     OW23035   2.757   1.715   3.253
 7379SOL    HW123036   2.709   1.666   3.180
 7379SOL    HW223037   2.811   1.650   3.306
 7380SOL     OW23038   6.665   4.621   4.526
 7380SOL    HW123039   6.664   4.570   4.613
 7380SOL    HW223040   6.732   4.580   4.465
 7381SOL     OW23041   4.335   3.558   1.294
 7381SOL    HW123042   4.265   3.563   1.365
 7381SOL    HW223043   4.319   3.630   1.226
 7382SOL     OW23044   0.206   6.300   5.535
 7382SOL    HW123045   0.296   6.338   5.513
 7382SOL    HW223046   0.172   6.248   5.457
 7383SOL     OW23047   1.758   0.412   0.934
 7383SOL    HW123048   1.707   0.326   0.932
 7383SOL    HW223049   1.698   0.486   0.966
 7384SOL     OW23050   6.236   6.787   2.348
 7384SOL    HW123051   6.300   6.714   2.371
 7384SOL    HW223052   6.275   6.875   2.376
 7385SOL     OW23053   3.747   6.196   2.223
 7385SOL    HW123054   3.683   6.135   2.175
 7385SOL    HW223055   3.779   6.153   2.307
 7386SOL     OW23056   0.285   2.217   6.357
 7386SOL    HW123057   0.369   2.208   6.411
 7386SOL    HW223058   0.298   2.172   6.268
 7387SOL     OW23059   5.907   6.656   4.886
 7387SOL    HW123060   5.973   6.629   4.816
 7387SOL    HW223061   5.830   6.592   4.887
 7388SOL     OW23062   0.852   5.420   2.205
 7388SOL    HW123063   0.777   5.409   2.140
 7388SOL    HW223064   0.817   5.458   2.291
 7389SOL     OW23065   6.292   3.851   6.725
 7389SOL    HW123066   6.325   3.762   6.693
 7389SOL    HW223067   6.211   3.839   6.782
 7390SOL     OW23068   0.969   1.917   0.386
 7390SOL    HW123069   0.969   1.825   0.425
 7390SOL    HW223070   1.008   1.914   0.294
 7391SOL     OW23071   4.013   3.871   3.949
 7391SOL    HW123072   4.020   3.870   4.049
 7391SOL    HW223073   4.098   3.836   3.909
 7392SOL     OW23074   2.764   6.577   6.716
 7392SOL    HW123075   2.665   6.578   6.712
 7392SOL    HW223076   2.801   6.660   6.675
 7393SOL     OW23077   5.856   4.184   2.890
 7393SOL    HW123078   5.763   4.220   2.902
 7393SOL    HW223079   5.857   4.087   2.914
 7394SOL     OW23080   2.234   2.859   5.938
 7394SOL    HW123081   2.141   2.825   5.926
 7394SOL    HW223082   2.294   2.783   5.964
 7395SOL     OW23083   1.295   2.998   1.209
 7395SOL    HW123084   1.272   2.953   1.122
 7395SOL    HW223085   1.266   3.094   1.204
 7396SOL     OW23086   1.531   6.527   1.022
 7396SOL    HW123087   1.465   6.561   0.955
 7396SOL    HW223088   1.599   6.469   0.976
 7397SOL     OW23089   4.015   5.100   4.784
 7397SOL    HW123090   3.971   5.072   4.698
 7397SOL    HW223091   3.962   5.173   4.826
 7398SOL     OW23092   2.572   4.585   4.542
 7398SOL    HW123093   2.607   4.610   4.632
 7398SOL    HW223094   2.482   4.626   4.529
 7399SOL     OW23095   0.972   2.922   4.996
 7399SOL    HW123096   0.991   2.824   4.987
 7399SOL    HW223097   1.058   2.972   5.008
 7400SOL     OW23098   4.052   2.268   5.860
 7400SOL    HW123099   3.996   2.349   5.874
 7400SOL    HW223100   4.143   2.282   5.901
 7401SOL     OW23101   1.562   1.974   4.590
 7401SOL    HW123102   1.535   2.042   4.522
 7401SOL    HW223103   1.648   2.004   4.634
 7402SOL     OW23104   3.094   5.990   6.245
 7402SOL    HW123105   3.063   6.012   6.338
 7402SOL    HW223106   3.129   5.896   6.243
 7403SOL     OW23107   1.910   3.712   2.399
 7403SOL    HW123108   2.002   3.745   2.382
 7403SOL    HW223109   1.911   3.647   2.475
 7404SOL     OW23110   2.540   5.207   1.928
 7404SOL    HW123111   2.586   5.132   1.881
 7404SOL    HW223112   2.607   5.277   1.953
 7405SOL     OW23113   3.485   4.942   4.693
 7405SOL    HW123114   3.498   4.887   4.610
 7405SOL    HW223115   3.395   4.923   4.732
 7406SOL     OW23116   0.239   2.425   3.551
 7406SOL    HW123117   0.186   2.421   3.636
 7406SOL    HW223118   0.326   2.470   3.569
 7407SOL     OW23119   0.751   6.909   5.312
 7407SOL    HW123120   0.774   6.999   5.349
 7407SOL    HW223121   0.833   6.851   5.312
 7408SOL     OW23122   3.219   3.882   6.907
 7408SOL    HW123123   3.157   3.839   6.973
 7408SOL    HW223124   3.166   3.939   6.844
 7409SOL     OW23125   5.353   2.601   0.321
 7409SOL    HW123126   5.398   2.690   0.325
 7409SOL    HW223127   5.416   2.533   0.284
 7410SOL     OW23128   0.360   6.989   0.400
 7410SOL    HW123129   0.459   6.996   0.392
 7410SOL    HW223130   0.336   6.941   0.484
 7411SOL     OW23131   2.037   0.029   5.970
 7411SOL    HW123132   2.029   0.090   6.049
 7411SOL    HW223133   2.032   0.082   5.886
 7412SOL     OW23134   5.364   0.368   2.320
 7412SOL    HW123135   5.363   0.324   2.410
 7412SOL    HW223136   5.277   0.350   2.274
 7413SOL     OW23137   5.166   5.634   4.164
 7413SOL    HW123138   5.121   5.664   4.080
 7413SOL    HW223139   5.105   5.650   4.242
 7414SOL     OW23140   0.712   0.697   3.728
 7414SOL    HW123141   0.634   0.724   3.671
 7414SOL    HW223142   0.796   0.733   3.688
 7415SOL     OW23143   1.313   5.074   4.099
 7415SOL    HW123144   1.268   4.996   4.056
 7415SOL    HW223145   1.248   5.123   4.156
 7416SOL     OW23146   2.038   1.120   2.469
 7416SOL    HW123147   2.058   1.176   2.550
 7416SOL    HW223148   1.988   1.038   2.497
 7417SOL     OW23149   1.652   1.884   0.754
 7417SOL    HW123150   1.610   1.932   0.831
 7417SOL    HW223151   1.750   1.870   0.773
 7418SOL     OW23152   2.513   5.960   0.667
 7418SOL    HW123153   2.426   6.007   0.683
 7418SOL    HW223154   2.589   6.025   0.678
 7419SOL     OW23155   6.473   2.746   4.393
 7419SOL    HW123156   6.515   2.716   4.307
 7419SOL    HW223157   6.541   2.796   4.447
 7420SOL     OW23158   0.751   6.846   1.374
 7420SOL    HW123159   0.771   6.935   1.416
 7420SOL    HW223160   0.770   6.773   1.439
 7421SOL     OW23161   4.091   4.591   0.806
 7421SOL    HW123162   4.109   4.633   0.716
 7421SOL    HW223163   4.029   4.650   0.858
 7422SOL     OW23164   0.484   4.051   2.479
 7422SOL    HW123165   0.398   4.069   2.431
 7422SOL    HW223166   0.497   3.952   2.487
 7423SOL     OW23167   5.921   2.441   5.240
 7423SOL    HW123168   5.924   2.452   5.340
 7423SOL    HW223169   5.957   2.351   5.216
 7424SOL     OW23170   6.869   6.973   5.625
 7424SOL    HW123171   6.853   7.019   5.537
 7424SOL    HW223172   6.896   6.878   5.608
 7425SOL     OW23173   4.180   6.443   6.921
 7425SOL    HW123174   4.163   6.349   6.888
 7425SOL    HW223175   4.268   6.474   6.885
 7426SOL     OW23176   2.892   1.774   5.801
 7426SOL    HW123177   2.806   1.764   5.751
 7426SOL    HW223178   2.953   1.698   5.778
 7427SOL     OW23179   4.252   0.845   3.575
 7427SOL    HW123180   4.236   0.859   3.477
 7427SOL    HW223181   4.314   0.767   3.587
 7428SOL     OW23182   4.652   1.954   5.358
 7428SOL    HW123183   4.647   2.039   5.306
 7428SOL    HW223184   4.562   1.935   5.399
 7429SOL     OW23185   0.293   6.650   4.154
 7429SOL    HW123186   0.206   6.698   4.143
 7429SOL    HW223187   0.278   6.565   4.204
 7430SOL     OW23188   1.547   3.585   0.511
 7430SOL    HW123189   1.475   3.521   0.539
 7430SOL    HW223190   1.618   3.535   0.462
 7431SOL     OW23191   1.577   3.091   3.454
 7431SOL    HW123192   1.622   3.035   3.523
 7431SOL    HW223193   1.489   3.050   3.430
 7432SOL     OW23194   0.730   0.960   2.755
 7432SOL    HW123195   0.809   0.986   2.700
 7432SOL    HW223196   0.751   0.977   2.852
 7433SOL     OW23197   4.233   6.129   5.846
 7433SOL    HW123198   4.297   6.080   5.787
 7433SOL    HW223199   4.232   6.226   5.819
 7434SOL     OW23200   4.915   5.864   5.119
 7434SOL    HW123201   5.013   5.855   5.104
 7434SOL    HW223202   4.865   5.823   5.043
 7435SOL     OW23203   3.644   5.635   0.820
 7435SOL    HW123204   3.636   5.654   0.918
 7435SOL    HW223205   3.617   5.540   0.802
 7436SOL     OW23206   4.476   3.953   6.331
 7436SOL    HW123207   4.488   3.961   6.232
 7436SOL    HW223208   4.385   3.984   6.356
 7437SOL     OW23209   2.120   5.746   0.379
 7437SOL    HW123210   2.038   5.741   0.436
 7437SOL    HW223211   2.100   5.796   0.295
 7438SOL     OW23212   1.405   6.017   0.218
 7438SOL    HW123213   1.387   6.020   0.317
 7438SOL    HW223214   1.502   6.033   0.201
 7439SOL     OW23215   2.039   6.434   5.428
 7439SOL    HW123216   1.975   6.369   5.385
 7439SOL    HW223217   2.133   6.410   5.402
 7440SOL     OW23218   0.137   2.594   4.598
 7440SOL    HW123219   0.225   2.626   4.633
 7440SOL    HW223220   0.063   2.634   4.652
 7441SOL     OW23221   5.057   6.528   4.389
 7441SOL    HW123222   5.115   6.581   4.452
 7441SOL    HW223223   5.110   6.504   4.308
 7442SOL     OW23224   6.405   1.131   5.929
 7442SOL    HW123225   6.495   1.165   5.903
 7442SOL    HW223226   6.360   1.197   5.989
 7443SOL     OW23227   6.709   6.323   1.627
 7443SOL    HW123228   6.736   6.227   1.619
 7443SOL    HW223229   6.610   6.331   1.612
 7444SOL     OW23230   5.695   2.194   5.801
 7444SOL    HW123231   5.605   2.236   5.803
 7444SOL    HW223232   5.753   2.235   5.871
 7445SOL     OW23233   3.998   0.701   0.943
 7445SOL    HW123234   3.936   0.657   0.877
 7445SOL    HW223235   3.993   0.653   1.030
 7446SOL     OW23236   6.132   3.125   1.068
 7446SOL    HW123237   6.041   3.131   1.109
 7446SOL    HW223238   6.153   3.030   1.046
 7447SOL     OW23239   6.354   2.796   6.979
 7447SOL    HW123240   6.401   2.847   6.907
 7447SOL    HW223241   6.392   2.822   0.042
 7448SOL     OW23242   6.129   6.569   5.423
 7448SOL    HW123243   6.184   6.502   5.373
 7448SOL    HW223244   6.119   6.651   5.367
 7449SOL     OW23245   0.693   4.258   2.459
 7449SOL    HW123246   0.627   4.193   2.423
 7449SOL    HW223247   0.785   4.219   2.454
 7450SOL     OW23248   5.339   2.351   5.206
 7450SOL    HW123249   5.243   2.370   5.185
 7450SOL    HW223250   5.356   2.372   5.302
 7451SOL     OW23251   6.663   6.058   3.036
 7451SOL    HW123252   6.723   5.982   3.009
 7451SOL    HW223253   6.583   6.059   2.976
 7452SOL     OW23254   6.081   6.570   4.061
 7452SOL    HW123255   6.049   6.641   4.123
 7452SOL    HW223256   6.003   6.530   4.013
 7453SOL     OW23257   5.003   6.137   5.804
 7453SOL    HW123258   5.008   6.063   5.870
 7453SOL    HW223259   4.985   6.100   5.713
 7454SOL     OW23260   0.978   2.056   1.690
 7454SOL    HW123261   1.007   1.973   1.739
 7454SOL    HW223262   0.909   2.031   1.622
 7455SOL     OW23263   6.942   2.860   2.116
 7455SOL    HW123264   6.895   2.943   2.087
 7455SOL    HW223265   6.888   2.780   2.089
 7456SOL     OW23266   1.463   1.245   3.856
 7456SOL    HW123267   1.364   1.245   3.872
 7456SOL    HW223268   1.507   1.307   3.922
 7457SOL     OW23269   3.394   0.828   5.527
 7457SOL    HW123270   3.381   0.789   5.618
 7457SOL    HW223271   3.486   0.864   5.519
 7458SOL     OW23272   1.578   6.355   5.476
 7458SOL    HW123273   1.623   6.268   5.454
 7458SOL    HW223274   1.635   6.406   5.540
 7459SOL     OW23275   5.114   0.236   2.246
 7459SOL    HW123276   5.028   0.271   2.208
 7459SOL    HW223277   5.148   0.161   2.188
 7460SOL     OW23278   0.903   4.922   0.447
 7460SOL    HW123279   0.959   4.990   0.398
 7460SOL    HW223280   0.808   4.952   0.447
 7461SOL     OW23281   6.138   0.457   6.639
 7461SOL    HW123282   6.183   0.400   6.708
 7461SOL    HW223283   6.145   0.413   6.550
 7462SOL     OW23284   1.846   4.150   2.492
 7462SOL    HW123285   1.808   4.140   2.584
 7462SOL    HW223286   1.807   4.081   2.432
 7463SOL     OW23287   3.155   4.840   0.785
 7463SOL    HW123288   3.143   4.936   0.809
 7463SOL    HW223289   3.166   4.831   0.686
 7464SOL     OW23290   5.360   6.993   6.071
 7464SOL    HW123291   5.413   6.967   6.151
 7464SOL    HW223292   5.295   6.920   6.048
 7465SOL     OW23293   2.131   5.623   0.023
 7465SOL    HW123294   2.186   5.661   6.974
 7465SOL    HW223295   2.088   5.697   0.074
 7466SOL     OW23296   0.416   0.529   4.657
 7466SOL    HW123297   0.452   0.597   4.593
 7466SOL    HW223298   0.321   0.508   4.633
 7467SOL     OW23299   0.610   1.539   0.641
 7467SOL    HW123300   0.650   1.515   0.730
 7467SOL    HW223301   0.635   1.470   0.574
 7468SOL     OW23302   5.943   2.898   3.747
 7468SOL    HW123303   5.949   2.970   3.816
 7468SOL    HW223304   5.921   2.811   3.793
 7469SOL     OW23305   6.436   0.498   0.539
 7469SOL    HW123306   6.380   0.466   0.462
 7469SOL    HW223307   6.490   0.422   0.576
 7470SOL     OW23308   6.103   4.043   3.054
 7470SOL    HW123309   6.023   4.015   3.107
 7470SOL    HW223310   6.173   4.080   3.116
 7471SOL     OW23311   5.455   6.799   5.650
 7471SOL    HW123312   5.455   6.887   5.601
 7471SOL    HW223313   5.478   6.814   5.746
 7472SOL     OW23314   6.352   0.443   5.806
 7472SOL    HW123315   6.329   0.416   5.712
 7472SOL    HW223316   6.391   0.535   5.805
 7473SOL     OW23317   6.020   5.770   3.841
 7473SOL    HW123318   5.925   5.741   3.855
 7473SOL    HW223319   6.057   5.726   3.759
 7474SOL     OW23320   0.639   1.313   6.206
 7474SOL    HW123321   0.697   1.279   6.132
 7474SOL    HW223322   0.603   1.402   6.181
 7475SOL     OW23323   4.558   2.589   2.802
 7475SOL    HW123324   4.536   2.491   2.811
 7475SOL    HW223325   4.568   2.611   2.705
 7476SOL     OW23326   3.344   0.435   3.999
 7476SOL    HW123327   3.435   0.467   3.974
 7476SOL    HW223328   3.344   0.335   4.004
 7477SOL     OW23329   0.591   1.551   5.889
 7477SOL    HW123330   0.587   1.466   5.836
 7477SOL    HW223331   0.514   1.556   5.952
 7478SOL     OW23332   5.713   3.950   5.618
 7478SOL    HW123333   5.703   4.031   5.560
 7478SOL    HW223334   5.635   3.889   5.602
 7479SOL     OW23335   4.364   2.290   2.270
 7479SOL    HW123336   4.387   2.340   2.187
 7479SOL    HW223337   4.274   2.249   2.260
 7480SOL     OW23338   1.501   4.409   2.884
 7480SOL    HW123339   1.597   4.383   2.895
 7480SOL    HW223340   1.451   4.336   2.837
 7481SOL     OW23341   5.950   5.677   0.916
 7481SOL    HW123342   5.942   5.599   0.979
 7481SOL    HW223343   5.993   5.647   0.831
 7482SOL     OW23344   4.718   2.737   2.990
 7482SOL    HW123345   4.660   2.698   2.918
 7482SOL    HW223346   4.743   2.831   2.966
 7483SOL     OW23347   4.990   3.511   4.487
 7483SOL    HW123348   4.938   3.452   4.425
 7483SOL    HW223349   5.062   3.558   4.435
 7484SOL     OW23350   1.235   6.750   4.873
 7484SOL    HW123351   1.138   6.750   4.848
 7484SOL    HW223352   1.289   6.714   4.797
 7485SOL     OW23353   3.504   6.819   4.580
 7485SOL    HW123354   3.434   6.889   4.593
 7485SOL    HW223355   3.459   6.730   4.570
 7486SOL     OW23356   2.116   6.239   0.268
 7486SOL    HW123357   2.096   6.301   0.192
 7486SOL    HW223358   2.105   6.287   0.355
 7487SOL     OW23359   2.005   6.977   3.004
 7487SOL    HW123360   1.966   6.975   3.096
 7487SOL    HW223361   1.985   0.039   2.961
 7488SOL     OW23362   2.543   6.001   4.230
 7488SOL    HW123363   2.582   6.012   4.138
 7488SOL    HW223364   2.478   6.076   4.248
 7489SOL     OW23365   5.841   2.611   5.732
 7489SOL    HW123366   5.903   2.609   5.811
 7489SOL    HW223367   5.788   2.696   5.734
 7490SOL     OW23368   1.229   6.888   2.754
 7490SOL    HW123369   1.230   6.916   2.850
 7490SOL    HW223370   1.305   6.826   2.736
 7491SOL     OW23371   4.784   2.507   6.711
 7491SOL    HW123372   4.880   2.487   6.695
 7491SOL    HW223373   4.772   2.544   6.803
 7492SOL     OW23374   1.507   0.446   3.106
 7492SOL    HW123375   1.419   0.445   3.059
 7492SOL    HW223376   1.496   0.407   3.198
 7493SOL     OW23377   0.476   3.301   6.610
 7493SOL    HW123378   0.453   3.264   6.520
 7493SOL    HW223379   0.506   3.227   6.670
 7494SOL     OW23380   5.639   1.871   2.699
 7494SOL    HW123381   5.540   1.885   2.693
 7494SOL    HW223382   5.685   1.960   2.707
 7495SOL     OW23383   1.444   2.184   6.726
 7495SOL    HW123384   1.499   2.225   6.653
 7495SOL    HW223385   1.347   2.193   6.703
 7496SOL     OW23386   6.770   3.144   4.283
 7496SOL    HW123387   6.705   3.218   4.264
 7496SOL    HW223388   6.859   3.182   4.305
 7497SOL     OW23389   2.830   4.635   6.968
 7497SOL    HW123390   2.865   4.598   6.882
 7497SOL    HW223391   2.741   4.595   6.988
 7498SOL     OW23392   3.268   0.597   5.211
 7498SOL    HW123393   3.288   0.557   5.301
 7498SOL    HW223394   3.308   0.539   5.139
 7499SOL     OW23395   4.103   1.329   3.174
 7499SOL    HW123396   4.059   1.411   3.210
 7499SOL    HW223397   4.102   1.333   3.074
 7500SOL     OW23398   3.458   5.566   3.216
 7500SOL    HW123399   3.444   5.595   3.122
 7500SOL    HW223400   3.410   5.479   3.232
 7501SOL     OW23401   5.156   3.867   4.605
 7501SOL    HW123402   5.057   3.855   4.605
 7501SOL    HW223403   5.194   3.828   4.689
 7502SOL     OW23404   3.262   0.746   4.619
 7502SOL    HW123405   3.224   0.654   4.630
 7502SOL    HW223406   3.191   0.813   4.639
 7503SOL     OW23407   1.772   0.072   1.208
 7503SOL    HW123408   1.797   0.169   1.217
 7503SOL    HW223409   1.836   0.016   1.261
 7504SOL     OW23410   0.712   6.266   3.730
 7504SOL    HW123411   0.708   6.166   3.731
 7504SOL    HW223412   0.667   6.300   3.647
 7505SOL     OW23413   1.959   3.062   5.769
 7505SOL    HW123414   1.938   3.140   5.710
 7505SOL    HW223415   2.033   3.008   5.728
 7506SOL     OW23416   5.522   1.497   3.197
 7506SOL    HW123417   5.544   1.411   3.243
 7506SOL    HW223418   5.578   1.507   3.115
 7507SOL     OW23419   0.160   1.774   2.881
 7507SOL    HW123420   0.123   1.778   2.974
 7507SOL    HW223421   0.170   1.678   2.853
 7508SOL     OW23422   1.322   6.594   1.622
 7508SOL    HW123423   1.340   6.683   1.581
 7508SOL    HW223424   1.368   6.523   1.569
 7509SOL     OW23425   5.986   3.738   0.540
 7509SOL    HW123426   6.080   3.756   0.513
 7509SOL    HW223427   5.936   3.825   0.547
 7510SOL     OW23428   3.490   3.483   4.863
 7510SOL    HW123429   3.411   3.545   4.866
 7510SOL    HW223430   3.484   3.418   4.939
 7511SOL     OW23431   2.649   5.718   4.037
 7511SOL    HW123432   2.564   5.744   3.992
 7511SOL    HW223433   2.693   5.799   4.076
 7512SOL     OW23434   2.524   6.791   6.406
 7512SOL    HW123435   2.541   6.766   6.502
 7512SOL    HW223436   2.495   6.709   6.356
 7513SOL     OW23437   1.664   1.007   1.674
 7513SOL    HW123438   1.584   0.947   1.667
 7513SOL    HW223439   1.654   1.083   1.610
 7514SOL     OW23440   2.566   5.552   2.164
 7514SOL    HW123441   2.636   5.500   2.114
 7514SOL    HW223442   2.570   5.648   2.136
 7515SOL     OW23443   6.730   5.364   4.558
 7515SOL    HW123444   6.797   5.336   4.627
 7515SOL    HW223445   6.740   5.461   4.540
 7516SOL     OW23446   6.285   5.698   6.038
 7516SOL    HW123447   6.231   5.781   6.055
 7516SOL    HW223448   6.264   5.630   6.108
 7517SOL     OW23449   0.146   2.149   0.452
 7517SOL    HW123450   0.222   2.085   0.470
 7517SOL    HW223451   0.145   2.171   0.354
 7518SOL     OW23452   4.448   4.521   4.162
 7518SOL    HW123453   4.381   4.595   4.158
 7518SOL    HW223454   4.500   4.529   4.248
 7519SOL     OW23455   0.284   6.613   3.875
 7519SOL    HW123456   0.282   6.513   3.865
 7519SOL    HW223457   0.303   6.637   3.970
 7520SOL     OW23458   2.539   0.139   2.140
 7520SOL    HW123459   2.462   0.166   2.197
 7520SOL    HW223460   2.522   0.166   2.045
 7521SOL     OW23461   4.333   2.797   5.847
 7521SOL    HW123462   4.430   2.796   5.822
 7521SOL    HW223463   4.278   2.762   5.771
 7522SOL     OW23464   2.018   1.584   6.172
 7522SOL    HW123465   2.112   1.593   6.206
 7522SOL    HW223466   1.974   1.674   6.171
 7523SOL     OW23467   5.524   0.114   6.360
 7523SOL    HW123468   5.474   0.057   6.426
 7523SOL    HW223469   5.622   0.102   6.373
 7524SOL     OW23470   0.950   2.641   5.020
 7524SOL    HW123471   0.990   2.580   5.088
 7524SOL    HW223472   0.977   2.610   4.928
 7525SOL     OW23473   3.291   0.779   6.564
 7525SOL    HW123474   3.384   0.746   6.547
 7525SOL    HW223475   3.226   0.718   6.518
 7526SOL     OW23476   3.421   3.279   1.293
 7526SOL    HW123477   3.403   3.187   1.257
 7526SOL    HW223478   3.335   3.321   1.321
 7527SOL     OW23479   2.855   5.767   3.294
 7527SOL    HW123480   2.800   5.839   3.337
 7527SOL    HW223481   2.948   5.769   3.331
 7528SOL     OW23482   6.278   2.395   0.663
 7528SOL    HW123483   6.200   2.341   0.630
 7528SOL    HW223484   6.334   2.340   0.724
 7529SOL     OW23485   5.449   1.669   4.559
 7529SOL    HW123486   5.505   1.709   4.487
 7529SOL    HW223487   5.354   1.662   4.527
 7530SOL     OW23488   0.190   2.917   2.044
 7530SOL    HW123489   0.229   2.853   1.978
 7530SOL    HW223490   0.112   2.874   2.090
 7531SOL     OW23491   5.824   3.025   4.577
 7531SOL    HW123492   5.890   2.958   4.613
 7531SOL    HW223493   5.833   3.110   4.629
 7532SOL     OW23494   4.333   6.287   0.156
 7532SOL    HW123495   4.382   6.358   0.105
 7532SOL    HW223496   4.259   6.251   0.099
 7533SOL     OW23497   3.409   1.499   1.724
 7533SOL    HW123498   3.434   1.402   1.733
 7533SOL    HW223499   3.312   1.505   1.700
 7534SOL     OW23500   4.166   6.356   5.154
 7534SOL    HW123501   4.082   6.304   5.168
 7534SOL    HW223502   4.237   6.295   5.118
 7535SOL     OW23503   1.949   0.384   4.691
 7535SOL    HW123504   1.885   0.371   4.767
 7535SOL    HW223505   1.943   0.306   4.629
 7536SOL     OW23506   5.170   4.456   4.262
 7536SOL    HW123507   5.217   4.375   4.295
 7536SOL    HW223508   5.072   4.447   4.279
 7537SOL     OW23509   2.478   5.735   1.823
 7537SOL    HW123510   2.414   5.741   1.747
 7537SOL    HW223511   2.459   5.808   1.888
 7538SOL     OW23512   2.159   2.027   1.113
 7538SOL    HW123513   2.129   1.997   1.204
 7538SOL    HW223514   2.201   2.117   1.119
 7539SOL     OW23515   1.702   3.531   4.079
 7539SOL    HW123516   1.651   3.550   3.995
 7539SOL    HW223517   1.652   3.464   4.134
 7540SOL     OW23518   4.056   0.764   4.768
 7540SOL    HW123519   4.116   0.767   4.688
 7540SOL    HW223520   4.002   0.847   4.773
 7541SOL     OW23521   0.136   4.339   5.091
 7541SOL    HW123522   0.227   4.361   5.057
 7541SOL    HW223523   0.136   4.340   5.191
 7542SOL     OW23524   0.978   5.202   0.023
 7542SOL    HW123525   0.899   5.224   6.993
 7542SOL    HW223526   1.045   5.276   0.018
 7543SOL     OW23527   3.966   0.994   5.618
 7543SOL    HW123528   4.045   0.964   5.566
 7543SOL    HW223529   3.940   1.087   5.591
 7544SOL     OW23530   6.737   2.379   3.265
 7544SOL    HW123531   6.789   2.293   3.259
 7544SOL    HW223532   6.741   2.413   3.359
 7545SOL     OW23533   0.678   5.547   6.901
 7545SOL    HW123534   0.726   5.464   6.874
 7545SOL    HW223535   0.611   5.571   6.830
 7546SOL     OW23536   3.933   1.994   1.218
 7546SOL    HW123537   3.965   2.036   1.302
 7546SOL    HW223538   3.910   1.898   1.235
 7547SOL     OW23539   5.257   1.774   0.216
 7547SOL    HW123540   5.181   1.776   0.281
 7547SOL    HW223541   5.237   1.709   0.143
 7548SOL     OW23542   4.231   2.289   0.313
 7548SOL    HW123543   4.155   2.241   0.356
 7548SOL    HW223544   4.313   2.233   0.319
 7549SOL     OW23545   3.140   2.642   6.868
 7549SOL    HW123546   3.151   2.738   6.841
 7549SOL    HW223547   3.043   2.618   6.866
 7550SOL     OW23548   2.029   4.923   3.816
 7550SOL    HW123549   2.026   4.950   3.720
 7550SOL    HW223550   2.066   4.830   3.823
 7551SOL     OW23551   5.563   3.004   5.527
 7551SOL    HW123552   5.508   2.963   5.455
 7551SOL    HW223553   5.569   2.940   5.604
 7552SOL     OW23554   1.084   6.229   2.613
 7552SOL    HW123555   1.020   6.169   2.565
 7552SOL    HW223556   1.103   6.191   2.704
 7553SOL     OW23557   3.877   6.595   5.526
 7553SOL    HW123558   3.837   6.523   5.468
 7553SOL    HW223559   3.929   6.659   5.470
 7554SOL     OW23560   5.288   0.838   6.617
 7554SOL    HW123561   5.308   0.874   6.708
 7554SOL    HW223562   5.194   0.861   6.592
 7555SOL     OW23563   2.374   5.019   6.632
 7555SOL    HW123564   2.424   5.067   6.705
 7555SOL    HW223565   2.403   5.055   6.543
 7556SOL     OW23566   2.371   3.065   0.878
 7556SOL    HW123567   2.418   3.002   0.816
 7556SOL    HW223568   2.279   3.084   0.843
 7557SOL     OW23569   5.788   0.407   6.306
 7557SOL    HW123570   5.803   0.320   6.354
 7557SOL    HW223571   5.798   0.392   6.208
 7558SOL     OW23572   2.149   2.661   5.037
 7558SOL    HW123573   2.086   2.587   5.013
 7558SOL    HW223574   2.169   2.658   5.135
 7559SOL     OW23575   4.373   3.719   0.499
 7559SOL    HW123576   4.433   3.688   0.426
 7559SOL    HW223577   4.365   3.647   0.568
 7560SOL     OW23578   4.694   6.628   0.976
 7560SOL    HW123579   4.763   6.689   0.936
 7560SOL    HW223580   4.655   6.571   0.903
 7561SOL     OW23581   0.809   3.143   6.508
 7561SOL    HW123582   0.737   3.143   6.578
 7561SOL    HW223583   0.805   3.228   6.456
 7562SOL     OW23584   0.652   5.677   5.385
 7562SOL    HW123585   0.561   5.677   5.427
 7562SOL    HW223586   0.645   5.711   5.291
 7563SOL     OW23587   3.130   6.835   1.272
 7563SOL    HW123588   3.067   6.787   1.333
 7563SOL    HW223589   3.109   6.812   1.177
 7564SOL     OW23590   3.956   0.261   4.040
 7564SOL    HW123591   3.891   0.276   4.115
 7564SOL    HW223592   4.013   0.181   4.061
 7565SOL     OW23593   5.229   3.058   6.160
 7565SOL    HW123594   5.230   3.080   6.062
 7565SOL    HW223595   5.191   3.135   6.211
 7566SOL     OW23596   6.511   4.674   2.742
 7566SOL    HW123597   6.535   4.708   2.652
 7566SOL    HW223598   6.496   4.575   2.737
 7567SOL     OW23599   1.728   1.622   5.186
 7567SOL    HW123600   1.718   1.701   5.246
 7567SOL    HW223601   1.784   1.552   5.232
 7568SOL     OW23602   5.149   5.276   2.523
 7568SOL    HW123603   5.065   5.233   2.556
 7568SOL    HW223604   5.127   5.350   2.459
 7569SOL     OW23605   3.651   4.944   5.853
 7569SOL    HW123606   3.744   4.948   5.890
 7569SOL    HW223607   3.654   4.910   5.759
 7570SOL     OW23608   5.202   4.378   4.925
 7570SOL    HW123609   5.241   4.289   4.901
 7570SOL    HW223610   5.262   4.423   4.992
 7571SOL     OW23611   4.445   4.474   3.172
 7571SOL    HW123612   4.359   4.453   3.125
 7571SOL    HW223613   4.519   4.481   3.105
 7572SOL     OW23614   4.512   1.192   1.948
 7572SOL    HW123615   4.434   1.142   1.909
 7572SOL    HW223616   4.538   1.151   2.035
 7573SOL     OW23617   0.256   6.925   5.214
 7573SOL    HW123618   0.344   6.895   5.175
 7573SOL    HW223619   0.249   7.024   5.208
 7574SOL     OW23620   5.076   0.498   5.505
 7574SOL    HW123621   5.077   0.515   5.406
 7574SOL    HW223622   5.118   0.409   5.523
 7575SOL     OW23623   5.618   0.485   6.724
 7575SOL    HW123624   5.696   0.436   6.686
 7575SOL    HW223625   5.540   0.423   6.732
 7576SOL     OW23626   5.276   3.388   0.429
 7576SOL    HW123627   5.199   3.335   0.394
 7576SOL    HW223628   5.346   3.326   0.464
 7577SOL     OW23629   0.768   6.744   6.630
 7577SOL    HW123630   0.816   6.656   6.634
 7577SOL    HW223631   0.791   6.799   6.710
 7578SOL     OW23632   3.239   5.289   2.086
 7578SOL    HW123633   3.194   5.249   2.166
 7578SOL    HW223634   3.314   5.230   2.057
 7579SOL     OW23635   0.319   0.804   2.534
 7579SOL    HW123636   0.342   0.882   2.475
 7579SOL    HW223637   0.399   0.746   2.546
 7580SOL     OW23638   0.704   4.033   4.115
 7580SOL    HW123639   0.800   4.014   4.136
 7580SOL    HW223640   0.652   3.948   4.115
 7581SOL     OW23641   0.139   2.089   1.849
 7581SOL    HW123642   0.087   2.119   1.929
 7581SOL    HW223643   0.204   2.018   1.876
 7582SOL     OW23644   3.604   0.850   2.703
 7582SOL    HW123645   3.612   0.949   2.715
 7582SOL    HW223646   3.694   0.808   2.713
 7583SOL     OW23647   5.246   2.682   2.318
 7583SOL    HW123648   5.278   2.588   2.307
 7583SOL    HW223649   5.146   2.683   2.323
 7584SOL     OW23650   3.196   0.692   3.068
 7584SOL    HW123651   3.230   0.686   2.974
 7584SOL    HW223652   3.096   0.699   3.066
 7585SOL     OW23653   1.533   2.622   6.477
 7585SOL    HW123654   1.608   2.618   6.411
 7585SOL    HW223655   1.568   2.603   6.569
 7586SOL     OW23656   2.390   6.833   3.885
 7586SOL    HW123657   2.382   6.799   3.978
 7586SOL    HW223658   2.309   6.806   3.832
 7587SOL     OW23659   2.029   1.824   6.830
 7587SOL    HW123660   1.934   1.802   6.852
 7587SOL    HW223661   2.049   1.918   6.858
 7588SOL     OW23662   1.733   2.387   4.103
 7588SOL    HW123663   1.795   2.444   4.050
 7588SOL    HW223664   1.774   2.297   4.117
 7589SOL     OW23665   0.281   0.153   2.259
 7589SOL    HW123666   0.307   0.119   2.349
 7589SOL    HW223667   0.282   0.253   2.260
 7590SOL     OW23668   3.901   2.309   6.608
 7590SOL    HW123669   3.831   2.371   6.642
 7590SOL    HW223670   3.972   2.361   6.560
 7591SOL     OW23671   5.995   4.506   0.431
 7591SOL    HW123672   6.045   4.592   0.419
 7591SOL    HW223673   6.059   4.433   0.454
 7592SOL     OW23674   6.265   6.070   5.033
 7592SOL    HW123675   6.201   5.993   5.025
 7592SOL    HW223676   6.236   6.143   4.972
 7593SOL     OW23677   6.778   2.757   0.411
 7593SOL    HW123678   6.846   2.824   0.379
 7593SOL    HW223679   6.806   2.665   0.383
 7594SOL     OW23680   1.959   4.631   2.275
 7594SOL    HW123681   2.009   4.551   2.243
 7594SOL    HW223682   1.898   4.605   2.350
 7595SOL     OW23683   6.139   2.887   5.921
 7595SOL    HW123684   6.075   2.891   5.845
 7595SOL    HW223685   6.137   2.973   5.972
 7596SOL     OW23686   3.736   6.090   3.829
 7596SOL    HW123687   3.766   6.148   3.905
 7596SOL    HW223688   3.815   6.050   3.784
 7597SOL     OW23689   1.064   6.416   2.999
 7597SOL    HW123690   1.146   6.426   3.055
 7597SOL    HW223691   0.987   6.458   3.047
 7598SOL     OW23692   6.373   0.824   2.851
 7598SOL    HW123693   6.363   0.781   2.761
 7598SOL    HW223694   6.283   0.850   2.886
 7599SOL     OW23695   5.096   2.175   2.403
 7599SOL    HW123696   5.182   2.125   2.409
 7599SOL    HW223697   5.103   2.260   2.455
 7600SOL     OW23698   1.362   1.615   3.393
 7600SOL    HW123699   1.334   1.711   3.385
 7600SOL    HW223700   1.455   1.610   3.431
 7601SOL     OW23701   2.449   4.955   2.155
 7601SOL    HW123702   2.534   5.000   2.128
 7601SOL    HW223703   2.382   4.964   2.081
 7602SOL     OW23704   2.218   3.950   6.937
 7602SOL    HW123705   2.196   4.042   6.906
 7602SOL    HW223706   2.144   3.916   6.995
 7603SOL     OW23707   1.781   5.638   6.440
 7603SOL    HW123708   1.691   5.620   6.478
 7603SOL    HW223709   1.803   5.735   6.451
 7604SOL     OW23710   1.904   3.088   4.095
 7604SOL    HW123711   1.902   3.168   4.035
 7604SOL    HW223712   1.994   3.045   4.089
 7605SOL     OW23713   0.641   1.104   0.975
 7605SOL    HW123714   0.602   1.056   1.054
 7605SOL    HW223715   0.580   1.094   0.896
 7606SOL     OW23716   6.152   3.365   4.737
 7606SOL    HW123717   6.171   3.269   4.759
 7606SOL    HW223718   6.053   3.379   4.732
 7607SOL     OW23719   3.457   4.850   0.433
 7607SOL    HW123720   3.455   4.794   0.516
 7607SOL    HW223721   3.516   4.806   0.365
 7608SOL     OW23722   4.085   3.844   1.238
 7608SOL    HW123723   4.103   3.766   1.297
 7608SOL    HW223724   4.159   3.853   1.171
 7609SOL     OW23725   1.699   3.157   4.576
 7609SOL    HW123726   1.737   3.160   4.484
 7609SOL    HW223727   1.740   3.081   4.627
 7610SOL     OW23728   4.238   4.421   6.545
 7610SOL    HW123729   4.151   4.401   6.499
 7610SOL    HW223730   4.307   4.354   6.516
 7611SOL     OW23731   5.304   3.966   1.999
 7611SOL    HW123732   5.310   3.892   1.932
 7611SOL    HW223733   5.315   3.929   2.091
 7612SOL     OW23734   4.890   3.115   2.468
 7612SOL    HW123735   4.831   3.039   2.494
 7612SOL    HW223736   4.882   3.132   2.370
 7613SOL     OW23737   0.289   2.222   0.945
 7613SOL    HW123738   0.230   2.143   0.926
 7613SOL    HW223739   0.242   2.305   0.917
 7614SOL     OW23740   5.492   3.061   1.089
 7614SOL    HW123741   5.448   2.989   1.035
 7614SOL    HW223742   5.558   3.109   1.031
 7615SOL     OW23743   3.972   4.826   6.988
 7615SOL    HW123744   3.947   4.909   6.939
 7615SOL    HW223745   3.988   4.752   6.923
 7616SOL     OW23746   6.164   6.552   4.680
 7616SOL    HW123747   6.205   6.466   4.651
 7616SOL    HW223748   6.229   6.602   4.738
 7617SOL     OW23749   3.354   6.371   3.486
 7617SOL    HW123750   3.365   6.272   3.479
 7617SOL    HW223751   3.420   6.408   3.552
 7618SOL     OW23752   6.952   2.607   5.914
 7618SOL    HW123753   6.890   2.528   5.922
 7618SOL    HW223754   0.020   2.576   5.928
 7619SOL     OW23755   6.414   3.116   4.670
 7619SOL    HW123756   6.413   3.188   4.601
 7619SOL    HW223757   6.460   3.149   4.752
 7620SOL     OW23758   4.120   5.632   1.717
 7620SOL    HW123759   4.092   5.723   1.685
 7620SOL    HW223760   4.145   5.638   1.814
 7621SOL     OW23761   6.535   1.122   0.733
 7621SOL    HW123762   6.632   1.128   0.759
 7621SOL    HW223763   6.526   1.129   0.634
 7622SOL     OW23764   3.895   5.076   6.768
 7622SOL    HW123765   3.976   5.128   6.744
 7622SOL    HW223766   3.853   5.039   6.685
 7623SOL     OW23767   5.079   3.938   6.805
 7623SOL    HW123768   5.128   3.994   6.737
 7623SOL    HW223769   5.007   3.886   6.759
 7624SOL     OW23770   6.426   3.887   5.163
 7624SOL    HW123771   6.451   3.817   5.229
 7624SOL    HW223772   6.382   3.845   5.084
 7625SOL     OW23773   5.038   0.736   6.912
 7625SOL    HW123774   5.037   0.703   6.818
 7625SOL    HW223775   4.972   0.810   6.923
 7626SOL     OW23776   6.693   0.149   5.040
 7626SOL    HW123777   6.610   0.165   4.986
 7626SOL    HW223778   6.672   0.083   5.113
 7627SOL     OW23779   4.165   3.297   0.443
 7627SOL    HW123780   4.217   3.211   0.446
 7627SOL    HW223781   4.135   3.314   0.349
 7628SOL     OW23782   3.343   2.702   1.838
 7628SOL    HW123783   3.431   2.703   1.885
 7628SOL    HW223784   3.271   2.681   1.903
 7629SOL     OW23785   7.001   4.908   3.660
 7629SOL    HW123786   0.066   4.874   3.634
 7629SOL    HW223787   6.944   4.914   3.578
 7630SOL     OW23788   0.820   0.510   0.943
 7630SOL    HW123789   0.790   0.597   0.905
 7630SOL    HW223790   0.834   0.519   1.042
 7631SOL     OW23791   0.915   1.916   6.144
 7631SOL    HW123792   0.870   1.942   6.229
 7631SOL    HW223793   0.898   1.819   6.126
 7632SOL     OW23794   4.932   4.199   0.932
 7632SOL    HW123795   4.954   4.269   1.000
 7632SOL    HW223796   4.978   4.221   0.846
 7633SOL     OW23797   5.533   0.243   2.083
 7633SOL    HW123798   5.484   0.294   2.153
 7633SOL    HW223799   5.468   0.206   2.016
 7634SOL     OW23800   1.939   1.239   2.044
 7634SOL    HW123801   1.858   1.190   2.074
 7634SOL    HW223802   1.912   1.322   1.996
 7635SOL     OW23803   3.254   4.931   4.900
 7635SOL    HW123804   3.155   4.919   4.901
 7635SOL    HW223805   3.293   4.899   4.986
 7636SOL     OW23806   1.811   2.878   4.257
 7636SOL    HW123807   1.853   2.952   4.205
 7636SOL    HW223808   1.881   2.831   4.311
 7637SOL     OW23809   2.837   6.493   2.330
 7637SOL    HW123810   2.748   6.501   2.375
 7637SOL    HW223811   2.895   6.431   2.382
 7638SOL     OW23812   2.222   5.869   1.111
 7638SOL    HW123813   2.138   5.817   1.094
 7638SOL    HW223814   2.208   5.965   1.086
 7639SOL     OW23815   0.192   1.406   1.020
 7639SOL    HW123816   0.119   1.382   0.957
 7639SOL    HW223817   0.178   1.499   1.054
 7640SOL     OW23818   2.931   1.291   5.963
 7640SOL    HW123819   2.995   1.213   5.962
 7640SOL    HW223820   2.838   1.257   5.954
 7641SOL     OW23821   1.355   3.685   2.451
 7641SOL    HW123822   1.420   3.662   2.379
 7641SOL    HW223823   1.306   3.603   2.480
 7642SOL     OW23824   3.250   1.702   2.684
 7642SOL    HW123825   3.299   1.781   2.647
 7642SOL    HW223826   3.232   1.717   2.782
 7643SOL     OW23827   4.996   2.385   3.021
 7643SOL    HW123828   4.932   2.433   3.081
 7643SOL    HW223829   4.979   2.286   3.027
 7644SOL     OW23830   4.796   2.335   2.012
 7644SOL    HW123831   4.809   2.293   2.102
 7644SOL    HW223832   4.763   2.428   2.023
 7645SOL     OW23833   5.029   4.001   5.299
 7645SOL    HW123834   4.994   3.920   5.251
 7645SOL    HW223835   4.967   4.026   5.373
 7646SOL     OW23836   1.623   2.661   4.621
 7646SOL    HW123837   1.700   2.680   4.682
 7646SOL    HW223838   1.592   2.746   4.579
 7647SOL     OW23839   0.170   2.426   3.857
 7647SOL    HW123840   0.251   2.417   3.915
 7647SOL    HW223841   0.116   2.504   3.887
 7648SOL     OW23842   2.452   1.475   2.699
 7648SOL    HW123843   2.504   1.552   2.662
 7648SOL    HW223844   2.355   1.486   2.676
 7649SOL     OW23845   1.203   0.819   3.676
 7649SOL    HW123846   1.169   0.909   3.702
 7649SOL    HW223847   1.256   0.826   3.591
 7650SOL     OW23848   5.789   0.674   0.398
 7650SOL    HW123849   5.799   0.729   0.481
 7650SOL    HW223850   5.810   0.578   0.418
 7651SOL     OW23851   2.242   0.673   4.231
 7651SOL    HW123852   2.282   0.632   4.149
 7651SOL    HW223853   2.147   0.641   4.240
 7652SOL     OW23854   5.768   2.691   4.328
 7652SOL    HW123855   5.691   2.678   4.391
 7652SOL    HW223856   5.742   2.661   4.237
 7653SOL     OW23857   0.384   2.142   6.965
 7653SOL    HW123858   0.322   2.112   6.893
 7653SOL    HW223859   0.456   2.199   6.925
 7654SOL     OW23860   4.982   3.326   4.689
 7654SOL    HW123861   4.983   3.416   4.645
 7654SOL    HW223862   4.945   3.335   4.782
 7655SOL     OW23863   4.349   6.295   3.392
 7655SOL    HW123864   4.408   6.346   3.330
 7655SOL    HW223865   4.279   6.246   3.339
 7656SOL     OW23866   3.875   3.836   6.971
 7656SOL    HW123867   3.801   3.773   6.950
 7656SOL    HW223868   3.838   3.927   6.991
 7657SOL     OW23869   1.350   2.045   3.662
 7657SOL    HW123870   1.344   2.029   3.563
 7657SOL    HW223871   1.423   2.110   3.681
 7658SOL     OW23872   3.015   0.388   0.001
 7658SOL    HW123873   2.934   0.420   0.050
 7658SOL    HW223874   3.004   0.292   7.003
 7659SOL     OW23875   5.571   4.771   6.483
 7659SOL    HW123876   5.492   4.716   6.456
 7659SOL    HW223877   5.641   4.765   6.411
 7660SOL     OW23878   6.926   5.617   3.389
 7660SOL    HW123879   6.863   5.541   3.401
 7660SOL    HW223880   6.969   5.611   3.299
 7661SOL     OW23881   5.510   2.125   5.455
 7661SOL    HW123882   5.606   2.112   5.432
 7661SOL    HW223883   5.466   2.036   5.466
 7662SOL     OW23884   1.640   3.410   4.579
 7662SOL    HW123885   1.667   3.314   4.574
 7662SOL    HW223886   1.579   3.430   4.502
 7663SOL     OW23887   6.224   4.568   6.442
 7663SOL    HW123888   6.267   4.518   6.517
 7663SOL    HW223889   6.125   4.558   6.448
 7664SOL     OW23890   4.293   1.036   1.863
 7664SOL    HW123891   4.292   0.936   1.861
 7664SOL    HW223892   4.267   1.072   1.774
 7665SOL     OW23893   6.078   0.562   4.838
 7665SOL    HW123894   6.023   0.510   4.772
 7665SOL    HW223895   6.149   0.504   4.876
 7666SOL     OW23896   0.870   5.050   2.410
 7666SOL    HW123897   0.936   5.074   2.338
 7666SOL    HW223898   0.869   4.951   2.423
 7667SOL     OW23899   4.332   0.358   2.732
 7667SOL    HW123900   4.426   0.390   2.745
 7667SOL    HW223901   4.269   0.434   2.749
 7668SOL     OW23902   3.192   5.154   0.753
 7668SOL    HW123903   3.238   5.117   0.672
 7668SOL    HW223904   3.254   5.217   0.800
 7669SOL     OW23905   4.564   1.106   5.233
 7669SOL    HW123906   4.493   1.035   5.229
 7669SOL    HW223907   4.520   1.196   5.241
 7670SOL     OW23908   0.664   4.688   0.808
 7670SOL    HW123909   0.693   4.597   0.836
 7670SOL    HW223910   0.582   4.681   0.750
 7671SOL     OW23911   4.057   1.229   2.557
 7671SOL    HW123912   3.990   1.279   2.611
 7671SOL    HW223913   4.060   1.133   2.587
 7672SOL     OW23914   6.843   5.890   2.919
 7672SOL    HW123915   6.767   5.843   2.872
 7672SOL    HW223916   6.910   5.920   2.852
 7673SOL     OW23917   1.706   6.105   1.306
 7673SOL    HW123918   1.710   6.180   1.240
 7673SOL    HW223919   1.799   6.071   1.322
 7674SOL     OW23920   4.946   1.278   3.768
 7674SOL    HW123921   5.012   1.224   3.717
 7674SOL    HW223922   4.986   1.368   3.789
 7675SOL     OW23923   6.362   6.666   2.872
 7675SOL    HW123924   6.368   6.676   2.971
 7675SOL    HW223925   6.296   6.731   2.835
 7676SOL     OW23926   2.149   1.930   0.363
 7676SOL    HW123927   2.065   1.898   0.319
 7676SOL    HW223928   2.208   1.973   0.294
 7677SOL     OW23929   0.704   4.273   1.895
 7677SOL    HW123930   0.764   4.293   1.818
 7677SOL    HW223931   0.646   4.194   1.873
 7678SOL     OW23932   2.469   2.650   5.310
 7678SOL    HW123933   2.403   2.576   5.307
 7678SOL    HW223934   2.422   2.738   5.301
 7679SOL     OW23935   3.315   0.045   6.004
 7679SOL    HW123936   3.385   7.024   6.058
 7679SOL    HW223937   3.264   7.003   5.950
 7680SOL     OW23938   1.418   0.613   1.134
 7680SOL    HW123939   1.361   0.614   1.052
 7680SOL    HW223940   1.460   0.522   1.144
 7681SOL     OW23941   2.976   0.333   0.728
 7681SOL    HW123942   2.928   0.328   0.815
 7681SOL    HW223943   2.933   0.402   0.669
 7682SOL     OW23944   3.775   0.163   2.524
 7682SOL    HW123945   3.871   0.170   2.552
 7682SOL    HW223946   3.747   0.248   2.478
 7683SOL     OW23947   6.940   2.120   5.239
 7683SOL    HW123948   6.989   2.185   5.181
 7683SOL    HW223949   6.917   2.038   5.186
 7684SOL     OW23950   4.244   1.832   1.293
 7684SOL    HW123951   4.248   1.891   1.374
 7684SOL    HW223952   4.180   1.757   1.309
 7685SOL     OW23953   2.880   1.345   5.687
 7685SOL    HW123954   2.796   1.393   5.659
 7685SOL    HW223955   2.877   1.328   5.785
 7686SOL     OW23956   6.928   6.647   3.425
 7686SOL    HW123957   6.940   6.582   3.501
 7686SOL    HW223958   6.982   6.616   3.346
 7687SOL     OW23959   6.324   5.703   4.631
 7687SOL    HW123960   6.297   5.798   4.646
 7687SOL    HW223961   6.424   5.695   4.638
 7688SOL     OW23962   0.569   5.945   5.796
 7688SOL    HW123963   0.502   5.965   5.867
 7688SOL    HW223964   0.561   5.849   5.769
 7689SOL     OW23965   5.869   6.659   2.526
 7689SOL    HW123966   5.938   6.711   2.476
 7689SOL    HW223967   5.906   6.569   2.549
 7690SOL     OW23968   5.936   5.019   0.065
 7690SOL    HW123969   5.987   5.040   0.149
 7690SOL    HW223970   5.851   5.071   0.065
 7691SOL     OW23971   5.005   4.093   3.096
 7691SOL    HW123972   4.971   4.059   3.008
 7691SOL    HW223973   5.040   4.016   3.150
 7692SOL     OW23974   0.805   6.354   1.915
 7692SOL    HW123975   0.863   6.274   1.932
 7692SOL    HW223976   0.754   6.340   1.830
 7693SOL     OW23977   3.246   0.443   1.911
 7693SOL    HW123978   3.242   0.440   2.010
 7693SOL    HW223979   3.304   0.368   1.878
 7694SOL     OW23980   5.231   3.885   3.730
 7694SOL    HW123981   5.249   3.968   3.677
 7694SOL    HW223982   5.265   3.805   3.680
 7695SOL     OW23983   4.598   0.095   1.393
 7695SOL    HW123984   4.685   0.047   1.398
 7695SOL    HW223985   4.545   0.077   1.476
 7696SOL     OW23986   0.458   1.525   6.202
 7696SOL    HW123987   0.374   1.505   6.253
 7696SOL    HW223988   0.478   1.623   6.207
 7697SOL     OW23989   2.713   6.871   3.683
 7697SOL    HW123990   2.657   6.808   3.628
 7697SOL    HW223991   2.677   6.876   3.776
 7698SOL     OW23992   5.518   1.544   3.743
 7698SOL    HW123993   5.497   1.462   3.691
 7698SOL    HW223994   5.583   1.522   3.816
 7699SOL     OW23995   3.085   6.538   5.978
 7699SOL    HW123996   3.055   6.481   5.902
 7699SOL    HW223997   3.161   6.494   6.026
 7700SOL     OW23998   4.357   5.805   3.236
 7700SOL    HW123999   4.295   5.770   3.166
 7700SOL    HW224000   4.354   5.745   3.316
 7701SOL     OW24001   6.571   2.425   6.473
 7701SOL    HW124002   6.479   2.390   6.489
 7701SOL    HW224003   6.570   2.484   6.391
 7702SOL     OW24004   4.253   6.151   4.976
 7702SOL    HW124005   4.179   6.170   4.912
 7702SOL    HW224006   4.335   6.125   4.926
 7703SOL     OW24007   5.718   6.213   6.189
 7703SOL    HW124008   5.710   6.277   6.113
 7703SOL    HW224009   5.785   6.142   6.166
 7704SOL     OW24010   5.598   0.677   3.808
 7704SOL    HW124011   5.614   0.775   3.818
 7704SOL    HW224012   5.548   0.659   3.724
 7705SOL     OW24013   2.428   6.343   0.692
 7705SOL    HW124014   2.379   6.257   0.699
 7705SOL    HW224015   2.500   6.346   0.761
 7706SOL     OW24016   3.226   3.265   4.573
 7706SOL    HW124017   3.287   3.271   4.494
 7706SOL    HW224018   3.226   3.352   4.622
 7707SOL     OW24019   0.269   3.852   5.953
 7707SOL    HW124020   0.305   3.944   5.961
 7707SOL    HW224021   0.302   3.796   6.030
 7708SOL     OW24022   0.884   6.602   5.673
 7708SOL    HW124023   0.816   6.598   5.600
 7708SOL    HW224024   0.935   6.688   5.667
 7709SOL     OW24025   6.810   4.686   1.821
 7709SOL    HW124026   6.745   4.665   1.894
 7709SOL    HW224027   6.828   4.603   1.768
 7710SOL     OW24028   2.856   2.358   0.102
 7710SOL    HW124029   2.954   2.342   0.096
 7710SOL    HW224030   2.807   2.280   0.063
 7711SOL     OW24031   5.884   5.941   5.864
 7711SOL    HW124032   5.836   6.028   5.875
 7711SOL    HW224033   5.982   5.957   5.863
 7712SOL     OW24034   6.225   5.133   1.204
 7712SOL    HW124035   6.210   5.069   1.129
 7712SOL    HW224036   6.294   5.200   1.178
 7713SOL     OW24037   1.733   4.640   0.626
 7713SOL    HW124038   1.826   4.612   0.649
 7713SOL    HW224039   1.729   4.662   0.528
 7714SOL     OW24040   0.169   4.401   5.692
 7714SOL    HW124041   0.213   4.436   5.609
 7714SOL    HW224042   0.239   4.362   5.752
 7715SOL     OW24043   2.594   2.517   0.110
 7715SOL    HW124044   2.567   2.479   0.199
 7715SOL    HW224045   2.694   2.521   0.104
 7716SOL     OW24046   6.860   4.478   0.838
 7716SOL    HW124047   6.959   4.472   0.821
 7716SOL    HW224048   6.811   4.424   0.769
 7717SOL     OW24049   1.207   1.060   5.792
 7717SOL    HW124050   1.131   0.995   5.799
 7717SOL    HW224051   1.294   1.010   5.789
 7718SOL     OW24052   6.513   3.927   3.429
 7718SOL    HW124053   6.543   4.009   3.477
 7718SOL    HW224054   6.446   3.878   3.484
 7719SOL     OW24055   6.860   4.238   4.933
 7719SOL    HW124056   6.842   4.318   4.989
 7719SOL    HW224057   6.786   4.225   4.867
 7720SOL     OW24058   6.052   2.729   6.643
 7720SOL    HW124059   5.984   2.657   6.633
 7720SOL    HW224060   6.097   2.721   6.732
 7721SOL     OW24061   0.616   5.199   2.324
 7721SOL    HW124062   0.703   5.152   2.339
 7721SOL    HW224063   0.546   5.134   2.297
 7722SOL     OW24064   1.098   4.218   3.704
 7722SOL    HW124065   1.189   4.254   3.684
 7722SOL    HW224066   1.030   4.267   3.648
 7723SOL     OW24067   4.389   3.151   6.723
 7723SOL    HW124068   4.378   3.103   6.810
 7723SOL    HW224069   4.426   3.088   6.655
 7724SOL     OW24070   2.725   3.968   1.079
 7724SOL    HW124071   2.729   3.997   1.175
 7724SOL    HW224072   2.669   4.032   1.027
 7725SOL     OW24073   5.974   1.280   2.672
 7725SOL    HW124074   6.044   1.347   2.696
 7725SOL    HW224075   5.942   1.298   2.579
 7726SOL     OW24076   2.069   5.315   5.904
 7726SOL    HW124077   1.983   5.336   5.950
 7726SOL    HW224078   2.069   5.219   5.874
 7727SOL     OW24079   6.696   2.808   2.539
 7727SOL    HW124080   6.696   2.906   2.558
 7727SOL    HW224081   6.633   2.789   2.463
 7728SOL     OW24082   2.099   2.913   5.082
 7728SOL    HW124083   2.105   2.821   5.042
 7728SOL    HW224084   2.181   2.965   5.058
 7729SOL     OW24085   6.100   1.861   1.245
 7729SOL    HW124086   6.150   1.842   1.330
 7729SOL    HW224087   6.043   1.942   1.258
 7730SOL     OW24088   6.233   4.830   6.443
 7730SOL    HW124089   6.209   4.733   6.448
 7730SOL    HW224090   6.313   4.848   6.500
 7731SOL     OW24091   5.875   0.395   0.437
 7731SOL    HW124092   5.918   0.372   0.350
 7731SOL    HW224093   5.944   0.434   0.499
 7732SOL     OW24094   4.422   0.053   0.312
 7732SOL    HW124095   4.365   7.011   0.357
 7732SOL    HW224096   4.518   0.024   0.314
 7733SOL     OW24097   5.495   6.034   2.050
 7733SOL    HW124098   5.411   6.061   2.098
 7733SOL    HW224099   5.564   6.106   2.061
 7734SOL     OW24100   1.632   4.856   4.295
 7734SOL    HW124101   1.577   4.919   4.350
 7734SOL    HW224102   1.637   4.888   4.201
 7735SOL     OW24103   4.742   6.135   6.368
 7735SOL    HW124104   4.642   6.136   6.361
 7735SOL    HW224105   4.779   6.222   6.338
 7736SOL     OW24106   2.074   2.984   6.796
 7736SOL    HW124107   2.070   2.889   6.766
 7736SOL    HW224108   2.127   3.037   6.731
 7737SOL     OW24109   3.456   0.124   2.895
 7737SOL    HW124110   3.403   0.166   2.968
 7737SOL    HW224111   3.549   0.161   2.895
 7738SOL     OW24112   3.644   5.348   0.507
 7738SOL    HW124113   3.634   5.251   0.482
 7738SOL    HW224114   3.663   5.401   0.425
 7739SOL     OW24115   0.650   2.577   2.023
 7739SOL    HW124116   0.706   2.551   2.101
 7739SOL    HW224117   0.583   2.645   2.052
 7740SOL     OW24118   3.022   1.117   2.989
 7740SOL    HW124119   3.014   1.050   2.915
 7740SOL    HW224120   3.080   1.079   3.061
 7741SOL     OW24121   0.091   4.752   5.581
 7741SOL    HW124122   7.026   4.794   5.585
 7741SOL    HW224123   0.115   4.717   5.671
 7742SOL     OW24124   4.218   2.324   2.893
 7742SOL    HW124125   4.221   2.423   2.885
 7742SOL    HW224126   4.207   2.299   2.990
 7743SOL     OW24127   4.269   2.132   6.979
 7743SOL    HW124128   4.359   2.122   6.937
 7743SOL    HW224129   4.263   2.073   0.033
 7744SOL     OW24130   0.926   0.886   4.642
 7744SOL    HW124131   0.952   0.911   4.549
 7744SOL    HW224132   0.966   0.797   4.665
 7745SOL     OW24133   3.633   1.003   6.999
 7745SOL    HW124134   3.554   1.064   7.008
 7745SOL    HW224135   3.607   0.911   7.026
 7746SOL     OW24136   0.802   0.841   0.728
 7746SOL    HW124137   0.738   0.769   0.702
 7746SOL    HW224138   0.823   0.835   0.825
 7747SOL     OW24139   5.834   6.591   1.127
 7747SOL    HW124140   5.819   6.504   1.080
 7747SOL    HW224141   5.807   6.667   1.068
 7748SOL     OW24142   3.055   3.654   4.083
 7748SOL    HW124143   3.053   3.728   4.016
 7748SOL    HW224144   3.005   3.575   4.048
 7749SOL     OW24145   3.376   3.304   5.083
 7749SOL    HW124146   3.390   3.214   5.041
 7749SOL    HW224147   3.281   3.313   5.112
 7750SOL     OW24148   6.842   5.775   0.294
 7750SOL    HW124149   6.823   5.780   0.196
 7750SOL    HW224150   6.916   5.840   0.316
 7751SOL     OW24151   1.384   2.817   2.663
 7751SOL    HW124152   1.385   2.915   2.686
 7751SOL    HW224153   1.389   2.806   2.564
 7752SOL     OW24154   5.553   6.783   5.896
 7752SOL    HW124155   5.511   6.737   5.975
 7752SOL    HW224156   5.603   6.863   5.927
 7753SOL     OW24157   2.429   0.295   4.170
 7753SOL    HW124158   2.526   0.317   4.155
 7753SOL    HW224159   2.414   0.197   4.155
 7754SOL     OW24160   4.656   6.972   1.879
 7754SOL    HW124161   4.739   7.015   1.845
 7754SOL    HW224162   4.679   6.886   1.924
 7755SOL     OW24163   1.313   2.227   5.873
 7755SOL    HW124164   1.225   2.201   5.913
 7755SOL    HW224165   1.298   2.283   5.792
 7756SOL     OW24166   3.525   5.216   1.930
 7756SOL    HW124167   3.486   5.219   1.838
 7756SOL    HW224168   3.540   5.121   1.957
 7757SOL     OW24169   5.782   5.320   4.818
 7757SOL    HW124170   5.845   5.362   4.883
 7757SOL    HW224171   5.774   5.378   4.737
 7758SOL     OW24172   1.046   1.806   6.915
 7758SOL    HW124173   1.077   1.842   6.827
 7758SOL    HW224174   0.962   1.853   6.943
 7759SOL     OW24175   1.260   1.896   5.291
 7759SOL    HW124176   1.208   1.887   5.376
 7759SOL    HW224177   1.269   1.807   5.248
 7760SOL     OW24178   5.406   3.307   3.059
 7760SOL    HW124179   5.336   3.300   2.988
 7760SOL    HW224180   5.475   3.236   3.044
 7761SOL     OW24181   0.974   6.784   6.243
 7761SOL    HW124182   0.919   6.867   6.239
 7761SOL    HW224183   1.020   6.770   6.155
 7762SOL     OW24184   4.597   0.716   4.292
 7762SOL    HW124185   4.608   0.616   4.285
 7762SOL    HW224186   4.543   0.749   4.215
 7763SOL     OW24187   1.369   1.447   0.393
 7763SOL    HW124188   1.356   1.528   0.336
 7763SOL    HW224189   1.341   1.467   0.487
 7764SOL     OW24190   3.637   2.941   3.260
 7764SOL    HW124191   3.692   2.932   3.343
 7764SOL    HW224192   3.545   2.903   3.277
 7765SOL     OW24193   6.047   2.219   3.956
 7765SOL    HW124194   5.991   2.258   4.030
 7765SOL    HW224195   6.010   2.130   3.929
 7766SOL     OW24196   5.936   2.714   0.107
 7766SOL    HW124197   5.876   2.683   0.033
 7766SOL    HW224198   6.003   2.643   0.128
 7767SOL     OW24199   4.207   5.878   3.617
 7767SOL    HW124200   4.282   5.944   3.620
 7767SOL    HW224201   4.232   5.797   3.670
 7768SOL     OW24202   4.249   4.656   2.525
 7768SOL    HW124203   4.279   4.740   2.480
 7768SOL    HW224204   4.243   4.583   2.457
 7769SOL     OW24205   4.919   2.897   2.872
 7769SOL    HW124206   4.936   2.823   2.806
 7769SOL    HW224207   4.964   2.876   2.958
 7770SOL     OW24208   1.751   4.069   2.155
 7770SOL    HW124209   1.671   4.129   2.158
 7770SOL    HW224210   1.750   4.008   2.235
 7771SOL     OW24211   3.363   2.192   5.284
 7771SOL    HW124212   3.307   2.262   5.239
 7771SOL    HW224213   3.420   2.235   5.354
 7772SOL     OW24214   5.250   0.504   2.662
 7772SOL    HW124215   5.238   0.427   2.599
 7772SOL    HW224216   5.348   0.524   2.671
 7773SOL     OW24217   2.255   5.673   4.380
 7773SOL    HW124218   2.331   5.610   4.394
 7773SOL    HW224219   2.170   5.630   4.412
 7774SOL     OW24220   5.359   1.815   6.009
 7774SOL    HW124221   5.414   1.737   5.980
 7774SOL    HW224222   5.376   1.834   6.106
 7775SOL     OW24223   4.681   6.366   2.071
 7775SOL    HW124224   4.646   6.286   2.021
 7775SOL    HW224225   4.621   6.386   2.148
 7776SOL     OW24226   1.704   4.916   0.041
 7776SOL    HW124227   1.785   4.968   0.014
 7776SOL    HW224228   1.623   4.957   7.026
 7777SOL     OW24229   1.246   0.484   4.554
 7777SOL    HW124230   1.299   0.533   4.623
 7777SOL    HW224231   1.236   0.388   4.581
 7778SOL     OW24232   5.058   4.222   0.699
 7778SOL    HW124233   5.042   4.198   0.604
 7778SOL    HW224234   5.150   4.196   0.726
 7779SOL     OW24235   2.839   2.612   1.230
 7779SOL    HW124236   2.790   2.608   1.317
 7779SOL    HW224237   2.778   2.645   1.159
 7780SOL     OW24238   1.070   4.835   5.391
 7780SOL    HW124239   1.074   4.761   5.458
 7780SOL    HW224240   1.072   4.923   5.439
 7781SOL     OW24241   1.158   4.745   0.419
 7781SOL    HW124242   1.210   4.807   0.361
 7781SOL    HW224243   1.066   4.782   0.435
 7782SOL     OW24244   6.466   4.680   4.756
 7782SOL    HW124245   6.515   4.757   4.716
 7782SOL    HW224246   6.423   4.708   4.842
 7783SOL     OW24247   0.549   5.979   4.580
 7783SOL    HW124248   0.615   6.019   4.517
 7783SOL    HW224249   0.471   6.041   4.591
 7784SOL     OW24250   3.279   2.554   1.378
 7784SOL    HW124251   3.310   2.530   1.470
 7784SOL    HW224252   3.231   2.477   1.337
 7785SOL     OW24253   1.617   6.089   4.115
 7785SOL    HW124254   1.638   5.996   4.144
 7785SOL    HW224255   1.587   6.088   4.020
 7786SOL     OW24256   2.893   6.454   6.889
 7786SOL    HW124257   2.857   6.489   6.803
 7786SOL    HW224258   2.846   6.498   6.965
 7787SOL     OW24259   2.252   2.488   6.482
 7787SOL    HW124260   2.166   2.478   6.432
 7787SOL    HW224261   2.287   2.581   6.470
 7788SOL     OW24262   2.671   5.403   1.480
 7788SOL    HW124263   2.694   5.430   1.573
 7788SOL    HW224264   2.587   5.451   1.451
 7789SOL     OW24265   1.954   6.405   6.173
 7789SOL    HW124266   1.964   6.477   6.240
 7789SOL    HW224267   2.041   6.390   6.126
 7790SOL     OW24268   5.454   5.469   3.584
 7790SOL    HW124269   5.536   5.448   3.638
 7790SOL    HW224270   5.373   5.463   3.643
 7791SOL     OW24271   2.344   5.821   3.556
 7791SOL    HW124272   2.435   5.785   3.534
 7791SOL    HW224273   2.299   5.760   3.621
 7792SOL     OW24274   1.613   5.130   4.847
 7792SOL    HW124275   1.655   5.063   4.908
 7792SOL    HW224276   1.531   5.091   4.806
 7793SOL     OW24277   3.415   1.184   7.004
 7793SOL    HW124278   3.349   1.213   0.047
 7793SOL    HW224279   3.375   1.196   6.913
 7794SOL     OW24280   6.127   4.722   2.963
 7794SOL    HW124281   6.086   4.809   2.935
 7794SOL    HW224282   6.086   4.647   2.911
 7795SOL     OW24283   2.014   4.116   5.537
 7795SOL    HW124284   2.008   4.018   5.517
 7795SOL    HW224285   2.054   4.164   5.459
 7796SOL     OW24286   4.002   3.873   3.356
 7796SOL    HW124287   4.055   3.930   3.293
 7796SOL    HW224288   4.009   3.911   3.449
 7797SOL     OW24289   1.045   6.738   3.215
 7797SOL    HW124290   1.024   6.811   3.280
 7797SOL    HW224291   1.139   6.707   3.228
 7798SOL     OW24292   2.375   3.976   5.480
 7798SOL    HW124293   2.392   3.883   5.447
 7798SOL    HW224294   2.462   4.020   5.502
 7799SOL     OW24295   0.894   6.098   2.483
 7799SOL    HW124296   0.887   6.004   2.451
 7799SOL    HW224297   0.890   6.161   2.405
 7800SOL     OW24298   1.129   5.442   1.070
 7800SOL    HW124299   1.068   5.362   1.075
 7800SOL    HW224300   1.173   5.445   0.980
 7801SOL     OW24301   2.199   1.574   1.709
 7801SOL    HW124302   2.279   1.573   1.770
 7801SOL    HW224303   2.138   1.499   1.733
 7802SOL     OW24304   5.868   2.493   0.678
 7802SOL    HW124305   5.804   2.559   0.638
 7802SOL    HW224306   5.950   2.488   0.621
 7803SOL     OW24307   4.838   1.838   6.201
 7803SOL    HW124308   4.772   1.809   6.130
 7803SOL    HW224309   4.797   1.825   6.291
 7804SOL     OW24310   4.752   2.175   4.023
 7804SOL    HW124311   4.671   2.199   4.076
 7804SOL    HW224312   4.777   2.080   4.043
 7805SOL     OW24313   5.163   2.162   1.005
 7805SOL    HW124314   5.220   2.181   1.085
 7805SOL    HW224315   5.167   2.065   0.983
 7806SOL     OW24316   5.594   1.632   6.624
 7806SOL    HW124317   5.583   1.731   6.622
 7806SOL    HW224318   5.631   1.604   6.712
 7807SOL     OW24319   1.266   4.426   5.197
 7807SOL    HW124320   1.358   4.461   5.182
 7807SOL    HW224321   1.268   4.326   5.197
 7808SOL     OW24322   6.406   2.975   4.154
 7808SOL    HW124323   6.407   2.927   4.241
 7808SOL    HW224324   6.367   2.917   4.083
 7809SOL     OW24325   2.173   5.123   3.925
 7809SOL    HW124326   2.130   5.042   3.884
 7809SOL    HW224327   2.215   5.179   3.854
 7810SOL     OW24328   3.562   0.087   4.609
 7810SOL    HW124329   3.618   0.040   4.677
 7810SOL    HW224330   3.472   0.044   4.605
 7811SOL     OW24331   1.662   5.285   2.240
 7811SOL    HW124332   1.672   5.200   2.189
 7811SOL    HW224333   1.751   5.313   2.276
 7812SOL     OW24334   0.878   1.433   4.078
 7812SOL    HW124335   0.827   1.445   4.163
 7812SOL    HW224336   0.914   1.521   4.048
 7813SOL     OW24337   5.245   2.858   0.001
 7813SOL    HW124338   5.149   2.833   7.016
 7813SOL    HW224339   5.253   2.958   0.002
 7814SOL     OW24340   0.287   3.139   3.225
 7814SOL    HW124341   0.318   3.139   3.320
 7814SOL    HW224342   0.343   3.075   3.172
 7815SOL     OW24343   5.463   0.242   5.586
 7815SOL    HW124344   5.444   0.340   5.593
 7815SOL    HW224345   5.532   0.216   5.653
 7816SOL     OW24346   1.581   2.258   6.232
 7816SOL    HW124347   1.606   2.247   6.328
 7816SOL    HW224348   1.661   2.242   6.174
 7817SOL     OW24349   5.415   5.134   2.977
 7817SOL    HW124350   5.512   5.158   2.979
 7817SOL    HW224351   5.405   5.035   2.975
 7818SOL     OW24352   4.453   0.648   2.608
 7818SOL    HW124353   4.487   0.571   2.663
 7818SOL    HW224354   4.527   0.680   2.548
 7819SOL     OW24355   0.201   4.046   1.678
 7819SOL    HW124356   0.284   4.003   1.713
 7819SOL    HW224357   0.140   4.069   1.754
 7820SOL     OW24358   1.625   2.257   5.862
 7820SOL    HW124359   1.533   2.221   5.848
 7820SOL    HW224360   1.685   2.224   5.790
 7821SOL     OW24361   5.254   6.305   0.010
 7821SOL    HW124362   5.276   6.214   7.001
 7821SOL    HW224363   5.259   6.372   6.962
 7822SOL     OW24364   1.755   1.580   6.527
 7822SOL    HW124365   1.661   1.549   6.537
 7822SOL    HW224366   1.810   1.547   6.604
 7823SOL     OW24367   2.455   3.725   5.336
 7823SOL    HW124368   2.546   3.686   5.322
 7823SOL    HW224369   2.442   3.803   5.274
 7824SOL     OW24370   6.817   0.566   3.907
 7824SOL    HW124371   6.724   0.593   3.933
 7824SOL    HW224372   6.879   0.643   3.920
 7825SOL     OW24373   1.961   2.547   1.327
 7825SOL    HW124374   2.010   2.495   1.396
 7825SOL    HW224375   1.998   2.640   1.323
 7826SOL     OW24376   6.642   1.957   0.808
 7826SOL    HW124377   6.628   1.887   0.878
 7826SOL    HW224378   6.564   1.957   0.745
 7827SOL     OW24379   2.749   5.440   0.992
 7827SOL    HW124380   2.690   5.379   1.046
 7827SOL    HW224381   2.719   5.439   0.897
 7828SOL     OW24382   1.029   4.147   6.652
 7828SOL    HW124383   1.002   4.168   6.746
 7828SOL    HW224384   1.086   4.222   6.617
 7829SOL     OW24385   3.023   4.198   1.209
 7829SOL    HW124386   2.924   4.197   1.224
 7829SOL    HW224387   3.041   4.193   1.111
 7830SOL     OW24388   2.339   4.858   5.469
 7830SOL    HW124389   2.337   4.815   5.379
 7830SOL    HW224390   2.365   4.790   5.537
 7831SOL     OW24391   1.856   6.636   1.021
 7831SOL    HW124392   1.801   6.720   1.016
 7831SOL    HW224393   1.894   6.628   1.113
 7832SOL     OW24394   5.252   0.931   3.478
 7832SOL    HW124395   5.259   1.017   3.427
 7832SOL    HW224396   5.287   0.856   3.422
 7833SOL     OW24397   0.985   0.927   6.494
 7833SOL    HW124398   1.042   0.902   6.571
 7833SOL    HW224399   0.903   0.975   6.526
 7834SOL     OW24400   6.936   1.537   3.478
 7834SOL    HW124401   7.019   1.581   3.445
 7834SOL    HW224402   6.880   1.603   3.528
 7835SOL     OW24403   3.789   2.183   6.021
 7835SOL    HW124404   3.798   2.280   5.997
 7835SOL    HW224405   3.774   2.175   6.120
 7836SOL     OW24406   3.480   2.847   4.867
 7836SOL    HW124407   3.422   2.829   4.947
 7836SOL    HW224408   3.540   2.769   4.851
 7837SOL     OW24409   6.126   5.399   0.257
 7837SOL    HW124410   6.043   5.419   0.308
 7837SOL    HW224411   6.194   5.470   0.273
 7838SOL     OW24412   3.868   6.666   0.667
 7838SOL    HW124413   3.911   6.641   0.580
 7838SOL    HW224414   3.770   6.648   0.661
 7839SOL     OW24415   5.935   3.973   4.907
 7839SOL    HW124416   5.996   3.954   4.984
 7839SOL    HW224417   5.938   4.071   4.885
 7840SOL     OW24418   6.613   2.553   3.951
 7840SOL    HW124419   6.516   2.540   3.975
 7840SOL    HW224420   6.665   2.473   3.979
 7841SOL     OW24421   3.559   1.908   6.494
 7841SOL    HW124422   3.580   1.820   6.537
 7841SOL    HW224423   3.622   1.978   6.527
 7842SOL     OW24424   2.410   2.099   2.865
 7842SOL    HW124425   2.453   2.084   2.954
 7842SOL    HW224426   2.341   2.170   2.872
 7843SOL     OW24427   7.004   5.823   3.117
 7843SOL    HW124428   6.934   5.838   3.048
 7843SOL    HW224429   0.056   5.775   3.076
 7844SOL     OW24430   4.331   7.023   2.915
 7844SOL    HW124431   4.414   0.025   2.867
 7844SOL    HW224432   4.268   6.979   2.851
 7845SOL     OW24433   6.025   1.944   3.105
 7845SOL    HW124434   5.948   1.892   3.069
 7845SOL    HW224435   5.998   1.989   3.191
 7846SOL     OW24436   0.975   1.499   2.243
 7846SOL    HW124437   0.952   1.446   2.325
 7846SOL    HW224438   0.929   1.588   2.247
 7847SOL     OW24439   0.127   1.658   3.327
 7847SOL    HW124440   0.219   1.692   3.349
 7847SOL    HW224441   0.135   1.579   3.267
 7848SOL     OW24442   3.689   3.771   0.785
 7848SOL    HW124443   3.642   3.786   0.872
 7848SOL    HW224444   3.628   3.791   0.709
 7849SOL     OW24445   5.740   4.156   4.061
 7849SOL    HW124446   5.803   4.093   4.015
 7849SOL    HW224447   5.751   4.248   4.022
 7850SOL     OW24448   0.704   1.897   4.702
 7850SOL    HW124449   0.679   1.978   4.755
 7850SOL    HW224450   0.729   1.924   4.609
 7851SOL     OW24451   6.562   1.372   1.496
 7851SOL    HW124452   6.644   1.374   1.438
 7851SOL    HW224453   6.539   1.465   1.525
 7852SOL     OW24454   2.617   1.345   6.239
 7852SOL    HW124455   2.601   1.444   6.240
 7852SOL    HW224456   2.657   1.319   6.151
 7853SOL     OW24457   5.132   2.172   1.622
 7853SOL    HW124458   5.097   2.091   1.669
 7853SOL    HW224459   5.068   2.248   1.635
 7854SOL     OW24460   3.333   3.420   0.149
 7854SOL    HW124461   3.304   3.421   0.053
 7854SOL    HW224462   3.416   3.366   0.159
 7855SOL     OW24463   4.699   6.267   4.265
 7855SOL    HW124464   4.721   6.267   4.362
 7855SOL    HW224465   4.770   6.316   4.214
 7856SOL     OW24466   6.633   4.877   5.383
 7856SOL    HW124467   6.642   4.885   5.284
 7856SOL    HW224468   6.611   4.782   5.406
 7857SOL     OW24469   5.315   2.191   6.329
 7857SOL    HW124470   5.274   2.249   6.259
 7857SOL    HW224471   5.311   2.096   6.300
 7858SOL     OW24472   6.049   6.412   3.669
 7858SOL    HW124473   5.950   6.424   3.663
 7858SOL    HW224474   6.070   6.322   3.706
 7859SOL     OW24475   4.443   2.819   6.445
 7859SOL    HW124476   4.506   2.757   6.493
 7859SOL    HW224477   4.466   2.822   6.348
 7860SOL     OW24478   3.243   0.413   3.522
 7860SOL    HW124479   3.269   0.507   3.540
 7860SOL    HW224480   3.215   0.403   3.426
 7861SOL     OW24481   3.742   4.808   1.726
 7861SOL    HW124482   3.671   4.765   1.782
 7861SOL    HW224483   3.779   4.887   1.775
 7862SOL     OW24484   2.008   4.244   1.902
 7862SOL    HW124485   1.998   4.158   1.952
 7862SOL    HW224486   1.953   4.315   1.947
 7863SOL     OW24487   0.534   4.559   4.042
 7863SOL    HW124488   0.545   4.633   3.976
 7863SOL    HW224489   0.468   4.493   4.007
 7864SOL     OW24490   0.198   5.416   5.442
 7864SOL    HW124491   0.189   5.388   5.538
 7864SOL    HW224492   0.120   5.474   5.417
 7865SOL     OW24493   6.212   6.874   3.799
 7865SOL    HW124494   6.142   6.840   3.736
 7865SOL    HW224495   6.168   6.922   3.875
 7866SOL     OW24496   1.535   1.146   6.063
 7866SOL    HW124497   1.494   1.212   6.125
 7866SOL    HW224498   1.480   1.139   5.980
 7867SOL     OW24499   6.082   6.056   4.204
 7867SOL    HW124500   6.149   5.989   4.172
 7867SOL    HW224501   6.113   6.148   4.179
 7868SOL     OW24502   5.046   6.079   1.353
 7868SOL    HW124503   4.959   6.090   1.401
 7868SOL    HW224504   5.049   5.989   1.309
 7869SOL     OW24505   5.854   3.491   0.511
 7869SOL    HW124506   5.836   3.485   0.413
 7869SOL    HW224507   5.884   3.584   0.533
 7870SOL     OW24508   4.673   5.003   4.268
 7870SOL    HW124509   4.686   4.908   4.240
 7870SOL    HW224510   4.615   5.006   4.350
 7871SOL     OW24511   4.594   2.471   2.349
 7871SOL    HW124512   4.635   2.396   2.401
 7871SOL    HW224513   4.544   2.433   2.271
 7872SOL     OW24514   1.918   3.855   3.556
 7872SOL    HW124515   1.961   3.848   3.466
 7872SOL    HW224516   1.983   3.895   3.621
 7873SOL     OW24517   5.533   6.854   6.231
 7873SOL    HW124518   5.440   6.827   6.257
 7873SOL    HW224519   5.594   6.842   6.310
 7874SOL     OW24520   5.182   1.871   6.831
 7874SOL    HW124521   5.232   1.951   6.865
 7874SOL    HW224522   5.205   1.791   6.885
 7875SOL     OW24523   4.485   3.095   6.468
 7875SOL    HW124524   4.408   3.135   6.419
 7875SOL    HW224525   4.484   2.996   6.455
 7876SOL     OW24526   1.175   0.238   4.684
 7876SOL    HW124527   1.259   0.260   4.733
 7876SOL    HW224528   1.198   0.194   4.597
 7877SOL     OW24529   1.014   2.137   3.019
 7877SOL    HW124530   1.008   2.049   3.065
 7877SOL    HW224531   1.032   2.124   2.922
 7878SOL     OW24532   5.416   4.632   4.823
 7878SOL    HW124533   5.348   4.706   4.822
 7878SOL    HW224534   5.497   4.661   4.874
 7879SOL     OW24535   4.182   5.320   3.504
 7879SOL    HW124536   4.278   5.330   3.479
 7879SOL    HW224537   4.152   5.401   3.556
 7880SOL     OW24538   2.023   5.471   0.686
 7880SOL    HW124539   2.043   5.455   0.590
 7880SOL    HW224540   2.084   5.543   0.721
 7881SOL     OW24541   6.476   4.704   4.365
 7881SOL    HW124542   6.416   4.625   4.360
 7881SOL    HW224543   6.536   4.696   4.445
 7882SOL     OW24544   1.328   2.925   1.989
 7882SOL    HW124545   1.234   2.907   2.018
 7882SOL    HW224546   1.348   3.022   1.998
 7883SOL     OW24547   1.246   0.679   0.898
 7883SOL    HW124548   1.230   0.763   0.950
 7883SOL    HW224549   1.220   0.692   0.803
 7884SOL     OW24550   1.998   3.901   4.929
 7884SOL    HW124551   2.081   3.909   4.874
 7884SOL    HW224552   1.959   3.810   4.918
 7885SOL     OW24553   6.387   5.446   1.420
 7885SOL    HW124554   6.419   5.526   1.470
 7885SOL    HW224555   6.290   5.431   1.441
 7886SOL     OW24556   3.371   4.817   6.738
 7886SOL    HW124557   3.469   4.834   6.732
 7886SOL    HW224558   3.322   4.887   6.685
 7887SOL     OW24559   3.751   2.648   5.507
 7887SOL    HW124560   3.836   2.617   5.464
 7887SOL    HW224561   3.674   2.595   5.471
 7888SOL     OW24562   6.459   6.958   5.401
 7888SOL    HW124563   6.457   6.996   5.308
 7888SOL    HW224564   6.488   6.863   5.397
 7889SOL     OW24565   1.729   5.298   0.595
 7889SOL    HW124566   1.730   5.308   0.695
 7889SOL    HW224567   1.687   5.210   0.572
 7890SOL     OW24568   1.514   2.520   3.008
 7890SOL    HW124569   1.457   2.524   3.090
 7890SOL    HW224570   1.610   2.514   3.034
 7891SOL     OW24571   1.804   3.682   3.790
 7891SOL    HW124572   1.727   3.617   3.789
 7891SOL    HW224573   1.837   3.696   3.696
 7892SOL     OW24574   1.857   0.379   3.840
 7892SOL    HW124575   1.884   0.461   3.890
 7892SOL    HW224576   1.927   0.308   3.851
 7893SOL     OW24577   6.989   6.178   2.787
 7893SOL    HW124578   6.897   6.178   2.747
 7893SOL    HW224579   7.024   6.272   2.790
 7894SOL     OW24580   3.452   6.835   0.655
 7894SOL    HW124581   3.510   6.785   0.591
 7894SOL    HW224582   3.509   6.889   0.716
 7895SOL     OW24583   5.557   0.506   5.325
 7895SOL    HW124584   5.617   0.586   5.319
 7895SOL    HW224585   5.463   0.536   5.344
 7896SOL     OW24586   5.069   3.583   0.553
 7896SOL    HW124587   5.125   3.501   0.545
 7896SOL    HW224588   5.121   3.656   0.596
 7897SOL     OW24589   2.543   4.129   6.952
 7897SOL    HW124590   2.531   4.030   6.954
 7897SOL    HW224591   2.482   4.169   6.884
 7898SOL     OW24592   4.236   2.192   3.636
 7898SOL    HW124593   4.299   2.155   3.704
 7898SOL    HW224594   4.147   2.209   3.678
 7899SOL     OW24595   5.818   0.972   1.295
 7899SOL    HW124596   5.890   0.957   1.362
 7899SOL    HW224597   5.857   0.971   1.203
 7900SOL     OW24598   1.813   4.899   1.690
 7900SOL    HW124599   1.727   4.897   1.742
 7900SOL    HW224600   1.793   4.926   1.595
 7901SOL     OW24601   5.453   1.526   6.410
 7901SOL    HW124602   5.361   1.553   6.437
 7901SOL    HW224603   5.515   1.533   6.488
 7902SOL     OW24604   5.211   6.758   1.283
 7902SOL    HW124605   5.154   6.677   1.266
 7902SOL    HW224606   5.297   6.730   1.324
 7903SOL     OW24607   5.668   1.764   0.560
 7903SOL    HW124608   5.634   1.726   0.474
 7903SOL    HW224609   5.593   1.809   0.609
 7904SOL     OW24610   5.501   7.023   3.463
 7904SOL    HW124611   5.567   0.053   3.414
 7904SOL    HW224612   5.495   0.028   3.558
 7905SOL     OW24613   4.669   2.257   6.752
 7905SOL    HW124614   4.684   2.339   6.696
 7905SOL    HW224615   4.670   2.176   6.693
 7906SOL     OW24616   6.907   5.579   0.474
 7906SOL    HW124617   6.970   5.645   0.515
 7906SOL    HW224618   6.864   5.619   0.393
 7907SOL     OW24619   5.474   2.723   3.080
 7907SOL    HW124620   5.374   2.723   3.075
 7907SOL    HW224621   5.509   2.806   3.038
 7908SOL     OW24622   0.796   1.353   5.705
 7908SOL    HW124623   0.700   1.346   5.732
 7908SOL    HW224624   0.802   1.390   5.613
 7909SOL     OW24625   5.289   4.235   4.418
 7909SOL    HW124626   5.222   4.206   4.487
 7909SOL    HW224627   5.348   4.306   4.456
 7910SOL     OW24628   2.578   3.446   5.811
 7910SOL    HW124629   2.627   3.419   5.728
 7910SOL    HW224630   2.634   3.427   5.891
 7911SOL     OW24631   1.704   3.195   0.241
 7911SOL    HW124632   1.687   3.249   0.158
 7911SOL    HW224633   1.667   3.103   0.228
 7912SOL     OW24634   6.860   5.162   0.161
 7912SOL    HW124635   6.883   5.231   0.092
 7912SOL    HW224636   6.862   5.204   0.252
 7913SOL     OW24637   1.448   5.173   0.923
 7913SOL    HW124638   1.404   5.263   0.920
 7913SOL    HW224639   1.548   5.184   0.928
 7914SOL     OW24640   0.358   4.254   0.476
 7914SOL    HW124641   0.434   4.250   0.541
 7914SOL    HW224642   0.309   4.341   0.488
 7915SOL     OW24643   4.877   3.150   2.216
 7915SOL    HW124644   4.943   3.210   2.170
 7915SOL    HW224645   4.835   3.089   2.149
 7916SOL     OW24646   0.399   4.308   5.039
 7916SOL    HW124647   0.449   4.349   4.963
 7916SOL    HW224648   0.421   4.210   5.044
 7917SOL     OW24649   3.627   4.076   4.350
 7917SOL    HW124650   3.583   3.992   4.319
 7917SOL    HW224651   3.589   4.102   4.439
 7918SOL     OW24652   6.956   1.408   6.730
 7918SOL    HW124653   0.019   1.362   6.736
 7918SOL    HW224654   6.896   1.356   6.670
 7919SOL     OW24655   2.095   4.369   2.260
 7919SOL    HW124656   2.179   4.358   2.207
 7919SOL    HW224657   2.117   4.376   2.357
 7920SOL     OW24658   0.184   5.469   0.910
 7920SOL    HW124659   0.084   5.458   0.909
 7920SOL    HW224660   0.217   5.478   0.816
 7921SOL     OW24661   5.466   6.621   0.400
 7921SOL    HW124662   5.481   6.540   0.344
 7921SOL    HW224663   5.376   6.615   0.444
 7922SOL     OW24664   6.896   6.571   0.032
 7922SOL    HW124665   6.882   6.481   7.015
 7922SOL    HW224666   6.993   6.585   0.047
 7923SOL     OW24667   3.334   0.195   2.272
 7923SOL    HW124668   3.412   0.155   2.223
 7923SOL    HW224669   3.345   0.179   2.370
 7924SOL     OW24670   4.209   0.055   2.097
 7924SOL    HW124671   4.204   7.017   2.174
 7924SOL    HW224672   4.305   0.072   2.075
 7925SOL     OW24673   0.805   1.686   6.414
 7925SOL    HW124674   0.848   1.600   6.386
 7925SOL    HW224675   0.804   1.692   6.514
 7926SOL     OW24676   4.783   1.747   5.238
 7926SOL    HW124677   4.722   1.820   5.270
 7926SOL    HW224678   4.740   1.699   5.162
 7927SOL     OW24679   4.171   5.139   3.146
 7927SOL    HW124680   4.084   5.185   3.166
 7927SOL    HW224681   4.245   5.185   3.193
 7928SOL     OW24682   1.031   2.289   4.558
 7928SOL    HW124683   1.002   2.194   4.551
 7928SOL    HW224684   1.026   2.332   4.468
 7929SOL     OW24685   4.151   4.749   5.725
 7929SOL    HW124686   4.192   4.729   5.815
 7929SOL    HW224687   4.097   4.671   5.695
 7930SOL     OW24688   4.575   5.349   4.395
 7930SOL    HW124689   4.574   5.395   4.306
 7930SOL    HW224690   4.661   5.299   4.406
 7931SOL     OW24691   1.687   1.836   6.436
 7931SOL    HW124692   1.589   1.855   6.429
 7931SOL    HW224693   1.702   1.760   6.499
 7932SOL     OW24694   1.935   5.892   6.436
 7932SOL    HW124695   1.996   5.967   6.462
 7932SOL    HW224696   1.972   5.844   6.357
 7933SOL     OW24697   0.241   5.812   6.724
 7933SOL    HW124698   0.147   5.794   6.754
 7933SOL    HW224699   0.239   5.840   6.628
 7934SOL     OW24700   2.490   4.813   0.497
 7934SOL    HW124701   2.469   4.850   0.407
 7934SOL    HW224702   2.418   4.838   0.561
 7935SOL     OW24703   5.601   6.160   6.987
 7935SOL    HW124704   5.513   6.115   7.002
 7935SOL    HW224705   5.642   6.126   6.902
 7936SOL     OW24706   3.916   6.303   2.573
 7936SOL    HW124707   3.844   6.360   2.533
 7936SOL    HW224708   3.909   6.210   2.536
 7937SOL     OW24709   6.681   6.661   3.727
 7937SOL    HW124710   6.650   6.602   3.652
 7937SOL    HW224711   6.603   6.705   3.769
 7938SOL     OW24712   6.210   5.670   5.024
 7938SOL    HW124713   6.300   5.681   5.068
 7938SOL    HW224714   6.221   5.615   4.941
 7939SOL     OW24715   1.596   2.543   5.597
 7939SOL    HW124716   1.679   2.534   5.542
 7939SOL    HW224717   1.616   2.594   5.680
 7940SOL     OW24718   1.940   3.739   2.034
 7940SOL    HW124719   1.981   3.689   2.110
 7940SOL    HW224720   1.994   3.725   1.951
 7941SOL     OW24721   6.142   0.491   0.546
 7941SOL    HW124722   6.242   0.494   0.543
 7941SOL    HW224723   6.105   0.580   0.516
 7942SOL     OW24724   6.521   5.580   2.429
 7942SOL    HW124725   6.424   5.578   2.452
 7942SOL    HW224726   6.551   5.675   2.420
 7943SOL     OW24727   6.104   3.096   0.659
 7943SOL    HW124728   6.038   3.022   0.671
 7943SOL    HW224729   6.089   3.165   0.730
 7944SOL     OW24730   0.649   2.664   1.721
 7944SOL    HW124731   0.649   2.659   1.821
 7944SOL    HW224732   0.588   2.738   1.691
 7945SOL     OW24733   5.886   5.842   1.839
 7945SOL    HW124734   5.930   5.827   1.928
 7945SOL    HW224735   5.948   5.812   1.766
 7946SOL     OW24736   2.556   1.679   5.404
 7946SOL    HW124737   2.602   1.741   5.341
 7946SOL    HW224738   2.502   1.612   5.353
 7947SOL     OW24739   3.461   2.444   6.272
 7947SOL    HW124740   3.419   2.395   6.196
 7947SOL    HW224741   3.425   2.409   6.358
 7948SOL     OW24742   0.900   6.198   0.727
 7948SOL    HW124743   0.885   6.175   0.823
 7948SOL    HW224744   0.989   6.243   0.717
 7949SOL     OW24745   4.504   4.580   4.442
 7949SOL    HW124746   4.515   4.530   4.527
 7949SOL    HW224747   4.434   4.650   4.453
 7950SOL     OW24748   6.185   5.223   4.807
 7950SOL    HW124749   6.105   5.173   4.841
 7950SOL    HW224750   6.156   5.309   4.765
 7951SOL     OW24751   2.292   4.267   1.986
 7951SOL    HW124752   2.363   4.328   1.952
 7951SOL    HW224753   2.207   4.283   1.936
 7952SOL     OW24754   0.598   3.090   6.739
 7952SOL    HW124755   0.574   3.077   6.835
 7952SOL    HW224756   0.557   3.017   6.684
 7953SOL     OW24757   2.322   2.573   4.247
 7953SOL    HW124758   2.305   2.657   4.299
 7953SOL    HW224759   2.338   2.498   4.310
 7954SOL     OW24760   4.652   4.116   5.236
 7954SOL    HW124761   4.689   4.061   5.161
 7954SOL    HW224762   4.726   4.165   5.281
 7955SOL     OW24763   1.213   6.242   6.800
 7955SOL    HW124764   1.152   6.225   6.722
 7955SOL    HW224765   1.307   6.246   6.768
 7956SOL     OW24766   3.760   6.025   2.693
 7956SOL    HW124767   3.786   5.961   2.766
 7956SOL    HW224768   3.767   6.119   2.726
 7957SOL     OW24769   0.886   0.829   2.032
 7957SOL    HW124770   0.854   0.902   2.093
 7957SOL    HW224771   0.833   0.831   1.947
 7958SOL     OW24772   3.750   5.421   4.299
 7958SOL    HW124773   3.725   5.438   4.394
 7958SOL    HW224774   3.698   5.481   4.239
 7959SOL     OW24775   4.184   5.717   0.912
 7959SOL    HW124776   4.251   5.667   0.967
 7959SOL    HW224777   4.230   5.791   0.863
 7960SOL     OW24778   3.141   1.429   0.836
 7960SOL    HW124779   3.115   1.361   0.767
 7960SOL    HW224780   3.131   1.389   0.927
 7961SOL     OW24781   0.484   6.882   1.300
 7961SOL    HW124782   0.582   6.866   1.313
 7961SOL    HW224783   0.461   6.871   1.204
 7962SOL     OW24784   1.815   0.461   6.981
 7962SOL    HW124785   1.845   0.383   6.925
 7962SOL    HW224786   1.729   0.438   0.001
 7963SOL     OW24787   0.007   0.964   3.673
 7963SOL    HW124788   6.980   0.883   3.648
 7963SOL    HW224789   0.098   0.958   3.633
 7964SOL     OW24790   0.343   4.951   3.859
 7964SOL    HW124791   0.252   4.991   3.868
 7964SOL    HW224792   0.396   4.967   3.942
 7965SOL     OW24793   3.502   2.942   6.440
 7965SOL    HW124794   3.566   3.016   6.421
 7965SOL    HW224795   3.441   2.930   6.361
 7966SOL     OW24796   0.735   2.983   5.275
 7966SOL    HW124797   0.718   2.980   5.374
 7966SOL    HW224798   0.715   2.894   5.235
 7967SOL     OW24799   2.670   6.054   4.006
 7967SOL    HW124800   2.692   6.150   4.024
 7967SOL    HW224801   2.745   6.011   3.957
 7968SOL     OW24802   2.508   2.475   2.997
 7968SOL    HW124803   2.508   2.561   3.049
 7968SOL    HW224804   2.533   2.400   3.058
 7969SOL     OW24805   4.340   6.092   0.626
 7969SOL    HW124806   4.325   6.143   0.711
 7969SOL    HW224807   4.358   6.157   0.552
 7970SOL     OW24808   0.207   2.670   2.665
 7970SOL    HW124809   0.130   2.734   2.660
 7970SOL    HW224810   0.283   2.704   2.610
 7971SOL     OW24811   4.441   1.310   0.886
 7971SOL    HW124812   4.375   1.250   0.841
 7971SOL    HW224813   4.502   1.256   0.943
 7972SOL     OW24814   1.625   3.345   1.155
 7972SOL    HW124815   1.583   3.433   1.174
 7972SOL    HW224816   1.720   3.346   1.189
 7973SOL     OW24817   4.977   4.373   3.668
 7973SOL    HW124818   4.980   4.444   3.738
 7973SOL    HW224819   5.050   4.306   3.685
 7974SOL     OW24820   5.842   1.132   5.470
 7974SOL    HW124821   5.843   1.147   5.569
 7974SOL    HW224822   5.910   1.062   5.447
 7975SOL     OW24823   5.086   0.539   3.051
 7975SOL    HW124824   5.177   0.498   3.050
 7975SOL    HW224825   5.058   0.555   3.146
 7976SOL     OW24826   0.750   0.758   6.872
 7976SOL    HW124827   0.731   0.855   6.862
 7976SOL    HW224828   0.804   0.726   6.793
 7977SOL     OW24829   5.182   5.714   1.671
 7977SOL    HW124830   5.164   5.673   1.582
 7977SOL    HW224831   5.259   5.778   1.663
 7978SOL     OW24832   6.191   3.876   6.051
 7978SOL    HW124833   6.160   3.859   6.145
 7978SOL    HW224834   6.112   3.874   5.990
 7979SOL     OW24835   3.161   6.780   5.434
 7979SOL    HW124836   3.245   6.824   5.402
 7979SOL    HW224837   3.095   6.849   5.462
 7980SOL     OW24838   2.521   5.884   0.237
 7980SOL    HW124839   2.541   5.909   0.142
 7980SOL    HW224840   2.440   5.934   0.268
 7981SOL     OW24841   0.548   5.563   1.771
 7981SOL    HW124842   0.473   5.598   1.715
 7981SOL    HW224843   0.623   5.532   1.712
 7982SOL     OW24844   0.113   1.833   0.102
 7982SOL    HW124845   0.033   1.821   0.161
 7982SOL    HW224846   0.154   1.745   0.082
 7983SOL     OW24847   5.353   1.652   2.243
 7983SOL    HW124848   5.378   1.689   2.154
 7983SOL    HW224849   5.435   1.620   2.290
 7984SOL     OW24850   1.437   1.705   1.213
 7984SOL    HW124851   1.493   1.623   1.202
 7984SOL    HW224852   1.362   1.704   1.147
 7985SOL     OW24853   2.453   7.019   3.518
 7985SOL    HW124854   2.463   6.921   3.535
 7985SOL    HW224855   2.370   0.009   3.465
 7986SOL     OW24856   3.456   1.063   6.580
 7986SOL    HW124857   3.405   1.044   6.496
 7986SOL    HW224858   3.392   1.090   6.652
 7987SOL     OW24859   1.500   3.620   0.130
 7987SOL    HW124860   1.597   3.599   0.129
 7987SOL    HW224861   1.480   3.686   0.203
 7988SOL     OW24862   1.485   2.298   3.682
 7988SOL    HW124863   1.578   2.282   3.715
 7988SOL    HW224864   1.479   2.389   3.641
 7989SOL     OW24865   3.703   2.894   5.348
 7989SOL    HW124866   3.655   2.811   5.375
 7989SOL    HW224867   3.764   2.874   5.270
 7990SOL     OW24868   6.599   3.307   3.121
 7990SOL    HW124869   6.567   3.213   3.110
 7990SOL    HW224870   6.521   3.370   3.118
 7991SOL     OW24871   6.666   0.639   3.326
 7991SOL    HW124872   6.674   0.663   3.229
 7991SOL    HW224873   6.578   0.671   3.361
 7992SOL     OW24874   1.313   6.865   1.547
 7992SOL    HW124875   1.255   6.860   1.628
 7992SOL    HW224876   1.367   6.950   1.550
 7993SOL     OW24877   1.101   6.223   6.559
 7993SOL    HW124878   1.127   6.129   6.539
 7993SOL    HW224879   1.140   6.284   6.490
 7994SOL     OW24880   4.502   7.023   3.263
 7994SOL    HW124881   4.580   6.988   3.212
 7994SOL    HW224882   4.475   0.086   3.225
 7995SOL     OW24883   4.596   4.949   3.226
 7995SOL    HW124884   4.531   4.975   3.154
 7995SOL    HW224885   4.687   4.938   3.185
 7996SOL     OW24886   2.579   0.483   4.611
 7996SOL    HW124887   2.582   0.496   4.710
 7996SOL    HW224888   2.602   0.568   4.564
 7997SOL     OW24889   0.667   1.178   1.301
 7997SOL    HW124890   0.755   1.213   1.270
 7997SOL    HW224891   0.595   1.214   1.242
 7998SOL     OW24892   3.817   5.020   0.602
 7998SOL    HW124893   3.897   5.057   0.649
 7998SOL    HW224894   3.789   4.935   0.646
 7999SOL     OW24895   0.738   6.200   6.118
 7999SOL    HW124896   0.787   6.128   6.167
 7999SOL    HW224897   0.640   6.192   6.135
 8000SOL     OW24898   5.446   7.007   0.138
 8000SOL    HW124899   5.492   0.005   0.224
 8000SOL    HW224900   5.486   6.923   0.102
 8001SOL     OW24901   3.588   5.825   0.620
 8001SOL    HW124902   3.624   5.755   0.682
 8001SOL    HW224903   3.489   5.831   0.630
 8002SOL     OW24904   0.835   2.379   5.374
 8002SOL    HW124905   0.760   2.443   5.357
 8002SOL    HW224906   0.917   2.411   5.326
 8003SOL     OW24907   2.929   5.046   2.729
 8003SOL    HW124908   2.849   5.071   2.783
 8003SOL    HW224909   2.950   4.949   2.741
 8004SOL     OW24910   2.085   3.570   3.716
 8004SOL    HW124911   1.999   3.606   3.753
 8004SOL    HW224912   2.094   3.599   3.620
 8005SOL     OW24913   3.421   0.756   2.515
 8005SOL    HW124914   3.354   0.830   2.514
 8005SOL    HW224915   3.490   0.775   2.585
 8006SOL     OW24916   2.045   6.934   6.594
 8006SOL    HW124917   2.106   6.916   6.517
 8006SOL    HW224918   2.030   0.007   6.602
 8007SOL     OW24919   0.270   1.157   4.753
 8007SOL    HW124920   0.225   1.068   4.765
 8007SOL    HW224921   0.215   1.214   4.692
 8008SOL     OW24922   4.408   6.034   5.631
 8008SOL    HW124923   4.366   6.058   5.544
 8008SOL    HW224924   4.421   5.935   5.636
 8009SOL     OW24925   5.916   0.682   2.738
 8009SOL    HW124926   5.959   0.699   2.650
 8009SOL    HW224927   5.952   0.597   2.777
 8010SOL     OW24928   1.024   1.529   0.456
 8010SOL    HW124929   1.122   1.508   0.463
 8010SOL    HW224930   0.974   1.445   0.437
 8011SOL     OW24931   3.241   2.683   0.903
 8011SOL    HW124932   3.249   2.604   0.964
 8011SOL    HW224933   3.312   2.678   0.833
 8012SOL     OW24934   2.092   4.612   1.849
 8012SOL    HW124935   2.025   4.577   1.783
 8012SOL    HW224936   2.070   4.707   1.871
 8013SOL     OW24937   1.501   4.855   3.272
 8013SOL    HW124938   1.532   4.787   3.206
 8013SOL    HW224939   1.423   4.819   3.324
 8014SOL     OW24940   0.913   6.242   5.355
 8014SOL    HW124941   0.908   6.339   5.331
 8014SOL    HW224942   0.883   6.229   5.450
 8015SOL     OW24943   2.918   0.875   0.623
 8015SOL    HW124944   2.871   0.798   0.580
 8015SOL    HW224945   2.865   0.959   0.608
 8016SOL     OW24946   4.689   0.026   6.665
 8016SOL    HW124947   4.778   0.045   6.708
 8016SOL    HW224948   4.621   0.007   6.736
 8017SOL     OW24949   6.501   6.850   0.477
 8017SOL    HW124950   6.421   6.888   0.523
 8017SOL    HW224951   6.473   6.808   0.390
 8018SOL     OW24952   3.317   2.379   6.039
 8018SOL    HW124953   3.231   2.346   6.000
 8018SOL    HW224954   3.315   2.479   6.046
 8019SOL     OW24955   2.318   4.140   5.941
 8019SOL    HW124956   2.313   4.081   6.022
 8019SOL    HW224957   2.312   4.084   5.858
 8020SOL     OW24958   6.030   6.339   0.847
 8020SOL    HW124959   6.127   6.333   0.820
 8020SOL    HW224960   5.999   6.251   0.882
 8021SOL     OW24961   1.222   1.865   1.355
 8021SOL    HW124962   1.186   1.953   1.324
 8021SOL    HW224963   1.306   1.844   1.304
 8022SOL     OW24964   4.536   6.818   2.928
 8022SOL    HW124965   4.446   6.803   2.969
 8022SOL    HW224966   4.534   6.903   2.874
 8023SOL     OW24967   6.281   5.124   3.448
 8023SOL    HW124968   6.332   5.038   3.438
 8023SOL    HW224969   6.344   5.198   3.472
 8024SOL     OW24970   3.182   5.293   6.980
 8024SOL    HW124971   3.111   5.224   6.977
 8024SOL    HW224972   3.186   5.341   6.892
 8025SOL     OW24973   2.298   6.261   6.216
 8025SOL    HW124974   2.377   6.202   6.200
 8025SOL    HW224975   2.286   6.275   6.314
 8026SOL     OW24976   1.193   4.378   6.664
 8026SOL    HW124977   1.244   4.430   6.732
 8026SOL    HW224978   1.252   4.357   6.587
 8027SOL     OW24979   4.449   1.761   5.601
 8027SOL    HW124980   4.492   1.690   5.546
 8027SOL    HW224981   4.470   1.851   5.562
 8028SOL     OW24982   3.205   4.859   4.387
 8028SOL    HW124983   3.253   4.922   4.448
 8028SOL    HW224984   3.190   4.903   4.298
 8029SOL     OW24985   4.913   3.049   0.932
 8029SOL    HW124986   4.912   3.130   0.874
 8029SOL    HW224987   5.001   3.042   0.978
 8030SOL     OW24988   4.310   4.484   6.805
 8030SOL    HW124989   4.283   4.431   6.886
 8030SOL    HW224990   4.274   4.440   6.723
 8031SOL     OW24991   5.515   6.502   3.012
 8031SOL    HW124992   5.567   6.493   2.928
 8031SOL    HW224993   5.500   6.412   3.052
 8032SOL     OW24994   5.653   4.232   6.340
 8032SOL    HW124995   5.705   4.222   6.255
 8032SOL    HW224996   5.566   4.183   6.331
 8033SOL     OW24997   4.790   3.086   6.296
 8033SOL    HW124998   4.811   3.179   6.327
 8033SOL    HW224999   4.705   3.087   6.244
 8034SOL     OW25000   6.296   0.665   4.608
 8034SOL    HW125001   6.221   0.612   4.648
 8034SOL    HW225002   6.372   0.669   4.672
 8035SOL     OW25003   5.175   1.650   4.695
 8035SOL    HW125004   5.186   1.743   4.729
 8035SOL    HW225005   5.102   1.604   4.745
 8036SOL     OW25006   0.748   4.635   3.109
 8036SOL    HW125007   0.770   4.539   3.090
 8036SOL    HW225008   0.713   4.644   3.202
 8037SOL     OW25009   1.417   3.276   1.641
 8037SOL    HW125010   1.420   3.193   1.584
 8037SOL    HW225011   1.477   3.264   1.720
 8038SOL     OW25012   4.235   0.804   3.296
 8038SOL    HW125013   4.197   0.713   3.280
 8038SOL    HW225014   4.180   0.872   3.247
 8039SOL     OW25015   0.649   1.339   4.467
 8039SOL    HW125016   0.578   1.409   4.470
 8039SOL    HW225017   0.630   1.276   4.391
 8040SOL     OW25018   1.566   6.095   0.447
 8040SOL    HW125019   1.598   6.090   0.352
 8040SOL    HW225020   1.640   6.129   0.505
 8041SOL     OW25021   2.890   1.706   1.959
 8041SOL    HW125022   2.946   1.735   2.036
 8041SOL    HW225023   2.949   1.679   1.882
 8042SOL     OW25024   3.688   2.888   3.858
 8042SOL    HW125025   3.710   2.963   3.795
 8042SOL    HW225026   3.716   2.801   3.817
 8043SOL     OW25027   3.941   6.768   2.744
 8043SOL    HW125028   3.962   6.679   2.786
 8043SOL    HW225029   3.860   6.759   2.686
 8044SOL     OW25030   3.779   2.781   1.059
 8044SOL    HW125031   3.780   2.803   1.157
 8044SOL    HW225032   3.851   2.713   1.040
 8045SOL     OW25033   5.534   1.007   1.332
 8045SOL    HW125034   5.508   1.086   1.388
 8045SOL    HW225035   5.632   1.010   1.314
 8046SOL     OW25036   6.974   5.122   0.549
 8046SOL    HW125037   6.956   5.193   0.481
 8046SOL    HW225038   0.012   5.157   0.617
 8047SOL     OW25039   3.388   5.554   4.248
 8047SOL    HW125040   3.473   5.583   4.203
 8047SOL    HW225041   3.409   5.478   4.310
 8048SOL     OW25042   5.700   0.693   5.927
 8048SOL    HW125043   5.651   0.747   5.859
 8048SOL    HW225044   5.709   0.599   5.895
 8049SOL     OW25045   1.026   0.217   0.332
 8049SOL    HW125046   1.090   0.249   0.262
 8049SOL    HW225047   1.015   0.287   0.402
 8050SOL     OW25048   1.703   3.827   2.694
 8050SOL    HW125049   1.693   3.728   2.703
 8050SOL    HW225050   1.800   3.849   2.680
 8051SOL     OW25051   4.794   5.984   3.043
 8051SOL    HW125052   4.877   5.937   3.011
 8051SOL    HW225053   4.809   6.083   3.043
 8052SOL     OW25054   4.844   1.210   1.840
 8052SOL    HW125055   4.891   1.219   1.928
 8052SOL    HW225056   4.746   1.203   1.855
 8053SOL     OW25057   3.091   3.862   3.616
 8053SOL    HW125058   3.094   3.961   3.603
 8053SOL    HW225059   3.162   3.819   3.561
 8054SOL     OW25060   4.487   0.210   4.600
 8054SOL    HW125061   4.486   0.231   4.503
 8054SOL    HW225062   4.576   0.235   4.639
 8055SOL     OW25063   0.056   0.442   5.657
 8055SOL    HW125064   0.020   0.372   5.719
 8055SOL    HW225065   0.027   0.422   5.564
 8056SOL     OW25066   4.211   2.005   4.212
 8056SOL    HW125067   4.197   1.935   4.142
 8056SOL    HW225068   4.139   1.996   4.282
 8057SOL     OW25069   3.366   2.069   3.020
 8057SOL    HW125070   3.361   2.101   2.925
 8057SOL    HW225071   3.275   2.075   3.062
 8058SOL     OW25072   4.633   0.723   2.427
 8058SOL    HW125073   4.666   0.817   2.433
 8058SOL    HW225074   4.702   0.665   2.383
 8059SOL     OW25075   4.493   2.543   4.666
 8059SOL    HW125076   4.547   2.615   4.710
 8059SOL    HW225077   4.449   2.487   4.736
 8060SOL     OW25078   0.905   2.841   4.049
 8060SOL    HW125079   0.876   2.822   3.955
 8060SOL    HW225080   0.986   2.786   4.070
 8061SOL     OW25081   7.001   0.647   2.013
 8061SOL    HW125082   0.055   0.589   2.031
 8061SOL    HW225083   6.980   0.701   2.094
 8062SOL     OW25084   3.432   5.127   4.462
 8062SOL    HW125085   3.467   5.043   4.503
 8062SOL    HW225086   3.332   5.125   4.462
 8063SOL     OW25087   0.823   3.019   0.509
 8063SOL    HW125088   0.838   2.927   0.546
 8063SOL    HW225089   0.791   3.013   0.415
 8064SOL     OW25090   0.452   4.753   1.063
 8064SOL    HW125091   0.511   4.794   0.994
 8064SOL    HW225092   0.458   4.653   1.058
 8065SOL     OW25093   3.354   6.124   4.231
 8065SOL    HW125094   3.302   6.070   4.298
 8065SOL    HW225095   3.408   6.063   4.174
 8066SOL     OW25096   0.497   2.245   5.989
 8066SOL    HW125097   0.501   2.300   5.906
 8066SOL    HW225098   0.560   2.167   5.980
 8067SOL     OW25099   5.085   2.681   1.836
 8067SOL    HW125100   5.003   2.726   1.870
 8067SOL    HW225101   5.086   2.586   1.867
 8068SOL     OW25102   6.127   4.506   0.158
 8068SOL    HW125103   6.214   4.493   0.110
 8068SOL    HW225104   6.081   4.417   0.170
 8069SOL     OW25105   1.660   6.235   0.951
 8069SOL    HW125106   1.590   6.166   0.972
 8069SOL    HW225107   1.693   6.275   1.036
 8070SOL     OW25108   3.017   3.007   0.419
 8070SOL    HW125109   2.927   2.963   0.414
 8070SOL    HW225110   3.011   3.099   0.379
 8071SOL     OW25111   2.906   6.585   4.642
 8071SOL    HW125112   2.997   6.611   4.673
 8071SOL    HW225113   2.914   6.514   4.571
 8072SOL     OW25114   3.219   0.704   6.834
 8072SOL    HW125115   3.138   0.649   6.814
 8072SOL    HW225116   3.254   0.743   6.749
 8073SOL     OW25117   4.294   6.181   5.419
 8073SOL    HW125118   4.305   6.129   5.335
 8073SOL    HW225119   4.198   6.178   5.448
 8074SOL     OW25120   3.431   2.730   0.682
 8074SOL    HW125121   3.402   2.745   0.587
 8074SOL    HW225122   3.466   2.636   0.691
 8075SOL     OW25123   6.433   1.254   0.520
 8075SOL    HW125124   6.406   1.300   0.604
 8075SOL    HW225125   6.418   1.316   0.442
 8076SOL     OW25126   4.893   2.385   5.611
 8076SOL    HW125127   4.946   2.412   5.531
 8076SOL    HW225128   4.845   2.464   5.648
 8077SOL     OW25129   1.844   5.797   1.917
 8077SOL    HW125130   1.825   5.746   1.834
 8077SOL    HW225131   1.802   5.887   1.912
 8078SOL     OW25132   5.720   1.285   0.570
 8078SOL    HW125133   5.754   1.309   0.479
 8078SOL    HW225134   5.620   1.289   0.570
 8079SOL     OW25135   4.918   1.423   3.384
 8079SOL    HW125136   4.857   1.345   3.365
 8079SOL    HW225137   4.918   1.485   3.306
 8080SOL     OW25138   0.515   3.167   0.171
 8080SOL    HW125139   0.583   3.241   0.173
 8080SOL    HW225140   0.448   3.183   0.243
 8081SOL     OW25141   5.194   6.696   4.575
 8081SOL    HW125142   5.197   6.657   4.667
 8081SOL    HW225143   5.140   6.780   4.576
 8082SOL     OW25144   5.763   0.342   1.940
 8082SOL    HW125145   5.795   0.265   1.995
 8082SOL    HW225146   5.668   0.363   1.962
 8083SOL     OW25147   5.301   3.615   2.276
 8083SOL    HW125148   5.356   3.618   2.360
 8083SOL    HW225149   5.286   3.520   2.250
 8084SOL     OW25150   5.142   7.017   0.066
 8084SOL    HW125151   5.196   0.017   7.012
 8084SOL    HW225152   5.175   0.041   0.147
 8085SOL     OW25153   5.928   0.149   2.681
 8085SOL    HW125154   6.002   0.129   2.745
 8085SOL    HW225155   5.958   0.220   2.617
 8086SOL     OW25156   4.612   0.985   4.058
 8086SOL    HW125157   4.694   1.037   4.080
 8086SOL    HW225158   4.533   1.047   4.061
 8087SOL     OW25159   2.844   1.340   1.027
 8087SOL    HW125160   2.807   1.359   1.118
 8087SOL    HW225161   2.859   1.426   0.978
 8088SOL     OW25162   5.281   2.254   1.231
 8088SOL    HW125163   5.268   2.350   1.208
 8088SOL    HW225164   5.370   2.241   1.274
 8089SOL     OW25165   4.946   2.670   0.102
 8089SOL    HW125166   4.893   2.653   0.185
 8089SOL    HW225167   5.011   2.595   0.088
 8090SOL     OW25168   3.743   2.490   6.698
 8090SOL    HW125169   3.665   2.498   6.761
 8090SOL    HW225170   3.734   2.558   6.625
 8091SOL     OW25171   2.566   4.013   6.298
 8091SOL    HW125172   2.609   3.934   6.342
 8091SOL    HW225173   2.617   4.036   6.215
 8092SOL     OW25174   0.378   2.804   5.305
 8092SOL    HW125175   0.300   2.791   5.244
 8092SOL    HW225176   0.432   2.882   5.273
 8093SOL     OW25177   4.801   5.897   2.671
 8093SOL    HW125178   4.877   5.962   2.668
 8093SOL    HW225179   4.799   5.851   2.760
 8094SOL     OW25180   1.390   3.819   4.997
 8094SOL    HW125181   1.485   3.800   4.973
 8094SOL    HW225182   1.382   3.827   5.097
 8095SOL     OW25183   6.247   3.579   4.534
 8095SOL    HW125184   6.326   3.635   4.558
 8095SOL    HW225185   6.231   3.582   4.436
 8096SOL     OW25186   3.012   5.380   3.760
 8096SOL    HW125187   3.095   5.383   3.816
 8096SOL    HW225188   2.954   5.305   3.792
 8097SOL     OW25189   5.000   6.357   3.404
 8097SOL    HW125190   5.089   6.355   3.451
 8097SOL    HW225191   4.998   6.433   3.339
 8098SOL     OW25192   2.289   6.321   3.929
 8098SOL    HW125193   2.244   6.372   4.003
 8098SOL    HW225194   2.310   6.228   3.959
 8099SOL     OW25195   4.547   6.775   4.128
 8099SOL    HW125196   4.552   6.675   4.134
 8099SOL    HW225197   4.523   6.802   4.035
 8100SOL     OW25198   6.744   0.179   0.078
 8100SOL    HW125199   6.645   0.167   0.068
 8100SOL    HW225200   6.767   0.276   0.068
 8101SOL     OW25201   2.086   0.227   3.898
 8101SOL    HW125202   2.102   0.264   3.990
 8101SOL    HW225203   2.167   0.176   3.868
 8102SOL     OW25204   0.355   4.567   4.725
 8102SOL    HW125205   0.326   4.612   4.810
 8102SOL    HW225206   0.286   4.500   4.698
 8103SOL     OW25207   4.676   0.644   0.854
 8103SOL    HW125208   4.643   0.586   0.929
 8103SOL    HW225209   4.775   0.632   0.845
 8104SOL     OW25210   2.620   0.006   5.820
 8104SOL    HW125211   2.564   7.004   5.742
 8104SOL    HW225212   2.640   0.103   5.813
 8105SOL     OW25213   1.310   2.580   3.231
 8105SOL    HW125214   1.281   2.487   3.252
 8105SOL    HW225215   1.230   2.636   3.209
 8106SOL     OW25216   2.816   6.092   3.124
 8106SOL    HW125217   2.746   6.042   3.073
 8106SOL    HW225218   2.814   6.188   3.098
 8107SOL     OW25219   0.358   5.344   4.904
 8107SOL    HW125220   0.342   5.353   4.806
 8107SOL    HW225221   0.297   5.405   4.954
 8108SOL     OW25222   6.294   3.503   4.924
 8108SOL    HW125223   6.388   3.470   4.930
 8108SOL    HW225224   6.247   3.457   4.848
 8109SOL     OW25225   1.367   3.590   4.615
 8109SOL    HW125226   1.434   3.661   4.595
 8109SOL    HW225227   1.282   3.609   4.567
 8110SOL     OW25228   3.112   6.302   0.949
 8110SOL    HW125229   3.057   6.320   0.868
 8110SOL    HW225230   3.155   6.212   0.941
 8111SOL     OW25231   4.359   0.938   5.245
 8111SOL    HW125232   4.355   0.878   5.165
 8111SOL    HW225233   4.386   0.885   5.325
 8112SOL     OW25234   2.237   1.759   4.565
 8112SOL    HW125235   2.227   1.753   4.466
 8112SOL    HW225236   2.223   1.854   4.594
 8113SOL     OW25237   3.392   3.030   1.195
 8113SOL    HW125238   3.472   2.993   1.241
 8113SOL    HW225239   3.398   3.011   1.097
 8114SOL     OW25240   2.446   3.730   1.358
 8114SOL    HW125241   2.430   3.753   1.454
 8114SOL    HW225242   2.406   3.800   1.300
 8115SOL     OW25243   4.323   0.733   1.301
 8115SOL    HW125244   4.336   0.729   1.202
 8115SOL    HW225245   4.413   0.730   1.346
 8116SOL     OW25246   4.871   6.991   4.710
 8116SOL    HW125247   4.863   6.896   4.741
 8116SOL    HW225248   4.790   0.017   4.740
 8117SOL     OW25249   2.003   0.981   3.630
 8117SOL    HW125250   1.994   0.910   3.700
 8117SOL    HW225251   2.092   1.026   3.640
 8118SOL     OW25252   6.362   2.714   5.424
 8118SOL    HW125253   6.293   2.665   5.371
 8118SOL    HW225254   6.422   2.648   5.469
 8119SOL     OW25255   6.457   5.780   5.424
 8119SOL    HW125256   6.547   5.752   5.458
 8119SOL    HW225257   6.423   5.857   5.477
 8120SOL     OW25258   3.460   4.497   0.196
 8120SOL    HW125259   3.363   4.521   0.197
 8120SOL    HW225260   3.492   4.492   0.101
 8121SOL     OW25261   7.021   5.964   1.916
 8121SOL    HW125262   0.077   5.994   1.966
 8121SOL    HW225263   0.006   5.986   1.819
 8122SOL     OW25264   1.657   5.618   2.341
 8122SOL    HW125265   1.703   5.589   2.425
 8122SOL    HW225266   1.566   5.576   2.337
 8123SOL     OW25267   0.063   0.412   6.859
 8123SOL    HW125268   0.064   0.324   6.812
 8123SOL    HW225269   0.037   0.397   6.955
 8124SOL     OW25270   6.903   6.510   0.456
 8124SOL    HW125271   6.967   6.582   0.430
 8124SOL    HW225272   6.874   6.461   0.374
 8125SOL     OW25273   1.279   0.155   3.177
 8125SOL    HW125274   1.351   0.159   3.247
 8125SOL    HW225275   1.293   0.074   3.120
 8126SOL     OW25276   5.765   4.522   2.149
 8126SOL    HW125277   5.851   4.571   2.162
 8126SOL    HW225278   5.699   4.552   2.218
 8127SOL     OW25279   3.060   5.602   0.296
 8127SOL    HW125280   3.072   5.503   0.289
 8127SOL    HW225281   2.986   5.623   0.360
 8128SOL     OW25282   3.123   3.083   1.246
 8128SOL    HW125283   3.110   3.150   1.319
 8128SOL    HW225284   3.217   3.049   1.248
 8129SOL     OW25285   4.296   0.846   5.911
 8129SOL    HW125286   4.355   0.783   5.961
 8129SOL    HW225287   4.305   0.938   5.948
 8130SOL     OW25288   0.060   4.575   6.431
 8130SOL    HW125289   0.015   4.486   6.435
 8130SOL    HW225290   0.097   4.598   6.521
 8131SOL     OW25291   3.377   0.938   0.949
 8131SOL    HW125292   3.445   0.923   1.021
 8131SOL    HW225293   3.313   0.861   0.947
 8132SOL     OW25294   5.212   5.927   6.445
 8132SOL    HW125295   5.277   5.952   6.517
 8132SOL    HW225296   5.228   5.833   6.416
 8133SOL     OW25297   3.424   4.919   1.728
 8133SOL    HW125298   3.477   4.864   1.792
 8133SOL    HW225299   3.362   4.861   1.677
 8134SOL     OW25300   0.983   2.030   4.613
 8134SOL    HW125301   1.046   2.038   4.690
 8134SOL    HW225302   0.974   1.933   4.589
 8135SOL     OW25303   1.912   6.070   0.961
 8135SOL    HW125304   1.998   6.087   1.008
 8135SOL    HW225305   1.868   6.158   0.939
 8136SOL     OW25306   4.865   4.510   2.778
 8136SOL    HW125307   4.799   4.562   2.725
 8136SOL    HW225308   4.941   4.569   2.804
 8137SOL     OW25309   2.674   1.429   4.283
 8137SOL    HW125310   2.725   1.423   4.198
 8137SOL    HW225311   2.579   1.404   4.267
 8138SOL     OW25312   5.841   2.390   0.357
 8138SOL    HW125313   5.742   2.384   0.370
 8138SOL    HW225314   5.878   2.298   0.344
 8139SOL     OW25315   1.817   2.109   4.109
 8139SOL    HW125316   1.872   2.046   4.163
 8139SOL    HW225317   1.861   2.124   4.020
 8140SOL     OW25318   4.084   6.615   0.083
 8140SOL    HW125319   3.997   6.585   0.043
 8140SOL    HW225320   4.154   6.545   0.067
 8141SOL     OW25321   4.113   6.864   5.518
 8141SOL    HW125322   4.145   6.771   5.537
 8141SOL    HW225323   4.158   6.928   5.581
 8142SOL     OW25324   1.998   5.270   0.115
 8142SOL    HW125325   1.934   5.292   0.188
 8142SOL    HW225326   2.091   5.268   0.152
 8143SOL     OW25327   5.677   5.199   0.402
 8143SOL    HW125328   5.694   5.118   0.459
 8143SOL    HW225329   5.680   5.173   0.305
 8144SOL     OW25330   0.845   6.072   5.797
 8144SOL    HW125331   0.771   6.009   5.773
 8144SOL    HW225332   0.834   6.101   5.892
 8145SOL     OW25333   5.596   5.574   0.663
 8145SOL    HW125334   5.583   5.658   0.610
 8145SOL    HW225335   5.671   5.587   0.728
 8146SOL     OW25336   5.204   7.016   5.317
 8146SOL    HW125337   5.272   6.955   5.278
 8146SOL    HW225338   5.119   7.008   5.265
 8147SOL     OW25339   6.307   0.917   1.147
 8147SOL    HW125340   6.322   0.843   1.213
 8147SOL    HW225341   6.362   0.900   1.065
 8148SOL     OW25342   5.222   5.000   0.045
 8148SOL    HW125343   5.185   4.912   0.014
 8148SOL    HW225344   5.150   5.051   0.093
 8149SOL     OW25345   1.309   6.682   3.258
 8149SOL    HW125346   1.321   6.723   3.349
 8149SOL    HW225347   1.323   6.583   3.264
 8150SOL     OW25348   1.590   4.466   0.876
 8150SOL    HW125349   1.667   4.489   0.816
 8150SOL    HW225350   1.515   4.530   0.858
 8151SOL     OW25351   5.928   5.403   3.228
 8151SOL    HW125352   6.003   5.405   3.162
 8151SOL    HW225353   5.850   5.455   3.193
 8152SOL     OW25354   6.002   3.238   3.205
 8152SOL    HW125355   6.064   3.241   3.126
 8152SOL    HW225356   6.012   3.150   3.251
 8153SOL     OW25357   1.234   1.436   3.727
 8153SOL    HW125358   1.188   1.418   3.640
 8153SOL    HW225359   1.320   1.484   3.710
 8154SOL     OW25360   3.668   6.244   2.850
 8154SOL    HW125361   3.636   6.335   2.826
 8154SOL    HW225362   3.737   6.251   2.922
 8155SOL     OW25363   1.678   3.822   2.030
 8155SOL    HW125364   1.769   3.783   2.018
 8155SOL    HW225365   1.685   3.909   2.080
 8156SOL     OW25366   4.370   6.345   0.483
 8156SOL    HW125367   4.371   6.391   0.394
 8156SOL    HW225368   4.281   6.356   0.526
 8157SOL     OW25369   6.121   4.225   6.735
 8157SOL    HW125370   6.049   4.294   6.742
 8157SOL    HW225371   6.131   4.178   6.822
 8158SOL     OW25372   5.056   3.924   0.270
 8158SOL    HW125373   5.149   3.888   0.264
 8158SOL    HW225374   5.021   3.942   0.178
 8159SOL     OW25375   2.573   5.603   3.607
 8159SOL    HW125376   2.596   5.586   3.511
 8159SOL    HW225377   2.657   5.621   3.658
 8160SOL     OW25378   5.214   0.210   4.035
 8160SOL    HW125379   5.205   0.148   3.957
 8160SOL    HW225380   5.245   0.300   4.004
 8161SOL     OW25381   5.813   2.826   6.000
 8161SOL    HW125382   5.842   2.908   5.951
 8161SOL    HW225383   5.873   2.811   6.079
 8162SOL     OW25384   6.381   6.145   0.048
 8162SOL    HW125385   6.321   6.115   7.000
 8162SOL    HW225386   6.348   6.233   0.083
 8163SOL     OW25387   2.436   4.764   5.183
 8163SOL    HW125388   2.531   4.757   5.214
 8163SOL    HW225389   2.422   4.852   5.138
 8164SOL     OW25390   4.754   1.663   0.969
 8164SOL    HW125391   4.668   1.712   0.980
 8164SOL    HW225392   4.749   1.603   0.889
 8165SOL     OW25393   0.001   4.001   5.647
 8165SOL    HW125394   6.987   4.037   5.562
 8165SOL    HW225395   6.957   3.956   5.701
 8166SOL     OW25396   1.200   0.466   3.462
 8166SOL    HW125397   1.294   0.453   3.432
 8166SOL    HW225398   1.190   0.437   3.557
 8167SOL     OW25399   0.241   1.272   3.512
 8167SOL    HW125400   0.317   1.332   3.489
 8167SOL    HW225401   0.232   1.266   3.612
 8168SOL     OW25402   2.872   0.696   1.659
 8168SOL    HW125403   2.876   0.725   1.564
 8168SOL    HW225404   2.963   0.705   1.701
 8169SOL     OW25405   4.575   2.440   0.262
 8169SOL    HW125406   4.667   2.405   0.245
 8169SOL    HW225407   4.509   2.386   0.210
 8170SOL     OW25408   1.362   5.457   1.704
 8170SOL    HW125409   1.382   5.548   1.668
 8170SOL    HW225410   1.308   5.406   1.637
 8171SOL     OW25411   1.500   1.835   6.957
 8171SOL    HW125412   1.420   1.894   6.945
 8171SOL    HW225413   1.534   1.844   0.025
 8172SOL     OW25414   7.004   2.008   2.315
 8172SOL    HW125415   6.907   2.017   2.297
 8172SOL    HW225416   7.026   2.052   2.403
 8173SOL     OW25417   5.568   2.252   2.113
 8173SOL    HW125418   5.617   2.339   2.115
 8173SOL    HW225419   5.504   2.248   2.189
 8174SOL     OW25420   6.878   0.272   2.280
 8174SOL    HW125421   6.807   0.335   2.248
 8174SOL    HW225422   6.953   0.271   2.214
 8175SOL     OW25423   0.082   3.558   5.140
 8175SOL    HW125424   0.043   3.650   5.141
 8175SOL    HW225425   0.181   3.564   5.150
 8176SOL     OW25426   2.540   4.668   1.553
 8176SOL    HW125427   2.630   4.625   1.562
 8176SOL    HW225428   2.546   4.745   1.489
 8177SOL     OW25429   4.444   0.285   3.818
 8177SOL    HW125430   4.483   0.348   3.750
 8177SOL    HW225431   4.367   0.329   3.863
 8178SOL     OW25432   3.191   6.835   0.417
 8178SOL    HW125433   3.122   6.808   0.484
 8178SOL    HW225434   3.236   6.919   0.448
 8179SOL     OW25435   5.287   1.237   4.869
 8179SOL    HW125436   5.365   1.179   4.892
 8179SOL    HW225437   5.305   1.331   4.899
 8180SOL     OW25438   6.277   0.949   5.765
 8180SOL    HW125439   6.201   1.005   5.733
 8180SOL    HW225440   6.333   1.003   5.828
 8181SOL     OW25441   1.367   1.754   0.615
 8181SOL    HW125442   1.278   1.751   0.570
 8181SOL    HW225443   1.438   1.771   0.546
 8182SOL     OW25444   3.144   3.349   5.797
 8182SOL    HW125445   3.172   3.263   5.756
 8182SOL    HW225446   3.090   3.402   5.732
 8183SOL     OW25447   6.725   2.266   5.013
 8183SOL    HW125448   6.644   2.322   5.032
 8183SOL    HW225449   6.799   2.294   5.073
 8184SOL     OW25450   6.950   0.139   0.607
 8184SOL    HW125451   7.002   0.197   0.544
 8184SOL    HW225452   7.011   0.073   0.651
 8185SOL     OW25453   1.964   0.726   6.823
 8185SOL    HW125454   1.978   0.682   6.734
 8185SOL    HW225455   1.945   0.656   6.892
 8186SOL     OW25456   3.249   4.701   5.525
 8186SOL    HW125457   3.189   4.662   5.455
 8186SOL    HW225458   3.276   4.793   5.497
 8187SOL     OW25459   2.046   1.440   5.101
 8187SOL    HW125460   2.082   1.529   5.073
 8187SOL    HW225461   2.000   1.397   5.024
 8188SOL     OW25462   4.870   3.225   3.654
 8188SOL    HW125463   4.787   3.250   3.603
 8188SOL    HW225464   4.855   3.242   3.751
 8189SOL     OW25465   5.177   5.515   3.014
 8189SOL    HW125466   5.139   5.506   2.922
 8189SOL    HW225467   5.112   5.562   3.073
 8190SOL     OW25468   4.776   4.180   4.315
 8190SOL    HW125469   4.758   4.144   4.406
 8190SOL    HW225470   4.763   4.107   4.247
 8191SOL     OW25471   3.824   5.826   1.856
 8191SOL    HW125472   3.764   5.809   1.935
 8191SOL    HW225473   3.780   5.890   1.793
 8192SOL     OW25474   3.136   5.527   1.527
 8192SOL    HW125475   3.213   5.550   1.467
 8192SOL    HW225476   3.138   5.430   1.548
 8193SOL     OW25477   5.753   5.588   5.789
 8193SOL    HW125478   5.740   5.638   5.874
 8193SOL    HW225479   5.664   5.564   5.750
 8194SOL     OW25480   4.776   1.533   0.714
 8194SOL    HW125481   4.708   1.529   0.640
 8194SOL    HW225482   4.861   1.490   0.683
 8195SOL     OW25483   0.591   6.561   3.206
 8195SOL    HW125484   0.566   6.645   3.157
 8195SOL    HW225485   0.522   6.542   3.276
 8196SOL     OW25486   4.184   5.985   6.721
 8196SOL    HW125487   4.084   5.977   6.717
 8196SOL    HW225488   4.221   5.907   6.772
 8197SOL     OW25489   3.959   1.545   0.533
 8197SOL    HW125490   4.032   1.549   0.602
 8197SOL    HW225491   3.880   1.499   0.572
 8198SOL     OW25492   3.391   6.479   2.864
 8198SOL    HW125493   3.396   6.401   2.926
 8198SOL    HW225494   3.479   6.492   2.819
 8199SOL     OW25495   5.658   2.517   6.292
 8199SOL    HW125496   5.674   2.611   6.322
 8199SOL    HW225497   5.672   2.454   6.368
 8200SOL     OW25498   5.778   4.845   2.063
 8200SOL    HW125499   5.758   4.781   1.989
 8200SOL    HW225500   5.862   4.895   2.042
 8201SOL     OW25501   5.593   0.740   4.534
 8201SOL    HW125502   5.573   0.828   4.577
 8201SOL    HW225503   5.656   0.688   4.592
 8202SOL     OW25504   0.152   5.609   3.994
 8202SOL    HW125505   0.146   5.650   4.085
 8202SOL    HW225506   0.136   5.679   3.925
 8203SOL     OW25507   3.111   2.239   0.108
 8203SOL    HW125508   3.181   2.287   0.162
 8203SOL    HW225509   3.146   2.224   0.015
 8204SOL     OW25510   3.643   4.728   6.965
 8204SOL    HW125511   3.641   4.787   6.884
 8204SOL    HW225512   3.634   4.632   6.937
 8205SOL     OW25513   0.400   4.670   0.578
 8205SOL    HW125514   0.358   4.597   0.631
 8205SOL    HW225515   0.366   4.758   0.609
 8206SOL     OW25516   5.264   1.923   6.545
 8206SOL    HW125517   5.247   1.896   6.640
 8206SOL    HW225518   5.196   1.991   6.517
 8207SOL     OW25519   2.926   3.413   4.408
 8207SOL    HW125520   2.995   3.365   4.354
 8207SOL    HW225521   2.835   3.392   4.371
 8208SOL     OW25522   1.357   0.117   1.529
 8208SOL    HW125523   1.260   0.134   1.508
 8208SOL    HW225524   1.410   0.119   1.444
 8209SOL     OW25525   0.767   1.204   4.803
 8209SOL    HW125526   0.851   1.168   4.760
 8209SOL    HW225527   0.779   1.301   4.824
 8210SOL     OW25528   2.057   1.032   1.359
 8210SOL    HW125529   2.127   0.984   1.305
 8210SOL    HW225530   1.966   1.003   1.328
 8211SOL     OW25531   3.909   4.205   1.729
 8211SOL    HW125532   3.885   4.131   1.792
 8211SOL    HW225533   3.833   4.268   1.721
 8212SOL     OW25534   2.221   2.353   2.009
 8212SOL    HW125535   2.239   2.452   2.002
 8212SOL    HW225536   2.308   2.304   2.000
 8213SOL     OW25537   6.619   4.177   1.901
 8213SOL    HW125538   6.538   4.165   1.843
 8213SOL    HW225539   6.683   4.102   1.885
 8214SOL     OW25540   5.734   5.724   4.239
 8214SOL    HW125541   5.827   5.690   4.223
 8214SOL    HW225542   5.711   5.793   4.170
 8215SOL     OW25543   2.676   5.257   6.013
 8215SOL    HW125544   2.616   5.245   6.092
 8215SOL    HW225545   2.720   5.346   6.018
 8216SOL     OW25546   5.561   5.152   3.606
 8216SOL    HW125547   5.491   5.148   3.535
 8216SOL    HW225548   5.564   5.065   3.654
 8217SOL     OW25549   1.761   3.945   0.176
 8217SOL    HW125550   1.685   3.936   0.112
 8217SOL    HW225551   1.759   3.870   0.242
 8218SOL     OW25552   0.427   6.734   5.797
 8218SOL    HW125553   0.482   6.780   5.727
 8218SOL    HW225554   0.353   6.795   5.826
 8219SOL     OW25555   4.284   2.556   0.729
 8219SOL    HW125556   4.271   2.629   0.796
 8219SOL    HW225557   4.375   2.515   0.741
 8220SOL     OW25558   3.356   2.995   3.646
 8220SOL    HW125559   3.363   2.969   3.743
 8220SOL    HW225560   3.260   2.991   3.617
 8221SOL     OW25561   6.069   6.714   3.617
 8221SOL    HW125562   6.062   6.616   3.637
 8221SOL    HW225563   6.126   6.728   3.537
 8222SOL     OW25564   5.871   1.495   1.345
 8222SOL    HW125565   5.889   1.397   1.337
 8222SOL    HW225566   5.953   1.542   1.378
 8223SOL     OW25567   0.408   4.572   5.213
 8223SOL    HW125568   0.362   4.486   5.193
 8223SOL    HW225569   0.506   4.563   5.194
 8224SOL     OW25570   5.808   1.154   2.432
 8224SOL    HW125571   5.806   1.075   2.371
 8224SOL    HW225572   5.812   1.123   2.527
 8225SOL     OW25573   3.152   1.441   1.133
 8225SOL    HW125574   3.101   1.420   1.216
 8225SOL    HW225575   3.160   1.540   1.123
 8226SOL     OW25576   3.996   0.339   0.449
 8226SOL    HW125577   4.067   0.349   0.518
 8226SOL    HW225578   3.980   0.426   0.404
 8227SOL     OW25579   6.720   1.305   2.581
 8227SOL    HW125580   6.725   1.401   2.609
 8227SOL    HW225581   6.731   1.246   2.660
 8228SOL     OW25582   6.857   1.686   5.499
 8228SOL    HW125583   6.871   1.645   5.589
 8228SOL    HW225584   6.860   1.786   5.507
 8229SOL     OW25585   4.773   2.771   0.627
 8229SOL    HW125586   4.693   2.769   0.686
 8229SOL    HW225587   4.846   2.716   0.667
 8230SOL     OW25588   3.667   0.090   5.531
 8230SOL    HW125589   3.679   0.188   5.515
 8230SOL    HW225590   3.755   0.043   5.518
 8231SOL     OW25591   2.992   4.062   0.954
 8231SOL    HW125592   2.931   3.982   0.952
 8231SOL    HW225593   2.952   4.136   0.900
 8232SOL     OW25594   4.802   1.493   1.512
 8232SOL    HW125595   4.865   1.426   1.549
 8232SOL    HW225596   4.756   1.455   1.432
 8233SOL     OW25597   1.323   6.043   6.251
 8233SOL    HW125598   1.376   5.975   6.200
 8233SOL    HW225599   1.255   6.083   6.190
 8234SOL     OW25600   2.653   3.979   6.675
 8234SOL    HW125601   2.697   3.911   6.734
 8234SOL    HW225602   2.674   3.958   6.579
 8235SOL     OW25603   0.238   2.978   0.013
 8235SOL    HW125604   0.246   2.945   0.107
 8235SOL    HW225605   0.330   3.000   7.004
 8236SOL     OW25606   0.333   4.926   0.564
 8236SOL    HW125607   0.265   4.951   0.495
 8236SOL    HW225608   0.356   5.007   0.618
 8237SOL     OW25609   4.084   6.312   4.440
 8237SOL    HW125610   4.019   6.378   4.477
 8237SOL    HW225611   4.166   6.359   4.410
 8238SOL     OW25612   0.579   5.453   6.093
 8238SOL    HW125613   0.641   5.376   6.077
 8238SOL    HW225614   0.610   5.532   6.039
 8239SOL     OW25615   6.951   0.915   5.754
 8239SOL    HW125616   6.928   0.952   5.844
 8239SOL    HW225617   6.876   0.932   5.691
 8240SOL     OW25618   3.271   4.042   2.293
 8240SOL    HW125619   3.224   3.957   2.313
 8240SOL    HW225620   3.284   4.095   2.377
 8241SOL     OW25621   3.983   6.535   5.773
 8241SOL    HW125622   3.916   6.540   5.847
 8241SOL    HW225623   3.940   6.560   5.686
 8242SOL     OW25624   0.396   4.661   6.406
 8242SOL    HW125625   0.414   4.563   6.407
 8242SOL    HW225626   0.347   4.685   6.323
 8243SOL     OW25627   0.206   2.839   0.246
 8243SOL    HW125628   0.215   2.746   0.210
 8243SOL    HW225629   0.277   2.857   0.313
 8244SOL     OW25630   0.294   0.732   4.248
 8244SOL    HW125631   0.338   0.704   4.333
 8244SOL    HW225632   0.334   0.818   4.216
 8245SOL     OW25633   4.113   1.878   2.195
 8245SOL    HW125634   4.201   1.925   2.201
 8245SOL    HW225635   4.045   1.938   2.154
 8246SOL     OW25636   1.352   3.376   6.016
 8246SOL    HW125637   1.261   3.341   6.042
 8246SOL    HW225638   1.378   3.337   5.927
 8247SOL     OW25639   1.922   0.380   2.605
 8247SOL    HW125640   1.872   0.462   2.576
 8247SOL    HW225641   1.895   0.303   2.547
 8248SOL     OW25642   6.578   5.648   4.764
 8248SOL    HW125643   6.594   5.601   4.677
 8248SOL    HW225644   6.545   5.582   4.832
 8249SOL     OW25645   1.715   2.511   5.958
 8249SOL    HW125646   1.640   2.577   5.966
 8249SOL    HW225647   1.678   2.420   5.938
 8250SOL     OW25648   2.992   3.793   1.496
 8250SOL    HW125649   3.033   3.877   1.458
 8250SOL    HW225650   3.056   3.718   1.487
 8251SOL     OW25651   4.939   3.558   4.147
 8251SOL    HW125652   4.891   3.521   4.226
 8251SOL    HW225653   5.012   3.495   4.120
 8252SOL     OW25654   2.912   1.675   5.432
 8252SOL    HW125655   2.888   1.769   5.455
 8252SOL    HW225656   3.002   1.673   5.388
 8253SOL     OW25657   4.076   5.038   5.728
 8253SOL    HW125658   4.127   4.958   5.698
 8253SOL    HW225659   3.998   5.009   5.784
 8254SOL     OW25660   4.567   4.385   5.161
 8254SOL    HW125661   4.599   4.291   5.147
 8254SOL    HW225662   4.468   4.389   5.147
 8255SOL     OW25663   1.842   0.176   5.427
 8255SOL    HW125664   1.767   0.161   5.362
 8255SOL    HW225665   1.909   0.237   5.385
 8256SOL     OW25666   6.491   6.543   1.793
 8256SOL    HW125667   6.549   6.606   1.741
 8256SOL    HW225668   6.397   6.550   1.761
 8257SOL     OW25669   5.303   4.639   2.990
 8257SOL    HW125670   5.356   4.622   3.073
 8257SOL    HW225671   5.257   4.554   2.962
 8258SOL     OW25672   5.583   2.051   0.878
 8258SOL    HW125673   5.669   2.055   0.930
 8258SOL    HW225674   5.579   2.129   0.816
 8259SOL     OW25675   3.743   1.559   4.318
 8259SOL    HW125676   3.732   1.460   4.330
 8259SOL    HW225677   3.841   1.581   4.318
 8260SOL     OW25678   2.123   0.015   1.048
 8260SOL    HW125679   2.086   0.031   0.957
 8260SOL    HW225680   2.157   6.947   1.055
 8261SOL     OW25681   6.112   6.722   1.888
 8261SOL    HW125682   6.179   6.794   1.901
 8261SOL    HW225683   6.020   6.759   1.897
 8262SOL     OW25684   1.102   3.083   0.502
 8262SOL    HW125685   1.093   3.156   0.434
 8262SOL    HW225686   1.014   3.066   0.546
 8263SOL     OW25687   0.418   2.842   6.110
 8263SOL    HW125688   0.515   2.833   6.133
 8263SOL    HW225689   0.406   2.828   6.011
 8264SOL     OW25690   2.209   6.322   2.119
 8264SOL    HW125691   2.194   6.251   2.187
 8264SOL    HW225692   2.165   6.407   2.149
 8265SOL     OW25693   6.430   0.923   0.880
 8265SOL    HW125694   6.448   0.826   0.861
 8265SOL    HW225695   6.485   0.979   0.817
 8266SOL     OW25696   2.145   1.334   3.869
 8266SOL    HW125697   2.230   1.385   3.870
 8266SOL    HW225698   2.073   1.389   3.827
 8267SOL     OW25699   2.079   3.488   1.004
 8267SOL    HW125700   2.132   3.468   0.922
 8267SOL    HW225701   2.129   3.552   1.062
 8268SOL     OW25702   1.736   6.481   5.637
 8268SOL    HW125703   1.835   6.486   5.626
 8268SOL    HW225704   1.713   6.477   5.734
 8269SOL     OW25705   4.623   0.925   2.142
 8269SOL    HW125706   4.533   0.885   2.131
 8269SOL    HW225707   4.647   0.927   2.240
 8270SOL     OW25708   2.646   6.363   4.982
 8270SOL    HW125709   2.633   6.413   5.068
 8270SOL    HW225710   2.664   6.429   4.909
 8271SOL     OW25711   0.477   0.429   3.578
 8271SOL    HW125712   0.538   0.393   3.649
 8271SOL    HW225713   0.392   0.460   3.620
 8272SOL     OW25714   6.204   2.233   2.728
 8272SOL    HW125715   6.200   2.333   2.724
 8272SOL    HW225716   6.136   2.199   2.794
 8273SOL     OW25717   2.706   1.153   0.900
 8273SOL    HW125718   2.754   1.234   0.935
 8273SOL    HW225719   2.629   1.183   0.844
 8274SOL     OW25720   4.754   4.625   4.146
 8274SOL    HW125721   4.768   4.710   4.095
 8274SOL    HW225722   4.671   4.579   4.112
 8275SOL     OW25723   6.226   0.788   4.890
 8275SOL    HW125724   6.154   0.720   4.873
 8275SOL    HW225725   6.226   0.855   4.816
 8276SOL     OW25726   0.781   2.574   4.174
 8276SOL    HW125727   0.829   2.659   4.149
 8276SOL    HW225728   0.694   2.570   4.126
 8277SOL     OW25729   0.503   6.022   6.783
 8277SOL    HW125730   0.587   5.970   6.770
 8277SOL    HW225731   0.429   5.979   6.732
 8278SOL     OW25732   3.381   1.542   6.356
 8278SOL    HW125733   3.321   1.493   6.293
 8278SOL    HW225734   3.327   1.610   6.407
 8279SOL     OW25735   1.144   6.019   4.615
 8279SOL    HW125736   1.220   6.023   4.550
 8279SOL    HW225737   1.148   6.097   4.677
 8280SOL     OW25738   2.197   3.009   0.035
 8280SOL    HW125739   2.127   2.987   0.103
 8280SOL    HW225740   2.162   2.990   6.970
 8281SOL     OW25741   3.018   4.096   1.806
 8281SOL    HW125742   3.035   4.134   1.897
 8281SOL    HW225743   2.993   4.170   1.744
 8282SOL     OW25744   4.834   3.444   0.144
 8282SOL    HW125745   4.868   3.510   0.211
 8282SOL    HW225746   4.823   3.490   0.055
 8283SOL     OW25747   1.798   5.483   5.612
 8283SOL    HW125748   1.764   5.502   5.520
 8283SOL    HW225749   1.823   5.569   5.657
 8284SOL     OW25750   1.090   3.839   1.730
 8284SOL    HW125751   1.148   3.764   1.761
 8284SOL    HW225752   1.113   3.863   1.636
 8285SOL     OW25753   3.059   3.866   5.413
 8285SOL    HW125754   2.982   3.905   5.363
 8285SOL    HW225755   3.049   3.767   5.417
 8286SOL     OW25756   5.643   1.646   5.490
 8286SOL    HW125757   5.741   1.656   5.470
 8286SOL    HW225758   5.599   1.736   5.485
 8287SOL     OW25759   1.179   5.028   4.374
 8287SOL    HW125760   1.164   5.078   4.459
 8287SOL    HW225761   1.275   5.037   4.346
 8288SOL     OW25762   3.059   2.128   1.927
 8288SOL    HW125763   3.042   2.040   1.971
 8288SOL    HW225764   3.006   2.199   1.973
 8289SOL     OW25765   0.646   6.173   0.423
 8289SOL    HW125766   0.686   6.243   0.483
 8289SOL    HW225767   0.700   6.089   0.429
 8290SOL     OW25768   5.110   1.499   0.780
 8290SOL    HW125769   5.194   1.548   0.760
 8290SOL    HW225770   5.073   1.460   0.696
 8291SOL     OW25771   4.442   6.106   4.528
 8291SOL    HW125772   4.529   6.147   4.556
 8291SOL    HW225773   4.382   6.098   4.608
 8292SOL     OW25774   3.158   6.890   6.789
 8292SOL    HW125775   3.224   6.816   6.797
 8292SOL    HW225776   3.145   6.933   6.878
 8293SOL     OW25777   2.458   5.427   0.385
 8293SOL    HW125778   2.429   5.503   0.444
 8293SOL    HW225779   2.514   5.462   0.310
 8294SOL     OW25780   5.570   3.487   5.347
 8294SOL    HW125781   5.493   3.536   5.388
 8294SOL    HW225782   5.568   3.391   5.376
 8295SOL     OW25783   4.874   5.239   1.667
 8295SOL    HW125784   4.775   5.229   1.679
 8295SOL    HW225785   4.906   5.321   1.713
 8296SOL     OW25786   2.012   4.621   6.208
 8296SOL    HW125787   1.989   4.578   6.121
 8296SOL    HW225788   2.077   4.564   6.258
 8297SOL     OW25789   0.201   3.264   2.551
 8297SOL    HW125790   0.244   3.351   2.576
 8297SOL    HW225791   0.117   3.253   2.604
 8298SOL     OW25792   6.132   1.350   1.064
 8298SOL    HW125793   6.134   1.431   1.124
 8298SOL    HW225794   6.039   1.334   1.033
 8299SOL     OW25795   0.533   2.502   2.287
 8299SOL    HW125796   0.597   2.452   2.229
 8299SOL    HW225797   0.439   2.478   2.260
 8300SOL     OW25798   0.345   5.414   4.381
 8300SOL    HW125799   0.301   5.500   4.357
 8300SOL    HW225800   0.394   5.379   4.301
 8301SOL     OW25801   3.655   1.591   0.930
 8301SOL    HW125802   3.710   1.564   0.851
 8301SOL    HW225803   3.559   1.572   0.911
 8302SOL     OW25804   5.485   6.814   6.675
 8302SOL    HW125805   5.579   6.839   6.696
 8302SOL    HW225806   5.433   6.805   6.760
 8303SOL     OW25807   6.062   0.726   3.480
 8303SOL    HW125808   6.123   0.682   3.546
 8303SOL    HW225809   6.053   0.823   3.502
 8304SOL     OW25810   6.315   3.337   1.406
 8304SOL    HW125811   6.270   3.250   1.385
 8304SOL    HW225812   6.313   3.396   1.326
 8305SOL     OW25813   4.813   4.842   3.739
 8305SOL    HW125814   4.728   4.794   3.761
 8305SOL    HW225815   4.891   4.785   3.766
 8306SOL     OW25816   5.511   1.398   5.451
 8306SOL    HW125817   5.490   1.386   5.548
 8306SOL    HW225818   5.544   1.491   5.436
 8307SOL     OW25819   3.765   5.283   1.407
 8307SOL    HW125820   3.739   5.234   1.491
 8307SOL    HW225821   3.845   5.239   1.366
 8308SOL     OW25822   3.337   5.213   1.307
 8308SOL    HW125823   3.250   5.191   1.262
 8308SOL    HW225824   3.400   5.252   1.239
 8309SOL     OW25825   6.793   5.527   4.126
 8309SOL    HW125826   6.868   5.492   4.071
 8309SOL    HW225827   6.779   5.468   4.206
 8310SOL     OW25828   0.184   5.622   1.120
 8310SOL    HW125829   0.197   5.716   1.089
 8310SOL    HW225830   0.195   5.559   1.043
 8311SOL     OW25831   0.905   2.178   4.958
 8311SOL    HW125832   0.896   2.256   4.897
 8311SOL    HW225833   0.991   2.130   4.940
 8312SOL     OW25834   5.200   0.378   0.076
 8312SOL    HW125835   5.267   0.317   0.035
 8312SOL    HW225836   5.209   0.469   0.035
 8313SOL     OW25837   5.156   6.975   0.415
 8313SOL    HW125838   5.214   6.918   0.356
 8313SOL    HW225839   5.156   0.043   0.381
 8314SOL     OW25840   4.912   0.369   6.801
 8314SOL    HW125841   4.815   0.350   6.818
 8314SOL    HW225842   4.965   0.343   6.882
 8315SOL     OW25843   4.566   3.172   0.803
 8315SOL    HW125844   4.650   3.173   0.748
 8315SOL    HW225845   4.567   3.093   0.865
 8316SOL     OW25846   1.384   1.982   1.651
 8316SOL    HW125847   1.477   1.946   1.652
 8316SOL    HW225848   1.381   2.067   1.598
 8317SOL     OW25849   1.707   2.955   2.507
 8317SOL    HW125850   1.669   3.043   2.537
 8317SOL    HW225851   1.668   2.931   2.418
 8318SOL     OW25852   4.300   1.638   5.857
 8318SOL    HW125853   4.356   1.670   5.779
 8318SOL    HW225854   4.311   1.701   5.933
 8319SOL     OW25855   1.497   2.020   0.957
 8319SOL    HW125856   1.500   2.118   0.942
 8319SOL    HW225857   1.402   1.988   0.952
 8320SOL     OW25858   3.067   3.424   2.415
 8320SOL    HW125859   3.017   3.456   2.495
 8320SOL    HW225860   3.161   3.460   2.417
 8321SOL     OW25861   6.910   0.028   6.401
 8321SOL    HW125862   6.999   0.043   6.444
 8321SOL    HW225863   6.920   0.024   6.302
 8322SOL     OW25864   6.601   0.271   1.229
 8322SOL    HW125865   6.591   0.182   1.273
 8322SOL    HW225866   6.603   0.259   1.129
 8323SOL     OW25867   5.468   5.739   2.021
 8323SOL    HW125868   5.489   5.837   2.018
 8323SOL    HW225869   5.399   5.722   2.092
 8324SOL     OW25870   5.717   6.552   1.352
 8324SOL    HW125871   5.703   6.453   1.354
 8324SOL    HW225872   5.759   6.579   1.265
 8325SOL     OW25873   2.007   3.848   5.424
 8325SOL    HW125874   1.918   3.814   5.393
 8325SOL    HW225875   2.071   3.848   5.347
 8326SOL     OW25876   5.201   3.279   5.638
 8326SOL    HW125877   5.145   3.355   5.605
 8326SOL    HW225878   5.149   3.194   5.632
 8327SOL     OW25879   6.498   0.765   5.707
 8327SOL    HW125880   6.414   0.818   5.693
 8327SOL    HW225881   6.517   0.758   5.805
 8328SOL     OW25882   2.841   6.475   6.136
 8328SOL    HW125883   2.925   6.509   6.094
 8328SOL    HW225884   2.763   6.497   6.078
 8329SOL     OW25885   1.621   2.959   6.075
 8329SOL    HW125886   1.605   3.057   6.066
 8329SOL    HW225887   1.561   2.921   6.146
 8330SOL     OW25888   2.408   1.526   6.760
 8330SOL    HW125889   2.383   1.492   6.851
 8330SOL    HW225890   2.504   1.552   6.759
 8331SOL     OW25891   3.190   0.743   0.968
 8331SOL    HW125892   3.113   0.776   0.914
 8331SOL    HW225893   3.172   0.759   1.065
 8332SOL     OW25894   5.053   5.478   2.347
 8332SOL    HW125895   5.078   5.529   2.429
 8332SOL    HW225896   5.052   5.540   2.268
 8333SOL     OW25897   0.161   5.835   6.123
 8333SOL    HW125898   0.236   5.802   6.181
 8333SOL    HW225899   0.086   5.768   6.125
 8334SOL     OW25900   3.933   0.878   4.396
 8334SOL    HW125901   4.017   0.826   4.381
 8334SOL    HW225902   3.952   0.975   4.382
 8335SOL     OW25903   5.120   0.195   0.288
 8335SOL    HW125904   5.103   0.244   0.373
 8335SOL    HW225905   5.151   0.260   0.218
 8336SOL     OW25906   0.320   4.927   3.054
 8336SOL    HW125907   0.324   4.886   2.963
 8336SOL    HW225908   0.291   4.857   3.120
 8337SOL     OW25909   2.109   6.693   3.062
 8337SOL    HW125910   2.009   6.698   3.062
 8337SOL    HW225911   2.143   6.696   3.156
 8338SOL     OW25912   3.647   5.453   1.932
 8338SOL    HW125913   3.574   5.520   1.921
 8338SOL    HW225914   3.609   5.360   1.927
 8339SOL     OW25915   6.490   0.217   1.880
 8339SOL    HW125916   6.534   0.194   1.794
 8339SOL    HW225917   6.498   0.316   1.896
 8340SOL     OW25918   4.618   3.057   0.384
 8340SOL    HW125919   4.717   3.049   0.399
 8340SOL    HW225920   4.569   3.007   0.456
 8341SOL     OW25921   2.952   6.778   0.230
 8341SOL    HW125922   2.913   6.865   0.198
 8341SOL    HW225923   3.037   6.795   0.279
 8342SOL     OW25924   4.238   6.427   0.916
 8342SOL    HW125925   4.232   6.500   0.985
 8342SOL    HW225926   4.150   6.417   0.870
 8343SOL     OW25927   1.412   5.357   5.055
 8343SOL    HW125928   1.471   5.433   5.025
 8343SOL    HW225929   1.460   5.270   5.039
 8344SOL     OW25930   4.796   5.793   4.888
 8344SOL    HW125931   4.860   5.716   4.885
 8344SOL    HW225932   4.702   5.757   4.882
 8345SOL     OW25933   4.404   1.057   2.381
 8345SOL    HW125934   4.365   1.057   2.289
 8345SOL    HW225935   4.374   1.138   2.430
 8346SOL     OW25936   3.969   5.196   0.395
 8346SOL    HW125937   3.927   5.107   0.374
 8346SOL    HW225938   4.032   5.185   0.472
 8347SOL     OW25939   3.881   5.563   3.873
 8347SOL    HW125940   3.901   5.470   3.901
 8347SOL    HW225941   3.849   5.563   3.778
 8348SOL     OW25942   2.469   0.322   1.917
 8348SOL    HW125943   2.455   0.237   1.865
 8348SOL    HW225944   2.520   0.387   1.860
 8349SOL     OW25945   6.002   6.481   1.769
 8349SOL    HW125946   6.038   6.557   1.823
 8349SOL    HW225947   5.914   6.452   1.808
 8350SOL     OW25948   3.344   6.829   6.188
 8350SOL    HW125949   3.412   6.804   6.256
 8350SOL    HW225950   3.252   6.815   6.226
 8351SOL     OW25951   5.709   5.165   3.913
 8351SOL    HW125952   5.801   5.204   3.917
 8351SOL    HW225953   5.692   5.126   3.823
 8352SOL     OW25954   0.576   0.206   3.443
 8352SOL    HW125955   0.598   0.163   3.530
 8352SOL    HW225956   0.527   0.292   3.459
 8353SOL     OW25957   6.849   3.521   1.602
 8353SOL    HW125958   6.773   3.585   1.591
 8353SOL    HW225959   6.905   3.548   1.680
 8354SOL     OW25960   4.355   6.605   5.454
 8354SOL    HW125961   4.292   6.611   5.531
 8354SOL    HW225962   4.309   6.635   5.370
 8355SOL     OW25963   2.429   1.009   5.957
 8355SOL    HW125964   2.462   0.919   5.983
 8355SOL    HW225965   2.429   1.069   6.037
 8356SOL     OW25966   1.140   6.880   0.896
 8356SOL    HW125967   1.203   6.861   0.821
 8356SOL    HW225968   1.108   6.794   0.935
 8357SOL     OW25969   3.710   6.782   4.772
 8357SOL    HW125970   3.734   6.868   4.816
 8357SOL    HW225971   3.639   6.799   4.704
 8358SOL     OW25972   1.437   4.422   4.913
 8358SOL    HW125973   1.452   4.337   4.863
 8358SOL    HW225974   1.525   4.460   4.940
 8359SOL     OW25975   3.123   0.657   4.985
 8359SOL    HW125976   3.111   0.589   4.913
 8359SOL    HW225977   3.139   0.611   5.073
 8360SOL     OW25978   3.685   6.380   0.944
 8360SOL    HW125979   3.713   6.295   0.898
 8360SOL    HW225980   3.590   6.401   0.920
 8361SOL     OW25981   3.327   0.300   2.707
 8361SOL    HW125982   3.384   0.256   2.777
 8361SOL    HW225983   3.270   0.370   2.750
 8362SOL     OW25984   4.073   2.158   0.690
 8362SOL    HW125985   4.032   2.068   0.704
 8362SOL    HW225986   4.066   2.184   0.594
 8363SOL     OW25987   6.569   2.818   6.463
 8363SOL    HW125988   6.483   2.841   6.508
 8363SOL    HW225989   6.553   2.746   6.395
 8364SOL     OW25990   1.224   2.612   3.577
 8364SOL    HW125991   1.201   2.656   3.664
 8364SOL    HW225992   1.151   2.548   3.553
 8365SOL     OW25993   1.937   3.473   1.617
 8365SOL    HW125994   1.970   3.379   1.602
 8365SOL    HW225995   1.982   3.511   1.698
 8366SOL     OW25996   2.086   5.917   2.008
 8366SOL    HW125997   2.148   5.867   2.069
 8366SOL    HW225998   2.021   5.854   1.968
 8367SOL     OW25999   4.105   5.753   4.163
 8367SOL    HW126000   4.062   5.788   4.080
 8367SOL    HW226001   4.201   5.780   4.164
 8368SOL     OW26002   2.067   5.478   6.453
 8368SOL    HW126003   2.043   5.402   6.394
 8368SOL    HW226004   1.995   5.547   6.450
 8369SOL     OW26005   0.999   0.040   6.328
 8369SOL    HW126006   0.932   0.106   6.291
 8369SOL    HW226007   1.091   0.066   6.297
 8370SOL     OW26008   2.828   1.748   6.193
 8370SOL    HW126009   2.894   1.813   6.156
 8370SOL    HW226010   2.822   1.760   6.292
 8371SOL     OW26011   2.070   4.711   1.211
 8371SOL    HW126012   2.122   4.744   1.131
 8371SOL    HW226013   2.122   4.730   1.294
 8372SOL     OW26014   2.000   4.863   1.884
 8372SOL    HW126015   1.947   4.881   1.801
 8372SOL    HW226016   1.946   4.890   1.964
 8373SOL     OW26017   1.689   0.058   4.452
 8373SOL    HW126018   1.776   0.107   4.447
 8373SOL    HW226019   1.642   0.064   4.364
 8374SOL     OW26020   0.064   0.733   5.147
 8374SOL    HW126021   0.021   0.693   5.228
 8374SOL    HW226022   0.140   0.791   5.175
 8375SOL     OW26023   3.194   6.397   5.042
 8375SOL    HW126024   3.105   6.354   5.031
 8375SOL    HW226025   3.183   6.496   5.049
 8376SOL     OW26026   1.398   1.143   4.395
 8376SOL    HW126027   1.366   1.056   4.432
 8376SOL    HW226028   1.485   1.168   4.438
 8377SOL     OW26029   5.243   6.643   0.769
 8377SOL    HW126030   5.334   6.617   0.802
 8377SOL    HW226031   5.226   6.601   0.680
 8378SOL     OW26032   4.525   5.895   2.634
 8378SOL    HW126033   4.625   5.897   2.645
 8378SOL    HW226034   4.485   5.837   2.704
 8379SOL     OW26035   5.604   2.350   1.307
 8379SOL    HW126036   5.616   2.442   1.344
 8379SOL    HW226037   5.618   2.352   1.208
 8380SOL     OW26038   0.271   0.533   2.754
 8380SOL    HW126039   0.204   0.532   2.680
 8380SOL    HW226040   0.255   0.613   2.812
 8381SOL     OW26041   0.139   2.896   4.876
 8381SOL    HW126042   0.107   2.983   4.912
 8381SOL    HW226043   0.177   2.910   4.784
 8382SOL     OW26044   2.920   0.639   3.010
 8382SOL    HW126045   2.844   0.703   3.019
 8382SOL    HW226046   2.885   0.547   2.993
 8383SOL     OW26047   2.618   0.308   6.018
 8383SOL    HW126048   2.657   0.271   5.934
 8383SOL    HW226049   2.660   0.397   6.038
 8384SOL     OW26050   6.369   0.697   1.321
 8384SOL    HW126051   6.383   0.740   1.411
 8384SOL    HW226052   6.439   0.627   1.307
 8385SOL     OW26053   5.851   2.254   0.839
 8385SOL    HW126054   5.838   2.329   0.774
 8385SOL    HW226055   5.885   2.174   0.790
 8386SOL     OW26056   2.347   5.899   2.186
 8386SOL    HW126057   2.296   5.964   2.243
 8386SOL    HW226058   2.417   5.854   2.241
 8387SOL     OW26059   1.631   1.384   1.937
 8387SOL    HW126060   1.548   1.405   1.885
 8387SOL    HW226061   1.611   1.315   2.006
 8388SOL     OW26062   2.071   6.407   0.050
 8388SOL    HW126063   2.013   6.481   0.085
 8388SOL    HW226064   2.150   6.446   0.004
 8389SOL     OW26065   0.329   3.742   2.704
 8389SOL    HW126066   0.325   3.715   2.800
 8389SOL    HW226067   0.419   3.782   2.684
 8390SOL     OW26068   4.574   1.238   7.003
 8390SOL    HW126069   4.549   1.154   0.026
 8390SOL    HW226070   4.495   1.300   7.002
 8391SOL     OW26071   6.582   5.105   1.100
 8391SOL    HW126072   6.540   5.190   1.128
 8391SOL    HW226073   6.590   5.044   1.179
 8392SOL     OW26074   6.266   3.925   4.703
 8392SOL    HW126075   6.300   4.013   4.670
 8392SOL    HW226076   6.166   3.924   4.698
 8393SOL     OW26077   0.414   6.289   2.806
 8393SOL    HW126078   0.510   6.297   2.833
 8393SOL    HW226079   0.403   6.213   2.742
 8394SOL     OW26080   6.216   2.524   1.569
 8394SOL    HW126081   6.313   2.500   1.557
 8394SOL    HW226082   6.203   2.562   1.661
 8395SOL     OW26083   2.285   6.792   5.200
 8395SOL    HW126084   2.231   6.872   5.173
 8395SOL    HW226085   2.336   6.759   5.120
 8396SOL     OW26086   4.948   5.300   2.144
 8396SOL    HW126087   4.993   5.384   2.176
 8396SOL    HW226088   4.849   5.310   2.154
 8397SOL     OW26089   1.953   0.186   2.825
 8397SOL    HW126090   1.960   0.118   2.752
 8397SOL    HW226091   1.935   0.276   2.786
 8398SOL     OW26092   3.834   1.682   6.719
 8398SOL    HW126093   3.912   1.655   6.775
 8398SOL    HW226094   3.854   1.663   6.623
 8399SOL     OW26095   5.954   6.721   6.649
 8399SOL    HW126096   5.950   6.625   6.678
 8399SOL    HW226097   6.045   6.740   6.611
 8400SOL     OW26098   1.567   1.172   4.137
 8400SOL    HW126099   1.534   1.181   4.231
 8400SOL    HW226100   1.509   1.109   4.087
 8401SOL     OW26101   2.372   1.648   5.651
 8401SOL    HW126102   2.360   1.732   5.703
 8401SOL    HW226103   2.458   1.653   5.599
 8402SOL     OW26104   4.612   1.754   6.027
 8402SOL    HW126105   4.587   1.849   6.043
 8402SOL    HW226106   4.619   1.736   5.929
 8403SOL     OW26107   0.956   2.923   4.711
 8403SOL    HW126108   0.963   2.888   4.804
 8403SOL    HW226109   0.906   3.010   4.712
 8404SOL     OW26110   4.027   0.012   5.929
 8404SOL    HW126111   4.070   7.014   5.842
 8404SOL    HW226112   3.941   0.059   5.911
 8405SOL     OW26113   1.465   0.978   5.379
 8405SOL    HW126114   1.380   1.003   5.426
 8405SOL    HW226115   1.534   1.048   5.394
 8406SOL     OW26116   4.688   0.690   0.554
 8406SOL    HW126117   4.652   0.783   0.562
 8406SOL    HW226118   4.649   0.633   0.627
 8407SOL     OW26119   3.614   6.601   3.534
 8407SOL    HW126120   3.641   6.558   3.620
 8407SOL    HW226121   3.522   6.638   3.542
 8408SOL     OW26122   6.110   4.070   1.490
 8408SOL    HW126123   6.168   4.083   1.410
 8408SOL    HW226124   6.123   4.146   1.554
 8409SOL     OW26125   5.596   2.142   3.287
 8409SOL    HW126126   5.597   2.111   3.192
 8409SOL    HW226127   5.517   2.203   3.300
 8410SOL     OW26128   5.455   0.678   1.840
 8410SOL    HW126129   5.374   0.735   1.827
 8410SOL    HW226130   5.478   0.632   1.754
 8411SOL     OW26131   0.921   4.731   0.122
 8411SOL    HW126132   0.963   4.692   0.204
 8411SOL    HW226133   0.858   4.665   0.082
 8412SOL     OW26134   3.666   1.970   1.339
 8412SOL    HW126135   3.687   2.066   1.359
 8412SOL    HW226136   3.613   1.931   1.414
 8413SOL     OW26137   3.863   5.582   6.749
 8413SOL    HW126138   3.800   5.508   6.772
 8413SOL    HW226139   3.811   5.667   6.739
 8414SOL     OW26140   3.922   5.942   3.683
 8414SOL    HW126141   3.911   5.850   3.647
 8414SOL    HW226142   4.018   5.969   3.676
 8415SOL     OW26143   6.866   6.307   4.221
 8415SOL    HW126144   6.918   6.283   4.303
 8415SOL    HW226145   6.776   6.343   4.247
 8416SOL     OW26146   5.550   3.285   2.628
 8416SOL    HW126147   5.572   3.271   2.725
 8416SOL    HW226148   5.606   3.360   2.591
 8417SOL     OW26149   1.215   4.265   5.659
 8417SOL    HW126150   1.210   4.322   5.577
 8417SOL    HW226151   1.311   4.257   5.687
 8418SOL     OW26152   5.493   5.180   1.241
 8418SOL    HW126153   5.433   5.125   1.183
 8418SOL    HW226154   5.498   5.138   1.332
 8419SOL     OW26155   5.483   0.034   1.868
 8419SOL    HW126156   5.472   6.974   1.917
 8419SOL    HW226157   5.574   0.037   1.825
 8420SOL     OW26158   4.545   0.326   6.648
 8420SOL    HW126159   4.494   0.413   6.643
 8420SOL    HW226160   4.598   0.314   6.564
 8421SOL     OW26161   2.513   5.335   6.841
 8421SOL    HW126162   2.500   5.393   6.760
 8421SOL    HW226163   2.450   5.364   6.913
 8422SOL     OW26164   4.014   1.302   1.753
 8422SOL    HW126165   3.966   1.373   1.701
 8422SOL    HW226166   4.052   1.343   1.837
 8423SOL     OW26167   3.163   4.969   5.529
 8423SOL    HW126168   3.136   4.932   5.618
 8423SOL    HW226169   3.085   5.014   5.487
 8424SOL     OW26170   1.873   2.044   2.594
 8424SOL    HW126171   1.920   1.956   2.604
 8424SOL    HW226172   1.823   2.064   2.678
 8425SOL     OW26173   5.002   4.827   5.819
 8425SOL    HW126174   4.994   4.866   5.910
 8425SOL    HW226175   5.098   4.807   5.799
 8426SOL     OW26176   3.581   3.208   3.330
 8426SOL    HW126177   3.600   3.114   3.299
 8426SOL    HW226178   3.553   3.207   3.426
 8427SOL     OW26179   3.623   4.120   5.027
 8427SOL    HW126180   3.550   4.138   4.961
 8427SOL    HW226181   3.711   4.114   4.979
 8428SOL     OW26182   0.877   5.810   1.348
 8428SOL    HW126183   0.929   5.725   1.349
 8428SOL    HW226184   0.841   5.828   1.440
 8429SOL     OW26185   0.920   5.960   4.131
 8429SOL    HW126186   0.920   5.866   4.165
 8429SOL    HW226187   0.934   6.023   4.208
 8430SOL     OW26188   3.470   5.267   3.082
 8430SOL    HW126189   3.390   5.277   3.141
 8430SOL    HW226190   3.527   5.193   3.117
 8431SOL     OW26191   3.302   4.350   0.968
 8431SOL    HW126192   3.284   4.410   0.891
 8431SOL    HW226193   3.233   4.366   1.039
 8432SOL     OW26194   5.845   6.441   5.700
 8432SOL    HW126195   5.855   6.352   5.656
 8432SOL    HW226196   5.807   6.507   5.635
 8433SOL     OW26197   5.155   2.696   0.487
 8433SOL    HW126198   5.236   2.654   0.446
 8433SOL    HW226199   5.083   2.628   0.497
 8434SOL     OW26200   2.890   0.021   4.810
 8434SOL    HW126201   2.855   0.105   4.852
 8434SOL    HW226202   2.880   0.027   4.711
 8435SOL     OW26203   6.083   0.726   1.498
 8435SOL    HW126204   6.088   0.824   1.480
 8435SOL    HW226205   6.117   0.707   1.590
 8436SOL     OW26206   3.270   6.387   3.220
 8436SOL    HW126207   3.313   6.469   3.183
 8436SOL    HW226208   3.317   6.359   3.303
 8437SOL     OW26209   2.304   1.192   4.397
 8437SOL    HW126210   2.284   1.134   4.476
 8437SOL    HW226211   2.218   1.227   4.360
 8438SOL     OW26212   2.252   5.192   2.633
 8438SOL    HW126213   2.292   5.178   2.724
 8438SOL    HW226214   2.303   5.139   2.566
 8439SOL     OW26215   6.224   4.728   2.578
 8439SOL    HW126216   6.245   4.815   2.622
 8439SOL    HW226217   6.277   4.719   2.494
 8440SOL     OW26218   1.700   1.952   3.629
 8440SOL    HW126219   1.724   2.030   3.686
 8440SOL    HW226220   1.646   1.887   3.683
 8441SOL     OW26221   6.136   6.912   0.259
 8441SOL    HW126222   6.084   6.895   0.175
 8441SOL    HW226223   6.204   6.840   0.271
 8442SOL     OW26224   3.299   1.937   5.278
 8442SOL    HW126225   3.326   2.032   5.262
 8442SOL    HW226226   3.206   1.935   5.316
 8443SOL     OW26227   2.228   4.718   3.486
 8443SOL    HW126228   2.295   4.791   3.474
 8443SOL    HW226229   2.141   4.744   3.443
 8444SOL     OW26230   3.194   6.036   3.852
 8444SOL    HW126231   3.109   6.076   3.817
 8444SOL    HW226232   3.272   6.092   3.822
 8445SOL     OW26233   3.402   6.860   1.245
 8445SOL    HW126234   3.302   6.851   1.246
 8445SOL    HW226235   3.442   6.795   1.308
 8446SOL     OW26236   4.660   5.197   6.733
 8446SOL    HW126237   4.673   5.166   6.827
 8446SOL    HW226238   4.744   5.239   6.700
 8447SOL     OW26239   5.112   1.574   2.353
 8447SOL    HW126240   5.104   1.490   2.300
 8447SOL    HW226241   5.179   1.635   2.309
 8448SOL     OW26242   4.350   5.552   4.038
 8448SOL    HW126243   4.267   5.511   4.000
 8448SOL    HW226244   4.410   5.480   4.072
 8449SOL     OW26245   0.260   2.734   3.738
 8449SOL    HW126246   0.243   2.800   3.666
 8449SOL    HW226247   0.337   2.676   3.713
 8450SOL     OW26248   0.253   6.976   1.017
 8450SOL    HW126249   0.200   6.915   1.077
 8450SOL    HW226250   0.197   0.031   0.995
 8451SOL     OW26251   3.641   1.580   0.286
 8451SOL    HW126252   3.716   1.633   0.245
 8451SOL    HW226253   3.575   1.556   0.215
 8452SOL     OW26254   6.159   1.470   2.685
 8452SOL    HW126255   6.173   1.457   2.783
 8452SOL    HW226256   6.146   1.568   2.667
 8453SOL     OW26257   0.340   4.459   6.695
 8453SOL    HW126258   0.417   4.401   6.667
 8453SOL    HW226259   0.294   4.418   6.773
 8454SOL     OW26260   6.661   6.713   1.645
 8454SOL    HW126261   6.584   6.710   1.582
 8454SOL    HW226262   6.743   6.743   1.597
 8455SOL     OW26263   6.687   2.199   2.070
 8455SOL    HW126264   6.699   2.101   2.083
 8455SOL    HW226265   6.620   2.234   2.135
 8456SOL     OW26266   3.885   5.771   3.137
 8456SOL    HW126267   3.851   5.677   3.145
 8456SOL    HW226268   3.939   5.794   3.218
 8457SOL     OW26269   6.574   6.815   4.906
 8457SOL    HW126270   6.577   6.788   4.810
 8457SOL    HW226271   6.642   6.887   4.922
 8458SOL     OW26272   3.195   0.794   0.084
 8458SOL    HW126273   3.175   0.891   0.069
 8458SOL    HW226274   3.211   0.749   7.023
 8459SOL     OW26275   2.689   6.001   1.907
 8459SOL    HW126276   2.597   6.008   1.947
 8459SOL    HW226277   2.726   6.093   1.893
 8460SOL     OW26278   4.208   4.271   5.320
 8460SOL    HW126279   4.234   4.340   5.252
 8460SOL    HW226280   4.115   4.241   5.303
 8461SOL     OW26281   1.000   4.039   4.820
 8461SOL    HW126282   0.940   4.032   4.740
 8461SOL    HW226283   0.999   4.134   4.853
 8462SOL     OW26284   2.556   2.768   6.749
 8462SOL    HW126285   2.500   2.747   6.829
 8462SOL    HW226286   2.605   2.687   6.720
 8463SOL     OW26287   6.915   6.889   1.060
 8463SOL    HW126288   6.997   6.839   1.089
 8463SOL    HW226289   6.853   6.827   1.012
 8464SOL     OW26290   5.839   3.736   4.045
 8464SOL    HW126291   5.830   3.644   4.009
 8464SOL    HW226292   5.752   3.766   4.082
 8465SOL     OW26293   1.069   3.377   0.504
 8465SOL    HW126294   1.013   3.434   0.563
 8465SOL    HW226295   1.136   3.327   0.559
 8466SOL     OW26296   0.943   6.327   3.859
 8466SOL    HW126297   0.851   6.303   3.827
 8466SOL    HW226298   1.003   6.337   3.780
 8467SOL     OW26299   3.747   6.931   6.643
 8467SOL    HW126300   3.808   6.980   6.581
 8467SOL    HW226301   3.750   6.834   6.623
 8468SOL     OW26302   3.694   2.119   6.639
 8468SOL    HW126303   3.717   2.058   6.715
 8468SOL    HW226304   3.776   2.166   6.607
 8469SOL     OW26305   2.945   1.757   6.991
 8469SOL    HW126306   3.020   1.819   7.015
 8469SOL    HW226307   2.915   1.708   0.046
 8470SOL     OW26308   1.218   4.247   0.276
 8470SOL    HW126309   1.169   4.216   0.195
 8470SOL    HW226310   1.278   4.174   0.309
 8471SOL     OW26311   3.368   1.300   3.584
 8471SOL    HW126312   3.337   1.219   3.534
 8471SOL    HW226313   3.416   1.272   3.668
 8472SOL     OW26314   7.012   0.994   4.545
 8472SOL    HW126315   0.043   0.950   4.614
 8472SOL    HW226316   0.003   0.952   4.456
 8473SOL     OW26317   6.494   6.164   6.715
 8473SOL    HW126318   6.431   6.096   6.753
 8473SOL    HW226319   6.587   6.144   6.745
 8474SOL     OW26320   3.177   3.239   1.801
 8474SOL    HW126321   3.121   3.182   1.862
 8474SOL    HW226322   3.273   3.227   1.824
 8475SOL     OW26323   0.750   2.385   3.492
 8475SOL    HW126324   0.829   2.337   3.531
 8475SOL    HW226325   0.761   2.392   3.393
 8476SOL     OW26326   0.093   2.030   0.910
 8476SOL    HW126327   0.017   2.094   0.895
 8476SOL    HW226328   0.066   1.963   0.979
 8477SOL     OW26329   4.869   6.721   1.564
 8477SOL    HW126330   4.811   6.663   1.621
 8477SOL    HW226331   4.892   6.673   1.480
 8478SOL     OW26332   1.271   0.002   6.135
 8478SOL    HW126333   1.204   6.992   6.070
 8478SOL    HW226334   1.294   6.958   6.202
 8479SOL     OW26335   6.921   3.192   1.180
 8479SOL    HW126336   6.924   3.260   1.253
 8479SOL    HW226337   6.983   3.220   1.107
 8480SOL     OW26338   4.437   1.621   0.258
 8480SOL    HW126339   4.346   1.583   0.240
 8480SOL    HW226340   4.504   1.575   0.200
 8481SOL     OW26341   4.825   1.820   3.308
 8481SOL    HW126342   4.844   1.753   3.379
 8481SOL    HW226343   4.906   1.829   3.249
 8482SOL     OW26344   4.618   5.767   1.985
 8482SOL    HW126345   4.632   5.862   2.014
 8482SOL    HW226346   4.572   5.766   1.896
 8483SOL     OW26347   4.130   6.131   2.136
 8483SOL    HW126348   4.097   6.037   2.135
 8483SOL    HW226349   4.054   6.192   2.112
 8484SOL     OW26350   0.371   5.597   3.165
 8484SOL    HW126351   0.384   5.662   3.240
 8484SOL    HW226352   0.451   5.537   3.158
 8485SOL     OW26353   3.425   3.132   0.699
 8485SOL    HW126354   3.411   3.226   0.667
 8485SOL    HW226355   3.373   3.069   0.641
 8486SOL     OW26356   4.162   0.975   2.943
 8486SOL    HW126357   4.158   1.011   3.037
 8486SOL    HW226358   4.212   0.889   2.942
 8487SOL     OW26359   5.320   1.899   6.260
 8487SOL    HW126360   5.224   1.880   6.237
 8487SOL    HW226361   5.339   1.866   6.352
 8488SOL     OW26362   5.712   5.319   6.145
 8488SOL    HW126363   5.784   5.280   6.088
 8488SOL    HW226364   5.646   5.248   6.169
 8489SOL     OW26365   6.633   1.609   1.184
 8489SOL    HW126366   6.603   1.662   1.105
 8489SOL    HW226367   6.625   1.511   1.164
 8490SOL     OW26368   3.615   6.489   4.473
 8490SOL    HW126369   3.526   6.535   4.476
 8490SOL    HW226370   3.603   6.391   4.482
 8491SOL     OW26371   1.948   6.767   0.606
 8491SOL    HW126372   2.027   6.737   0.553
 8491SOL    HW226373   1.896   6.834   0.553
 8492SOL     OW26374   4.514   4.113   6.557
 8492SOL    HW126375   4.507   4.210   6.532
 8492SOL    HW226376   4.524   4.058   6.474
 8493SOL     OW26377   2.789   2.325   6.568
 8493SOL    HW126378   2.728   2.329   6.488
 8493SOL    HW226379   2.799   2.230   6.597
 8494SOL     OW26380   3.163   4.448   1.217
 8494SOL    HW126381   3.224   4.527   1.227
 8494SOL    HW226382   3.216   4.364   1.227
 8495SOL     OW26383   6.393   4.631   1.258
 8495SOL    HW126384   6.335   4.704   1.294
 8495SOL    HW226385   6.466   4.611   1.324
 8496SOL     OW26386   0.802   1.764   2.344
 8496SOL    HW126387   0.754   1.748   2.258
 8496SOL    HW226388   0.873   1.833   2.331
 8497SOL     OW26389   6.374   1.207   3.598
 8497SOL    HW126390   6.379   1.113   3.563
 8497SOL    HW226391   6.279   1.235   3.605
 8498SOL     OW26392   0.519   5.967   2.828
 8498SOL    HW126393   0.466   6.021   2.762
 8498SOL    HW226394   0.616   5.992   2.821
 8499SOL     OW26395   2.790   4.972   6.446
 8499SOL    HW126396   2.838   4.904   6.390
 8499SOL    HW226397   2.708   4.931   6.485
 8500SOL     OW26398   2.317   6.624   4.811
 8500SOL    HW126399   2.349   6.604   4.718
 8500SOL    HW226400   2.394   6.652   4.867
 8501SOL     OW26401   0.587   1.771   6.896
 8501SOL    HW126402   0.637   1.700   6.847
 8501SOL    HW226403   0.533   1.730   6.969
 8502SOL     OW26404   2.076   5.039   1.340
 8502SOL    HW126405   2.069   4.942   1.317
 8502SOL    HW226406   2.157   5.055   1.396
 8503SOL     OW26407   1.141   0.072   4.108
 8503SOL    HW126408   1.053   0.040   4.073
 8503SOL    HW226409   1.206   7.021   4.111
 8504SOL     OW26410   2.945   5.267   2.970
 8504SOL    HW126411   3.000   5.272   2.887
 8504SOL    HW226412   2.990   5.208   3.037
 8505SOL     OW26413   4.855   3.882   3.399
 8505SOL    HW126414   4.849   3.822   3.479
 8505SOL    HW226415   4.828   3.975   3.425
 8506SOL     OW26416   6.403   1.699   0.042
 8506SOL    HW126417   6.332   1.683   6.999
 8506SOL    HW226418   6.465   1.621   0.045
 8507SOL     OW26419   3.423   1.146   5.501
 8507SOL    HW126420   3.488   1.217   5.474
 8507SOL    HW226421   3.461   1.093   5.577
 8508SOL     OW26422   6.063   1.796   4.884
 8508SOL    HW126423   6.035   1.715   4.936
 8508SOL    HW226424   6.075   1.771   4.788
 8509SOL     OW26425   4.552   1.857   3.255
 8509SOL    HW126426   4.647   1.862   3.285
 8509SOL    HW226427   4.502   1.795   3.316
 8510SOL     OW26428   5.726   4.800   2.805
 8510SOL    HW126429   5.787   4.740   2.753
 8510SOL    HW226430   5.756   4.895   2.794
 8511SOL     OW26431   6.468   3.883   1.559
 8511SOL    HW126432   6.499   3.925   1.644
 8511SOL    HW226433   6.381   3.836   1.575
 8512SOL     OW26434   3.356   2.073   1.368
 8512SOL    HW126435   3.320   2.065   1.461
 8512SOL    HW226436   3.451   2.104   1.372
 8513SOL     OW26437   4.777   4.137   1.831
 8513SOL    HW126438   4.812   4.059   1.883
 8513SOL    HW226439   4.692   4.170   1.873
 8514SOL     OW26440   2.596   2.466   3.785
 8514SOL    HW126441   2.647   2.546   3.755
 8514SOL    HW226442   2.552   2.485   3.873
 8515SOL     OW26443   5.290   1.479   0.412
 8515SOL    HW126444   5.225   1.553   0.399
 8515SOL    HW226445   5.265   1.401   0.355
 8516SOL     OW26446   6.735   1.706   1.433
 8516SOL    HW126447   6.657   1.742   1.483
 8516SOL    HW226448   6.705   1.673   1.343
 8517SOL     OW26449   1.325   3.522   6.954
 8517SOL    HW126450   1.344   3.536   0.026
 8517SOL    HW226451   1.392   3.572   6.900
 8518SOL     OW26452   5.128   4.348   0.048
 8518SOL    HW126453   5.061   4.422   0.043
 8518SOL    HW226454   5.164   4.342   0.141
 8519SOL     OW26455   1.010   4.113   1.164
 8519SOL    HW126456   0.964   4.027   1.188
 8519SOL    HW226457   0.944   4.188   1.169
 8520SOL     OW26458   3.213   3.376   0.504
 8520SOL    HW126459   3.271   3.386   0.423
 8520SOL    HW226460   3.208   3.280   0.530
 8521SOL     OW26461   1.995   5.102   5.680
 8521SOL    HW126462   2.041   5.184   5.645
 8521SOL    HW226463   2.030   5.021   5.633
 8522SOL     OW26464   0.976   6.150   1.310
 8522SOL    HW126465   0.988   6.196   1.399
 8522SOL    HW226466   1.050   6.086   1.296
 8523SOL     OW26467   1.859   6.547   6.802
 8523SOL    HW126468   1.915   6.618   6.846
 8523SOL    HW226469   1.858   6.465   6.859
 8524SOL     OW26470   0.078   2.961   5.288
 8524SOL    HW126471   0.136   3.042   5.276
 8524SOL    HW226472   0.113   2.887   5.231
 8525SOL     OW26473   6.223   4.436   2.322
 8525SOL    HW126474   6.177   4.422   2.409
 8525SOL    HW226475   6.154   4.447   2.250
 8526SOL     OW26476   4.198   6.415   6.509
 8526SOL    HW126477   4.236   6.410   6.416
 8526SOL    HW226478   4.189   6.511   6.536
 8527SOL     OW26479   2.416   1.044   6.528
 8527SOL    HW126480   2.473   0.995   6.594
 8527SOL    HW226481   2.383   0.980   6.458
 8528SOL     OW26482   3.272   1.199   6.752
 8528SOL    HW126483   3.267   1.297   6.773
 8528SOL    HW226484   3.194   1.174   6.696
 8529SOL     OW26485   1.163   0.429   0.836
 8529SOL    HW126486   1.174   0.499   0.906
 8529SOL    HW226487   1.127   0.472   0.753
 8530SOL     OW26488   3.917   4.097   5.530
 8530SOL    HW126489   3.824   4.089   5.495
 8530SOL    HW226490   3.974   4.144   5.463
 8531SOL     OW26491   6.574   5.092   2.614
 8531SOL    HW126492   6.661   5.139   2.596
 8531SOL    HW226493   6.562   5.080   2.712
 8532SOL     OW26494   4.166   4.909   4.939
 8532SOL    HW126495   4.262   4.936   4.944
 8532SOL    HW226496   4.118   4.967   4.873
 8533SOL     OW26497   1.045   0.204   6.710
 8533SOL    HW126498   1.083   0.112   6.710
 8533SOL    HW226499   1.014   0.228   6.618
 8534SOL     OW26500   6.805   2.984   3.812
 8534SOL    HW126501   6.823   2.964   3.908
 8534SOL    HW226502   6.853   3.067   3.785
 8535SOL     OW26503   6.012   1.528   4.274
 8535SOL    HW126504   5.988   1.465   4.200
 8535SOL    HW226505   6.018   1.621   4.238
 8536SOL     OW26506   0.337   2.436   5.081
 8536SOL    HW126507   0.415   2.384   5.049
 8536SOL    HW226508   0.277   2.457   5.004
 8537SOL     OW26509   5.067   0.992   2.451
 8537SOL    HW126510   5.027   0.902   2.466
 8537SOL    HW226511   5.137   0.987   2.380
 8538SOL     OW26512   0.539   0.831   0.099
 8538SOL    HW126513   0.555   0.890   0.020
 8538SOL    HW226514   0.509   0.741   0.067
 8539SOL     OW26515   4.937   0.767   2.985
 8539SOL    HW126516   4.952   0.675   3.022
 8539SOL    HW226517   5.020   0.798   2.939
 8540SOL     OW26518   4.751   0.217   6.465
 8540SOL    HW126519   4.691   0.205   6.386
 8540SOL    HW226520   4.741   0.139   6.526
 8541SOL     OW26521   2.373   1.519   4.231
 8541SOL    HW126522   2.429   1.573   4.169
 8541SOL    HW226523   2.339   1.438   4.183
 8542SOL     OW26524   3.948   4.568   0.178
 8542SOL    HW126525   3.871   4.520   0.136
 8542SOL    HW226526   3.942   4.666   0.159
 8543SOL     OW26527   2.953   0.901   0.912
 8543SOL    HW126528   3.000   0.988   0.922
 8543SOL    HW226529   2.928   0.887   0.816
 8544SOL     OW26530   5.604   3.167   4.768
 8544SOL    HW126531   5.581   3.077   4.730
 8544SOL    HW226532   5.630   3.228   4.693
 8545SOL     OW26533   4.347   6.923   5.155
 8545SOL    HW126534   4.293   6.865   5.093
 8545SOL    HW226535   4.430   6.954   5.108
 8546SOL     OW26536   6.570   1.631   3.706
 8546SOL    HW126537   6.595   1.578   3.787
 8546SOL    HW226538   6.497   1.584   3.657
 8547SOL     OW26539   1.797   6.653   6.037
 8547SOL    HW126540   1.872   6.701   5.994
 8547SOL    HW226541   1.832   6.573   6.087
 8548SOL     OW26542   5.801   2.224   5.531
 8548SOL    HW126543   5.793   2.139   5.479
 8548SOL    HW226544   5.782   2.206   5.628
 8549SOL     OW26545   1.640   2.962   4.058
 8549SOL    HW126546   1.733   2.945   4.091
 8549SOL    HW226547   1.604   2.878   4.017
 8550SOL     OW26548   1.566   4.746   0.195
 8550SOL    HW126549   1.607   4.793   0.117
 8550SOL    HW226550   1.509   4.811   0.246
 8551SOL     OW26551   3.647   3.841   6.399
 8551SOL    HW126552   3.647   3.925   6.346
 8551SOL    HW226553   3.659   3.862   6.496
 8552SOL     OW26554   2.426   0.572   4.012
 8552SOL    HW126555   2.389   0.591   3.922
 8552SOL    HW226556   2.428   0.473   4.027
 8553SOL     OW26557   4.091   4.412   0.006
 8553SOL    HW126558   4.075   4.454   0.095
 8553SOL    HW226559   4.069   4.477   6.959
 8554SOL     OW26560   0.915   4.709   0.638
 8554SOL    HW126561   0.929   4.780   0.569
 8554SOL    HW226562   0.938   4.746   0.729
 8555SOL     OW26563   2.200   1.255   3.036
 8555SOL    HW126564   2.163   1.205   2.958
 8555SOL    HW226565   2.175   1.352   3.029
 8556SOL     OW26566   1.629   6.028   5.214
 8556SOL    HW126567   1.702   6.095   5.203
 8556SOL    HW226568   1.552   6.069   5.262
 8557SOL     OW26569   5.821   6.986   3.123
 8557SOL    HW126570   5.871   6.921   3.066
 8557SOL    HW226571   5.799   6.943   3.211
 8558SOL     OW26572   3.466   4.902   3.366
 8558SOL    HW126573   3.400   4.880   3.437
 8558SOL    HW226574   3.419   4.914   3.278
 8559SOL     OW26575   0.575   0.408   2.427
 8559SOL    HW126576   0.633   0.381   2.349
 8559SOL    HW226577   0.573   0.333   2.494
 8560SOL     OW26578   6.494   6.317   1.967
 8560SOL    HW126579   6.507   6.396   1.906
 8560SOL    HW226580   6.577   6.302   2.020
 8561SOL     OW26581   3.151   0.791   2.533
 8561SOL    HW126582   3.168   0.698   2.501
 8561SOL    HW226583   3.067   0.826   2.490
 8562SOL     OW26584   3.918   5.501   5.465
 8562SOL    HW126585   3.823   5.472   5.477
 8562SOL    HW226586   3.980   5.427   5.491
 8563SOL     OW26587   2.088   4.376   6.577
 8563SOL    HW126588   2.142   4.417   6.504
 8563SOL    HW226589   1.996   4.416   6.577
 8564SOL     OW26590   3.110   0.965   4.706
 8564SOL    HW126591   3.179   0.990   4.773
 8564SOL    HW226592   3.114   1.028   4.629
 8565SOL     OW26593   4.082   5.434   1.127
 8565SOL    HW126594   3.994   5.473   1.099
 8565SOL    HW226595   4.120   5.382   1.050
 8566SOL     OW26596   1.815   0.816   1.520
 8566SOL    HW126597   1.801   0.883   1.447
 8566SOL    HW226598   1.798   0.860   1.609
 8567SOL     OW26599   0.608   2.191   2.556
 8567SOL    HW126600   0.510   2.212   2.552
 8567SOL    HW226601   0.621   2.092   2.560
 8568SOL     OW26602   5.639   1.159   6.127
 8568SOL    HW126603   5.677   1.076   6.168
 8568SOL    HW226604   5.702   1.235   6.143
 8569SOL     OW26605   5.305   0.829   5.975
 8569SOL    HW126606   5.313   0.834   5.875
 8569SOL    HW226607   5.286   0.921   6.011
 8570SOL     OW26608   1.516   2.514   5.094
 8570SOL    HW126609   1.455   2.492   5.017
 8570SOL    HW226610   1.611   2.503   5.065
 8571SOL     OW26611   1.085   5.614   5.506
 8571SOL    HW126612   1.052   5.703   5.537
 8571SOL    HW226613   1.179   5.601   5.537
 8572SOL     OW26614   2.876   5.279   6.804
 8572SOL    HW126615   2.937   5.210   6.765
 8572SOL    HW226616   2.797   5.291   6.744
 8573SOL     OW26617   3.558   6.425   5.869
 8573SOL    HW126618   3.480   6.475   5.907
 8573SOL    HW226619   3.643   6.468   5.898
 8574SOL     OW26620   6.718   5.372   5.418
 8574SOL    HW126621   6.685   5.393   5.326
 8574SOL    HW226622   6.651   5.402   5.485
 8575SOL     OW26623   2.747   2.350   5.111
 8575SOL    HW126624   2.763   2.408   5.191
 8575SOL    HW226625   2.829   2.297   5.092
 8576SOL     OW26626   1.489   5.026   6.411
 8576SOL    HW126627   1.487   4.977   6.498
 8576SOL    HW226628   1.511   5.122   6.427
 8577SOL     OW26629   6.655   6.579   4.290
 8577SOL    HW126630   6.626   6.517   4.363
 8577SOL    HW226631   6.665   6.529   4.205
 8578SOL     OW26632   5.596   1.093   4.460
 8578SOL    HW126633   5.539   1.160   4.411
 8578SOL    HW226634   5.672   1.065   4.402
 8579SOL     OW26635   1.716   0.070   2.713
 8579SOL    HW126636   1.728   7.013   2.767
 8579SOL    HW226637   1.754   0.057   2.621
 8580SOL     OW26638   2.602   6.533   2.446
 8580SOL    HW126639   2.529   6.471   2.419
 8580SOL    HW226640   2.563   6.614   2.489
 8581SOL     OW26641   3.124   3.743   1.987
 8581SOL    HW126642   3.219   3.730   2.017
 8581SOL    HW226643   3.110   3.696   1.900
 8582SOL     OW26644   4.861   4.686   3.108
 8582SOL    HW126645   4.805   4.720   3.032
 8582SOL    HW226646   4.881   4.589   3.095
 8583SOL     OW26647   5.536   0.448   4.535
 8583SOL    HW126648   5.520   0.447   4.634
 8583SOL    HW226649   5.556   0.541   4.505
 8584SOL     OW26650   1.053   4.191   5.868
 8584SOL    HW126651   1.093   4.203   5.777
 8584SOL    HW226652   1.098   4.116   5.915
 8585SOL     OW26653   0.559   5.812   6.468
 8585SOL    HW126654   0.578   5.870   6.388
 8585SOL    HW226655   0.634   5.820   6.533
 8586SOL     OW26656   2.877   0.373   2.917
 8586SOL    HW126657   2.888   0.408   2.824
 8586SOL    HW226658   2.954   0.315   2.940
 8587SOL     OW26659   1.609   6.801   3.879
 8587SOL    HW126660   1.645   6.844   3.797
 8587SOL    HW226661   1.513   6.777   3.865
 8588SOL     OW26662   2.854   0.729   0.293
 8588SOL    HW126663   2.872   0.702   0.387
 8588SOL    HW226664   2.857   0.829   0.285
 8589SOL     OW26665   5.156   2.779   4.974
 8589SOL    HW126666   5.215   2.712   4.931
 8589SOL    HW226667   5.071   2.787   4.922
 8590SOL     OW26668   7.021   6.325   4.473
 8590SOL    HW126669   0.059   6.374   4.414
 8590SOL    HW226670   0.028   6.328   4.567
 8591SOL     OW26671   0.229   4.355   6.935
 8591SOL    HW126672   0.174   4.418   6.991
 8591SOL    HW226673   0.313   4.331   6.983
 8592SOL     OW26674   6.928   2.736   6.688
 8592SOL    HW126675   6.947   2.717   6.591
 8592SOL    HW226676   6.864   2.668   6.724
 8593SOL     OW26677   2.988   0.025   0.730
 8593SOL    HW126678   3.082   0.054   0.748
 8593SOL    HW226679   2.937   0.100   0.688
 8594SOL     OW26680   4.114   2.407   5.601
 8594SOL    HW126681   4.057   2.402   5.519
 8594SOL    HW226682   4.154   2.318   5.620
 8595SOL     OW26683   1.387   2.834   3.464
 8595SOL    HW126684   1.478   2.808   3.430
 8595SOL    HW226685   1.324   2.758   3.452
 8596SOL     OW26686   6.997   5.294   3.264
 8596SOL    HW126687   6.919   5.353   3.286
 8596SOL    HW226688   6.967   5.221   3.203
 8597SOL     OW26689   4.276   0.935   0.828
 8597SOL    HW126690   4.364   0.900   0.860
 8597SOL    HW226691   4.292   1.009   0.762
 8598SOL     OW26692   6.079   6.624   0.873
 8598SOL    HW126693   6.119   6.655   0.959
 8598SOL    HW226694   6.030   6.538   0.888
 8599SOL     OW26695   0.959   2.810   4.453
 8599SOL    HW126696   0.934   2.850   4.542
 8599SOL    HW226697   0.903   2.851   4.381
 8600SOL     OW26698   4.837   5.411   6.037
 8600SOL    HW126699   4.768   5.393   5.967
 8600SOL    HW226700   4.855   5.509   6.041
 8601SOL     OW26701   0.994   1.151   5.152
 8601SOL    HW126702   0.900   1.187   5.155
 8601SOL    HW226703   1.009   1.105   5.065
 8602SOL     OW26704   3.144   5.217   2.766
 8602SOL    HW126705   3.150   5.256   2.675
 8602SOL    HW226706   3.056   5.171   2.777
 8603SOL     OW26707   4.081   5.508   0.157
 8603SOL    HW126708   4.062   5.455   0.075
 8603SOL    HW226709   4.027   5.473   0.234
 8604SOL     OW26710   0.713   2.745   3.844
 8604SOL    HW126711   0.776   2.695   3.785
 8604SOL    HW226712   0.640   2.683   3.873
 8605SOL     OW26713   3.001   5.593   4.505
 8605SOL    HW126714   3.065   5.524   4.538
 8605SOL    HW226715   2.986   5.662   4.577
 8606SOL     OW26716   1.754   3.448   6.090
 8606SOL    HW126717   1.743   3.540   6.051
 8606SOL    HW226718   1.810   3.393   6.028
 8607SOL     OW26719   3.778   5.866   0.972
 8607SOL    HW126720   3.788   5.807   0.891
 8607SOL    HW226721   3.853   5.848   1.035
 8608SOL     OW26722   4.276   5.530   2.867
 8608SOL    HW126723   4.213   5.496   2.937
 8608SOL    HW226724   4.227   5.546   2.782
 8609SOL     OW26725   5.827   1.191   3.530
 8609SOL    HW126726   5.851   1.275   3.579
 8609SOL    HW226727   5.728   1.176   3.536
 8610SOL     OW26728   1.793   2.123   2.848
 8610SOL    HW126729   1.798   2.152   2.944
 8610SOL    HW226730   1.710   2.070   2.834
 8611SOL     OW26731   2.955   1.696   4.177
 8611SOL    HW126732   3.014   1.744   4.242
 8611SOL    HW226733   2.889   1.760   4.138
 8612SOL     OW26734   3.706   3.081   1.210
 8612SOL    HW126735   3.710   3.171   1.252
 8612SOL    HW226736   3.705   3.011   1.281
 8613SOL     OW26737   2.272   1.781   1.033
 8613SOL    HW126738   2.246   1.704   1.091
 8613SOL    HW226739   2.230   1.865   1.067
 8614SOL     OW26740   1.232   3.465   2.020
 8614SOL    HW126741   1.306   3.459   2.087
 8614SOL    HW226742   1.160   3.525   2.056
 8615SOL     OW26743   4.653   1.622   5.040
 8615SOL    HW126744   4.584   1.680   5.084
 8615SOL    HW226745   4.674   1.658   4.949
 8616SOL     OW26746   3.112   4.680   1.768
 8616SOL    HW126747   3.022   4.637   1.770
 8616SOL    HW226748   3.140   4.701   1.862
 8617SOL     OW26749   6.778   1.195   6.663
 8617SOL    HW126750   6.745   1.133   6.734
 8617SOL    HW226751   6.808   1.142   6.584
 8618SOL     OW26752   6.231   6.029   0.782
 8618SOL    HW126753   6.306   6.095   0.783
 8618SOL    HW226754   6.266   5.937   0.800
 8619SOL     OW26755   3.778   4.890   2.223
 8619SOL    HW126756   3.855   4.953   2.209
 8619SOL    HW226757   3.718   4.893   2.144
 8620SOL     OW26758   0.901   0.263   4.194
 8620SOL    HW126759   0.992   0.298   4.175
 8620SOL    HW226760   0.905   0.202   4.274
 8621SOL     OW26761   5.615   1.496   2.914
 8621SOL    HW126762   5.659   1.419   2.867
 8621SOL    HW226763   5.613   1.575   2.854
 8622SOL     OW26764   4.631   2.934   0.107
 8622SOL    HW126765   4.638   2.969   0.201
 8622SOL    HW226766   4.710   2.964   0.054
 8623SOL     OW26767   0.682   3.362   3.747
 8623SOL    HW126768   0.607   3.406   3.797
 8623SOL    HW226769   0.732   3.301   3.809
 8624SOL     OW26770   1.008   3.562   4.846
 8624SOL    HW126771   1.053   3.638   4.894
 8624SOL    HW226772   0.980   3.493   4.913
 8625SOL     OW26773   4.227   7.002   5.722
 8625SOL    HW126774   4.282   6.928   5.761
 8625SOL    HW226775   4.280   0.061   5.724
 8626SOL     OW26776   3.793   3.037   5.562
 8626SOL    HW126777   3.740   2.995   5.488
 8626SOL    HW226778   3.854   2.969   5.603
 8627SOL     OW26779   0.420   1.447   3.323
 8627SOL    HW126780   0.441   1.530   3.271
 8627SOL    HW226781   0.331   1.411   3.295
 8628SOL     OW26782   6.333   6.296   0.837
 8628SOL    HW126783   6.422   6.337   0.820
 8628SOL    HW226784   6.332   6.255   0.928
 8629SOL     OW26785   1.413   4.697   5.189
 8629SOL    HW126786   1.424   4.796   5.183
 8629SOL    HW226787   1.343   4.667   5.124
 8630SOL     OW26788   5.480   4.381   3.483
 8630SOL    HW126789   5.553   4.444   3.509
 8630SOL    HW226790   5.499   4.343   3.393
 8631SOL     OW26791   2.680   5.796   6.140
 8631SOL    HW126792   2.717   5.764   6.227
 8631SOL    HW226793   2.583   5.772   6.134
 8632SOL     OW26794   3.662   6.221   3.606
 8632SOL    HW126795   3.697   6.170   3.685
 8632SOL    HW226796   3.734   6.279   3.569
 8633SOL     OW26797   5.058   1.907   5.359
 8633SOL    HW126798   4.984   1.935   5.298
 8633SOL    HW226799   5.030   1.826   5.411
 8634SOL     OW26800   5.681   3.330   0.066
 8634SOL    HW126801   5.698   3.281   7.006
 8634SOL    HW226802   5.583   3.344   0.077
 8635SOL     OW26803   5.660   4.202   6.654
 8635SOL    HW126804   5.752   4.180   6.621
 8635SOL    HW226805   5.597   4.206   6.577
 8636SOL     OW26806   4.979   5.925   0.682
 8636SOL    HW126807   4.911   5.855   0.661
 8636SOL    HW226808   5.024   5.954   0.598
 8637SOL     OW26809   2.453   1.137   0.224
 8637SOL    HW126810   2.357   1.157   0.202
 8637SOL    HW226811   2.465   1.139   0.323
 8638SOL     OW26812   2.933   3.263   6.630
 8638SOL    HW126813   2.834   3.265   6.618
 8638SOL    HW226814   2.973   3.349   6.598
 8639SOL     OW26815   5.423   2.242   1.858
 8639SOL    HW126816   5.432   2.184   1.777
 8639SOL    HW226817   5.503   2.230   1.917
 8640SOL     OW26818   4.641   4.010   0.436
 8640SOL    HW126819   4.562   4.052   0.481
 8640SOL    HW226820   4.708   3.982   0.505
 8641SOL     OW26821   5.826   5.139   4.268
 8641SOL    HW126822   5.923   5.155   4.251
 8641SOL    HW226823   5.779   5.226   4.281
 8642SOL     OW26824   2.695   6.880   3.219
 8642SOL    HW126825   2.709   6.796   3.272
 8642SOL    HW226826   2.772   6.942   3.235
 8643SOL     OW26827   2.968   0.322   6.502
 8643SOL    HW126828   2.975   0.303   6.404
 8643SOL    HW226829   2.905   0.398   6.517
 8644SOL     OW26830   4.661   2.269   5.503
 8644SOL    HW126831   4.663   2.172   5.529
 8644SOL    HW226832   4.739   2.316   5.543
 8645SOL     OW26833   4.245   4.525   1.384
 8645SOL    HW126834   4.167   4.523   1.322
 8645SOL    HW226835   4.326   4.558   1.336
 8646SOL     OW26836   6.397   1.214   1.656
 8646SOL    HW126837   6.462   1.179   1.724
 8646SOL    HW226838   6.445   1.272   1.591
 8647SOL     OW26839   2.421   5.481   6.029
 8647SOL    HW126840   2.477   5.464   5.949
 8647SOL    HW226841   2.455   5.427   6.106
 8648SOL     OW26842   6.333   0.938   3.493
 8648SOL    HW126843   6.280   0.910   3.574
 8648SOL    HW226844   6.385   0.859   3.458
 8649SOL     OW26845   5.713   4.879   5.878
 8649SOL    HW126846   5.745   4.786   5.859
 8649SOL    HW226847   5.616   4.876   5.904
 8650SOL     OW26848   2.144   4.939   5.244
 8650SOL    HW126849   2.196   5.005   5.299
 8650SOL    HW226850   2.129   4.976   5.153
 8651SOL     OW26851   3.587   0.465   0.493
 8651SOL    HW126852   3.572   0.559   0.460
 8651SOL    HW226853   3.498   0.421   0.508
 8652SOL     OW26854   1.693   4.361   4.002
 8652SOL    HW126855   1.663   4.441   3.951
 8652SOL    HW226856   1.634   4.346   4.081
 8653SOL     OW26857   6.162   0.734   5.875
 8653SOL    HW126858   6.181   0.821   5.830
 8653SOL    HW226859   6.092   0.747   5.945
 8654SOL     OW26860   0.966   4.881   1.142
 8654SOL    HW126861   0.994   4.840   1.229
 8654SOL    HW226862   0.909   4.961   1.159
 8655SOL     OW26863   6.406   1.485   3.557
 8655SOL    HW126864   6.415   1.386   3.552
 8655SOL    HW226865   6.328   1.515   3.501
 8656SOL     OW26866   6.600   0.984   1.134
 8656SOL    HW126867   6.571   1.080   1.126
 8656SOL    HW226868   6.596   0.940   1.045
 8657SOL     OW26869   5.047   4.226   0.404
 8657SOL    HW126870   5.119   4.291   0.379
 8657SOL    HW226871   5.050   4.147   0.342
 8658SOL     OW26872   4.560   6.728   0.164
 8658SOL    HW126873   4.599   6.764   0.249
 8658SOL    HW226874   4.497   6.795   0.125
 8659SOL     OW26875   4.664   1.651   3.038
 8659SOL    HW126876   4.611   1.571   3.063
 8659SOL    HW226877   4.621   1.733   3.076
 8660SOL     OW26878   5.768   4.157   0.995
 8660SOL    HW126879   5.725   4.068   1.008
 8660SOL    HW226880   5.867   4.149   1.010
 8661SOL     OW26881   5.570   4.126   1.385
 8661SOL    HW126882   5.662   4.126   1.425
 8661SOL    HW226883   5.556   4.041   1.334
 8662SOL     OW26884   4.679   6.209   0.837
 8662SOL    HW126885   4.687   6.129   0.778
 8662SOL    HW226886   4.701   6.184   0.932
 8663SOL     OW26887   3.006   6.000   1.759
 8663SOL    HW126888   3.046   6.082   1.799
 8663SOL    HW226889   3.048   5.919   1.801
 8664SOL     OW26890   2.280   6.412   0.932
 8664SOL    HW126891   2.322   6.422   0.842
 8664SOL    HW226892   2.346   6.370   0.995
 8665SOL     OW26893   5.290   6.363   4.998
 8665SOL    HW126894   5.387   6.354   5.024
 8665SOL    HW226895   5.281   6.356   4.899
 8666SOL     OW26896   5.179   1.620   4.371
 8666SOL    HW126897   5.112   1.693   4.361
 8666SOL    HW226898   5.174   1.583   4.464
 8667SOL     OW26899   4.917   2.102   3.050
 8667SOL    HW126900   4.927   2.085   3.148
 8667SOL    HW226901   4.852   2.037   3.011
 8668SOL     OW26902   5.471   4.030   3.132
 8668SOL    HW126903   5.482   4.034   3.231
 8668SOL    HW226904   5.442   3.939   3.104
 8669SOL     OW26905   2.150   6.117   6.917
 8669SOL    HW126906   2.209   6.196   6.933
 8669SOL    HW226907   2.085   6.139   6.844
 8670SOL     OW26908   3.973   4.167   5.268
 8670SOL    HW126909   3.890   4.218   5.246
 8670SOL    HW226910   3.980   4.088   5.207
 8671SOL     OW26911   5.147   1.567   3.845
 8671SOL    HW126912   5.130   1.662   3.871
 8671SOL    HW226913   5.135   1.557   3.746
 8672SOL     OW26914   1.569   4.955   4.033
 8672SOL    HW126915   1.482   4.990   4.069
 8672SOL    HW226916   1.637   5.028   4.036
 8673SOL     OW26917   6.067   2.646   0.508
 8673SOL    HW126918   6.100   2.555   0.483
 8673SOL    HW226919   6.105   2.714   0.444
 8674SOL     OW26920   5.859   6.037   3.657
 8674SOL    HW126921   5.763   6.048   3.683
 8674SOL    HW226922   5.880   5.940   3.645
 8675SOL     OW26923   2.788   2.062   4.117
 8675SOL    HW126924   2.864   2.097   4.063
 8675SOL    HW226925   2.810   2.067   4.214
 8676SOL     OW26926   4.580   0.419   2.773
 8676SOL    HW126927   4.627   0.444   2.858
 8676SOL    HW226928   4.645   0.374   2.711
 8677SOL     OW26929   2.671   5.999   4.995
 8677SOL    HW126930   2.716   5.916   5.027
 8677SOL    HW226931   2.720   6.036   4.917
 8678SOL     OW26932   6.612   0.559   1.270
 8678SOL    HW126933   6.594   0.466   1.237
 8678SOL    HW226934   6.689   0.557   1.334
 8679SOL     OW26935   0.165   2.510   2.886
 8679SOL    HW126936   0.197   2.586   2.830
 8679SOL    HW226937   0.084   2.469   2.843
 8680SOL     OW26938   1.358   3.906   1.123
 8680SOL    HW126939   1.295   3.840   1.081
 8680SOL    HW226940   1.450   3.890   1.090
 8681SOL     OW26941   4.901   5.130   0.321
 8681SOL    HW126942   4.909   5.079   0.407
 8681SOL    HW226943   4.866   5.222   0.341
 8682SOL     OW26944   5.250   0.381   1.801
 8682SOL    HW126945   5.271   0.284   1.816
 8682SOL    HW226946   5.329   0.427   1.762
 8683SOL     OW26947   1.836   2.266   3.088
 8683SOL    HW126948   1.796   2.239   3.175
 8683SOL    HW226949   1.842   2.366   3.083
 8684SOL     OW26950   0.655   2.819   4.858
 8684SOL    HW126951   0.674   2.910   4.822
 8684SOL    HW226952   0.697   2.809   4.948
 8685SOL     OW26953   0.622   2.013   6.065
 8685SOL    HW126954   0.631   1.978   5.972
 8685SOL    HW226955   0.707   2.057   6.092
 8686SOL     OW26956   0.550   1.600   1.452
 8686SOL    HW126957   0.601   1.590   1.366
 8686SOL    HW226958   0.493   1.682   1.448
 8687SOL     OW26959   4.430   5.747   1.778
 8687SOL    HW126960   4.400   5.836   1.743
 8687SOL    HW226961   4.437   5.683   1.702
 8688SOL     OW26962   2.824   6.338   0.269
 8688SOL    HW126963   2.728   6.312   0.276
 8688SOL    HW226964   2.879   6.257   0.248
 8689SOL     OW26965   4.018   4.023   1.461
 8689SOL    HW126966   4.053   3.963   1.389
 8689SOL    HW226967   3.970   3.969   1.530
 8690SOL     OW26968   1.557   2.864   3.191
 8690SOL    HW126969   1.482   2.799   3.179
 8690SOL    HW226970   1.526   2.956   3.170
 8691SOL     OW26971   3.096   1.965   6.247
 8691SOL    HW126972   3.071   1.956   6.151
 8691SOL    HW226973   3.195   1.948   6.257
 8692SOL     OW26974   2.027   1.583   4.470
 8692SOL    HW126975   1.965   1.660   4.463
 8692SOL    HW226976   2.092   1.599   4.544
 8693SOL     OW26977   6.223   1.152   0.146
 8693SOL    HW126978   6.300   1.115   0.198
 8693SOL    HW226979   6.239   1.139   0.048
 8694SOL     OW26980   4.838   1.053   4.614
 8694SOL    HW126981   4.823   0.977   4.551
 8694SOL    HW226982   4.757   1.111   4.615
 8695SOL     OW26983   4.001   2.576   6.155
 8695SOL    HW126984   4.005   2.482   6.189
 8695SOL    HW226985   3.970   2.636   6.229
 8696SOL     OW26986   2.427   5.126   0.061
 8696SOL    HW126987   2.346   5.080   0.025
 8696SOL    HW226988   2.404   5.220   0.087
 8697SOL     OW26989   7.017   2.594   7.019
 8697SOL    HW126990   0.070   2.602   0.054
 8697SOL    HW226991   6.977   2.503   0.002
 8698SOL     OW26992   5.765   6.032   5.049
 8698SOL    HW126993   5.841   6.012   4.987
 8698SOL    HW226994   5.702   6.095   5.004
 8699SOL     OW26995   2.772   2.416   5.821
 8699SOL    HW126996   2.746   2.441   5.728
 8699SOL    HW226997   2.691   2.390   5.873
 8700SOL     OW26998   0.544   0.863   4.869
 8700SOL    HW126999   0.550   0.918   4.786
 8700SOL    HW227000   0.448   0.857   4.899
 8701SOL     OW27001   0.310   1.346   0.488
 8701SOL    HW127002   0.297   1.414   0.561
 8701SOL    HW227003   0.389   1.288   0.510
 8702SOL     OW27004   4.965   4.997   1.510
 8702SOL    HW127005   4.978   5.022   1.414
 8702SOL    HW227006   4.944   5.079   1.564
 8703SOL     OW27007   3.181   4.521   0.216
 8703SOL    HW127008   3.144   4.614   0.224
 8703SOL    HW227009   3.165   4.472   0.302
 8704SOL     OW27010   6.986   3.616   2.868
 8704SOL    HW127011   6.943   3.566   2.943
 8704SOL    HW227012   6.918   3.672   2.821
 8705SOL     OW27013   5.071   1.399   6.281
 8705SOL    HW127014   5.124   1.317   6.256
 8705SOL    HW227015   5.002   1.374   6.349
 8706SOL     OW27016   4.517   2.064   6.891
 8706SOL    HW127017   4.571   2.125   6.833
 8706SOL    HW227018   4.500   1.979   6.842
 8707SOL     OW27019   0.436   2.369   6.662
 8707SOL    HW127020   0.465   2.424   6.583
 8707SOL    HW227021   0.337   2.357   6.659
 8708SOL     OW27022   4.643   2.663   2.534
 8708SOL    HW127023   4.617   2.751   2.493
 8708SOL    HW227024   4.633   2.590   2.467
 8709SOL     OW27025   6.963   5.960   6.967
 8709SOL    HW127026   6.956   5.871   7.014
 8709SOL    HW227027   6.980   6.032   0.009
 8710SOL     OW27028   2.090   3.474   4.272
 8710SOL    HW127029   2.118   3.440   4.182
 8710SOL    HW227030   2.036   3.403   4.318
 8711SOL     OW27031   0.871   6.565   3.119
 8711SOL    HW127032   0.922   6.641   3.157
 8711SOL    HW227033   0.789   6.549   3.173
 8712SOL     OW27034   4.197   2.231   4.812
 8712SOL    HW127035   4.193   2.297   4.887
 8712SOL    HW227036   4.235   2.274   4.731
 8713SOL     OW27037   0.327   2.839   4.151
 8713SOL    HW127038   0.260   2.799   4.214
 8713SOL    HW227039   0.279   2.877   4.072
 8714SOL     OW27040   1.259   1.119   6.455
 8714SOL    HW127041   1.160   1.106   6.445
 8714SOL    HW227042   1.277   1.189   6.524
 8715SOL     OW27043   5.054   0.345   1.189
 8715SOL    HW127044   5.032   0.438   1.159
 8715SOL    HW227045   4.982   0.312   1.252
 8716SOL     OW27046   6.860   6.956   1.321
 8716SOL    HW127047   6.850   6.958   1.221
 8716SOL    HW227048   6.953   6.983   1.346
 8717SOL     OW27049   3.809   3.606   4.076
 8717SOL    HW127050   3.813   3.627   4.173
 8717SOL    HW227051   3.783   3.688   4.025
 8718SOL     OW27052   1.041   3.695   5.224
 8718SOL    HW127053   1.034   3.713   5.126
 8718SOL    HW227054   1.008   3.602   5.243
 8719SOL     OW27055   3.593   0.534   6.162
 8719SOL    HW127056   3.691   0.531   6.139
 8719SOL    HW227057   3.554   0.443   6.150
 8720SOL     OW27058   6.301   4.720   6.171
 8720SOL    HW127059   6.271   4.769   6.253
 8720SOL    HW227060   6.226   4.661   6.139
 8721SOL     OW27061   7.012   2.843   2.636
 8721SOL    HW127062   6.986   2.866   2.542
 8721SOL    HW227063   6.933   2.852   2.696
 8722SOL     OW27064   4.361   1.687   6.996
 8722SOL    HW127065   4.449   1.707   6.954
 8722SOL    HW227066   4.352   1.739   0.054
 8723SOL     OW27067   5.084   5.918   0.926
 8723SOL    HW127068   5.040   5.901   0.838
 8723SOL    HW227069   5.066   6.012   0.955
 8724SOL     OW27070   4.593   6.953   5.482
 8724SOL    HW127071   4.616   6.856   5.469
 8724SOL    HW227072   4.677   7.008   5.481
 8725SOL     OW27073   1.681   6.434   5.929
 8725SOL    HW127074   1.701   6.523   5.972
 8725SOL    HW227075   1.590   6.404   5.955
 8726SOL     OW27076   0.174   0.924   2.232
 8726SOL    HW127077   0.134   0.848   2.182
 8726SOL    HW227078   0.103   0.991   2.252
 8727SOL     OW27079   6.788   5.637   2.554
 8727SOL    HW127080   6.794   5.560   2.617
 8727SOL    HW227081   6.855   5.707   2.579
 8728SOL     OW27082   5.656   0.183   3.356
 8728SOL    HW127083   5.654   0.224   3.265
 8728SOL    HW227084   5.687   0.251   3.423
 8729SOL     OW27085   4.553   5.681   4.816
 8729SOL    HW127086   4.469   5.707   4.863
 8729SOL    HW227087   4.533   5.606   4.753
 8730SOL     OW27088   6.454   3.814   2.178
 8730SOL    HW127089   6.374   3.766   2.214
 8730SOL    HW227090   6.429   3.907   2.152
 8731SOL     OW27091   2.296   2.316   2.597
 8731SOL    HW127092   2.196   2.321   2.593
 8731SOL    HW227093   2.332   2.393   2.649
 8732SOL     OW27094   5.766   5.050   1.852
 8732SOL    HW127095   5.849   5.032   1.906
 8732SOL    HW227096   5.717   4.964   1.838
 8733SOL     OW27097   1.272   5.164   0.668
 8733SOL    HW127098   1.326   5.176   0.751
 8733SOL    HW227099   1.235   5.071   0.666
 8734SOL     OW27100   1.833   4.429   2.063
 8734SOL    HW127101   1.881   4.516   2.049
 8734SOL    HW227102   1.836   4.405   2.160
 8735SOL     OW27103   0.921   2.784   0.609
 8735SOL    HW127104   0.982   2.821   0.679
 8735SOL    HW227105   0.834   2.758   0.651
 8736SOL     OW27106   0.869   5.585   6.336
 8736SOL    HW127107   0.939   5.652   6.360
 8736SOL    HW227108   0.779   5.623   6.358
 8737SOL     OW27109   2.288   6.910   6.022
 8737SOL    HW127110   2.223   6.986   6.019
 8737SOL    HW227111   2.245   6.831   6.065
 8738SOL     OW27112   2.044   5.533   4.529
 8738SOL    HW127113   1.984   5.548   4.608
 8738SOL    HW227114   2.128   5.487   4.559
 8739SOL     OW27115   5.153   5.441   6.522
 8739SOL    HW127116   5.204   5.463   6.605
 8739SOL    HW227117   5.215   5.402   6.454
 8740SOL     OW27118   5.035   0.876   4.780
 8740SOL    HW127119   5.011   0.781   4.759
 8740SOL    HW227120   4.959   0.936   4.754
 8741SOL     OW27121   2.788   1.460   1.928
 8741SOL    HW127122   2.803   1.434   1.833
 8741SOL    HW227123   2.792   1.559   1.937
 8742SOL     OW27124   5.759   6.377   0.971
 8742SOL    HW127125   5.815   6.388   0.889
 8742SOL    HW227126   5.741   6.280   0.987
 8743SOL     OW27127   1.330   6.959   2.448
 8743SOL    HW127128   1.286   6.934   2.362
 8743SOL    HW227129   1.262   6.963   2.521
 8744SOL     OW27130   3.227   2.643   6.407
 8744SOL    HW127131   3.158   2.571   6.401
 8744SOL    HW227132   3.234   2.689   6.319
 8745SOL     OW27133   5.598   2.681   6.028
 8745SOL    HW127134   5.588   2.649   6.123
 8745SOL    HW227135   5.676   2.743   6.022
 8746SOL     OW27136   5.238   4.100   4.831
 8746SOL    HW127137   5.329   4.070   4.803
 8746SOL    HW227138   5.171   4.028   4.810
 8747SOL     OW27139   0.730   2.816   3.077
 8747SOL    HW127140   0.692   2.752   3.010
 8747SOL    HW227141   0.755   2.767   3.160
 8748SOL     OW27142   6.974   1.642   5.065
 8748SOL    HW127143   6.962   1.583   5.144
 8748SOL    HW227144   0.045   1.667   5.056
 8749SOL     OW27145   2.635   0.849   6.207
 8749SOL    HW127146   2.598   0.942   6.208
 8749SOL    HW227147   2.604   0.802   6.125
 8750SOL     OW27148   3.501   3.747   5.633
 8750SOL    HW127149   3.431   3.715   5.696
 8750SOL    HW227150   3.554   3.670   5.600
 8751SOL     OW27151   6.159   1.546   2.066
 8751SOL    HW127152   6.216   1.475   2.024
 8751SOL    HW227153   6.080   1.565   2.008
 8752SOL     OW27154   2.793   4.122   0.572
 8752SOL    HW127155   2.815   4.176   0.491
 8752SOL    HW227156   2.849   4.038   0.572
 8753SOL     OW27157   4.175   1.660   5.560
 8753SOL    HW127158   4.132   1.651   5.649
 8753SOL    HW227159   4.264   1.704   5.570
 8754SOL     OW27160   1.359   3.288   5.754
 8754SOL    HW127161   1.433   3.227   5.728
 8754SOL    HW227162   1.346   3.357   5.682
 8755SOL     OW27163   2.232   0.256   1.108
 8755SOL    HW127164   2.190   0.166   1.113
 8755SOL    HW227165   2.177   0.316   1.050
 8756SOL     OW27166   1.678   2.740   3.534
 8756SOL    HW127167   1.718   2.825   3.568
 8756SOL    HW227168   1.745   2.692   3.478
 8757SOL     OW27169   3.877   6.255   5.790
 8757SOL    HW127170   3.943   6.330   5.788
 8757SOL    HW227171   3.907   6.186   5.856
 8758SOL     OW27172   4.598   6.178   2.633
 8758SOL    HW127173   4.533   6.243   2.675
 8758SOL    HW227174   4.575   6.085   2.661
 8759SOL     OW27175   3.963   2.566   0.241
 8759SOL    HW127176   4.044   2.577   0.300
 8759SOL    HW227177   3.898   2.505   0.286
 8760SOL     OW27178   1.830   1.181   5.228
 8760SOL    HW127179   1.917   1.176   5.178
 8760SOL    HW227180   1.817   1.273   5.263
 8761SOL     OW27181   5.865   2.379   2.329
 8761SOL    HW127182   5.869   2.462   2.384
 8761SOL    HW227183   5.809   2.397   2.247
 8762SOL     OW27184   1.475   3.884   2.971
 8762SOL    HW127185   1.410   3.952   2.937
 8762SOL    HW227186   1.508   3.912   3.061
 8763SOL     OW27187   6.693   6.924   5.828
 8763SOL    HW127188   6.678   7.007   5.882
 8763SOL    HW227189   6.750   6.946   5.749
 8764SOL     OW27190   5.092   0.706   5.017
 8764SOL    HW127191   5.001   0.714   5.057
 8764SOL    HW227192   5.105   0.779   4.950
 8765SOL     OW27193   5.368   6.731   4.388
 8765SOL    HW127194   5.316   6.724   4.473
 8765SOL    HW227195   5.332   6.666   4.322
 8766SOL     OW27196   4.851   4.157   3.439
 8766SOL    HW127197   4.859   4.249   3.401
 8766SOL    HW227198   4.822   4.163   3.535
 8767SOL     OW27199   4.808   6.317   2.755
 8767SOL    HW127200   4.745   6.257   2.705
 8767SOL    HW227201   4.835   6.393   2.697
 8768SOL     OW27202   1.292   2.815   0.523
 8768SOL    HW127203   1.362   2.876   0.484
 8768SOL    HW227204   1.218   2.804   0.457
 8769SOL     OW27205   0.659   0.782   4.033
 8769SOL    HW127206   0.654   0.744   3.941
 8769SOL    HW227207   0.720   0.726   4.089
 8770SOL     OW27208   5.087   4.514   2.467
 8770SOL    HW127209   5.125   4.531   2.558
 8770SOL    HW227210   5.152   4.463   2.412
 8771SOL     OW27211   0.771   0.491   6.611
 8771SOL    HW127212   0.827   0.534   6.681
 8771SOL    HW227213   0.770   0.549   6.529
 8772SOL     OW27214   5.056   6.837   6.698
 8772SOL    HW127215   5.023   6.758   6.750
 8772SOL    HW227216   5.045   6.819   6.600
 8773SOL     OW27217   4.507   2.483   3.469
 8773SOL    HW127218   4.537   2.531   3.551
 8773SOL    HW227219   4.576   2.416   3.443
 8774SOL     OW27220   1.145   1.206   6.782
 8774SOL    HW127221   1.115   1.259   6.703
 8774SOL    HW227222   1.084   1.128   6.796
 8775SOL     OW27223   6.191   0.006   5.630
 8775SOL    HW127224   6.241   0.083   5.668
 8775SOL    HW227225   6.242   6.948   5.646
 8776SOL     OW27226   3.668   3.134   6.392
 8776SOL    HW127227   3.739   3.144   6.461
 8776SOL    HW227228   3.678   3.207   6.324
 8777SOL     OW27229   0.071   3.638   1.344
 8777SOL    HW127230   0.092   3.690   1.261
 8777SOL    HW227231   0.016   3.558   1.320
 8778SOL     OW27232   6.383   2.621   4.919
 8778SOL    HW127233   6.312   2.567   4.874
 8778SOL    HW227234   6.425   2.683   4.853
 8779SOL     OW27235   2.733   5.374   2.061
 8779SOL    HW127236   2.788   5.300   2.099
 8779SOL    HW227237   2.788   5.426   1.995
 8780SOL     OW27238   0.856   5.831   2.416
 8780SOL    HW127239   0.942   5.784   2.436
 8780SOL    HW227240   0.785   5.799   2.478
 8781SOL     OW27241   5.580   1.232   3.274
 8781SOL    HW127242   5.676   1.252   3.259
 8781SOL    HW227243   5.568   1.190   3.364
 8782SOL     OW27244   5.357   6.402   1.640
 8782SOL    HW127245   5.455   6.422   1.644
 8782SOL    HW227246   5.341   6.309   1.676
 8783SOL     OW27247   6.355   3.937   3.114
 8783SOL    HW127248   6.421   3.961   3.043
 8783SOL    HW227249   6.347   3.838   3.119
 8784SOL     OW27250   5.895   4.106   6.551
 8784SOL    HW127251   5.979   4.160   6.541
 8784SOL    HW227252   5.898   4.028   6.489
 8785SOL     OW27253   6.146   3.114   6.794
 8785SOL    HW127254   6.046   3.113   6.795
 8785SOL    HW227255   6.179   3.131   6.701
 8786SOL     OW27256   1.783   0.317   0.351
 8786SOL    HW127257   1.786   0.221   0.323
 8786SOL    HW227258   1.739   0.325   0.440
 8787SOL     OW27259   2.977   2.506   1.517
 8787SOL    HW127260   2.956   2.586   1.461
 8787SOL    HW227261   3.023   2.438   1.461
 8788SOL     OW27262   0.242   2.183   6.055
 8788SOL    HW127263   0.261   2.088   6.033
 8788SOL    HW227264   0.324   2.238   6.039
 8789SOL     OW27265   5.936   6.810   5.871
 8789SOL    HW127266   5.907   6.825   5.777
 8789SOL    HW227267   5.960   6.714   5.884
 8790SOL     OW27268   0.794   0.261   6.880
 8790SOL    HW127269   0.795   0.348   6.929
 8790SOL    HW227270   0.880   0.248   6.831
 8791SOL     OW27271   5.500   0.108   4.993
 8791SOL    HW127272   5.499   0.032   5.058
 8791SOL    HW227273   5.536   0.189   5.038
 8792SOL     OW27274   3.225   6.697   3.279
 8792SOL    HW127275   3.135   6.653   3.271
 8792SOL    HW227276   3.256   6.694   3.374
 8793SOL     OW27277   1.928   4.730   3.127
 8793SOL    HW127278   1.867   4.654   3.151
 8793SOL    HW227279   1.878   4.797   3.073
 8794SOL     OW27280   4.217   6.218   1.876
 8794SOL    HW127281   4.204   6.315   1.898
 8794SOL    HW227282   4.196   6.163   1.957
 8795SOL     OW27283   1.368   5.529   5.525
 8795SOL    HW127284   1.381   5.611   5.470
 8795SOL    HW227285   1.423   5.454   5.487
 8796SOL     OW27286   3.857   1.998   4.221
 8796SOL    HW127287   3.793   1.934   4.179
 8796SOL    HW227288   3.859   2.082   4.166
 8797SOL     OW27289   0.335   6.918   6.482
 8797SOL    HW127290   0.323   6.825   6.446
 8797SOL    HW227291   0.432   6.942   6.481
 8798SOL     OW27292   5.016   5.947   6.004
 8798SOL    HW127293   4.985   5.852   6.002
 8798SOL    HW227294   5.029   5.975   6.099
 8799SOL     OW27295   2.426   5.017   4.000
 8799SOL    HW127296   2.411   5.082   3.926
 8799SOL    HW227297   2.338   4.996   4.045
 8800SOL     OW27298   5.914   3.755   5.618
 8800SOL    HW127299   5.955   3.742   5.528
 8800SOL    HW227300   5.830   3.810   5.608
 8801SOL     OW27301   0.394   2.137   5.217
 8801SOL    HW127302   0.447   2.219   5.195
 8801SOL    HW227303   0.354   2.100   5.133
 8802SOL     OW27304   1.620   6.598   0.543
 8802SOL    HW127305   1.662   6.554   0.463
 8802SOL    HW227306   1.640   6.545   0.625
 8803SOL     OW27307   6.309   5.728   6.616
 8803SOL    HW127308   6.315   5.735   6.715
 8803SOL    HW227309   6.219   5.693   6.590
 8804SOL     OW27310   3.022   0.530   2.427
 8804SOL    HW127311   3.114   0.497   2.449
 8804SOL    HW227312   3.005   0.518   2.329
 8805SOL     OW27313   2.877   0.069   4.129
 8805SOL    HW127314   2.780   0.050   4.113
 8805SOL    HW227315   2.888   0.161   4.164
 8806SOL     OW27316   2.798   5.478   2.806
 8806SOL    HW127317   2.751   5.537   2.740
 8806SOL    HW227318   2.853   5.534   2.868
 8807SOL     OW27319   5.733   6.924   0.012
 8807SOL    HW127320   5.733   6.836   6.991
 8807SOL    HW227321   5.750   6.997   6.972
 8808SOL     OW27322   5.841   2.982   0.080
 8808SOL    HW127323   5.892   2.907   0.120
 8808SOL    HW227324   5.864   3.068   0.127
 8809SOL     OW27325   4.806   5.560   3.736
 8809SOL    HW127326   4.764   5.626   3.799
 8809SOL    HW227327   4.885   5.603   3.692
 8810SOL     OW27328   5.564   0.586   6.341
 8810SOL    HW127329   5.490   0.557   6.401
 8810SOL    HW227330   5.637   0.518   6.342
 8811SOL     OW27331   3.052   1.290   3.298
 8811SOL    HW127332   2.976   1.251   3.246
 8811SOL    HW227333   3.095   1.363   3.246
 8812SOL     OW27334   1.936   7.000   0.845
 8812SOL    HW127335   1.951   6.976   0.750
 8812SOL    HW227336   1.867   6.940   0.885
 8813SOL     OW27337   1.777   4.958   1.432
 8813SOL    HW127338   1.802   4.878   1.377
 8813SOL    HW227339   1.806   5.041   1.383
 8814SOL     OW27340   5.555   0.277   1.369
 8814SOL    HW127341   5.532   0.372   1.348
 8814SOL    HW227342   5.479   0.217   1.344
 8815SOL     OW27343   5.983   0.100   0.745
 8815SOL    HW127344   5.989   0.001   0.736
 8815SOL    HW227345   6.026   0.144   0.666
 8816SOL     OW27346   1.557   0.138   6.818
 8816SOL    HW127347   1.563   0.040   6.802
 8816SOL    HW227348   1.572   0.157   6.915
 8817SOL     OW27349   0.899   5.352   4.724
 8817SOL    HW127350   0.862   5.438   4.760
 8817SOL    HW227351   0.850   5.275   4.764
 8818SOL     OW27352   0.063   4.390   4.805
 8818SOL    HW127353   0.081   4.292   4.794
 8818SOL    HW227354   0.051   4.411   4.902
 8819SOL     OW27355   5.514   5.309   4.901
 8819SOL    HW127356   5.506   5.389   4.960
 8819SOL    HW227357   5.607   5.304   4.864
 8820SOL     OW27358   2.120   0.806   5.162
 8820SOL    HW127359   2.066   0.812   5.246
 8820SOL    HW227360   2.089   0.875   5.097
 8821SOL     OW27361   2.423   6.577   0.272
 8821SOL    HW127362   2.475   6.598   0.355
 8821SOL    HW227363   2.325   6.573   0.294
 8822SOL     OW27364   0.245   0.204   4.525
 8822SOL    HW127365   0.161   0.241   4.563
 8822SOL    HW227366   0.321   0.221   4.589
 8823SOL     OW27367   2.841   0.787   1.388
 8823SOL    HW127368   2.877   0.728   1.316
 8823SOL    HW227369   2.772   0.849   1.350
 8824SOL     OW27370   0.854   2.474   0.735
 8824SOL    HW127371   0.821   2.565   0.712
 8824SOL    HW227372   0.911   2.479   0.817
 8825SOL     OW27373   2.206   0.150   2.389
 8825SOL    HW127374   2.293   0.101   2.391
 8825SOL    HW227375   2.206   0.221   2.459
 8826SOL     OW27376   6.506   3.639   1.232
 8826SOL    HW127377   6.509   3.739   1.237
 8826SOL    HW227378   6.539   3.601   1.319
 8827SOL     OW27379   4.009   1.724   2.614
 8827SOL    HW127380   4.054   1.681   2.536
 8827SOL    HW227381   3.946   1.795   2.581
 8828SOL     OW27382   4.611   6.006   5.989
 8828SOL    HW127383   4.582   6.066   6.064
 8828SOL    HW227384   4.633   6.061   5.909
 8829SOL     OW27385   5.400   2.440   0.692
 8829SOL    HW127386   5.436   2.526   0.656
 8829SOL    HW227387   5.392   2.446   0.792
 8830SOL     OW27388   1.316   1.695   2.227
 8830SOL    HW127389   1.316   1.610   2.175
 8830SOL    HW227390   1.375   1.685   2.308
 8831SOL     OW27391   4.466   2.061   4.145
 8831SOL    HW127392   4.518   1.989   4.192
 8831SOL    HW227393   4.368   2.048   4.162
 8832SOL     OW27394   0.119   5.547   3.223
 8832SOL    HW127395   0.092   5.455   3.251
 8832SOL    HW227396   0.213   5.545   3.189
 8833SOL     OW27397   2.504   5.206   5.501
 8833SOL    HW127398   2.537   5.111   5.500
 8833SOL    HW227399   2.414   5.210   5.458
 8834SOL     OW27400   5.034   4.113   4.524
 8834SOL    HW127401   5.091   4.039   4.561
 8834SOL    HW227402   4.944   4.077   4.502
 8835SOL     OW27403   5.305   0.616   6.149
 8835SOL    HW127404   5.398   0.597   6.182
 8835SOL    HW227405   5.303   0.706   6.107
 8836SOL     OW27406   5.400   3.340   0.081
 8836SOL    HW127407   5.329   3.272   0.098
 8836SOL    HW227408   5.412   3.351   7.008
 8837SOL     OW27409   6.603   5.839   2.733
 8837SOL    HW127410   6.641   5.782   2.660
 8837SOL    HW227411   6.529   5.790   2.779
 8838SOL     OW27412   2.431   5.799   3.143
 8838SOL    HW127413   2.473   5.800   3.234
 8838SOL    HW227414   2.370   5.720   3.136
 8839SOL     OW27415   5.983   5.236   3.458
 8839SOL    HW127416   5.889   5.206   3.439
 8839SOL    HW227417   6.010   5.304   3.389
 8840SOL     OW27418   6.966   2.145   2.550
 8840SOL    HW127419   6.915   2.196   2.619
 8840SOL    HW227420   7.008   2.065   2.592
 8841SOL     OW27421   0.758   1.386   5.445
 8841SOL    HW127422   0.774   1.336   5.360
 8841SOL    HW227423   0.669   1.433   5.440
 8842SOL     OW27424   3.495   2.850   2.513
 8842SOL    HW127425   3.456   2.849   2.605
 8842SOL    HW227426   3.435   2.902   2.452
 8843SOL     OW27427   1.762   2.928   5.628
 8843SOL    HW127428   1.823   2.992   5.674
 8843SOL    HW227429   1.681   2.977   5.594
 8844SOL     OW27430   6.821   2.377   6.518
 8844SOL    HW127431   6.727   2.407   6.503
 8844SOL    HW227432   6.845   2.387   6.614
 8845SOL     OW27433   3.559   3.345   6.975
 8845SOL    HW127434   3.648   3.383   6.999
 8845SOL    HW227435   3.553   3.332   6.876
 8846SOL     OW27436   3.211   5.521   3.924
 8846SOL    HW127437   3.132   5.522   3.985
 8846SOL    HW227438   3.248   5.613   3.915
 8847SOL     OW27439   2.616   1.012   3.224
 8847SOL    HW127440   2.616   1.003   3.124
 8847SOL    HW227441   2.639   0.924   3.265
 8848SOL     OW27442   2.716   1.130   1.767
 8848SOL    HW127443   2.628   1.158   1.804
 8848SOL    HW227444   2.712   1.035   1.737
 8849SOL     OW27445   2.767   6.359   3.125
 8849SOL    HW127446   2.692   6.417   3.094
 8849SOL    HW227447   2.755   6.339   3.223
 8850SOL     OW27448   0.718   2.365   0.344
 8850SOL    HW127449   0.747   2.285   0.397
 8850SOL    HW227450   0.715   2.340   0.247
 8851SOL     OW27451   1.328   4.332   3.613
 8851SOL    HW127452   1.291   4.313   3.522
 8851SOL    HW227453   1.428   4.322   3.610
 8852SOL     OW27454   6.568   2.547   5.534
 8852SOL    HW127455   6.625   2.605   5.474
 8852SOL    HW227456   6.594   2.563   5.629
 8853SOL     OW27457   3.111   0.855   1.221
 8853SOL    HW127458   3.169   0.791   1.271
 8853SOL    HW227459   3.030   0.807   1.188
 8854SOL     OW27460   3.603   2.607   5.930
 8854SOL    HW127461   3.598   2.653   6.019
 8854SOL    HW227462   3.581   2.510   5.940
 8855SOL     OW27463   6.723   5.601   1.627
 8855SOL    HW127464   6.708   5.629   1.532
 8855SOL    HW227465   6.816   5.624   1.655
 8856SOL     OW27466   0.646   6.344   6.537
 8856SOL    HW127467   0.578   6.364   6.467
 8856SOL    HW227468   0.675   6.429   6.581
 8857SOL     OW27469   6.983   1.561   4.432
 8857SOL    HW127470   6.950   1.491   4.369
 8857SOL    HW227471   6.910   1.627   4.451
 8858SOL     OW27472   0.582   3.631   4.905
 8858SOL    HW127473   0.630   3.550   4.937
 8858SOL    HW227474   0.500   3.646   4.960
 8859SOL     OW27475   1.316   0.790   3.422
 8859SOL    HW127476   1.361   0.807   3.334
 8859SOL    HW227477   1.383   0.757   3.488
 8860SOL     OW27478   6.894   2.587   2.027
 8860SOL    HW127479   6.902   2.496   1.986
 8860SOL    HW227480   6.906   2.581   2.126
 8861SOL     OW27481   4.403   1.319   6.411
 8861SOL    HW127482   4.484   1.271   6.377
 8861SOL    HW227483   4.423   1.358   6.500
 8862SOL     OW27484   5.295   0.221   3.622
 8862SOL    HW127485   5.363   0.289   3.596
 8862SOL    HW227486   5.203   0.260   3.614
 8863SOL     OW27487   2.405   4.798   3.828
 8863SOL    HW127488   2.407   4.877   3.889
 8863SOL    HW227489   2.311   4.777   3.804
 8864SOL     OW27490   2.701   5.282   6.532
 8864SOL    HW127491   2.757   5.363   6.518
 8864SOL    HW227492   2.715   5.217   6.458
 8865SOL     OW27493   3.118   0.446   4.794
 8865SOL    HW127494   3.055   0.509   4.748
 8865SOL    HW227495   3.200   0.434   4.737
 8866SOL     OW27496   5.061   0.069   3.025
 8866SOL    HW127497   5.118   0.089   3.104
 8866SOL    HW227498   5.059   6.996   3.009
 8867SOL     OW27499   5.674   4.831   3.394
 8867SOL    HW127500   5.653   4.752   3.452
 8867SOL    HW227501   5.632   4.818   3.304
 8868SOL     OW27502   0.178   3.266   1.392
 8868SOL    HW127503   0.256   3.229   1.341
 8868SOL    HW227504   0.101   3.202   1.384
 8869SOL     OW27505   3.545   5.947   5.179
 8869SOL    HW127506   3.524   5.876   5.245
 8869SOL    HW227507   3.645   5.952   5.166
 8870SOL     OW27508   2.574   6.817   0.646
 8870SOL    HW127509   2.658   6.870   0.645
 8870SOL    HW227510   2.500   6.872   0.606
 8871SOL     OW27511   2.000   0.804   3.825
 8871SOL    HW127512   2.091   0.834   3.853
 8871SOL    HW227513   1.949   0.774   3.905
 8872SOL     OW27514   1.653   4.563   5.188
 8872SOL    HW127515   1.672   4.533   5.094
 8872SOL    HW227516   1.568   4.615   5.189
 8873SOL     OW27517   0.619   6.906   2.509
 8873SOL    HW127518   0.672   6.913   2.594
 8873SOL    HW227519   0.655   6.831   2.454
 8874SOL     OW27520   2.465   5.980   2.511
 8874SOL    HW127521   2.383   6.037   2.504
 8874SOL    HW227522   2.533   6.012   2.446
 8875SOL     OW27523   0.494   3.460   4.559
 8875SOL    HW127524   0.463   3.550   4.590
 8875SOL    HW227525   0.441   3.432   4.479
 8876SOL     OW27526   2.223   6.694   5.424
 8876SOL    HW127527   2.310   6.667   5.465
 8876SOL    HW227528   2.239   6.731   5.333
 8877SOL     OW27529   2.870   1.496   3.802
 8877SOL    HW127530   2.932   1.492   3.880
 8877SOL    HW227531   2.913   1.453   3.723
 8878SOL     OW27532   5.287   5.067   1.032
 8878SOL    HW127533   5.218   5.113   0.976
 8878SOL    HW227534   5.241   5.014   1.104
 8879SOL     OW27535   4.589   4.855   2.375
 8879SOL    HW127536   4.491   4.858   2.360
 8879SOL    HW227537   4.626   4.767   2.344
 8880SOL     OW27538   4.558   5.806   4.472
 8880SOL    HW127539   4.545   5.867   4.550
 8880SOL    HW227540   4.480   5.745   4.464
 8881SOL     OW27541   5.156   6.464   3.920
 8881SOL    HW127542   5.160   6.545   3.861
 8881SOL    HW227543   5.076   6.409   3.896
 8882SOL     OW27544   5.350   0.819   1.451
 8882SOL    HW127545   5.271   0.768   1.415
 8882SOL    HW227546   5.371   0.895   1.389
 8883SOL     OW27547   1.924   6.111   6.159
 8883SOL    HW127548   1.943   6.185   6.224
 8883SOL    HW227549   2.009   6.063   6.137
 8884SOL     OW27550   5.858   3.261   5.111
 8884SOL    HW127551   5.951   3.238   5.138
 8884SOL    HW227552   5.793   3.209   5.167
 8885SOL     OW27553   5.345   4.288   1.333
 8885SOL    HW127554   5.402   4.334   1.264
 8885SOL    HW227555   5.402   4.227   1.388
 8886SOL     OW27556   2.792   6.129   4.770
 8886SOL    HW127557   2.891   6.120   4.771
 8886SOL    HW227558   2.766   6.208   4.825
 8887SOL     OW27559   3.632   0.898   0.672
 8887SOL    HW127560   3.549   0.877   0.620
 8887SOL    HW227561   3.702   0.829   0.651
 8888SOL     OW27562   1.984   1.446   5.882
 8888SOL    HW127563   2.032   1.463   5.968
 8888SOL    HW227564   2.045   1.400   5.818
 8889SOL     OW27565   6.790   6.949   0.007
 8889SOL    HW127566   6.800   0.018   0.037
 8889SOL    HW227567   6.744   6.896   0.078
 8890SOL     OW27568   0.040   6.099   5.362
 8890SOL    HW127569   6.987   6.155   5.339
 8890SOL    HW227570   0.016   6.036   5.436
 8891SOL     OW27571   3.992   3.567   6.913
 8891SOL    HW127572   3.991   3.667   6.909
 8891SOL    HW227573   3.997   3.530   6.820
 8892SOL     OW27574   3.568   4.903   2.640
 8892SOL    HW127575   3.497   4.957   2.685
 8892SOL    HW227576   3.554   4.905   2.541
 8893SOL     OW27577   1.001   5.671   4.069
 8893SOL    HW127578   0.969   5.582   4.038
 8893SOL    HW227579   1.016   5.668   4.168
 8894SOL     OW27580   2.765   1.812   6.779
 8894SOL    HW127581   2.834   1.791   6.848
 8894SOL    HW227582   2.722   1.727   6.748
 8895SOL     OW27583   6.917   2.953   2.376
 8895SOL    HW127584   6.851   2.879   2.381
 8895SOL    HW227585   6.965   2.951   2.288
 8896SOL     OW27586   2.319   2.885   5.354
 8896SOL    HW127587   2.395   2.930   5.307
 8896SOL    HW227588   2.233   2.916   5.314
 8897SOL     OW27589   2.361   2.726   3.757
 8897SOL    HW127590   2.403   2.705   3.668
 8897SOL    HW227591   2.267   2.692   3.758
 8898SOL     OW27592   4.956   3.514   2.630
 8898SOL    HW127593   4.962   3.542   2.726
 8898SOL    HW227594   4.957   3.595   2.572
 8899SOL     OW27595   0.965   4.626   1.411
 8899SOL    HW127596   0.954   4.605   1.509
 8899SOL    HW227597   0.990   4.542   1.362
 8900SOL     OW27598   5.667   3.121   3.099
 8900SOL    HW127599   5.682   3.195   3.164
 8900SOL    HW227600   5.686   3.153   3.006
 8901SOL     OW27601   1.430   1.305   4.714
 8901SOL    HW127602   1.460   1.323   4.808
 8901SOL    HW227603   1.458   1.379   4.654
 8902SOL     OW27604   0.774   5.637   0.549
 8902SOL    HW127605   0.798   5.633   0.452
 8902SOL    HW227606   0.797   5.550   0.592
 8903SOL     OW27607   0.660   1.947   4.229
 8903SOL    HW127608   0.757   1.923   4.237
 8903SOL    HW227609   0.611   1.917   4.310
 8904SOL     OW27610   6.920   0.860   4.964
 8904SOL    HW127611   6.986   0.808   5.019
 8904SOL    HW227612   6.827   0.834   4.990
 8905SOL     OW27613   2.126   3.604   3.459
 8905SOL    HW127614   2.153   3.542   3.385
 8905SOL    HW227615   2.145   3.698   3.433
 8906SOL     OW27616   1.406   6.388   0.275
 8906SOL    HW127617   1.476   6.348   0.216
 8906SOL    HW227618   1.431   6.374   0.371
 8907SOL     OW27619   2.921   3.088   5.588
 8907SOL    HW127620   2.925   3.145   5.506
 8907SOL    HW227621   2.879   3.000   5.565
 8908SOL     OW27622   1.533   5.519   6.911
 8908SOL    HW127623   1.586   5.441   6.877
 8908SOL    HW227624   1.487   5.493   6.996
 8909SOL     OW27625   2.621   1.460   5.610
 8909SOL    HW127626   2.635   1.476   5.512
 8909SOL    HW227627   2.551   1.390   5.622
 8910SOL     OW27628   0.463   3.124   5.822
 8910SOL    HW127629   0.559   3.098   5.832
 8910SOL    HW227630   0.456   3.222   5.807
 8911SOL     OW27631   4.734   2.721   4.474
 8911SOL    HW127632   4.664   2.670   4.424
 8911SOL    HW227633   4.788   2.775   4.409
 8912SOL     OW27634   3.059   3.489   0.196
 8912SOL    HW127635   3.022   3.424   0.130
 8912SOL    HW227636   3.150   3.457   0.225
 8913SOL     OW27637   4.021   5.340   6.085
 8913SOL    HW127638   4.080   5.400   6.029
 8913SOL    HW227639   3.949   5.395   6.127
 8914SOL     OW27640   4.442   6.908   4.847
 8914SOL    HW127641   4.489   6.822   4.827
 8914SOL    HW227642   4.355   6.888   4.893
 8915SOL     OW27643   1.477   2.527   3.559
 8915SOL    HW127644   1.378   2.541   3.558
 8915SOL    HW227645   1.522   2.616   3.563
 8916SOL     OW27646   6.734   3.235   0.783
 8916SOL    HW127647   6.648   3.227   0.834
 8916SOL    HW227648   6.715   3.231   0.685
 8917SOL     OW27649   6.288   2.585   0.315
 8917SOL    HW127650   6.260   2.681   0.320
 8917SOL    HW227651   6.382   2.579   0.282
 8918SOL     OW27652   6.849   4.519   1.234
 8918SOL    HW127653   6.946   4.517   1.209
 8918SOL    HW227654   6.828   4.438   1.290
 8919SOL     OW27655   4.642   4.197   7.015
 8919SOL    HW127656   4.628   4.111   0.038
 8919SOL    HW227657   4.667   4.178   6.920
 8920SOL     OW27658   0.228   1.655   6.805
 8920SOL    HW127659   0.229   1.617   6.898
 8920SOL    HW227660   0.133   1.669   6.776
 8921SOL     OW27661   1.712   2.791   1.763
 8921SOL    HW127662   1.638   2.830   1.818
 8921SOL    HW227663   1.765   2.865   1.722
 8922SOL     OW27664   4.200   5.054   2.126
 8922SOL    HW127665   4.264   5.051   2.203
 8922SOL    HW227666   4.204   4.967   2.077
 8923SOL     OW27667   1.848   1.540   6.789
 8923SOL    HW127668   1.871   1.495   6.876
 8923SOL    HW227669   1.820   1.634   6.806
 8924SOL     OW27670   4.625   5.734   5.138
 8924SOL    HW127671   4.708   5.759   5.187
 8924SOL    HW227672   4.649   5.679   5.058
 8925SOL     OW27673   0.912   0.535   2.645
 8925SOL    HW127674   0.851   0.608   2.675
 8925SOL    HW227675   0.906   0.458   2.708
 8926SOL     OW27676   6.802   3.004   6.431
 8926SOL    HW127677   6.885   2.994   6.486
 8926SOL    HW227678   6.735   2.935   6.460
 8927SOL     OW27679   0.131   0.926   4.818
 8927SOL    HW127680   0.196   0.870   4.869
 8927SOL    HW227681   0.041   0.883   4.821
 8928SOL     OW27682   1.478   0.177   6.151
 8928SOL    HW127683   1.540   0.177   6.073
 8928SOL    HW227684   1.403   0.114   6.134
 8929SOL     OW27685   5.480   1.495   5.038
 8929SOL    HW127686   5.423   1.456   5.111
 8929SOL    HW227687   5.422   1.525   4.962
 8930SOL     OW27688   1.403   2.909   4.861
 8930SOL    HW127689   1.377   2.918   4.765
 8930SOL    HW227690   1.434   2.998   4.896
 8931SOL     OW27691   3.095   3.590   1.117
 8931SOL    HW127692   3.038   3.667   1.147
 8931SOL    HW227693   3.053   3.505   1.147
 8932SOL     OW27694   5.999   2.312   1.766
 8932SOL    HW127695   5.996   2.323   1.866
 8932SOL    HW227696   5.907   2.324   1.729
 8933SOL     OW27697   2.651   3.058   6.335
 8933SOL    HW127698   2.572   3.026   6.387
 8933SOL    HW227699   2.698   2.979   6.294
 8934SOL     OW27700   2.499   5.539   4.342
 8934SOL    HW127701   2.591   5.575   4.332
 8934SOL    HW227702   2.462   5.515   4.252
 8935SOL     OW27703   0.556   4.488   0.131
 8935SOL    HW127704   0.537   4.560   0.198
 8935SOL    HW227705   0.581   4.530   0.044
 8936SOL     OW27706   1.409   3.868   2.647
 8936SOL    HW127707   1.503   3.890   2.672
 8936SOL    HW227708   1.409   3.818   2.560
 8937SOL     OW27709   0.361   0.214   5.791
 8937SOL    HW127710   0.279   0.221   5.847
 8937SOL    HW227711   0.373   0.297   5.737
 8938SOL     OW27712   0.478   6.288   0.251
 8938SOL    HW127713   0.502   6.251   0.161
 8938SOL    HW227714   0.541   6.251   0.319
 8939SOL     OW27715   5.259   3.856   4.163
 8939SOL    HW127716   5.231   3.795   4.237
 8939SOL    HW227717   5.324   3.924   4.198
 8940SOL     OW27718   0.399   1.237   1.836
 8940SOL    HW127719   0.372   1.332   1.821
 8940SOL    HW227720   0.336   1.193   1.899
 8941SOL     OW27721   6.235   2.522   5.260
 8941SOL    HW127722   6.224   2.593   5.191
 8941SOL    HW227723   6.149   2.508   5.308
 8942SOL     OW27724   6.330   4.966   5.459
 8942SOL    HW127725   6.335   4.964   5.559
 8942SOL    HW227726   6.392   5.037   5.424
 8943SOL     OW27727   3.555   5.215   5.821
 8943SOL    HW127728   3.646   5.256   5.822
 8943SOL    HW227729   3.563   5.116   5.815
 8944SOL     OW27730   5.930   5.008   5.781
 8944SOL    HW127731   6.000   4.952   5.826
 8944SOL    HW227732   5.841   4.987   5.820
 8945SOL     OW27733   1.228   0.401   3.055
 8945SOL    HW127734   1.203   0.374   2.962
 8945SOL    HW227735   1.248   0.320   3.110
 8946SOL     OW27736   3.104   1.599   4.952
 8946SOL    HW127737   3.147   1.515   4.986
 8946SOL    HW227738   3.150   1.679   4.990
 8947SOL     OW27739   2.120   3.409   5.956
 8947SOL    HW127740   2.214   3.413   5.990
 8947SOL    HW227741   2.120   3.428   5.858
 8948SOL     OW27742   5.593   5.732   4.723
 8948SOL    HW127743   5.609   5.714   4.626
 8948SOL    HW227744   5.678   5.721   4.773
 8949SOL     OW27745   2.955   6.626   0.776
 8949SOL    HW127746   2.975   6.529   0.768
 8949SOL    HW227747   2.858   6.638   0.800
 8950SOL     OW27748   4.669   4.395   6.248
 8950SOL    HW127749   4.653   4.379   6.150
 8950SOL    HW227750   4.733   4.327   6.283
 8951SOL     OW27751   1.257   1.643   5.205
 8951SOL    HW127752   1.176   1.588   5.184
 8951SOL    HW227753   1.335   1.582   5.222
 8952SOL     OW27754   1.313   6.432   2.828
 8952SOL    HW127755   1.254   6.366   2.875
 8952SOL    HW227756   1.385   6.384   2.778
 8953SOL     OW27757   1.905   4.031   6.571
 8953SOL    HW127758   1.941   3.938   6.573
 8953SOL    HW227759   1.939   4.082   6.650
 8954SOL     OW27760   0.697   0.324   5.017
 8954SOL    HW127761   0.602   0.346   4.993
 8954SOL    HW227762   0.748   0.301   4.934
 8955SOL     OW27763   0.143   5.032   2.319
 8955SOL    HW127764   0.132   5.098   2.393
 8955SOL    HW227765   0.074   5.048   2.249
 8956SOL     OW27766   1.609   0.929   6.942
 8956SOL    HW127767   1.517   0.906   6.911
 8956SOL    HW227768   1.626   0.886   0.005
 8957SOL     OW27769   2.691   4.533   1.036
 8957SOL    HW127770   2.737   4.598   0.975
 8957SOL    HW227771   2.724   4.545   1.129
 8958SOL     OW27772   0.660   1.620   5.131
 8958SOL    HW127773   0.734   1.574   5.180
 8958SOL    HW227774   0.628   1.698   5.184
 8959SOL     OW27775   1.832   4.622   1.703
 8959SOL    HW127776   1.824   4.718   1.675
 8959SOL    HW227777   1.877   4.570   1.631
 8960SOL     OW27778   4.707   4.661   2.610
 8960SOL    HW127779   4.702   4.759   2.591
 8960SOL    HW227780   4.621   4.630   2.649
 8961SOL     OW27781   2.480   1.098   4.170
 8961SOL    HW127782   2.504   1.044   4.251
 8961SOL    HW227783   2.395   1.148   4.188
 8962SOL     OW27784   6.360   5.611   2.170
 8962SOL    HW127785   6.404   5.559   2.096
 8962SOL    HW227786   6.429   5.640   2.236
 8963SOL     OW27787   3.978   6.113   4.050
 8963SOL    HW127788   3.938   6.021   4.043
 8963SOL    HW227789   4.073   6.111   4.019
 8964SOL     OW27790   4.994   3.536   3.166
 8964SOL    HW127791   4.924   3.481   3.211
 8964SOL    HW227792   5.084   3.514   3.206
 8965SOL     OW27793   2.868   4.983   0.194
 8965SOL    HW127794   2.794   5.050   0.190
 8965SOL    HW227795   2.833   4.898   0.235
 8966SOL     OW27796   6.999   4.377   0.249
 8966SOL    HW127797   6.954   4.423   0.326
 8966SOL    HW227798   0.028   4.301   0.284
 8967SOL     OW27799   4.201   0.575   1.489
 8967SOL    HW127800   4.267   0.502   1.505
 8967SOL    HW227801   4.240   0.643   1.427
 8968SOL     OW27802   4.692   5.471   2.953
 8968SOL    HW127803   4.654   5.382   2.979
 8968SOL    HW227804   4.757   5.459   2.878
 8969SOL     OW27805   6.650   1.436   4.695
 8969SOL    HW127806   6.725   1.438   4.761
 8969SOL    HW227807   6.599   1.521   4.700
 8970SOL     OW27808   2.325   3.034   0.408
 8970SOL    HW127809   2.418   3.038   0.370
 8970SOL    HW227810   2.305   3.119   0.456
 8971SOL     OW27811   5.476   5.460   1.218
 8971SOL    HW127812   5.381   5.477   1.194
 8971SOL    HW227813   5.490   5.362   1.233
 8972SOL     OW27814   5.343   4.477   6.719
 8972SOL    HW127815   5.278   4.531   6.773
 8972SOL    HW227816   5.333   4.380   6.743
 8973SOL     OW27817   0.894   3.157   2.368
 8973SOL    HW127818   0.859   3.071   2.406
 8973SOL    HW227819   0.826   3.198   2.308
 8974SOL     OW27820   0.795   4.617   5.591
 8974SOL    HW127821   0.885   4.632   5.633
 8974SOL    HW227822   0.789   4.668   5.505
 8975SOL     OW27823   1.555   6.830   5.768
 8975SOL    HW127824   1.624   6.818   5.696
 8975SOL    HW227825   1.464   6.810   5.730
 8976SOL     OW27826   6.854   5.062   6.052
 8976SOL    HW127827   6.901   5.123   6.117
 8976SOL    HW227828   6.756   5.060   6.073
 8977SOL     OW27829   6.059   2.508   0.201
 8977SOL    HW127830   6.145   2.523   0.250
 8977SOL    HW227831   5.989   2.478   0.266
 8978SOL     OW27832   5.882   0.351   4.259
 8978SOL    HW127833   5.923   0.344   4.169
 8978SOL    HW227834   5.949   0.387   4.324
 8979SOL     OW27835   1.315   3.931   4.702
 8979SOL    HW127836   1.380   3.856   4.689
 8979SOL    HW227837   1.297   3.943   4.799
 8980SOL     OW27838   3.341   2.918   5.534
 8980SOL    HW127839   3.382   2.843   5.586
 8980SOL    HW227840   3.254   2.888   5.496
 8981SOL     OW27841   3.977   1.351   5.892
 8981SOL    HW127842   3.939   1.326   5.803
 8981SOL    HW227843   3.935   1.295   5.963
 8982SOL     OW27844   0.641   2.396   1.627
 8982SOL    HW127845   0.623   2.481   1.678
 8982SOL    HW227846   0.703   2.416   1.551
 8983SOL     OW27847   1.222   5.721   7.025
 8983SOL    HW127848   1.224   5.690   0.093
 8983SOL    HW227849   1.198   5.819   7.022
 8984SOL     OW27850   6.619   6.864   4.324
 8984SOL    HW127851   6.689   6.903   4.265
 8984SOL    HW227852   6.626   6.764   4.325
 8985SOL     OW27853   2.511   1.902   0.966
 8985SOL    HW127854   2.512   1.999   0.991
 8985SOL    HW227855   2.418   1.867   0.969
 8986SOL     OW27856   4.537   5.015   2.071
 8986SOL    HW127857   4.526   5.073   2.152
 8986SOL    HW227858   4.480   5.048   1.997
 8987SOL     OW27859   4.996   6.869   1.077
 8987SOL    HW127860   4.963   6.957   1.043
 8987SOL    HW227861   5.048   6.883   1.161
 8988SOL     OW27862   1.090   3.462   5.822
 8988SOL    HW127863   1.024   3.442   5.894
 8988SOL    HW227864   1.158   3.527   5.856
 8989SOL     OW27865   4.897   3.813   1.241
 8989SOL    HW127866   4.859   3.758   1.314
 8989SOL    HW227867   4.881   3.768   1.153
 8990SOL     OW27868   1.926   6.187   3.137
 8990SOL    HW127869   1.965   6.120   3.073
 8990SOL    HW227870   1.999   6.246   3.172
 8991SOL     OW27871   1.329   1.285   6.977
 8991SOL    HW127872   1.319   1.378   6.941
 8991SOL    HW227873   1.271   1.222   6.924
 8992SOL     OW27874   5.741   1.765   0.061
 8992SOL    HW127875   5.675   1.694   0.037
 8992SOL    HW227876   5.826   1.722   0.091
 8993SOL     OW27877   4.718   2.260   2.524
 8993SOL    HW127878   4.628   2.272   2.565
 8993SOL    HW227879   4.729   2.166   2.493
 8994SOL     OW27880   1.282   4.841   4.578
 8994SOL    HW127881   1.240   4.755   4.549
 8994SOL    HW227882   1.305   4.896   4.498
 8995SOL     OW27883   0.860   2.703   0.075
 8995SOL    HW127884   0.878   2.677   0.169
 8995SOL    HW227885   0.946   2.729   0.030
 8996SOL     OW27886   6.190   4.939   1.029
 8996SOL    HW127887   6.223   4.901   0.943
 8996SOL    HW227888   6.162   4.864   1.090
 8997SOL     OW27889   4.648   1.238   5.819
 8997SOL    HW127890   4.649   1.144   5.784
 8997SOL    HW227891   4.604   1.240   5.909
 8998SOL     OW27892   6.461   3.731   4.604
 8998SOL    HW127893   6.401   3.794   4.653
 8998SOL    HW227894   6.523   3.782   4.545
 8999SOL     OW27895   5.065   6.512   0.130
 8999SOL    HW127896   5.130   6.442   0.100
 8999SOL    HW227897   4.999   6.472   0.192
 9000SOL     OW27898   1.923   4.191   0.746
 9000SOL    HW127899   1.914   4.121   0.676
 9000SOL    HW227900   1.968   4.153   0.827
 9001SOL     OW27901   1.338   5.526   2.656
 9001SOL    HW127902   1.306   5.615   2.621
 9001SOL    HW227903   1.426   5.504   2.614
 9002SOL     OW27904   0.008   4.893   5.092
 9002SOL    HW127905   6.959   4.891   5.027
 9002SOL    HW227906   0.078   4.958   5.061
 9003SOL     OW27907   5.106   2.747   1.562
 9003SOL    HW127908   5.093   2.739   1.661
 9003SOL    HW227909   5.034   2.695   1.515
 9004SOL     OW27910   3.834   6.786   1.425
 9004SOL    HW127911   3.870   6.830   1.343
 9004SOL    HW227912   3.851   6.688   1.420
 9005SOL     OW27913   5.221   2.566   4.306
 9005SOL    HW127914   5.234   2.574   4.405
 9005SOL    HW227915   5.177   2.648   4.271
 9006SOL     OW27916   2.291   6.724   0.724
 9006SOL    HW127917   2.273   6.820   0.703
 9006SOL    HW227918   2.293   6.712   0.823
 9007SOL     OW27919   3.658   0.906   4.437
 9007SOL    HW127920   3.753   0.875   4.433
 9007SOL    HW227921   3.606   0.862   4.363
 9008SOL     OW27922   1.293   5.798   3.304
 9008SOL    HW127923   1.317   5.741   3.226
 9008SOL    HW227924   1.220   5.754   3.356
 9009SOL     OW27925   3.127   0.220   0.528
 9009SOL    HW127926   3.083   0.274   0.601
 9009SOL    HW227927   3.188   0.153   0.569
 9010SOL     OW27928   1.413   6.477   3.722
 9010SOL    HW127929   1.378   6.403   3.780
 9010SOL    HW227930   1.404   6.564   3.770
 9011SOL     OW27931   5.291   2.404   2.268
 9011SOL    HW127932   5.255   2.340   2.200
 9011SOL    HW227933   5.333   2.354   2.343
 9012SOL     OW27934   2.033   4.264   1.231
 9012SOL    HW127935   1.945   4.268   1.184
 9012SOL    HW227936   2.103   4.307   1.173
 9013SOL     OW27937   6.701   6.688   5.344
 9013SOL    HW127938   6.719   6.597   5.306
 9013SOL    HW227939   6.623   6.683   5.407
 9014SOL     OW27940   6.370   2.214   0.111
 9014SOL    HW127941   6.287   2.237   0.060
 9014SOL    HW227942   6.368   2.258   0.200
 9015SOL     OW27943   5.193   1.258   0.917
 9015SOL    HW127944   5.188   1.355   0.893
 9015SOL    HW227945   5.224   1.205   0.838
 9016SOL     OW27946   0.681   6.650   6.342
 9016SOL    HW127947   0.748   6.615   6.277
 9016SOL    HW227948   0.727   6.670   6.429
 9017SOL     OW27949   4.262   1.965   3.221
 9017SOL    HW127950   4.254   1.892   3.153
 9017SOL    HW227951   4.275   2.052   3.174
 9018SOL     OW27952   3.852   2.218   0.085
 9018SOL    HW127953   3.938   2.264   0.065
 9018SOL    HW227954   3.777   2.266   0.038
 9019SOL     OW27955   1.324   6.834   2.192
 9019SOL    HW127956   1.406   6.803   2.241
 9019SOL    HW227957   1.352   6.887   2.112
 9020SOL     OW27958   0.404   4.187   1.947
 9020SOL    HW127959   0.332   4.230   1.894
 9020SOL    HW227960   0.393   4.210   2.043
 9021SOL     OW27961   6.632   0.115   4.071
 9021SOL    HW127962   6.686   0.037   4.105
 9021SOL    HW227963   6.693   0.191   4.051
 9022SOL     OW27964   3.263   2.420   6.746
 9022SOL    HW127965   3.215   2.503   6.774
 9022SOL    HW227966   3.242   2.346   6.809
 9023SOL     OW27967   3.053   3.165   2.400
 9023SOL    HW127968   2.993   3.140   2.325
 9023SOL    HW227969   3.048   3.264   2.417
 9024SOL     OW27970   0.751   4.585   4.910
 9024SOL    HW127971   0.724   4.593   4.814
 9024SOL    HW227972   0.705   4.656   4.964
 9025SOL     OW27973   1.026   5.141   0.305
 9025SOL    HW127974   0.993   5.176   0.218
 9025SOL    HW227975   1.031   5.216   0.371
 9026SOL     OW27976   4.456   3.007   1.251
 9026SOL    HW127977   4.461   3.067   1.171
 9026SOL    HW227978   4.377   2.946   1.241
 9027SOL     OW27979   1.353   2.474   3.869
 9027SOL    HW127980   1.261   2.456   3.836
 9027SOL    HW227981   1.418   2.414   3.821
 9028SOL     OW27982   2.390   3.422   5.331
 9028SOL    HW127983   2.354   3.492   5.269
 9028SOL    HW227984   2.399   3.459   5.423
 9029SOL     OW27985   3.562   6.549   4.902
 9029SOL    HW127986   3.567   6.597   4.990
 9029SOL    HW227987   3.606   6.604   4.831
 9030SOL     OW27988   2.360   1.880   3.171
 9030SOL    HW127989   2.267   1.849   3.150
 9030SOL    HW227990   2.424   1.835   3.108
 9031SOL     OW27991   4.157   5.295   4.364
 9031SOL    HW127992   4.073   5.243   4.348
 9031SOL    HW227993   4.140   5.391   4.346
 9032SOL     OW27994   3.741   3.039   0.551
 9032SOL    HW127995   3.787   2.998   0.472
 9032SOL    HW227996   3.804   3.103   0.596
 9033SOL     OW27997   0.810   4.140   3.381
 9033SOL    HW127998   0.775   4.105   3.294
 9033SOL    HW227999   0.777   4.234   3.394
 9034SOL     OW28000   2.607   0.622   5.790
 9034SOL    HW128001   2.637   0.704   5.742
 9034SOL    HW228002   2.528   0.583   5.743
 9035SOL     OW28003   1.218   5.019   6.324
 9035SOL    HW128004   1.313   5.016   6.355
 9035SOL    HW228005   1.191   5.114   6.308
 9036SOL     OW28006   1.630   1.240   5.814
 9036SOL    HW128007   1.671   1.177   5.879
 9036SOL    HW228008   1.578   1.310   5.863
 9037SOL     OW28009   1.011   4.010   5.444
 9037SOL    HW128010   1.038   4.069   5.367
 9037SOL    HW228011   0.941   3.946   5.414
 9038SOL     OW28012   4.407   6.784   5.786
 9038SOL    HW128013   4.472   6.858   5.801
 9038SOL    HW228014   4.454   6.707   5.742
 9039SOL     OW28015   2.628   5.601   5.374
 9039SOL    HW128016   2.541   5.599   5.424
 9039SOL    HW228017   2.610   5.599   5.276
 9040SOL     OW28018   3.569   1.627   2.472
 9040SOL    HW128019   3.666   1.604   2.462
 9040SOL    HW228020   3.526   1.563   2.537
 9041SOL     OW28021   0.939   2.463   1.443
 9041SOL    HW128022   0.927   2.365   1.424
 9041SOL    HW228023   1.026   2.478   1.489
 9042SOL     OW28024   3.074   0.427   4.081
 9042SOL    HW128025   3.165   0.448   4.045
 9042SOL    HW228026   3.082   0.404   4.178
 9043SOL     OW28027   1.282   0.976   0.151
 9043SOL    HW128028   1.217   0.915   0.105
 9043SOL    HW228029   1.232   1.054   0.189
 9044SOL     OW28030   6.417   1.077   0.308
 9044SOL    HW128031   6.444   1.124   0.391
 9044SOL    HW228032   6.489   1.012   0.282
 9045SOL     OW28033   2.481   1.234   2.344
 9045SOL    HW128034   2.489   1.204   2.439
 9045SOL    HW228035   2.384   1.239   2.318
 9046SOL     OW28036   3.697   3.605   3.325
 9046SOL    HW128037   3.769   3.544   3.292
 9046SOL    HW228038   3.608   3.567   3.302
 9047SOL     OW28039   1.601   3.233   6.040
 9047SOL    HW128040   1.513   3.265   6.074
 9047SOL    HW228041   1.673   3.295   6.071
 9048SOL     OW28042   5.284   3.129   5.906
 9048SOL    HW128043   5.235   3.195   5.849
 9048SOL    HW228044   5.381   3.151   5.908
 9049SOL     OW28045   3.161   0.273   5.942
 9049SOL    HW128046   3.229   0.202   5.957
 9049SOL    HW228047   3.105   0.284   6.025
 9050SOL     OW28048   0.298   3.036   0.633
 9050SOL    HW128049   0.396   3.031   0.614
 9050SOL    HW228050   0.279   2.990   0.719
 9051SOL     OW28051   3.814   6.613   0.949
 9051SOL    HW128052   3.774   6.522   0.964
 9051SOL    HW228053   3.852   6.617   0.856
 9052SOL     OW28054   2.499   2.057   3.834
 9052SOL    HW128055   2.480   1.999   3.913
 9052SOL    HW228056   2.455   2.018   3.753
 9053SOL     OW28057   2.058   1.254   2.715
 9053SOL    HW128058   1.983   1.316   2.737
 9053SOL    HW228059   2.051   1.172   2.772
 9054SOL     OW28060   3.139   6.185   2.860
 9054SOL    HW128061   3.093   6.138   2.784
 9054SOL    HW228062   3.112   6.281   2.860
 9055SOL     OW28063   5.412   2.825   4.171
 9055SOL    HW128064   5.466   2.880   4.235
 9055SOL    HW228065   5.314   2.839   4.189
 9056SOL     OW28066   0.440   1.496   2.316
 9056SOL    HW128067   0.411   1.490   2.411
 9056SOL    HW228068   0.389   1.569   2.270
 9057SOL     OW28069   4.892   4.029   5.968
 9057SOL    HW128070   4.884   3.973   6.050
 9057SOL    HW228071   4.986   4.025   5.934
 9058SOL     OW28072   2.398   2.146   2.422
 9058SOL    HW128073   2.357   2.227   2.466
 9058SOL    HW228074   2.432   2.084   2.493
 9059SOL     OW28075   0.976   2.291   4.277
 9059SOL    HW128076   0.878   2.309   4.285
 9059SOL    HW228077   1.021   2.369   4.234
 9060SOL     OW28078   6.773   2.832   3.572
 9060SOL    HW128079   6.845   2.857   3.506
 9060SOL    HW228080   6.776   2.895   3.649
 9061SOL     OW28081   2.380   5.721   2.549
 9061SOL    HW128082   2.296   5.737   2.602
 9061SOL    HW228083   2.434   5.805   2.547
 9062SOL     OW28084   1.643   6.313   2.052
 9062SOL    HW128085   1.630   6.376   1.976
 9062SOL    HW228086   1.681   6.227   2.018
 9063SOL     OW28087   2.464   7.016   3.098
 9063SOL    HW128088   2.559   7.019   3.131
 9063SOL    HW228089   2.458   6.949   3.023
 9064SOL     OW28090   6.255   2.004   5.285
 9064SOL    HW128091   6.274   1.973   5.191
 9064SOL    HW228092   6.233   1.925   5.342
 9065SOL     OW28093   3.047   0.089   5.660
 9065SOL    HW128094   2.998   0.100   5.574
 9065SOL    HW228095   3.010   0.153   5.728
 9066SOL     OW28096   5.126   6.212   0.717
 9066SOL    HW128097   5.054   6.149   0.747
 9066SOL    HW228098   5.086   6.284   0.660
 9067SOL     OW28099   0.159   0.482   4.615
 9067SOL    HW128100   0.101   0.536   4.554
 9067SOL    HW228101   0.105   0.406   4.652
 9068SOL     OW28102   2.393   6.620   4.548
 9068SOL    HW128103   2.380   6.673   4.465
 9068SOL    HW228104   2.460   6.548   4.532
 9069SOL     OW28105   1.806   3.177   1.408
 9069SOL    HW128106   1.742   3.254   1.419
 9069SOL    HW228107   1.890   3.211   1.367
 9070SOL     OW28108   1.095   3.803   4.968
 9070SOL    HW128109   1.054   3.880   4.918
 9070SOL    HW228110   1.173   3.835   5.021
 9071SOL     OW28111   5.479   0.491   1.631
 9071SOL    HW128112   5.408   0.454   1.571
 9071SOL    HW228113   5.559   0.516   1.577
 9072SOL     OW28114   0.009   1.710   1.871
 9072SOL    HW128115   0.044   1.668   1.955
 9072SOL    HW228116   6.947   1.668   1.848
 9073SOL     OW28117   3.083   6.967   2.456
 9073SOL    HW128118   3.163   6.915   2.487
 9073SOL    HW228119   3.077   0.026   2.509
 9074SOL     OW28120   1.758   2.130   1.888
 9074SOL    HW128121   1.668   2.101   1.921
 9074SOL    HW228122   1.747   2.212   1.831
 9075SOL     OW28123   1.039   1.504   1.981
 9075SOL    HW128124   0.985   1.456   1.912
 9075SOL    HW228125   0.999   1.490   2.071
 9076SOL     OW28126   6.699   2.122   5.718
 9076SOL    HW128127   6.740   2.155   5.633
 9076SOL    HW228128   6.744   2.038   5.747
 9077SOL     OW28129   4.296   0.445   0.494
 9077SOL    HW128130   4.286   0.525   0.434
 9077SOL    HW228131   4.336   0.370   0.442
 9078SOL     OW28132   4.373   3.414   6.263
 9078SOL    HW128133   4.457   3.453   6.299
 9078SOL    HW228134   4.375   3.416   6.163
 9079SOL     OW28135   3.411   0.424   4.382
 9079SOL    HW128136   3.369   0.499   4.331
 9079SOL    HW228137   3.506   0.412   4.353
 9080SOL     OW28138   4.292   2.283   6.346
 9080SOL    HW128139   4.291   2.211   6.277
 9080SOL    HW228140   4.211   2.340   6.336
 9081SOL     OW28141   3.607   6.960   2.518
 9081SOL    HW128142   3.676   0.006   2.524
 9081SOL    HW228143   3.641   6.877   2.562
 9082SOL     OW28144   1.962   0.329   5.708
 9082SOL    HW128145   2.006   0.272   5.639
 9082SOL    HW228146   1.903   0.272   5.765
 9083SOL     OW28147   3.309   5.693   6.081
 9083SOL    HW128148   3.320   5.779   6.031
 9083SOL    HW228149   3.399   5.656   6.105
 9084SOL     OW28150   3.118   4.050   4.533
 9084SOL    HW128151   3.116   3.998   4.447
 9084SOL    HW228152   3.091   4.145   4.515
 9085SOL     OW28153   2.336   0.044   1.860
 9085SOL    HW128154   2.394   6.989   1.857
 9085SOL    HW228155   2.272   0.043   1.783
 9086SOL     OW28156   1.110   4.343   0.561
 9086SOL    HW128157   1.024   4.391   0.581
 9086SOL    HW228158   1.170   4.347   0.641
 9087SOL     OW28159   4.303   2.186   1.673
 9087SOL    HW128160   4.311   2.109   1.609
 9087SOL    HW228161   4.274   2.153   1.762
 9088SOL     OW28162   0.057   0.002   0.811
 9088SOL    HW128163   0.093   6.936   0.794
 9088SOL    HW228164   6.991   7.021   0.850
 9089SOL     OW28165   5.090   5.615   5.926
 9089SOL    HW128166   5.160   5.545   5.941
 9089SOL    HW228167   5.035   5.592   5.846
 9090SOL     OW28168   0.191   1.295   4.048
 9090SOL    HW128169   0.161   1.262   4.137
 9090SOL    HW228170   0.278   1.343   4.058
 9091SOL     OW28171   3.339   4.250   6.740
 9091SOL    HW128172   3.347   4.199   6.825
 9091SOL    HW228173   3.344   4.348   6.758
 9092SOL     OW28174   6.492   0.942   6.967
 9092SOL    HW128175   6.512   0.908   6.875
 9092SOL    HW228176   6.424   1.015   6.962
 9093SOL     OW28177   1.010   5.919   5.624
 9093SOL    HW128178   1.057   5.879   5.703
 9093SOL    HW228179   0.979   6.011   5.647
 9094SOL     OW28180   6.523   4.618   3.173
 9094SOL    HW128181   6.505   4.527   3.135
 9094SOL    HW228182   6.482   4.688   3.115
 9095SOL     OW28183   4.797   4.617   6.340
 9095SOL    HW128184   4.748   4.533   6.315
 9095SOL    HW228185   4.734   4.694   6.337
 9096SOL     OW28186   6.325   5.251   2.586
 9096SOL    HW128187   6.345   5.330   2.644
 9096SOL    HW228188   6.411   5.211   2.553
 9097SOL     OW28189   1.150   1.712   1.127
 9097SOL    HW128190   1.171   1.746   1.219
 9097SOL    HW228191   1.093   1.779   1.079
 9098SOL     OW28192   3.120   2.151   4.562
 9098SOL    HW128193   3.210   2.191   4.545
 9098SOL    HW228194   3.109   2.134   4.660
 9099SOL     OW28195   3.645   3.299   6.159
 9099SOL    HW128196   3.604   3.263   6.075
 9099SOL    HW228197   3.726   3.353   6.137
 9100SOL     OW28198   7.019   3.231   3.184
 9100SOL    HW128199   6.966   3.204   3.264
 9100SOL    HW228200   0.085   3.192   3.190
 9101SOL     OW28201   2.687   2.473   1.811
 9101SOL    HW128202   2.785   2.462   1.800
 9101SOL    HW228203   2.640   2.401   1.759
 9102SOL     OW28204   3.928   6.259   2.020
 9102SOL    HW128205   3.862   6.232   2.090
 9102SOL    HW228206   3.888   6.246   1.930
 9103SOL     OW28207   5.835   2.683   6.893
 9103SOL    HW128208   5.829   2.617   6.818
 9103SOL    HW228209   5.911   2.745   6.877
 9104SOL     OW28210   6.873   6.509   1.490
 9104SOL    HW128211   6.836   6.437   1.548
 9104SOL    HW228212   6.877   6.595   1.541
 9105SOL     OW28213   0.574   1.187   6.696
 9105SOL    HW128214   0.662   1.140   6.703
 9105SOL    HW228215   0.584   1.269   6.639
 9106SOL     OW28216   5.513   3.868   1.267
 9106SOL    HW128217   5.566   3.847   1.349
 9106SOL    HW228218   5.430   3.811   1.266
 9107SOL     OW28219   2.219   0.882   6.874
 9107SOL    HW128220   2.135   0.834   6.899
 9107SOL    HW228221   2.198   0.959   6.814
 9108SOL     OW28222   5.084   4.265   5.147
 9108SOL    HW128223   5.123   4.297   5.061
 9108SOL    HW228224   5.093   4.166   5.153
 9109SOL     OW28225   6.266   3.600   2.959
 9109SOL    HW128226   6.287   3.541   3.037
 9109SOL    HW228227   6.272   3.546   2.874
 9110SOL     OW28228   1.986   5.236   4.409
 9110SOL    HW128229   1.948   5.192   4.328
 9110SOL    HW228230   1.970   5.334   4.405
 9111SOL     OW28231   4.753   2.638   6.943
 9111SOL    HW128232   4.836   2.650   6.998
 9111SOL    HW228233   4.674   2.675   6.994
 9112SOL     OW28234   1.955   5.993   2.808
 9112SOL    HW128235   1.908   5.908   2.831
 9112SOL    HW228236   1.888   6.067   2.801
 9113SOL     OW28237   5.336   2.572   2.630
 9113SOL    HW128238   5.329   2.662   2.588
 9113SOL    HW228239   5.268   2.511   2.591
 9114SOL     OW28240   6.637   5.273   3.604
 9114SOL    HW128241   6.554   5.311   3.645
 9114SOL    HW228242   6.704   5.254   3.675
 9115SOL     OW28243   5.963   5.456   4.981
 9115SOL    HW128244   5.955   5.481   5.078
 9115SOL    HW228245   6.054   5.479   4.948
 9116SOL     OW28246   0.276   6.636   2.917
 9116SOL    HW128247   0.244   6.546   2.944
 9116SOL    HW228248   0.211   6.705   2.947
 9117SOL     OW28249   3.657   2.974   5.841
 9117SOL    HW128250   3.661   2.906   5.768
 9117SOL    HW228251   3.656   3.066   5.801
 9118SOL     OW28252   6.516   3.560   0.325
 9118SOL    HW128253   6.471   3.472   0.343
 9118SOL    HW228254   6.469   3.606   0.250
 9119SOL     OW28255   3.641   1.173   2.320
 9119SOL    HW128256   3.652   1.219   2.232
 9119SOL    HW228257   3.669   1.078   2.311
 9120SOL     OW28258   0.127   1.940   5.846
 9120SOL    HW128259   0.172   2.006   5.786
 9120SOL    HW228260   0.191   1.909   5.916
 9121SOL     OW28261   3.341   6.094   4.699
 9121SOL    HW128262   3.372   6.188   4.717
 9121SOL    HW228263   3.367   6.035   4.775
 9122SOL     OW28264   2.608   4.724   1.992
 9122SOL    HW128265   2.702   4.689   1.994
 9122SOL    HW228266   2.555   4.674   1.924
 9123SOL     OW28267   2.129   0.726   4.683
 9123SOL    HW128268   2.062   0.744   4.612
 9123SOL    HW228269   2.169   0.635   4.670
 9124SOL     OW28270   3.909   5.358   0.655
 9124SOL    HW128271   3.822   5.335   0.612
 9124SOL    HW228272   3.902   5.341   0.754
 9125SOL     OW28273   4.050   4.580   1.209
 9125SOL    HW128274   4.060   4.633   1.124
 9125SOL    HW228275   4.003   4.494   1.189
 9126SOL     OW28276   5.078   4.009   1.549
 9126SOL    HW128277   5.120   4.099   1.540
 9126SOL    HW228278   5.132   3.954   1.613
 9127SOL     OW28279   6.881   1.793   6.053
 9127SOL    HW128280   6.975   1.808   6.083
 9127SOL    HW228281   6.843   1.879   6.018
 9128SOL     OW28282   6.161   2.282   5.490
 9128SOL    HW128283   6.219   2.213   5.533
 9128SOL    HW228284   6.120   2.243   5.407
 9129SOL     OW28285   6.150   1.941   0.316
 9129SOL    HW128286   6.161   1.843   0.298
 9129SOL    HW228287   6.202   1.965   0.398
 9130SOL     OW28288   1.266   4.584   6.114
 9130SOL    HW128289   1.243   4.517   6.044
 9130SOL    HW228290   1.196   4.582   6.186
 9131SOL     OW28291   5.035   3.500   6.096
 9131SOL    HW128292   5.123   3.518   6.053
 9131SOL    HW228293   4.970   3.467   6.027
 9132SOL     OW28294   1.085   5.277   4.539
 9132SOL    HW128295   1.016   5.313   4.602
 9132SOL    HW228296   1.120   5.350   4.481
 9133SOL     OW28297   3.732   0.330   1.053
 9133SOL    HW128298   3.644   0.320   1.100
 9133SOL    HW228299   3.716   0.352   0.957
 9134SOL     OW28300   4.232   5.127   1.156
 9134SOL    HW128301   4.292   5.139   1.077
 9134SOL    HW228302   4.241   5.206   1.217
 9135SOL     OW28303   0.780   6.533   1.491
 9135SOL    HW128304   0.877   6.555   1.497
 9135SOL    HW228305   0.758   6.497   1.400
 9136SOL     OW28306   4.940   6.093   5.513
 9136SOL    HW128307   4.934   6.169   5.448
 9136SOL    HW228308   4.902   6.010   5.472
 9137SOL     OW28309   3.723   0.618   6.744
 9137SOL    HW128310   3.638   0.595   6.792
 9137SOL    HW228311   3.718   0.713   6.712
 9138SOL     OW28312   1.193   4.028   6.392
 9138SOL    HW128313   1.153   3.987   6.474
 9138SOL    HW228314   1.121   4.045   6.325
 9139SOL     OW28315   1.347   1.436   2.118
 9139SOL    HW128316   1.290   1.355   2.130
 9139SOL    HW228317   1.347   1.463   2.022
 9140SOL     OW28318   1.214   4.357   1.887
 9140SOL    HW128319   1.182   4.399   1.972
 9140SOL    HW228320   1.196   4.259   1.890
 9141SOL     OW28321   6.320   6.696   0.233
 9141SOL    HW128322   6.372   6.734   0.156
 9141SOL    HW228323   6.282   6.607   0.207
 9142SOL     OW28324   0.657   3.845   1.465
 9142SOL    HW128325   0.616   3.921   1.415
 9142SOL    HW228326   0.601   3.763   1.455
 9143SOL     OW28327   0.000   4.257   1.233
 9143SOL    HW128328   0.035   4.321   1.165
 9143SOL    HW228329   0.034   4.165   1.212
 9144SOL     OW28330   3.714   5.442   4.587
 9144SOL    HW128331   3.695   5.455   4.684
 9144SOL    HW228332   3.811   5.460   4.570
 9145SOL     OW28333   1.323   5.886   6.699
 9145SOL    HW128334   1.303   5.919   6.791
 9145SOL    HW228335   1.411   5.839   6.699
 9146SOL     OW28336   5.421   3.553   2.524
 9146SOL    HW128337   5.481   3.607   2.584
 9146SOL    HW228338   5.360   3.498   2.580
 9147SOL     OW28339   6.763   0.430   5.041
 9147SOL    HW128340   6.756   0.332   5.024
 9147SOL    HW228341   6.857   0.460   5.027
 9148SOL     OW28342   5.677   6.831   1.989
 9148SOL    HW128343   5.734   6.891   1.933
 9148SOL    HW228344   5.722   6.814   2.077
 9149SOL     OW28345   5.659   3.059   2.015
 9149SOL    HW128346   5.592   3.062   2.089
 9149SOL    HW228347   5.630   3.118   1.941
 9150SOL     OW28348   3.561   4.494   1.032
 9150SOL    HW128349   3.484   4.438   1.003
 9150SOL    HW228350   3.639   4.477   0.972
 9151SOL     OW28351   2.220   4.089   3.212
 9151SOL    HW128352   2.293   4.157   3.206
 9151SOL    HW228353   2.157   4.101   3.136
 9152SOL     OW28354   1.817   4.471   4.484
 9152SOL    HW128355   1.782   4.478   4.391
 9152SOL    HW228356   1.881   4.394   4.490
 9153SOL     OW28357   0.257   2.588   6.839
 9153SOL    HW128358   0.216   2.549   6.757
 9153SOL    HW228359   0.190   2.590   6.913
 9154SOL     OW28360   5.214   4.137   3.510
 9154SOL    HW128361   5.143   4.165   3.574
 9154SOL    HW228362   5.172   4.096   3.429
 9155SOL     OW28363   2.304   4.858   2.815
 9155SOL    HW128364   2.323   4.948   2.853
 9155SOL    HW228365   2.255   4.802   2.882
 9156SOL     OW28366   6.492   2.301   1.903
 9156SOL    HW128367   6.580   2.271   1.938
 9156SOL    HW228368   6.461   2.381   1.953
 9157SOL     OW28369   3.153   4.170   6.557
 9157SOL    HW128370   3.227   4.160   6.623
 9157SOL    HW228371   3.089   4.240   6.588
 9158SOL     OW28372   6.546   3.851   4.324
 9158SOL    HW128373   6.637   3.815   4.305
 9158SOL    HW228374   6.479   3.807   4.265
 9159SOL     OW28375   1.654   0.291   3.682
 9159SOL    HW128376   1.715   0.318   3.757
 9159SOL    HW228377   1.672   0.348   3.602
 9160SOL     OW28378   0.177   5.799   5.555
 9160SOL    HW128379   0.083   5.830   5.541
 9160SOL    HW228380   0.193   5.783   5.652
 9161SOL     OW28381   6.363   4.835   3.283
 9161SOL    HW128382   6.272   4.814   3.249
 9161SOL    HW228383   6.411   4.750   3.306
 9162SOL     OW28384   3.955   0.447   3.071
 9162SOL    HW128385   3.906   0.369   3.111
 9162SOL    HW228386   3.899   0.487   2.998
 9163SOL     OW28387   6.830   3.792   2.670
 9163SOL    HW128388   6.824   3.889   2.646
 9163SOL    HW228389   6.745   3.746   2.645
 9164SOL     OW28390   2.066   1.183   6.920
 9164SOL    HW128391   2.046   1.138   6.833
 9164SOL    HW228392   1.990   1.242   6.946
 9165SOL     OW28393   4.553   1.538   6.209
 9165SOL    HW128394   4.536   1.588   6.294
 9165SOL    HW228395   4.566   1.603   6.134
 9166SOL     OW28396   4.454   5.063   0.819
 9166SOL    HW128397   4.369   5.115   0.814
 9166SOL    HW228398   4.471   5.018   0.732
 9167SOL     OW28399   1.364   2.356   6.097
 9167SOL    HW128400   1.443   2.326   6.150
 9167SOL    HW228401   1.354   2.298   6.016
 9168SOL     OW28402   6.758   6.091   6.734
 9168SOL    HW128403   6.807   6.043   6.807
 9168SOL    HW228404   6.724   6.024   6.668
 9169SOL     OW28405   6.281   5.984   6.207
 9169SOL    HW128406   6.330   5.942   6.283
 9169SOL    HW228407   6.210   6.046   6.243
 9170SOL     OW28408   1.861   0.824   6.500
 9170SOL    HW128409   1.831   0.897   6.562
 9170SOL    HW228410   1.905   0.751   6.553
 9171SOL     OW28411   3.262   5.309   0.375
 9171SOL    HW128412   3.166   5.282   0.368
 9171SOL    HW228413   3.274   5.366   0.457
 9172SOL     OW28414   4.413   2.154   4.529
 9172SOL    HW128415   4.488   2.146   4.594
 9172SOL    HW228416   4.336   2.097   4.558
 9173SOL     OW28417   6.039   3.051   4.385
 9173SOL    HW128418   5.971   3.050   4.458
 9173SOL    HW228419   6.123   3.008   4.418
 9174SOL     OW28420   0.898   5.947   0.041
 9174SOL    HW128421   0.889   5.855   0.002
 9174SOL    HW228422   0.994   5.966   0.061
 9175SOL     OW28423   1.198   6.874   0.061
 9175SOL    HW128424   1.232   6.897   6.995
 9175SOL    HW228425   1.245   6.792   0.094
 9176SOL     OW28426   2.685   6.620   1.086
 9176SOL    HW128427   2.742   6.693   1.121
 9176SOL    HW228428   2.680   6.545   1.152
 9177SOL     OW28429   1.389   2.654   4.068
 9177SOL    HW128430   1.393   2.578   4.002
 9177SOL    HW228431   1.475   2.659   4.118
 9178SOL     OW28432   2.518   5.298   6.228
 9178SOL    HW128433   2.496   5.215   6.280
 9178SOL    HW228434   2.521   5.376   6.290
 9179SOL     OW28435   2.427   5.908   5.043
 9179SOL    HW128436   2.383   5.907   4.953
 9179SOL    HW228437   2.521   5.941   5.033
 9180SOL     OW28438   6.588   2.469   3.672
 9180SOL    HW128439   6.616   2.456   3.767
 9180SOL    HW228440   6.514   2.405   3.650
 9181SOL     OW28441   5.148   2.627   3.799
 9181SOL    HW128442   5.143   2.540   3.847
 9181SOL    HW228443   5.106   2.618   3.708
 9182SOL     OW28444   3.233   1.094   3.378
 9182SOL    HW128445   3.231   1.035   3.297
 9182SOL    HW228446   3.184   1.178   3.358
 9183SOL     OW28447   4.871   4.205   6.300
 9183SOL    HW128448   4.970   4.191   6.297
 9183SOL    HW228449   4.826   4.139   6.241
 9184SOL     OW28450   3.735   2.332   1.123
 9184SOL    HW128451   3.766   2.282   1.042
 9184SOL    HW228452   3.645   2.298   1.151
 9185SOL     OW28453   0.591   6.521   5.715
 9185SOL    HW128454   0.526   6.582   5.760
 9185SOL    HW228455   0.663   6.496   5.780
 9186SOL     OW28456   4.705   0.240   5.349
 9186SOL    HW128457   4.776   0.205   5.411
 9186SOL    HW228458   4.617   0.243   5.397
 9187SOL     OW28459   4.050   2.111   6.790
 9187SOL    HW128460   4.129   2.132   6.848
 9187SOL    HW228461   4.018   2.194   6.745
 9188SOL     OW28462   1.024   0.562   1.443
 9188SOL    HW128463   1.115   0.557   1.403
 9188SOL    HW228464   0.988   0.470   1.456
 9189SOL     OW28465   2.893   0.256   3.326
 9189SOL    HW128466   2.933   0.348   3.325
 9189SOL    HW228467   2.927   0.205   3.405
 9190SOL     OW28468   6.792   3.395   5.030
 9190SOL    HW128469   6.809   3.349   4.943
 9190SOL    HW228470   6.879   3.412   5.076
 9191SOL     OW28471   4.707   6.824   6.549
 9191SOL    HW128472   4.797   6.795   6.516
 9191SOL    HW228473   4.711   6.921   6.575
 9192SOL     OW28474   5.881   3.414   6.145
 9192SOL    HW128475   5.791   3.398   6.105
 9192SOL    HW228476   5.919   3.327   6.176
 9193SOL     OW28477   3.406   3.815   3.999
 9193SOL    HW128478   3.328   3.874   4.023
 9193SOL    HW228479   3.491   3.864   4.014
 9194SOL     OW28480   3.464   5.876   1.813
 9194SOL    HW128481   3.421   5.872   1.903
 9194SOL    HW228482   3.394   5.886   1.742
 9195SOL     OW28483   2.369   2.478   4.498
 9195SOL    HW128484   2.411   2.561   4.535
 9195SOL    HW228485   2.409   2.398   4.543
 9196SOL     OW28486   5.908   0.090   3.493
 9196SOL    HW128487   5.847   0.158   3.536
 9196SOL    HW228488   5.863   0.052   3.413
 9197SOL     OW28489   3.531   4.688   0.673
 9197SOL    HW128490   3.598   4.660   0.605
 9197SOL    HW228491   3.577   4.730   0.751
 9198SOL     OW28492   5.720   4.505   5.983
 9198SOL    HW128493   5.768   4.531   5.900
 9198SOL    HW228494   5.785   4.467   6.049
 9199SOL     OW28495   0.418   3.142   6.264
 9199SOL    HW128496   0.320   3.134   6.277
 9199SOL    HW228497   0.453   3.060   6.220
 9200SOL     OW28498   2.031   5.772   6.692
 9200SOL    HW128499   1.999   5.780   6.598
 9200SOL    HW228500   1.975   5.705   6.741
 9201SOL     OW28501   0.529   3.968   0.944
 9201SOL    HW128502   0.610   3.914   0.921
 9201SOL    HW228503   0.462   3.960   0.870
 9202SOL     OW28504   1.060   5.640   4.369
 9202SOL    HW128505   0.982   5.620   4.428
 9202SOL    HW228506   1.137   5.581   4.396
 9203SOL     OW28507   5.198   2.384   6.168
 9203SOL    HW128508   5.138   2.331   6.107
 9203SOL    HW228509   5.254   2.447   6.114
 9204SOL     OW28510   5.120   3.976   3.302
 9204SOL    HW128511   5.025   3.948   3.319
 9204SOL    HW228512   5.182   3.901   3.323
 9205SOL     OW28513   5.379   4.027   2.489
 9205SOL    HW128514   5.344   4.120   2.495
 9205SOL    HW228515   5.477   4.027   2.510
 9206SOL     OW28516   2.993   0.307   4.352
 9206SOL    HW128517   3.072   0.263   4.310
 9206SOL    HW228518   3.024   0.385   4.407
 9207SOL     OW28519   3.485   6.516   5.615
 9207SOL    HW128520   3.508   6.450   5.687
 9207SOL    HW228521   3.405   6.569   5.643
 9208SOL     OW28522   5.555   4.569   2.317
 9208SOL    HW128523   5.489   4.546   2.246
 9208SOL    HW228524   5.577   4.667   2.312
 9209SOL     OW28525   4.408   0.513   1.880
 9209SOL    HW128526   4.461   0.498   1.797
 9209SOL    HW228527   4.415   0.432   1.939
 9210SOL     OW28528   0.608   0.982   1.481
 9210SOL    HW128529   0.651   1.061   1.437
 9210SOL    HW228530   0.540   1.014   1.547
 9211SOL     OW28531   5.058   2.528   5.941
 9211SOL    HW128532   5.054   2.557   5.846
 9211SOL    HW228533   5.152   2.503   5.965
 9212SOL     OW28534   4.775   4.324   4.802
 9212SOL    HW128535   4.805   4.345   4.709
 9212SOL    HW228536   4.834   4.372   4.868
 9213SOL     OW28537   4.861   5.899   4.467
 9213SOL    HW128538   4.876   5.922   4.563
 9213SOL    HW228539   4.788   5.831   4.460
 9214SOL     OW28540   0.224   2.682   5.504
 9214SOL    HW128541   0.274   2.730   5.431
 9214SOL    HW228542   0.188   2.596   5.467
 9215SOL     OW28543   0.530   4.453   2.581
 9215SOL    HW128544   0.563   4.458   2.675
 9215SOL    HW228545   0.588   4.390   2.528
 9216SOL     OW28546   2.480   6.912   4.620
 9216SOL    HW128547   2.560   6.929   4.561
 9216SOL    HW228548   2.470   6.814   4.634
 9217SOL     OW28549   5.463   1.423   6.775
 9217SOL    HW128550   5.492   1.344   6.721
 9217SOL    HW228551   5.454   1.503   6.716
 9218SOL     OW28552   4.227   1.204   6.647
 9218SOL    HW128553   4.159   1.202   6.721
 9218SOL    HW228554   4.196   1.266   6.575
 9219SOL     OW28555   4.662   3.303   5.566
 9219SOL    HW128556   4.705   3.227   5.518
 9219SOL    HW228557   4.727   3.377   5.579
 9220SOL     OW28558   2.002   5.891   2.431
 9220SOL    HW128559   2.061   5.858   2.505
 9220SOL    HW228560   1.908   5.863   2.448
 9221SOL     OW28561   2.579   0.189   5.522
 9221SOL    HW128562   2.558   0.091   5.530
 9221SOL    HW228563   2.504   0.235   5.474
 9222SOL     OW28564   2.667   4.666   4.849
 9222SOL    HW128565   2.649   4.751   4.800
 9222SOL    HW228566   2.734   4.682   4.921
 9223SOL     OW28567   1.088   2.461   3.787
 9223SOL    HW128568   0.988   2.468   3.796
 9223SOL    HW228569   1.116   2.366   3.796
 9224SOL     OW28570   1.296   3.010   3.656
 9224SOL    HW128571   1.246   3.067   3.591
 9224SOL    HW228572   1.341   2.935   3.606
 9225SOL     OW28573   3.812   6.185   6.178
 9225SOL    HW128574   3.871   6.141   6.110
 9225SOL    HW228575   3.844   6.278   6.196
 9226SOL     OW28576   1.310   0.584   1.378
 9226SOL    HW128577   1.374   0.583   1.301
 9226SOL    HW228578   1.360   0.568   1.463
 9227SOL     OW28579   2.305   5.747   1.372
 9227SOL    HW128580   2.381   5.807   1.397
 9227SOL    HW228581   2.259   5.783   1.290
 9228SOL     OW28582   2.010   2.241   6.410
 9228SOL    HW128583   1.929   2.186   6.392
 9228SOL    HW228584   1.987   2.338   6.401
 9229SOL     OW28585   0.785   4.860   6.334
 9229SOL    HW128586   0.735   4.891   6.253
 9229SOL    HW228587   0.734   4.787   6.379
 9230SOL     OW28588   4.830   2.611   3.399
 9230SOL    HW128589   4.746   2.564   3.370
 9230SOL    HW228590   4.844   2.692   3.342
 9231SOL     OW28591   0.680   4.584   5.226
 9231SOL    HW128592   0.731   4.498   5.228
 9231SOL    HW228593   0.716   4.646   5.296
 9232SOL     OW28594   2.877   5.815   1.118
 9232SOL    HW128595   2.907   5.807   1.213
 9232SOL    HW228596   2.777   5.811   1.114
 9233SOL     OW28597   1.304   6.797   0.357
 9233SOL    HW128598   1.257   6.859   0.294
 9233SOL    HW228599   1.263   6.706   0.349
 9234SOL     OW28600   2.623   5.715   0.588
 9234SOL    HW128601   2.595   5.806   0.621
 9234SOL    HW228602   2.552   5.678   0.528
 9235SOL     OW28603   2.430   2.719   3.109
 9235SOL    HW128604   2.345   2.721   3.163
 9235SOL    HW228605   2.416   2.770   3.024
 9236SOL     OW28606   2.493   3.185   6.691
 9236SOL    HW128607   2.543   3.238   6.623
 9236SOL    HW228608   2.521   3.211   6.783
 9237SOL     OW28609   0.029   5.750   2.587
 9237SOL    HW128610   0.033   5.835   2.640
 9237SOL    HW228611   0.033   5.672   2.649
 9238SOL     OW28612   2.910   2.308   6.170
 9238SOL    HW128613   2.862   2.222   6.152
 9238SOL    HW228614   3.001   2.305   6.128
 9239SOL     OW28615   6.732   4.633   6.451
 9239SOL    HW128616   6.665   4.559   6.458
 9239SOL    HW228617   6.710   4.691   6.373
 9240SOL     OW28618   5.113   2.946   2.642
 9240SOL    HW128619   5.027   2.982   2.678
 9240SOL    HW228620   5.095   2.876   2.574
 9241SOL     OW28621   0.294   5.568   0.645
 9241SOL    HW128622   0.361   5.641   0.658
 9241SOL    HW228623   0.293   5.541   0.549
 9242SOL     OW28624   2.267   3.420   1.619
 9242SOL    HW128625   2.312   3.463   1.541
 9242SOL    HW228626   2.310   3.452   1.704
 9243SOL     OW28627   0.869   0.306   1.988
 9243SOL    HW128628   0.876   0.238   1.915
 9243SOL    HW228629   0.926   0.279   2.065
 9244SOL     OW28630   2.463   6.580   6.246
 9244SOL    HW128631   2.376   6.592   6.198
 9244SOL    HW228632   2.539   6.605   6.185
 9245SOL     OW28633   0.237   4.575   3.958
 9245SOL    HW128634   0.297   4.495   3.965
 9245SOL    HW228635   0.247   4.630   4.041
 9246SOL     OW28636   6.107   0.319   3.757
 9246SOL    HW128637   6.147   0.405   3.786
 9246SOL    HW228638   6.110   0.312   3.657
 9247SOL     OW28639   4.004   5.124   3.522
 9247SOL    HW128640   3.973   5.077   3.439
 9247SOL    HW228641   4.066   5.198   3.497
 9248SOL     OW28642   3.035   1.936   5.333
 9248SOL    HW128643   2.991   1.904   5.249
 9248SOL    HW228644   2.969   1.935   5.408
 9249SOL     OW28645   4.515   5.265   1.229
 9249SOL    HW128646   4.475   5.303   1.145
 9249SOL    HW228647   4.614   5.280   1.227
 9250SOL     OW28648   6.873   2.982   4.096
 9250SOL    HW128649   6.925   2.899   4.113
 9250SOL    HW228650   6.834   3.015   4.182
 9251SOL     OW28651   4.507   1.976   1.935
 9251SOL    HW128652   4.420   2.026   1.940
 9251SOL    HW228653   4.489   1.883   1.904
 9252SOL     OW28654   5.625   0.386   4.836
 9252SOL    HW128655   5.662   0.479   4.833
 9252SOL    HW228656   5.565   0.376   4.916
 9253SOL     OW28657   5.066   5.252   6.034
 9253SOL    HW128658   4.993   5.319   6.040
 9253SOL    HW228659   5.155   5.298   6.040
 9254SOL     OW28660   4.898   5.148   2.617
 9254SOL    HW128661   4.932   5.063   2.658
 9254SOL    HW228662   4.825   5.126   2.552
 9255SOL     OW28663   5.328   3.324   6.498
 9255SOL    HW128664   5.260   3.337   6.571
 9255SOL    HW228665   5.400   3.263   6.531
 9256SOL     OW28666   2.151   0.144   1.563
 9256SOL    HW128667   2.087   0.072   1.537
 9256SOL    HW228668   2.239   0.128   1.518
 9257SOL     OW28669   5.877   5.818   2.929
 9257SOL    HW128670   5.806   5.750   2.909
 9257SOL    HW228671   5.880   5.834   3.028
 9258SOL     OW28672   4.266   3.290   1.332
 9258SOL    HW128673   4.246   3.293   1.430
 9258SOL    HW228674   4.284   3.383   1.298
 9259SOL     OW28675   1.733   1.080   0.275
 9259SOL    HW128676   1.677   1.154   0.313
 9259SOL    HW228677   1.824   1.082   0.317
 9260SOL     OW28678   6.768   2.972   5.779
 9260SOL    HW128679   6.866   2.958   5.767
 9260SOL    HW228680   6.736   2.922   5.859
 9261SOL     OW28681   4.737   0.970   6.269
 9261SOL    HW128682   4.691   0.896   6.318
 9261SOL    HW228683   4.834   0.969   6.291
 9262SOL     OW28684   1.167   6.142   5.287
 9262SOL    HW128685   1.076   6.170   5.316
 9262SOL    HW228686   1.199   6.068   5.346
 9263SOL     OW28687   3.018   5.260   2.320
 9263SOL    HW128688   3.010   5.347   2.370
 9263SOL    HW228689   3.010   5.184   2.384
 9264SOL     OW28690   4.534   3.311   0.293
 9264SOL    HW128691   4.555   3.222   0.333
 9264SOL    HW228692   4.447   3.306   0.244
 9265SOL     OW28693   3.958   2.743   6.383
 9265SOL    HW128694   4.040   2.762   6.436
 9265SOL    HW228695   3.910   2.828   6.363
 9266SOL     OW28696   0.516   5.871   1.406
 9266SOL    HW128697   0.539   5.909   1.496
 9266SOL    HW228698   0.582   5.903   1.339
 9267SOL     OW28699   0.586   2.226   4.162
 9267SOL    HW128700   0.593   2.127   4.168
 9267SOL    HW228701   0.631   2.268   4.240
 9268SOL     OW28702   1.044   6.683   2.421
 9268SOL    HW128703   1.060   6.649   2.514
 9268SOL    HW228704   1.077   6.617   2.355
 9269SOL     OW28705   3.835   0.043   6.421
 9269SOL    HW128706   3.795   0.132   6.401
 9269SOL    HW228707   3.783   6.997   6.375
 9270SOL     OW28708   4.033   0.575   5.521
 9270SOL    HW128709   4.035   0.476   5.502
 9270SOL    HW228710   3.959   0.596   5.584
 9271SOL     OW28711   6.694   0.256   0.380
 9271SOL    HW128712   6.738   0.243   0.292
 9271SOL    HW228713   6.672   0.167   0.420
 9272SOL     OW28714   0.842   6.022   6.292
 9272SOL    HW128715   0.844   6.033   6.391
 9272SOL    HW228716   0.760   5.970   6.265
 9273SOL     OW28717   5.875   5.992   2.623
 9273SOL    HW128718   5.797   5.937   2.655
 9273SOL    HW228719   5.902   6.056   2.695
 9274SOL     OW28720   6.756   2.538   6.755
 9274SOL    HW128721   6.660   2.564   6.752
 9274SOL    HW228722   6.782   2.516   6.849
 9275SOL     OW28723   0.133   6.596   0.034
 9275SOL    HW128724   0.192   6.664   0.078
 9275SOL    HW228725   0.136   6.609   6.961
 9276SOL     OW28726   2.062   5.117   6.720
 9276SOL    HW128727   1.989   5.110   6.651
 9276SOL    HW228728   2.126   5.189   6.693
 9277SOL     OW28729   3.630   5.530   2.277
 9277SOL    HW128730   3.615   5.443   2.229
 9277SOL    HW228731   3.724   5.534   2.310
 9278SOL     OW28732   1.209   0.740   5.645
 9278SOL    HW128733   1.282   0.782   5.699
 9278SOL    HW228734   1.246   0.666   5.590
 9279SOL     OW28735   3.745   6.959   2.025
 9279SOL    HW128736   3.791   0.014   2.060
 9279SOL    HW228737   3.648   6.978   2.013
 9280SOL     OW28738   2.521   1.749   2.545
 9280SOL    HW128739   2.583   1.732   2.468
 9280SOL    HW228740   2.428   1.763   2.511
 9281SOL     OW28741   3.702   4.060   6.204
 9281SOL    HW128742   3.753   4.146   6.212
 9281SOL    HW228743   3.619   4.075   6.151
 9282SOL     OW28744   4.262   1.046   4.337
 9282SOL    HW128745   4.344   1.088   4.378
 9282SOL    HW228746   4.281   1.022   4.242
 9283SOL     OW28747   5.200   0.188   5.524
 9283SOL    HW128748   5.294   0.207   5.551
 9283SOL    HW228749   5.198   0.114   5.458
 9284SOL     OW28750   2.765   3.648   5.615
 9284SOL    HW128751   2.685   3.629   5.672
 9284SOL    HW228752   2.736   3.681   5.526
 9285SOL     OW28753   5.376   3.352   0.870
 9285SOL    HW128754   5.332   3.440   0.852
 9285SOL    HW228755   5.340   3.315   0.956
 9286SOL     OW28756   5.295   5.563   0.580
 9286SOL    HW128757   5.358   5.486   0.571
 9286SOL    HW228758   5.274   5.578   0.676
 9287SOL     OW28759   3.811   4.359   5.660
 9287SOL    HW128760   3.861   4.279   5.693
 9287SOL    HW228761   3.722   4.331   5.625
 9288SOL     OW28762   4.703   2.012   2.731
 9288SOL    HW128763   4.639   2.008   2.654
 9288SOL    HW228764   4.795   2.029   2.698
 9289SOL     OW28765   4.287   0.986   6.838
 9289SOL    HW128766   4.378   0.944   6.832
 9289SOL    HW228767   4.281   1.060   6.771
 9290SOL     OW28768   6.252   0.939   3.752
 9290SOL    HW128769   6.318   0.967   3.822
 9290SOL    HW228770   6.235   0.840   3.761
 9291SOL     OW28771   1.681   6.012   6.230
 9291SOL    HW128772   1.668   6.008   6.329
 9291SOL    HW228773   1.773   6.046   6.211
 9292SOL     OW28774   1.855   1.351   7.010
 9292SOL    HW128775   1.897   1.383   0.069
 9292SOL    HW228776   1.761   1.321   0.003
 9293SOL     OW28777   5.356   3.534   6.332
 9293SOL    HW128778   5.320   3.458   6.386
 9293SOL    HW228779   5.456   3.533   6.335
 9294SOL     OW28780   5.033   0.945   6.590
 9294SOL    HW128781   4.961   1.008   6.620
 9294SOL    HW228782   5.038   0.944   6.490
 9295SOL     OW28783   6.646   0.782   4.964
 9295SOL    HW128784   6.650   0.718   5.041
 9295SOL    HW228785   6.617   0.872   4.997
 9296SOL     OW28786   1.956   5.170   0.400
 9296SOL    HW128787   1.927   5.246   0.458
 9296SOL    HW228788   2.056   5.164   0.400
 9297SOL     OW28789   0.390   6.517   3.391
 9297SOL    HW128790   0.374   6.577   3.469
 9297SOL    HW228791   0.326   6.441   3.393
 9298SOL     OW28792   1.242   6.382   6.356
 9298SOL    HW128793   1.244   6.477   6.385
 9298SOL    HW228794   1.330   6.339   6.375
 9299SOL     OW28795   0.982   1.664   4.013
 9299SOL    HW128796   1.043   1.698   3.941
 9299SOL    HW228797   0.929   1.741   4.050
 9300SOL     OW28798   0.262   5.240   5.244
 9300SOL    HW128799   0.359   5.222   5.262
 9300SOL    HW228800   0.231   5.315   5.302
 9301SOL     OW28801   6.523   4.310   5.026
 9301SOL    HW128802   6.427   4.336   5.015
 9301SOL    HW228803   6.571   4.379   5.081
 9302SOL     OW28804   1.999   3.251   4.422
 9302SOL    HW128805   1.920   3.200   4.389
 9302SOL    HW228806   2.005   3.243   4.521
 9303SOL     OW28807   2.754   4.226   0.064
 9303SOL    HW128808   2.836   4.198   0.014
 9303SOL    HW228809   2.673   4.200   0.011
 9304SOL     OW28810   4.499   5.034   0.480
 9304SOL    HW128811   4.468   4.954   0.532
 9304SOL    HW228812   4.532   5.005   0.390
 9305SOL     OW28813   3.665   1.215   0.819
 9305SOL    HW128814   3.584   1.203   0.875
 9305SOL    HW228815   3.684   1.130   0.770
 9306SOL     OW28816   0.427   4.254   5.480
 9306SOL    HW128817   0.498   4.186   5.463
 9306SOL    HW228818   0.444   4.298   5.568
 9307SOL     OW28819   1.530   4.249   0.318
 9307SOL    HW128820   1.456   4.313   0.339
 9307SOL    HW228821   1.491   4.162   0.286
 9308SOL     OW28822   1.389   4.532   1.780
 9308SOL    HW128823   1.325   4.462   1.812
 9308SOL    HW228824   1.481   4.493   1.775
 9309SOL     OW28825   4.234   6.376   5.731
 9309SOL    HW128826   4.169   6.453   5.726
 9309SOL    HW228827   4.237   6.330   5.642
 9310SOL     OW28828   5.545   6.297   5.604
 9310SOL    HW128829   5.499   6.233   5.543
 9310SOL    HW228830   5.625   6.253   5.644
 9311SOL     OW28831   5.362   4.772   1.230
 9311SOL    HW128832   5.326   4.814   1.314
 9311SOL    HW228833   5.381   4.843   1.163
 9312SOL     OW28834   1.205   2.238   0.999
 9312SOL    HW128835   1.296   2.248   0.960
 9312SOL    HW228836   1.151   2.319   0.980
 9313SOL     OW28837   0.371   0.094   1.413
 9313SOL    HW128838   0.370   0.163   1.341
 9313SOL    HW228839   0.439   0.024   1.391
 9314SOL     OW28840   6.651   3.762   0.874
 9314SOL    HW128841   6.593   3.685   0.901
 9314SOL    HW228842   6.688   3.806   0.955
 9315SOL     OW28843   6.222   0.378   6.063
 9315SOL    HW128844   6.289   0.405   5.994
 9315SOL    HW228845   6.222   0.446   6.138
 9316SOL     OW28846   5.750   0.005   5.402
 9316SOL    HW128847   5.823   7.013   5.337
 9316SOL    HW228848   5.748   0.103   5.423
 9317SOL     OW28849   4.078   5.437   3.028
 9317SOL    HW128850   4.016   5.463   2.954
 9317SOL    HW228851   4.025   5.407   3.107
 9318SOL     OW28852   4.378   6.911   0.024
 9318SOL    HW128853   4.321   6.940   0.101
 9318SOL    HW228854   4.320   6.871   6.979
 9319SOL     OW28855   2.619   2.991   0.634
 9319SOL    HW128856   2.683   2.981   0.558
 9319SOL    HW228857   2.535   2.941   0.613
 9320SOL     OW28858   4.630   0.421   5.620
 9320SOL    HW128859   4.595   0.328   5.610
 9320SOL    HW228860   4.554   0.484   5.638
 9321SOL     OW28861   1.240   1.310   5.907
 9321SOL    HW128862   1.234   1.219   5.867
 9321SOL    HW228863   1.337   1.335   5.919
 9322SOL     OW28864   0.050   4.442   6.022
 9322SOL    HW128865   0.047   4.370   6.091
 9322SOL    HW228866   0.004   4.411   5.939
 9323SOL     OW28867   2.481   1.983   5.044
 9323SOL    HW128868   2.485   2.076   5.080
 9323SOL    HW228869   2.398   1.938   5.076
 9324SOL     OW28870   2.142   3.918   2.601
 9324SOL    HW128871   2.179   3.887   2.513
 9324SOL    HW228872   2.189   4.002   2.629
 9325SOL     OW28873   0.304   6.521   0.774
 9325SOL    HW128874   0.402   6.505   0.779
 9325SOL    HW228875   0.256   6.434   0.766
 9326SOL     OW28876   3.311   4.791   7.014
 9326SOL    HW128877   3.387   4.738   0.026
 9326SOL    HW228878   3.324   4.802   6.916
 9327SOL     OW28879   4.553   0.016   2.772
 9327SOL    HW128880   4.627   0.062   2.821
 9327SOL    HW228881   4.568   0.023   2.674
 9328SOL     OW28882   1.970   0.489   5.053
 9328SOL    HW128883   1.890   0.547   5.039
 9328SOL    HW228884   1.956   0.432   5.134
 9329SOL     OW28885   6.621   5.934   0.752
 9329SOL    HW128886   6.650   5.839   0.754
 9329SOL    HW228887   6.649   5.975   0.665
 9330SOL     OW28888   0.169   0.212   6.264
 9330SOL    HW128889   0.213   0.179   6.348
 9330SOL    HW228890   0.115   0.138   6.224
 9331SOL     OW28891   2.272   1.626   6.309
 9331SOL    HW128892   2.352   1.605   6.366
 9331SOL    HW228893   2.200   1.666   6.366
 9332SOL     OW28894   4.532   5.697   0.844
 9332SOL    HW128895   4.518   5.796   0.837
 9332SOL    HW228896   4.498   5.653   0.762
 9333SOL     OW28897   3.487   5.448   6.904
 9333SOL    HW128898   3.531   5.537   6.896
 9333SOL    HW228899   3.459   5.433   6.999
 9334SOL     OW28900   5.154   0.311   4.651
 9334SOL    HW128901   5.084   0.257   4.605
 9334SOL    HW228902   5.191   0.379   4.588
 9335SOL     OW28903   1.578   1.278   0.374
 9335SOL    HW128904   1.639   1.310   0.446
 9335SOL    HW228905   1.502   1.343   0.364
 9336SOL     OW28906   5.625   0.340   4.176
 9336SOL    HW128907   5.723   0.349   4.196
 9336SOL    HW228908   5.581   0.286   4.249
 9337SOL     OW28909   5.381   0.960   6.324
 9337SOL    HW128910   5.437   0.923   6.250
 9337SOL    HW228911   5.392   0.904   6.406
 9338SOL     OW28912   6.941   6.467   1.056
 9338SOL    HW128913   6.880   6.532   1.102
 9338SOL    HW228914   0.009   6.487   1.081
 9339SOL     OW28915   5.599   5.804   0.499
 9339SOL    HW128916   5.625   5.896   0.530
 9339SOL    HW228917   5.501   5.803   0.480
 9340SOL     OW28918   4.208   4.697   2.784
 9340SOL    HW128919   4.251   4.632   2.847
 9340SOL    HW228920   4.233   4.672   2.690
 9341SOL     OW28921   6.513   4.140   0.598
 9341SOL    HW128922   6.593   4.164   0.543
 9341SOL    HW228923   6.503   4.205   0.673
 9342SOL     OW28924   2.694   0.669   4.461
 9342SOL    HW128925   2.703   0.751   4.517
 9342SOL    HW228926   2.683   0.694   4.365
 9343SOL     OW28927   4.842   3.525   2.049
 9343SOL    HW128928   4.764   3.475   2.013
 9343SOL    HW228929   4.921   3.463   2.056
 9344SOL     OW28930   5.038   5.819   6.735
 9344SOL    HW128931   4.966   5.750   6.725
 9344SOL    HW228932   5.015   5.899   6.680
 9345SOL     OW28933   6.904   4.732   0.726
 9345SOL    HW128934   6.882   4.640   0.759
 9345SOL    HW228935   6.865   4.800   0.787
 9346SOL     OW28936   5.106   6.850   1.769
 9346SOL    HW128937   5.009   6.874   1.763
 9346SOL    HW228938   5.125   6.772   1.709
 9347SOL     OW28939   3.175   5.499   0.579
 9347SOL    HW128940   3.097   5.458   0.627
 9347SOL    HW228941   3.169   5.599   0.586
 9348SOL     OW28942   2.802   5.430   3.159
 9348SOL    HW128943   2.816   5.352   3.098
 9348SOL    HW228944   2.785   5.512   3.105
 9349SOL     OW28945   6.324   5.877   2.154
 9349SOL    HW128946   6.412   5.905   2.116
 9349SOL    HW228947   6.328   5.780   2.179
 9350SOL     OW28948   0.541   1.853   4.450
 9350SOL    HW128949   0.555   1.760   4.483
 9350SOL    HW228950   0.452   1.887   4.481
 9351SOL     OW28951   2.738   0.504   6.459
 9351SOL    HW128952   2.798   0.567   6.508
 9351SOL    HW228953   2.769   0.495   6.365
 9352SOL     OW28954   2.541   2.953   5.983
 9352SOL    HW128955   2.629   2.999   5.989
 9352SOL    HW228956   2.469   3.020   5.964
 9353SOL     OW28957   1.998   3.996   2.085
 9353SOL    HW128958   1.982   3.899   2.065
 9353SOL    HW228959   1.911   4.040   2.109
 9354SOL     OW28960   6.395   1.995   0.654
 9354SOL    HW128961   6.343   1.909   0.650
 9354SOL    HW228962   6.468   1.993   0.587
 9355SOL     OW28963   6.302   1.266   4.296
 9355SOL    HW128964   6.356   1.346   4.324
 9355SOL    HW228965   6.302   1.199   4.370
 9356SOL     OW28966   4.283   5.264   1.419
 9356SOL    HW128967   4.245   5.355   1.432
 9356SOL    HW228968   4.364   5.270   1.361
 9357SOL     OW28969   2.851   3.711   6.685
 9357SOL    HW128970   2.752   3.701   6.697
 9357SOL    HW228971   2.898   3.687   6.769
 9358SOL     OW28972   6.134   3.569   1.878
 9358SOL    HW128973   6.149   3.541   1.783
 9358SOL    HW228974   6.209   3.629   1.907
 9359SOL     OW28975   0.888   3.248   5.825
 9359SOL    HW128976   0.956   3.190   5.779
 9359SOL    HW228977   0.825   3.286   5.758
 9360SOL     OW28978   1.115   6.790   5.995
 9360SOL    HW128979   1.117   6.856   5.920
 9360SOL    HW228980   1.123   6.697   5.958
 9361SOL     OW28981   2.748   6.523   3.814
 9361SOL    HW128982   2.651   6.546   3.803
 9361SOL    HW228983   2.801   6.608   3.822
 9362SOL     OW28984   1.520   1.769   1.879
 9362SOL    HW128985   1.459   1.706   1.928
 9362SOL    HW228986   1.611   1.766   1.920
 9363SOL     OW28987   4.097   5.352   1.737
 9363SOL    HW128988   4.075   5.346   1.834
 9363SOL    HW228989   4.086   5.446   1.706
 9364SOL     OW28990   4.557   3.644   6.106
 9364SOL    HW128991   4.545   3.633   6.205
 9364SOL    HW228992   4.487   3.590   6.059
 9365SOL     OW28993   2.861   1.966   5.557
 9365SOL    HW128994   2.847   2.064   5.570
 9365SOL    HW228995   2.789   1.915   5.604
 9366SOL     OW28996   2.775   1.266   0.391
 9366SOL    HW128997   2.817   1.238   0.477
 9366SOL    HW228998   2.801   1.361   0.371
 9367SOL     OW28999   0.122   5.897   3.349
 9367SOL    HW129000   0.079   5.870   3.262
 9367SOL    HW229001   0.180   5.822   3.381
 9368SOL     OW29002   2.396   1.636   3.379
 9368SOL    HW129003   2.378   1.695   3.300
 9368SOL    HW229004   2.472   1.574   3.357
 9369SOL     OW29005   0.173   0.828   5.749
 9369SOL    HW129006   0.188   0.776   5.834
 9369SOL    HW229007   0.084   0.873   5.752
 9370SOL     OW29008   4.657   0.304   2.491
 9370SOL    HW129009   4.696   0.338   2.405
 9370SOL    HW229010   4.728   0.305   2.561
 9371SOL     OW29011   2.149   4.855   0.928
 9371SOL    HW129012   2.212   4.927   0.900
 9371SOL    HW229013   2.185   4.766   0.901
 9372SOL     OW29014   5.869   6.121   2.893
 9372SOL    HW129015   5.803   6.052   2.920
 9372SOL    HW229016   5.841   6.210   2.929
 9373SOL     OW29017   4.076   2.197   2.683
 9373SOL    HW129018   3.985   2.188   2.724
 9373SOL    HW229019   4.140   2.233   2.751
 9374SOL     OW29020   6.535   3.850   0.639
 9374SOL    HW129021   6.555   3.946   0.619
 9374SOL    HW229022   6.580   3.824   0.725
 9375SOL     OW29023   6.577   1.848   3.227
 9375SOL    HW129024   6.579   1.885   3.135
 9375SOL    HW229025   6.585   1.923   3.293
 9376SOL     OW29026   2.471   4.271   1.751
 9376SOL    HW129027   2.439   4.219   1.671
 9376SOL    HW229028   2.563   4.240   1.774
 9377SOL     OW29029   1.490   5.661   3.856
 9377SOL    HW129030   1.479   5.702   3.946
 9377SOL    HW229031   1.420   5.698   3.793
 9378SOL     OW29032   0.582   0.446   5.284
 9378SOL    HW129033   0.599   0.400   5.197
 9378SOL    HW229034   0.563   0.379   5.355
 9379SOL     OW29035   4.705   5.652   5.531
 9379SOL    HW129036   4.622   5.699   5.503
 9379SOL    HW229037   4.688   5.553   5.534
 9380SOL     OW29038   5.906   4.634   4.814
 9380SOL    HW129039   5.995   4.612   4.853
 9380SOL    HW229040   5.866   4.552   4.773
 9381SOL     OW29041   2.856   2.787   5.866
 9381SOL    HW129042   2.918   2.762   5.940
 9381SOL    HW229043   2.800   2.866   5.894
 9382SOL     OW29044   3.531   1.395   3.139
 9382SOL    HW129045   3.615   1.340   3.140
 9382SOL    HW229046   3.500   1.410   3.232
 9383SOL     OW29047   1.702   6.071   4.427
 9383SOL    HW129048   1.725   6.069   4.524
 9383SOL    HW229049   1.648   6.152   4.407
 9384SOL     OW29050   3.095   5.944   1.503
 9384SOL    HW129051   3.054   5.871   1.449
 9384SOL    HW229052   3.035   5.965   1.581
 9385SOL     OW29053   4.477   0.637   3.334
 9385SOL    HW129054   4.420   0.557   3.314
 9385SOL    HW229055   4.419   0.718   3.342
 9386SOL     OW29056   2.387   6.225   4.300
 9386SOL    HW129057   2.318   6.250   4.232
 9386SOL    HW229058   2.341   6.191   4.383
 9387SOL     OW29059   2.952   1.738   0.238
 9387SOL    HW129060   2.876   1.803   0.224
 9387SOL    HW229061   3.035   1.789   0.262
 9388SOL     OW29062   1.909   5.818   3.125
 9388SOL    HW129063   1.814   5.790   3.138
 9388SOL    HW229064   1.952   5.832   3.215
 9389SOL     OW29065   1.309   6.494   5.054
 9389SOL    HW129066   1.284   6.576   5.106
 9389SOL    HW229067   1.320   6.417   5.117
 9390SOL     OW29068   3.473   5.290   4.742
 9390SOL    HW129069   3.379   5.272   4.771
 9390SOL    HW229070   3.501   5.223   4.674
 9391SOL     OW29071   2.459   0.864   4.893
 9391SOL    HW129072   2.492   0.958   4.884
 9391SOL    HW229073   2.364   0.858   4.862
 9392SOL     OW29074   6.828   0.069   5.374
 9392SOL    HW129075   6.750   0.130   5.387
 9392SOL    HW229076   6.815   0.014   5.292
 9393SOL     OW29077   2.600   0.121   5.111
 9393SOL    HW129078   2.587   0.066   5.028
 9393SOL    HW229079   2.685   0.174   5.102
 9394SOL     OW29080   0.067   1.575   2.079
 9394SOL    HW129081   0.145   1.589   2.140
 9394SOL    HW229082   7.016   1.538   2.132
 9395SOL     OW29083   2.470   1.526   0.439
 9395SOL    HW129084   2.535   1.580   0.386
 9395SOL    HW229085   2.519   1.474   0.509
 9396SOL     OW29086   1.727   5.490   3.546
 9396SOL    HW129087   1.719   5.404   3.496
 9396SOL    HW229088   1.644   5.544   3.534
 9397SOL     OW29089   3.316   0.240   6.945
 9397SOL    HW129090   3.316   0.188   0.005
 9397SOL    HW229091   3.225   0.234   6.903
 9398SOL     OW29092   0.586   0.189   5.455
 9398SOL    HW129093   0.684   0.201   5.469
 9398SOL    HW229094   0.543   0.154   5.538
 9399SOL     OW29095   6.750   1.956   6.287
 9399SOL    HW129096   6.753   1.999   6.377
 9399SOL    HW229097   6.839   1.965   6.242
 9400SOL     OW29098   4.222   1.699   2.030
 9400SOL    HW129099   4.167   1.760   2.088
 9400SOL    HW229100   4.309   1.680   2.075
 9401SOL     OW29101   5.284   6.831   3.531
 9401SOL    HW129102   5.322   6.920   3.555
 9401SOL    HW229103   5.215   6.805   3.598
 9402SOL     OW29104   1.147   4.724   3.552
 9402SOL    HW129105   1.124   4.773   3.636
 9402SOL    HW229106   1.063   4.688   3.510
 9403SOL     OW29107   5.848   1.701   2.225
 9403SOL    HW129108   5.934   1.682   2.273
 9403SOL    HW229109   5.789   1.757   2.283
 9404SOL     OW29110   1.082   3.560   6.315
 9404SOL    HW129111   1.142   3.630   6.277
 9404SOL    HW229112   1.006   3.604   6.363
 9405SOL     OW29113   0.797   5.902   2.028
 9405SOL    HW129114   0.776   5.881   1.933
 9405SOL    HW229115   0.770   5.826   2.086
 9406SOL     OW29116   6.784   2.790   5.997
 9406SOL    HW129117   6.838   2.711   5.968
 9406SOL    HW229118   6.837   2.844   6.063
 9407SOL     OW29119   2.669   5.295   3.553
 9407SOL    HW129120   2.644   5.392   3.547
 9407SOL    HW229121   2.764   5.284   3.526
 9408SOL     OW29122   3.921   1.844   6.467
 9408SOL    HW129123   3.976   1.860   6.549
 9408SOL    HW229124   3.897   1.747   6.461
 9409SOL     OW29125   5.920   4.434   6.784
 9409SOL    HW129126   5.894   4.385   6.867
 9409SOL    HW229127   5.875   4.524   6.782
 9410SOL     OW29128   3.107   6.242   1.847
 9410SOL    HW129129   3.149   6.280   1.929
 9410SOL    HW229130   3.139   6.292   1.767
 9411SOL     OW29131   3.614   3.618   2.116
 9411SOL    HW129132   3.533   3.565   2.089
 9411SOL    HW229133   3.586   3.697   2.170
 9412SOL     OW29134   0.307   3.084   1.809
 9412SOL    HW129135   0.245   3.042   1.876
 9412SOL    HW229136   0.387   3.025   1.797
 9413SOL     OW29137   3.223   6.484   4.105
 9413SOL    HW129138   3.248   6.448   4.195
 9413SOL    HW229139   3.305   6.489   4.047
 9414SOL     OW29140   3.179   0.952   3.155
 9414SOL    HW129141   3.253   0.895   3.120
 9414SOL    HW229142   3.114   0.895   3.206
 9415SOL     OW29143   2.784   0.178   1.606
 9415SOL    HW129144   2.693   0.215   1.625
 9415SOL    HW229145   2.818   0.129   1.687
 9416SOL     OW29146   0.672   1.899   1.069
 9416SOL    HW129147   0.704   1.851   0.987
 9416SOL    HW229148   0.583   1.862   1.097
 9417SOL     OW29149   3.777   6.567   5.994
 9417SOL    HW129150   3.803   6.492   6.054
 9417SOL    HW229151   3.801   6.654   6.037
 9418SOL     OW29152   3.473   6.137   1.481
 9418SOL    HW129153   3.463   6.167   1.576
 9418SOL    HW229154   3.406   6.185   1.424
 9419SOL     OW29155   3.341   5.346   5.681
 9419SOL    HW129156   3.402   5.285   5.731
 9419SOL    HW229157   3.370   5.441   5.694
 9420SOL     OW29158   6.724   2.727   5.402
 9420SOL    HW129159   6.685   2.783   5.328
 9420SOL    HW229160   6.806   2.772   5.438
 9421SOL     OW29161   1.850   6.836   4.906
 9421SOL    HW129162   1.919   6.780   4.858
 9421SOL    HW229163   1.770   6.779   4.926
 9422SOL     OW29164   5.102   6.136   3.233
 9422SOL    HW129165   5.069   6.062   3.292
 9422SOL    HW229166   5.067   6.224   3.268
 9423SOL     OW29167   4.007   0.486   3.893
 9423SOL    HW129168   3.985   0.399   3.938
 9423SOL    HW229169   3.929   0.516   3.839
 9424SOL     OW29170   4.857   0.424   4.885
 9424SOL    HW129171   4.908   0.508   4.865
 9424SOL    HW229172   4.820   0.429   4.977
 9425SOL     OW29173   6.649   3.415   6.379
 9425SOL    HW129174   6.623   3.318   6.381
 9425SOL    HW229175   6.592   3.466   6.444
 9426SOL     OW29176   2.981   2.053   0.214
 9426SOL    HW129177   2.994   2.152   0.204
 9426SOL    HW229178   3.060   2.005   0.176
 9427SOL     OW29179   2.955   5.755   4.287
 9427SOL    HW129180   3.046   5.773   4.249
 9427SOL    HW229181   2.962   5.695   4.366
 9428SOL     OW29182   5.918   0.936   1.058
 9428SOL    HW129183   5.913   0.848   1.104
 9428SOL    HW229184   5.990   0.934   0.989
 9429SOL     OW29185   2.123   3.569   2.218
 9429SOL    HW129186   2.038   3.533   2.256
 9429SOL    HW229187   2.148   3.516   2.136
 9430SOL     OW29188   0.310   4.599   2.466
 9430SOL    HW129189   0.231   4.538   2.460
 9430SOL    HW229190   0.385   4.552   2.512
 9431SOL     OW29191   5.809   4.138   1.501
 9431SOL    HW129192   5.792   4.146   1.599
 9431SOL    HW229193   5.907   4.126   1.485
 9432SOL     OW29194   4.594   0.398   3.597
 9432SOL    HW129195   4.651   0.339   3.538
 9432SOL    HW229196   4.652   0.464   3.644
 9433SOL     OW29197   3.656   5.133   3.353
 9433SOL    HW129198   3.575   5.088   3.390
 9433SOL    HW229199   3.694   5.078   3.278
 9434SOL     OW29200   5.199   5.122   3.682
 9434SOL    HW129201   5.100   5.114   3.693
 9434SOL    HW229202   5.242   5.136   3.771
 9435SOL     OW29203   0.782   2.610   4.642
 9435SOL    HW129204   0.747   2.670   4.715
 9435SOL    HW229205   0.865   2.650   4.603
 9436SOL     OW29206   1.103   3.156   1.965
 9436SOL    HW129207   1.034   3.216   2.006
 9436SOL    HW229208   1.194   3.192   1.983
 9437SOL     OW29209   2.562   6.440   3.487
 9437SOL    HW129210   2.545   6.448   3.585
 9437SOL    HW229211   2.637   6.377   3.471
 9438SOL     OW29212   7.008   0.096   1.751
 9438SOL    HW129213   0.059   0.049   1.708
 9438SOL    HW229214   6.993   0.184   1.705
 9439SOL     OW29215   0.288   3.322   1.672
 9439SOL    HW129216   0.243   3.311   1.583
 9439SOL    HW229217   0.323   3.233   1.701
 9440SOL     OW29218   4.102   4.843   3.823
 9440SOL    HW129219   4.159   4.926   3.823
 9440SOL    HW229220   4.113   4.795   3.736
 9441SOL     OW29221   1.358   3.522   5.254
 9441SOL    HW129222   1.342   3.619   5.237
 9441SOL    HW229223   1.303   3.467   5.191
 9442SOL     OW29224   4.501   3.613   0.267
 9442SOL    HW129225   4.507   3.513   0.261
 9442SOL    HW229226   4.503   3.652   0.176
 9443SOL     OW29227   2.625   5.322   1.217
 9443SOL    HW129228   2.646   5.310   1.314
 9443SOL    HW229229   2.660   5.243   1.165
 9444SOL     OW29230   1.669   4.194   6.453
 9444SOL    HW129231   1.749   4.141   6.478
 9444SOL    HW229232   1.601   4.134   6.410
 9445SOL     OW29233   5.623   3.540   2.983
 9445SOL    HW129234   5.676   3.570   3.063
 9445SOL    HW229235   5.526   3.557   2.999
 9446SOL     OW29236   6.611   6.156   4.331
 9446SOL    HW129237   6.618   6.245   4.376
 9446SOL    HW229238   6.543   6.161   4.258
 9447SOL     OW29239   6.057   3.305   4.312
 9447SOL    HW129240   5.970   3.354   4.308
 9447SOL    HW229241   6.040   3.207   4.321
 9448SOL     OW29242   7.006   6.548   6.525
 9448SOL    HW129243   0.027   6.470   6.566
 9448SOL    HW229244   6.909   6.527   6.516
 9449SOL     OW29245   6.620   5.623   6.889
 9449SOL    HW129246   6.641   5.612   6.792
 9449SOL    HW229247   6.676   5.559   6.943
 9450SOL     OW29248   2.825   5.775   5.039
 9450SOL    HW129249   2.916   5.744   5.011
 9450SOL    HW229250   2.758   5.703   5.021
 9451SOL     OW29251   4.179   6.350   6.179
 9451SOL    HW129252   4.205   6.413   6.106
 9451SOL    HW229253   4.239   6.271   6.178
 9452SOL     OW29254   1.526   3.786   0.344
 9452SOL    HW129255   1.533   3.716   0.416
 9452SOL    HW229256   1.467   3.861   0.376
 9453SOL     OW29257   2.242   5.129   3.176
 9453SOL    HW129258   2.215   5.119   3.272
 9453SOL    HW229259   2.246   5.226   3.152
 9454SOL     OW29260   2.740   3.517   6.952
 9454SOL    HW129261   2.685   3.591   6.912
 9454SOL    HW229262   2.685   3.434   6.957
 9455SOL     OW29263   3.884   1.913   2.475
 9455SOL    HW129264   3.792   1.896   2.438
 9455SOL    HW229265   3.945   1.940   2.401
 9456SOL     OW29266   0.926   3.514   0.860
 9456SOL    HW129267   0.950   3.571   0.781
 9456SOL    HW229268   0.981   3.431   0.859
 9457SOL     OW29269   2.162   3.836   5.190
 9457SOL    HW129270   2.099   3.860   5.116
 9457SOL    HW229271   2.224   3.912   5.207
 9458SOL     OW29272   1.739   3.434   0.373
 9458SOL    HW129273   1.789   3.440   0.460
 9458SOL    HW229274   1.740   3.339   0.342
 9459SOL     OW29275   5.057   4.752   2.933
 9459SOL    HW129276   4.994   4.726   3.006
 9459SOL    HW229277   5.148   4.716   2.954
 9460SOL     OW29278   0.554   2.588   4.048
 9460SOL    HW129279   0.491   2.528   3.999
 9460SOL    HW229280   0.514   2.617   4.135
 9461SOL     OW29281   6.374   1.722   2.684
 9461SOL    HW129282   6.328   1.807   2.709
 9461SOL    HW229283   6.335   1.686   2.600
 9462SOL     OW29284   2.133   3.735   2.817
 9462SOL    HW129285   2.161   3.798   2.744
 9462SOL    HW229286   2.106   3.647   2.777
 9463SOL     OW29287   0.441   1.062   1.658
 9463SOL    HW129288   0.349   1.027   1.640
 9463SOL    HW229289   0.439   1.124   1.736
 9464SOL     OW29290   6.057   0.375   1.273
 9464SOL    HW129291   6.063   0.433   1.354
 9464SOL    HW229292   5.990   0.303   1.288
 9465SOL     OW29293   1.403   5.400   3.281
 9465SOL    HW129294   1.348   5.387   3.364
 9465SOL    HW229295   1.343   5.409   3.202
 9466SOL     OW29296   4.568   4.974   5.731
 9466SOL    HW129297   4.510   4.969   5.650
 9466SOL    HW229298   4.652   4.923   5.715
 9467SOL     OW29299   0.783   2.689   1.472
 9467SOL    HW129300   0.732   2.690   1.558
 9467SOL    HW229301   0.854   2.618   1.477
 9468SOL     OW29302   6.061   2.600   5.913
 9468SOL    HW129303   6.103   2.526   5.861
 9468SOL    HW229304   6.104   2.687   5.890
 9469SOL     OW29305   6.123   6.370   1.548
 9469SOL    HW129306   6.076   6.395   1.632
 9469SOL    HW229307   6.085   6.423   1.471
 9470SOL     OW29308   4.205   3.933   5.544
 9470SOL    HW129309   4.193   3.841   5.508
 9470SOL    HW229310   4.282   3.978   5.497
 9471SOL     OW29311   6.504   1.388   4.454
 9471SOL    HW129312   6.441   1.447   4.504
 9471SOL    HW229313   6.595   1.393   4.495
 9472SOL     OW29314   5.718   3.352   4.583
 9472SOL    HW129315   5.754   3.375   4.493
 9472SOL    HW229316   5.749   3.419   4.650
 9473SOL     OW29317   2.696   5.340   5.362
 9473SOL    HW129318   2.636   5.294   5.427
 9473SOL    HW229319   2.691   5.439   5.376
 9474SOL     OW29320   0.331   3.154   0.374
 9474SOL    HW129321   0.324   3.085   0.445
 9474SOL    HW229322   0.244   3.159   0.323
 9475SOL     OW29323   3.233   3.413   6.908
 9475SOL    HW129324   3.272   3.385   6.820
 9475SOL    HW229325   3.135   3.394   6.908
 9476SOL     OW29326   2.908   3.758   5.097
 9476SOL    HW129327   3.002   3.740   5.127
 9476SOL    HW229328   2.898   3.731   5.001
 9477SOL     OW29329   0.545   3.868   2.184
 9477SOL    HW129330   0.592   3.956   2.182
 9477SOL    HW229331   0.603   3.798   2.143
 9478SOL     OW29332   5.625   3.456   6.371
 9478SOL    HW129333   5.629   3.356   6.376
 9478SOL    HW229334   5.716   3.493   6.391
 9479SOL     OW29335   4.454   6.515   6.808
 9479SOL    HW129336   4.505   6.438   6.769
 9479SOL    HW229337   4.479   6.599   6.759
 9480SOL     OW29338   5.120   3.736   0.951
 9480SOL    HW129339   5.022   3.748   0.938
 9480SOL    HW229340   5.160   3.821   0.985
 9481SOL     OW29341   5.192   3.371   2.606
 9481SOL    HW129342   5.099   3.409   2.610
 9481SOL    HW229343   5.196   3.304   2.531
 9482SOL     OW29344   6.625   0.907   3.117
 9482SOL    HW129345   6.549   0.933   3.177
 9482SOL    HW229346   6.686   0.986   3.104
 9483SOL     OW29347   0.700   1.583   1.701
 9483SOL    HW129348   0.647   1.587   1.616
 9483SOL    HW229349   0.795   1.559   1.681
 9484SOL     OW29350   3.509   1.167   3.332
 9484SOL    HW129351   3.574   1.132   3.400
 9484SOL    HW229352   3.419   1.125   3.346
 9485SOL     OW29353   1.043   6.967   1.308
 9485SOL    HW129354   1.072   0.002   1.234
 9485SOL    HW229355   0.953   6.929   1.286
 9486SOL     OW29356   2.708   6.106   1.027
 9486SOL    HW129357   2.690   6.024   1.081
 9486SOL    HW229358   2.807   6.118   1.017
 9487SOL     OW29359   3.167   2.953   3.223
 9487SOL    HW129360   3.212   3.027   3.173
 9487SOL    HW229361   3.121   2.892   3.158
 9488SOL     OW29362   1.214   6.229   0.744
 9488SOL    HW129363   1.268   6.159   0.698
 9488SOL    HW229364   1.257   6.253   0.831
 9489SOL     OW29365   4.190   4.258   1.350
 9489SOL    HW129366   4.236   4.339   1.387
 9489SOL    HW229367   4.190   4.262   1.250
 9490SOL     OW29368   6.930   5.746   1.086
 9490SOL    HW129369   6.856   5.760   1.021
 9490SOL    HW229370   6.937   5.648   1.108
 9491SOL     OW29371   6.843   3.860   3.754
 9491SOL    HW129372   6.824   3.954   3.782
 9491SOL    HW229373   6.765   3.802   3.779
 9492SOL     OW29374   3.506   2.872   3.006
 9492SOL    HW129375   3.464   2.801   3.062
 9492SOL    HW229376   3.560   2.932   3.064
 9493SOL     OW29377   3.701   5.391   3.729
 9493SOL    HW129378   3.764   5.313   3.724
 9493SOL    HW229379   3.625   5.367   3.789
 9494SOL     OW29380   4.340   4.676   1.887
 9494SOL    HW129381   4.327   4.647   1.792
 9494SOL    HW229382   4.395   4.759   1.889
 9495SOL     OW29383   6.810   1.753   3.644
 9495SOL    HW129384   6.800   1.853   3.643
 9495SOL    HW229385   6.725   1.711   3.674
 9496SOL     OW29386   5.767   5.101   1.210
 9496SOL    HW129387   5.791   5.041   1.134
 9496SOL    HW229388   5.668   5.117   1.210
 9497SOL     OW29389   5.762   6.054   6.811
 9497SOL    HW129390   5.723   5.965   6.832
 9497SOL    HW229391   5.843   6.070   6.868
 9498SOL     OW29392   5.337   6.807   4.818
 9498SOL    HW129393   5.328   6.759   4.905
 9498SOL    HW229394   5.325   6.905   4.832
 9499SOL     OW29395   1.939   4.975   6.466
 9499SOL    HW129396   1.898   4.922   6.391
 9499SOL    HW229397   1.918   4.931   6.553
 9500SOL     OW29398   5.439   0.340   0.766
 9500SOL    HW129399   5.491   0.298   0.841
 9500SOL    HW229400   5.502   0.373   0.695
 9501SOL     OW29401   2.866   1.541   5.040
 9501SOL    HW129402   2.948   1.577   4.997
 9501SOL    HW229403   2.882   1.528   5.138
 9502SOL     OW29404   7.018   2.553   5.202
 9502SOL    HW129405   0.049   2.521   5.277
 9502SOL    HW229406   6.971   2.638   5.229
 9503SOL     OW29407   7.002   2.162   1.488
 9503SOL    HW129408   0.070   2.192   1.471
 9503SOL    HW229409   6.996   2.063   1.473
 9504SOL     OW29410   6.907   2.198   0.873
 9504SOL    HW129411   6.845   2.265   0.832
 9504SOL    HW229412   6.914   2.216   0.971
 9505SOL     OW29413   5.399   5.060   3.367
 9505SOL    HW129414   5.426   5.147   3.327
 9505SOL    HW229415   5.425   4.985   3.306
 9506SOL     OW29416   0.491   2.539   6.473
 9506SOL    HW129417   0.396   2.568   6.484
 9506SOL    HW229418   0.550   2.620   6.468
 9507SOL     OW29419   1.006   1.921   3.191
 9507SOL    HW129420   1.036   1.828   3.172
 9507SOL    HW229421   1.082   1.973   3.230
 9508SOL     OW29422   6.721   4.081   0.888
 9508SOL    HW129423   6.657   4.155   0.868
 9508SOL    HW229424   6.674   3.993   0.880
 9509SOL     OW29425   0.299   0.848   5.248
 9509SOL    HW129426   0.369   0.811   5.309
 9509SOL    HW229427   0.219   0.876   5.301
 9510SOL     OW29428   1.063   3.690   2.378
 9510SOL    HW129429   1.161   3.690   2.355
 9510SOL    HW229430   1.049   3.742   2.462
 9511SOL     OW29431   0.360   1.411   0.219
 9511SOL    HW129432   0.334   1.392   0.313
 9511SOL    HW229433   0.396   1.328   0.176
 9512SOL     OW29434   5.629   1.586   1.637
 9512SOL    HW129435   5.610   1.651   1.562
 9512SOL    HW229436   5.674   1.634   1.712
 9513SOL     OW29437   1.627   3.598   5.863
 9513SOL    HW129438   1.530   3.614   5.842
 9513SOL    HW229439   1.659   3.667   5.927
 9514SOL     OW29440   2.231   4.525   6.396
 9514SOL    HW129441   2.264   4.583   6.471
 9514SOL    HW229442   2.309   4.488   6.346
 9515SOL     OW29443   1.386   6.374   1.458
 9515SOL    HW129444   1.301   6.325   1.480
 9515SOL    HW229445   1.464   6.321   1.490
 9516SOL     OW29446   5.239   3.799   4.848
 9516SOL    HW129447   5.291   3.858   4.910
 9516SOL    HW229448   5.164   3.757   4.898
 9517SOL     OW29449   0.580   4.536   1.329
 9517SOL    HW129450   0.614   4.546   1.422
 9517SOL    HW229451   0.657   4.540   1.265
 9518SOL     OW29452   1.242   1.632   0.183
 9518SOL    HW129453   1.200   1.718   0.154
 9518SOL    HW229454   1.335   1.627   0.146
 9519SOL     OW29455   3.314   4.070   4.256
 9519SOL    HW129456   3.280   3.976   4.258
 9519SOL    HW229457   3.353   4.092   4.346
 9520SOL     OW29458   0.887   1.290   3.420
 9520SOL    HW129459   0.906   1.367   3.360
 9520SOL    HW229460   0.964   1.225   3.417
 9521SOL     OW29461   4.346   4.905   1.272
 9521SOL    HW129462   4.289   4.980   1.237
 9521SOL    HW229463   4.306   4.871   1.358
 9522SOL     OW29464   3.939   5.031   1.369
 9522SOL    HW129465   3.884   4.954   1.403
 9522SOL    HW229466   4.014   5.048   1.433
 9523SOL     OW29467   2.687   4.901   4.703
 9523SOL    HW129468   2.772   4.951   4.721
 9523SOL    HW229469   2.635   4.948   4.632
 9524SOL     OW29470   2.668   3.385   0.683
 9524SOL    HW129471   2.714   3.305   0.721
 9524SOL    HW229472   2.690   3.465   0.738
 9525SOL     OW29473   2.241   2.300   5.954
 9525SOL    HW129474   2.157   2.269   5.911
 9525SOL    HW229475   2.242   2.275   6.051
 9526SOL     OW29476   5.551   4.913   1.015
 9526SOL    HW129477   5.516   4.987   0.957
 9526SOL    HW229478   5.591   4.842   0.957
 9527SOL     OW29479   0.656   0.883   4.520
 9527SOL    HW129480   0.600   0.960   4.549
 9527SOL    HW229481   0.741   0.881   4.574
 9528SOL     OW29482   0.064   1.802   1.189
 9528SOL    HW129483   7.014   1.861   1.218
 9528SOL    HW229484   0.144   1.821   1.246
 9529SOL     OW29485   6.128   3.349   6.309
 9529SOL    HW129486   6.075   3.265   6.313
 9529SOL    HW229487   6.067   3.427   6.291
 9530SOL     OW29488   1.905   2.653   3.362
 9530SOL    HW129489   1.998   2.617   3.361
 9530SOL    HW229490   1.901   2.737   3.308
 9531SOL     OW29491   5.068   4.832   2.445
 9531SOL    HW129492   5.060   4.873   2.536
 9531SOL    HW229493   5.013   4.748   2.442
 9532SOL     OW29494   0.206   6.301   1.223
 9532SOL    HW129495   0.207   6.327   1.319
 9532SOL    HW229496   0.293   6.258   1.199
 9533SOL     OW29497   6.717   5.742   5.127
 9533SOL    HW129498   6.788   5.727   5.058
 9533SOL    HW229499   6.760   5.776   5.211
 9534SOL     OW29500   6.537   3.859   5.738
 9534SOL    HW129501   6.573   3.771   5.767
 9534SOL    HW229502   6.484   3.848   5.654
 9535SOL     OW29503   1.405   0.553   5.811
 9535SOL    HW129504   1.391   0.454   5.805
 9535SOL    HW229505   1.497   0.571   5.846
 9536SOL     OW29506   3.102   4.049   5.576
 9536SOL    HW129507   3.088   3.996   5.492
 9536SOL    HW229508   3.038   4.126   5.577
 9537SOL     OW29509   2.965   0.656   4.699
 9537SOL    HW129510   2.988   0.700   4.612
 9537SOL    HW229511   2.889   0.705   4.742
 9538SOL     OW29512   5.990   0.872   3.163
 9538SOL    HW129513   5.894   0.884   3.188
 9538SOL    HW229514   6.041   0.835   3.240
 9539SOL     OW29515   3.542   3.834   4.266
 9539SOL    HW129516   3.456   3.802   4.304
 9539SOL    HW229517   3.616   3.774   4.295
 9540SOL     OW29518   6.061   4.491   4.206
 9540SOL    HW129519   5.980   4.545   4.184
 9540SOL    HW229520   6.111   4.535   4.281
 9541SOL     OW29521   2.815   0.603   5.965
 9541SOL    HW129522   2.850   0.696   5.974
 9541SOL    HW229523   2.744   0.601   5.894
 9542SOL     OW29524   4.926   4.356   4.563
 9542SOL    HW129525   4.954   4.260   4.564
 9542SOL    HW229526   4.929   4.391   4.469
 9543SOL     OW29527   3.670   0.804   5.924
 9543SOL    HW129528   3.737   0.830   5.994
 9543SOL    HW229529   3.583   0.780   5.967
 9544SOL     OW29530   6.873   2.081   3.359
 9544SOL    HW129531   6.922   2.161   3.395
 9544SOL    HW229532   6.927   1.999   3.376
 9545SOL     OW29533   5.543   5.676   4.472
 9545SOL    HW129534   5.451   5.713   4.454
 9545SOL    HW229535   5.592   5.665   4.386
 9546SOL     OW29536   4.268   2.044   5.060
 9546SOL    HW129537   4.356   1.998   5.072
 9546SOL    HW229538   4.211   1.991   4.997
 9547SOL     OW29539   2.892   5.114   4.276
 9547SOL    HW129540   2.795   5.135   4.268
 9547SOL    HW229541   2.909   5.022   4.243
 9548SOL     OW29542   5.813   4.645   5.741
 9548SOL    HW129543   5.888   4.656   5.676
 9548SOL    HW229544   5.728   4.630   5.691
 9549SOL     OW29545   2.630   3.039   1.053
 9549SOL    HW129546   2.643   3.090   1.138
 9549SOL    HW229547   2.532   3.026   1.037
 9550SOL     OW29548   6.824   1.469   0.334
 9550SOL    HW129549   6.815   1.391   0.396
 9550SOL    HW229550   6.920   1.484   0.313
 9551SOL     OW29551   5.800   1.779   5.939
 9551SOL    HW129552   5.726   1.716   5.914
 9551SOL    HW229553   5.865   1.731   5.998
 9552SOL     OW29554   1.665   6.866   4.129
 9552SOL    HW129555   1.741   6.922   4.161
 9552SOL    HW229556   1.680   6.840   4.033
 9553SOL     OW29557   6.279   2.416   6.547
 9553SOL    HW129558   6.251   2.481   6.476
 9553SOL    HW229559   6.225   2.430   6.629
 9554SOL     OW29560   2.901   0.041   1.377
 9554SOL    HW129561   2.966   0.001   1.441
 9554SOL    HW229562   2.861   0.124   1.418
 9555SOL     OW29563   0.763   0.481   2.980
 9555SOL    HW129564   0.743   0.572   2.942
 9555SOL    HW229565   0.830   0.435   2.922
 9556SOL     OW29566   1.903   3.790   1.594
 9556SOL    HW129567   1.932   3.855   1.665
 9556SOL    HW229568   1.964   3.711   1.594
 9557SOL     OW29569   6.793   5.897   2.044
 9557SOL    HW129570   6.845   5.905   2.129
 9557SOL    HW229571   6.853   5.913   1.966
 9558SOL     OW29572   6.022   6.285   5.033
 9558SOL    HW129573   5.971   6.308   5.115
 9558SOL    HW229574   6.117   6.317   5.043
 9559SOL     OW29575   0.430   4.984   1.620
 9559SOL    HW129576   0.336   5.009   1.645
 9559SOL    HW229577   0.481   5.067   1.595
 9560SOL     OW29578   1.835   1.932   3.213
 9560SOL    HW129579   1.881   2.015   3.243
 9560SOL    HW229580   1.748   1.923   3.261
 9561SOL     OW29581   2.010   0.315   0.639
 9561SOL    HW129582   2.009   0.308   0.738
 9561SOL    HW229583   2.044   0.405   0.612
 9562SOL     OW29584   2.441   0.752   5.566
 9562SOL    HW129585   2.497   0.748   5.483
 9562SOL    HW229586   2.418   0.659   5.595
 9563SOL     OW29587   6.661   6.429   0.578
 9563SOL    HW129588   6.747   6.469   0.546
 9563SOL    HW229589   6.632   6.357   0.514
 9564SOL     OW29590   2.950   0.482   0.510
 9564SOL    HW129591   3.016   0.533   0.455
 9564SOL    HW229592   2.934   0.393   0.468
 9565SOL     OW29593   3.740   0.402   5.012
 9565SOL    HW129594   3.824   0.348   5.021
 9565SOL    HW229595   3.678   0.381   5.087
 9566SOL     OW29596   1.896   4.594   6.959
 9566SOL    HW129597   1.812   4.553   6.995
 9566SOL    HW229598   1.950   4.524   6.913
 9567SOL     OW29599   4.819   5.065   1.275
 9567SOL    HW129600   4.753   5.036   1.345
 9567SOL    HW229601   4.807   5.163   1.256
 9568SOL     OW29602   4.050   2.496   6.481
 9568SOL    HW129603   4.139   2.513   6.522
 9568SOL    HW229604   4.014   2.581   6.444
 9569SOL     OW29605   6.918   1.714   2.313
 9569SOL    HW129606   6.840   1.706   2.375
 9569SOL    HW229607   6.952   1.808   2.314
 9570SOL     OW29608   0.924   3.323   2.061
 9570SOL    HW129609   0.836   3.323   2.109
 9570SOL    HW229610   0.947   3.417   2.035
 9571SOL     OW29611   3.888   4.101   5.980
 9571SOL    HW129612   3.953   4.111   5.904
 9571SOL    HW229613   3.797   4.129   5.949
 9572SOL     OW29614   2.173   5.295   1.574
 9572SOL    HW129615   2.080   5.288   1.609
 9572SOL    HW229616   2.236   5.307   1.650
 9573SOL     OW29617   0.487   2.735   6.802
 9573SOL    HW129618   0.484   2.822   6.851
 9573SOL    HW229619   0.401   2.687   6.814
 9574SOL     OW29620   4.165   3.443   3.389
 9574SOL    HW129621   4.230   3.446   3.313
 9574SOL    HW229622   4.179   3.522   3.448
 9575SOL     OW29623   0.237   1.198   1.220
 9575SOL    HW129624   0.187   1.187   1.306
 9575SOL    HW229625   0.227   1.292   1.187
 9576SOL     OW29626   1.863   0.538   1.921
 9576SOL    HW129627   1.868   0.635   1.898
 9576SOL    HW229628   1.872   0.527   2.020
 9577SOL     OW29629   0.832   0.651   5.977
 9577SOL    HW129630   0.776   0.568   5.974
 9577SOL    HW229631   0.825   0.692   6.067
 9578SOL     OW29632   0.342   4.004   3.695
 9578SOL    HW129633   0.424   4.060   3.709
 9578SOL    HW229634   0.367   3.918   3.650
 9579SOL     OW29635   1.797   5.162   2.538
 9579SOL    HW129636   1.724   5.216   2.580
 9579SOL    HW229637   1.762   5.114   2.458
 9580SOL     OW29638   4.822   3.228   0.650
 9580SOL    HW129639   4.763   3.289   0.597
 9580SOL    HW229640   4.842   3.146   0.596
 9581SOL     OW29641   0.474   5.208   5.813
 9581SOL    HW129642   0.504   5.117   5.842
 9581SOL    HW229643   0.384   5.201   5.772
 9582SOL     OW29644   4.632   5.283   6.441
 9582SOL    HW129645   4.708   5.305   6.380
 9582SOL    HW229646   4.664   5.225   6.515
 9583SOL     OW29647   3.916   4.353   1.222
 9583SOL    HW129648   3.816   4.361   1.220
 9583SOL    HW229649   3.942   4.259   1.202
 9584SOL     OW29650   6.771   5.422   0.009
 9584SOL    HW129651   6.798   5.351   6.970
 9584SOL    HW229652   6.852   5.454   0.058
 9585SOL     OW29653   6.944   0.544   4.436
 9585SOL    HW129654   6.884   0.620   4.409
 9585SOL    HW229655   6.889   0.469   4.472
 9586SOL     OW29656   5.691   4.822   2.307
 9586SOL    HW129657   5.733   4.838   2.218
 9586SOL    HW229658   5.699   4.904   2.363
 9587SOL     OW29659   6.949   1.091   1.702
 9587SOL    HW129660   6.935   1.024   1.775
 9587SOL    HW229661   6.860   1.123   1.668
 9588SOL     OW29662   6.464   1.606   1.591
 9588SOL    HW129663   6.371   1.581   1.562
 9588SOL    HW229664   6.485   1.697   1.557
 9589SOL     OW29665   2.479   4.991   6.151
 9589SOL    HW129666   2.563   4.945   6.123
 9589SOL    HW229667   2.400   4.939   6.120
 9590SOL     OW29668   6.492   3.195   2.283
 9590SOL    HW129669   6.591   3.203   2.275
 9590SOL    HW229670   6.469   3.121   2.345
 9591SOL     OW29671   3.462   6.194   6.347
 9591SOL    HW129672   3.398   6.181   6.422
 9591SOL    HW229673   3.419   6.165   6.261
 9592SOL     OW29674   3.936   4.271   0.814
 9592SOL    HW129675   3.921   4.215   0.733
 9592SOL    HW229676   3.971   4.215   0.888
 9593SOL     OW29677   0.103   1.441   5.401
 9593SOL    HW129678   0.085   1.350   5.365
 9593SOL    HW229679   0.027   1.502   5.379
 9594SOL     OW29680   1.435   6.067   3.000
 9594SOL    HW129681   1.349   6.098   3.040
 9594SOL    HW229682   1.512   6.114   3.043
 9595SOL     OW29683   0.973   4.218   5.252
 9595SOL    HW129684   1.072   4.203   5.254
 9595SOL    HW229685   0.950   4.289   5.186
 9596SOL     OW29686   6.898   5.447   6.690
 9596SOL    HW129687   6.989   5.446   6.648
 9596SOL    HW229688   6.886   5.364   6.745
 9597SOL     OW29689   0.653   4.549   1.609
 9597SOL    HW129690   0.721   4.478   1.629
 9597SOL    HW229691   0.565   4.524   1.649
 9598SOL     OW29692   1.149   3.532   4.050
 9598SOL    HW129693   1.183   3.445   4.085
 9598SOL    HW229694   1.221   3.576   3.995
 9599SOL     OW29695   3.963   6.810   4.834
 9599SOL    HW129696   4.004   6.872   4.767
 9599SOL    HW229697   3.886   6.761   4.792
 9600SOL     OW29698   2.104   0.188   6.618
 9600SOL    HW129699   2.174   0.198   6.689
 9600SOL    HW229700   2.148   0.179   6.529
 9601SOL     OW29701   5.298   3.870   1.701
 9601SOL    HW129702   5.391   3.907   1.695
 9601SOL    HW229703   5.298   3.776   1.668
 9602SOL     OW29704   6.662   4.952   6.577
 9602SOL    HW129705   6.747   4.952   6.630
 9602SOL    HW229706   6.682   4.928   6.482
 9603SOL     OW29707   3.665   1.786   4.149
 9603SOL    HW129708   3.708   1.699   4.176
 9603SOL    HW229709   3.569   1.784   4.176
 9604SOL     OW29710   4.203   0.413   6.732
 9604SOL    HW129711   4.132   0.473   6.695
 9604SOL    HW229712   4.160   0.339   6.785
 9605SOL     OW29713   0.782   5.543   3.687
 9605SOL    HW129714   0.867   5.590   3.711
 9605SOL    HW229715   0.795   5.444   3.696
 9606SOL     OW29716   2.167   6.696   6.152
 9606SOL    HW129717   2.182   6.629   6.080
 9606SOL    HW229718   2.083   6.674   6.201
 9607SOL     OW29719   1.465   1.616   0.892
 9607SOL    HW129720   1.375   1.588   0.858
 9607SOL    HW229721   1.491   1.703   0.850
 9608SOL     OW29722   6.540   6.201   2.368
 9608SOL    HW129723   6.630   6.159   2.380
 9608SOL    HW229724   6.479   6.172   2.442
 9609SOL     OW29725   2.163   4.020   6.396
 9609SOL    HW129726   2.070   4.027   6.433
 9609SOL    HW229727   2.216   4.100   6.424
 9610SOL     OW29728   1.952   5.074   4.154
 9610SOL    HW129729   1.913   5.108   4.068
 9610SOL    HW229730   2.049   5.054   4.141
 9611SOL     OW29731   0.199   6.344   6.536
 9611SOL    HW129732   0.254   6.413   6.583
 9611SOL    HW229733   0.185   6.266   6.597
 9612SOL     OW29734   1.101   4.069   1.904
 9612SOL    HW129735   1.042   4.011   1.961
 9612SOL    HW229736   1.112   4.026   1.814
 9613SOL     OW29737   4.603   6.159   3.454
 9613SOL    HW129738   4.651   6.108   3.382
 9613SOL    HW229739   4.506   6.163   3.432
 9614SOL     OW29740   3.761   2.390   0.370
 9614SOL    HW129741   3.756   2.317   0.438
 9614SOL    HW229742   3.677   2.390   0.316
 9615SOL     OW29743   0.506   6.866   0.995
 9615SOL    HW129744   0.416   6.908   0.990
 9615SOL    HW229745   0.541   6.851   0.903
 9616SOL     OW29746   4.716   3.360   0.984
 9616SOL    HW129747   4.660   3.316   0.914
 9616SOL    HW229748   4.662   3.429   1.031
 9617SOL     OW29749   1.669   3.181   3.888
 9617SOL    HW129750   1.766   3.206   3.878
 9617SOL    HW229751   1.661   3.103   3.950
 9618SOL     OW29752   3.481   0.098   5.717
 9618SOL    HW129753   3.500   0.034   5.792
 9618SOL    HW229754   3.554   0.091   5.648
 9619SOL     OW29755   0.793   6.641   0.050
 9619SOL    HW129756   0.849   6.566   0.085
 9619SOL    HW229757   0.844   6.726   0.051
 9620SOL     OW29758   4.060   2.513   6.876
 9620SOL    HW129759   4.061   2.441   6.945
 9620SOL    HW229760   3.968   2.522   6.838
 9621SOL     OW29761   0.945   0.932   2.508
 9621SOL    HW129762   0.859   0.885   2.487
 9621SOL    HW229763   1.019   0.865   2.514
 9622SOL     OW29764   6.602   0.890   0.193
 9622SOL    HW129765   6.589   0.795   0.219
 9622SOL    HW229766   6.572   0.904   0.099
 9623SOL     OW29767   3.507   4.852   5.320
 9623SOL    HW129768   3.501   4.952   5.331
 9623SOL    HW229769   3.589   4.829   5.267
 9624SOL     OW29770   6.192   4.537   3.325
 9624SOL    HW129771   6.258   4.468   3.354
 9624SOL    HW229772   6.141   4.569   3.405
 9625SOL     OW29773   5.047   5.394   6.999
 9625SOL    HW129774   4.960   5.429   6.964
 9625SOL    HW229775   5.033   5.307   0.018
 9626SOL     OW29776   2.514   6.491   0.019
 9626SOL    HW129777   2.513   6.520   0.114
 9626SOL    HW229778   2.604   6.511   7.005
 9627SOL     OW29779   0.220   4.662   3.109
 9627SOL    HW129780   0.178   4.666   3.200
 9627SOL    HW229781   0.154   4.690   3.040
 9628SOL     OW29782   6.200   4.753   6.825
 9628SOL    HW129783   6.138   4.774   6.750
 9628SOL    HW229784   6.199   4.828   6.891
 9629SOL     OW29785   0.329   6.602   2.619
 9629SOL    HW129786   0.253   6.659   2.588
 9629SOL    HW229787   0.310   6.568   2.711
 9630SOL     OW29788   5.864   6.650   5.513
 9630SOL    HW129789   5.962   6.630   5.504
 9630SOL    HW229790   5.852   6.743   5.548
 9631SOL     OW29791   6.079   0.602   0.058
 9631SOL    HW129792   6.166   0.626   0.016
 9631SOL    HW229793   6.024   0.685   0.071
 9632SOL     OW29794   2.008   5.562   2.721
 9632SOL    HW129795   2.013   5.463   2.706
 9632SOL    HW229796   2.004   5.581   2.819
 9633SOL     OW29797   4.967   4.919   6.652
 9633SOL    HW129798   4.900   4.946   6.582
 9633SOL    HW229799   5.004   5.001   6.696
 9634SOL     OW29800   0.942   6.772   4.905
 9634SOL    HW129801   0.939   6.843   4.834
 9634SOL    HW229802   0.934   6.682   4.863
 9635SOL     OW29803   1.493   4.470   5.480
 9635SOL    HW129804   1.576   4.464   5.425
 9635SOL    HW229805   1.507   4.424   5.568
 9636SOL     OW29806   4.129   1.624   6.264
 9636SOL    HW129807   4.044   1.654   6.221
 9636SOL    HW229808   4.146   1.528   6.242
 9637SOL     OW29809   2.139   2.166   0.072
 9637SOL    HW129810   2.122   2.251   0.122
 9637SOL    HW229811   2.219   2.120   0.111
 9638SOL     OW29812   0.048   3.668   0.034
 9638SOL    HW129813   0.048   3.618   0.120
 9638SOL    HW229814   7.000   3.633   7.001
 9639SOL     OW29815   4.914   1.616   1.958
 9639SOL    HW129816   4.998   1.567   1.931
 9639SOL    HW229817   4.848   1.550   1.994
 9640SOL     OW29818   3.054   1.498   3.116
 9640SOL    HW129819   3.126   1.565   3.097
 9640SOL    HW229820   2.979   1.511   3.051
 9641SOL     OW29821   5.382   6.145   0.828
 9641SOL    HW129822   5.287   6.169   0.810
 9641SOL    HW229823   5.400   6.053   0.795
 9642SOL     OW29824   2.174   5.962   4.398
 9642SOL    HW129825   2.201   5.866   4.394
 9642SOL    HW229826   2.124   5.987   4.315
 9643SOL     OW29827   6.440   4.576   3.777
 9643SOL    HW129828   6.515   4.579   3.843
 9643SOL    HW229829   6.442   4.658   3.720
 9644SOL     OW29830   0.301   5.139   4.394
 9644SOL    HW129831   0.397   5.115   4.385
 9644SOL    HW229832   0.290   5.238   4.384
 9645SOL     OW29833   3.255   4.905   3.535
 9645SOL    HW129834   3.201   4.932   3.614
 9645SOL    HW229835   3.196   4.902   3.454
 9646SOL     OW29836   2.837   4.743   2.190
 9646SOL    HW129837   2.864   4.686   2.112
 9646SOL    HW229838   2.775   4.691   2.249
 9647SOL     OW29839   0.992   5.515   1.410
 9647SOL    HW129840   0.923   5.504   1.339
 9647SOL    HW229841   1.045   5.430   1.418
 9648SOL     OW29842   3.568   1.977   6.981
 9648SOL    HW129843   3.641   1.963   6.915
 9648SOL    HW229844   3.526   2.067   6.966
 9649SOL     OW29845   2.603   4.864   6.972
 9649SOL    HW129846   2.697   4.830   6.981
 9649SOL    HW229847   2.604   4.951   6.923
 9650SOL     OW29848   4.961   4.434   3.068
 9650SOL    HW129849   4.991   4.365   3.002
 9650SOL    HW229850   4.999   4.413   3.158
 9651SOL     OW29851   6.467   0.486   0.149
 9651SOL    HW129852   6.401   0.537   0.094
 9651SOL    HW229853   6.423   0.453   0.233
 9652SOL     OW29854   2.220   4.377   1.024
 9652SOL    HW129855   2.207   4.331   0.936
 9652SOL    HW229856   2.190   4.472   1.017
 9653SOL     OW29857   4.094   5.139   5.143
 9653SOL    HW129858   4.097   5.217   5.081
 9653SOL    HW229859   4.108   5.055   5.091
 9654SOL     OW29860   3.681   3.225   2.558
 9654SOL    HW129861   3.685   3.132   2.521
 9654SOL    HW229862   3.768   3.246   2.604
 9655SOL     OW29863   6.547   1.493   6.959
 9655SOL    HW129864   6.578   1.451   0.019
 9655SOL    HW229865   6.513   1.422   6.897
 9656SOL     OW29866   4.460   1.983   1.006
 9656SOL    HW129867   4.510   1.931   1.076
 9656SOL    HW229868   4.479   1.943   0.916
 9657SOL     OW29869   5.953   1.986   3.872
 9657SOL    HW129870   6.050   1.962   3.883
 9657SOL    HW229871   5.929   1.984   3.775
 9658SOL     OW29872   5.691   1.887   2.329
 9658SOL    HW129873   5.709   1.979   2.363
 9658SOL    HW229874   5.599   1.859   2.356
 9659SOL     OW29875   6.876   3.199   0.393
 9659SOL    HW129876   6.882   3.188   0.493
 9659SOL    HW229877   6.942   3.267   0.363
 9660SOL     OW29878   0.202   6.438   2.122
 9660SOL    HW129879   0.193   6.537   2.118
 9660SOL    HW229880   0.245   6.412   2.209
 9661SOL     OW29881   3.331   6.410   1.813
 9661SOL    HW129882   3.379   6.322   1.816
 9661SOL    HW229883   3.384   6.478   1.864
 9662SOL     OW29884   4.516   2.919   5.287
 9662SOL    HW129885   4.591   2.981   5.309
 9662SOL    HW229886   4.527   2.884   5.194
 9663SOL     OW29887   6.789   6.021   3.712
 9663SOL    HW129888   6.808   5.927   3.682
 9663SOL    HW229889   6.746   6.071   3.637
 9664SOL     OW29890   5.741   6.314   4.224
 9664SOL    HW129891   5.725   6.413   4.221
 9664SOL    HW229892   5.760   6.280   4.132
 9665SOL     OW29893   5.383   6.681   0.120
 9665SOL    HW129894   5.318   6.709   0.190
 9665SOL    HW229895   5.409   6.586   0.135
 9666SOL     OW29896   6.220   3.788   1.586
 9666SOL    HW129897   6.207   3.689   1.579
 9666SOL    HW229898   6.184   3.832   1.504
 9667SOL     OW29899   3.950   3.265   5.530
 9667SOL    HW129900   3.987   3.243   5.440
 9667SOL    HW229901   3.878   3.200   5.554
 9668SOL     OW29902   7.005   0.933   6.301
 9668SOL    HW129903   0.010   0.967   6.212
 9668SOL    HW229904   0.008   0.837   6.312
 9669SOL     OW29905   1.534   7.022   2.271
 9669SOL    HW129906   1.505   7.018   2.366
 9669SOL    HW229907   1.454   0.009   2.212
 9670SOL     OW29908   6.390   4.559   6.896
 9670SOL    HW129909   6.318   4.616   6.856
 9670SOL    HW229910   6.479   4.589   6.862
 9671SOL     OW29911   5.876   4.704   0.053
 9671SOL    HW129912   5.961   4.754   0.070
 9671SOL    HW229913   5.860   4.697   6.981
 9672SOL     OW29914   1.456   6.045   3.883
 9672SOL    HW129915   1.402   5.962   3.877
 9672SOL    HW229916   1.462   6.089   3.793
 9673SOL     OW29917   5.452   3.595   0.576
 9673SOL    HW129918   5.357   3.621   0.593
 9673SOL    HW229919   5.459   3.495   0.572
 9674SOL     OW29920   2.588   6.565   3.038
 9674SOL    HW129921   2.652   6.639   3.018
 9674SOL    HW229922   2.586   6.501   2.961
 9675SOL     OW29923   5.690   2.652   0.582
 9675SOL    HW129924   5.601   2.689   0.606
 9675SOL    HW229925   5.720   2.689   0.494
 9676SOL     OW29926   1.394   3.689   5.735
 9676SOL    HW129927   1.331   3.673   5.810
 9676SOL    HW229928   1.390   3.785   5.707
 9677SOL     OW29929   1.103   5.094   4.926
 9677SOL    HW129930   1.004   5.088   4.941
 9677SOL    HW229931   1.145   5.006   4.947
 9678SOL     OW29932   3.298   3.633   3.088
 9678SOL    HW129933   3.239   3.614   3.166
 9678SOL    HW229934   3.388   3.590   3.103
 9679SOL     OW29935   2.555   0.912   2.361
 9679SOL    HW129936   2.598   0.991   2.319
 9679SOL    HW229937   2.594   0.828   2.324
 9680SOL     OW29938   5.139   1.175   2.822
 9680SOL    HW129939   5.073   1.118   2.773
 9680SOL    HW229940   5.231   1.157   2.786
 9681SOL     OW29941   2.957   1.582   0.605
 9681SOL    HW129942   3.037   1.525   0.624
 9681SOL    HW229943   2.942   1.586   0.506
 9682SOL     OW29944   5.126   4.663   3.749
 9682SOL    HW129945   5.124   4.644   3.651
 9682SOL    HW229946   5.054   4.611   3.795
 9683SOL     OW29947   2.951   5.263   0.344
 9683SOL    HW129948   2.883   5.271   0.271
 9683SOL    HW229949   2.910   5.215   0.422
 9684SOL     OW29950   0.082   3.334   5.283
 9684SOL    HW129951   0.069   3.382   5.196
 9684SOL    HW229952   0.100   3.402   5.355
 9685SOL     OW29953   2.761   4.631   1.277
 9685SOL    HW129954   2.690   4.702   1.278
 9685SOL    HW229955   2.849   4.673   1.255
 9686SOL     OW29956   6.466   1.585   6.515
 9686SOL    HW129957   6.508   1.503   6.553
 9686SOL    HW229958   6.407   1.627   6.584
 9687SOL     OW29959   1.621   0.519   3.942
 9687SOL    HW129960   1.616   0.467   3.856
 9687SOL    HW229961   1.528   0.534   3.977
 9688SOL     OW29962   0.627   3.215   2.576
 9688SOL    HW129963   0.666   3.132   2.537
 9688SOL    HW229964   0.585   3.195   2.664
 9689SOL     OW29965   1.127   5.050   6.648
 9689SOL    HW129966   1.046   5.046   6.589
 9689SOL    HW229967   1.157   4.957   6.670
 9690SOL     OW29968   5.783   5.602   0.030
 9690SOL    HW129969   5.855   5.538   0.003
 9690SOL    HW229970   5.707   5.552   0.071
 9691SOL     OW29971   2.989   5.184   1.340
 9691SOL    HW129972   3.003   5.115   1.270
 9691SOL    HW229973   2.907   5.162   1.393
 9692SOL     OW29974   3.886   5.264   2.603
 9692SOL    HW129975   3.885   5.166   2.624
 9692SOL    HW229976   3.792   5.298   2.595
 9693SOL     OW29977   6.127   4.900   1.609
 9693SOL    HW129978   6.031   4.928   1.609
 9693SOL    HW229979   6.161   4.895   1.703
 9694SOL     OW29980   2.498   0.974   0.481
 9694SOL    HW129981   2.596   0.995   0.486
 9694SOL    HW229982   2.472   0.915   0.557
 9695SOL     OW29983   0.079   3.759   2.532
 9695SOL    HW129984   0.168   3.732   2.569
 9695SOL    HW229985   0.013   3.768   2.607
 9696SOL     OW29986   5.230   3.565   0.789
 9696SOL    HW129987   5.152   3.505   0.771
 9696SOL    HW229988   5.202   3.640   0.849
 9697SOL     OW29989   0.483   5.652   6.732
 9697SOL    HW129990   0.398   5.703   6.718
 9697SOL    HW229991   0.514   5.615   6.645
 9698SOL     OW29992   4.480   1.314   6.028
 9698SOL    HW129993   4.419   1.378   5.982
 9698SOL    HW229994   4.540   1.364   6.090
 9699SOL     OW29995   6.905   4.917   6.773
 9699SOL    HW129996   6.904   4.907   6.872
 9699SOL    HW229997   6.900   4.827   6.730
 9700SOL     OW29998   4.512   5.464   4.659
 9700SOL    HW129999   4.514   5.388   4.724
 9700SOL    HW230000   4.541   5.431   4.569
 9701SOL     OW30001   3.890   5.002   5.417
 9701SOL    HW130002   3.817   5.025   5.482
 9701SOL    HW230003   3.899   5.074   5.349
 9702SOL     OW30004   4.677   0.619   6.764
 9702SOL    HW130005   4.738   0.559   6.815
 9702SOL    HW230006   4.729   0.695   6.726
 9703SOL     OW30007   4.614   4.499   3.404
 9703SOL    HW130008   4.589   4.488   3.308
 9703SOL    HW230009   4.711   4.477   3.416
 9704SOL     OW30010   3.451   0.832   2.913
 9704SOL    HW130011   3.509   0.821   2.833
 9704SOL    HW230012   3.501   0.880   2.985
 9705SOL     OW30013   5.888   4.394   6.157
 9705SOL    HW130014   5.806   4.413   6.211
 9705SOL    HW230015   5.933   4.311   6.193
 9706SOL     OW30016   0.482   3.618   0.768
 9706SOL    HW130017   0.534   3.542   0.729
 9706SOL    HW230018   0.404   3.638   0.709
 9707SOL     OW30019   7.024   4.800   2.346
 9707SOL    HW130020   0.073   4.866   2.336
 9707SOL    HW230021   0.014   4.722   2.285
 9708SOL     OW30022   1.412   2.065   2.464
 9708SOL    HW130023   1.372   2.151   2.495
 9708SOL    HW230024   1.341   1.995   2.461
 9709SOL     OW30025   6.196   6.479   3.376
 9709SOL    HW130026   6.211   6.578   3.386
 9709SOL    HW230027   6.272   6.438   3.325
 9710SOL     OW30028   0.342   0.757   1.899
 9710SOL    HW130029   0.269   0.821   1.924
 9710SOL    HW230030   0.314   0.707   1.817
 9711SOL     OW30031   2.065   4.793   5.915
 9711SOL    HW130032   2.010   4.869   5.950
 9711SOL    HW230033   2.076   4.802   5.816
 9712SOL     OW30034   6.062   3.736   6.547
 9712SOL    HW130035   6.035   3.822   6.590
 9712SOL    HW230036   6.101   3.674   6.615
 9713SOL     OW30037   0.983   4.916   3.241
 9713SOL    HW130038   0.994   5.011   3.271
 9713SOL    HW230039   1.051   4.896   3.171
 9714SOL     OW30040   3.044   0.119   0.279
 9714SOL    HW130041   3.084   0.167   0.357
 9714SOL    HW230042   2.945   0.116   0.288
 9715SOL     OW30043   5.149   4.069   6.414
 9715SOL    HW130044   5.200   3.985   6.434
 9715SOL    HW230045   5.203   4.128   6.354
 9716SOL     OW30046   4.016   3.223   6.915
 9716SOL    HW130047   4.086   3.292   6.898
 9716SOL    HW230048   3.928   3.267   6.931
 9717SOL     OW30049   5.174   6.339   6.143
 9717SOL    HW130050   5.167   6.330   6.243
 9717SOL    HW230051   5.270   6.341   6.116
 9718SOL     OW30052   4.807   2.682   0.344
 9718SOL    HW130053   4.837   2.588   0.358
 9718SOL    HW230054   4.742   2.708   0.415
 9719SOL     OW30055   6.496   1.657   5.754
 9719SOL    HW130056   6.480   1.733   5.817
 9719SOL    HW230057   6.535   1.691   5.669
 9720SOL     OW30058   6.901   5.427   2.063
 9720SOL    HW130059   6.907   5.454   2.159
 9720SOL    HW230060   6.935   5.501   2.005
 9721SOL     OW30061   0.319   2.537   1.452
 9721SOL    HW130062   0.348   2.617   1.400
 9721SOL    HW230063   0.219   2.540   1.465
 9722SOL     OW30064   6.500   0.421   4.335
 9722SOL    HW130065   6.553   0.346   4.372
 9722SOL    HW230066   6.514   0.503   4.391
 9723SOL     OW30067   1.943   6.815   2.759
 9723SOL    HW130068   1.991   6.844   2.842
 9723SOL    HW230069   1.975   6.868   2.681
 9724SOL     OW30070   1.778   4.672   0.364
 9724SOL    HW130071   1.714   4.710   0.297
 9724SOL    HW230072   1.867   4.716   0.353
 9725SOL     OW30073   3.792   4.972   6.506
 9725SOL    HW130074   3.831   4.880   6.512
 9725SOL    HW230075   3.855   5.032   6.456
 9726SOL     OW30076   5.227   0.564   4.478
 9726SOL    HW130077   5.262   0.523   4.394
 9726SOL    HW230078   5.260   0.658   4.486
 9727SOL     OW30079   0.734   4.091   5.844
 9727SOL    HW130080   0.790   4.150   5.787
 9727SOL    HW230081   0.712   4.138   5.930
 9728SOL     OW30082   0.215   0.664   5.963
 9728SOL    HW130083   0.217   0.564   5.967
 9728SOL    HW230084   0.294   0.700   6.013
 9729SOL     OW30085   1.091   4.049   3.427
 9729SOL    HW130086   1.000   4.075   3.396
 9729SOL    HW230087   1.159   4.112   3.389
 9730SOL     OW30088   1.104   3.718   3.737
 9730SOL    HW130089   1.155   3.803   3.722
 9730SOL    HW230090   1.027   3.736   3.798
 9731SOL     OW30091   4.645   4.424   1.083
 9731SOL    HW130092   4.741   4.446   1.100
 9731SOL    HW230093   4.613   4.356   1.149
 9732SOL     OW30094   5.966   5.813   3.564
 9732SOL    HW130095   6.064   5.806   3.582
 9732SOL    HW230096   5.925   5.721   3.564
 9733SOL     OW30097   5.762   5.159   0.782
 9733SOL    HW130098   5.679   5.103   0.775
 9733SOL    HW230099   5.841   5.098   0.791
 9734SOL     OW30100   6.700   1.643   2.462
 9734SOL    HW130101   6.645   1.584   2.403
 9734SOL    HW230102   6.660   1.734   2.465
 9735SOL     OW30103   2.729   4.671   3.353
 9735SOL    HW130104   2.730   4.572   3.335
 9735SOL    HW230105   2.707   4.687   3.450
 9736SOL     OW30106   6.438   2.086   6.450
 9736SOL    HW130107   6.526   2.115   6.488
 9736SOL    HW230108   6.445   1.992   6.417
 9737SOL     OW30109   5.852   2.683   3.904
 9737SOL    HW130110   5.896   2.639   3.826
 9737SOL    HW230111   5.836   2.616   3.975
 9738SOL     OW30112   1.512   0.073   1.305
 9738SOL    HW130113   1.447   0.010   1.263
 9738SOL    HW230114   1.601   0.066   1.259
 9739SOL     OW30115   6.294   4.567   2.007
 9739SOL    HW130116   6.296   4.517   1.920
 9739SOL    HW230117   6.381   4.555   2.054
 9740SOL     OW30118   6.674   2.124   2.936
 9740SOL    HW130119   6.742   2.079   2.994
 9740SOL    HW230120   6.583   2.091   2.961
 9741SOL     OW30121   4.406   1.344   3.257
 9741SOL    HW130122   4.307   1.361   3.257
 9741SOL    HW230123   4.426   1.265   3.316
 9742SOL     OW30124   4.563   6.875   0.738
 9742SOL    HW130125   4.621   6.924   0.804
 9742SOL    HW230126   4.584   6.909   0.646
 9743SOL     OW30127   0.821   2.145   5.229
 9743SOL    HW130128   0.823   2.230   5.280
 9743SOL    HW230129   0.846   2.163   5.134
 9744SOL     OW30130   0.172   6.954   2.699
 9744SOL    HW130131   0.260   6.928   2.738
 9744SOL    HW230132   0.114   6.994   2.770
 9745SOL     OW30133   6.152   2.376   5.763
 9745SOL    HW130134   6.071   2.355   5.818
 9745SOL    HW230135   6.146   2.329   5.675
 9746SOL     OW30136   6.705   0.910   5.604
 9746SOL    HW130137   6.640   0.841   5.636
 9746SOL    HW230138   6.655   0.989   5.569
 9747SOL     OW30139   2.493   0.978   1.461
 9747SOL    HW130140   2.584   1.001   1.426
 9747SOL    HW230141   2.425   1.031   1.411
 9748SOL     OW30142   0.636   1.219   3.301
 9748SOL    HW130143   0.725   1.245   3.340
 9748SOL    HW230144   0.563   1.270   3.347
 9749SOL     OW30145   2.406   1.533   5.251
 9749SOL    HW130146   2.331   1.471   5.274
 9749SOL    HW230147   2.414   1.538   5.151
 9750SOL     OW30148   5.682   4.567   3.513
 9750SOL    HW130149   5.669   4.548   3.610
 9750SOL    HW230150   5.752   4.506   3.476
 9751SOL     OW30151   0.431   1.072   0.781
 9751SOL    HW130152   0.331   1.074   0.774
 9751SOL    HW230153   0.463   0.978   0.772
 9752SOL     OW30154   4.824   1.790   5.779
 9752SOL    HW130155   4.839   1.722   5.851
 9752SOL    HW230156   4.850   1.881   5.813
 9753SOL     OW30157   5.652   6.132   5.864
 9753SOL    HW130158   5.635   6.221   5.906
 9753SOL    HW230159   5.565   6.086   5.846
 9754SOL     OW30160   1.003   1.349   6.600
 9754SOL    HW130161   0.956   1.358   6.512
 9754SOL    HW230162   1.013   1.440   6.642
 9755SOL     OW30163   4.149   3.406   5.320
 9755SOL    HW130164   4.118   3.429   5.228
 9755SOL    HW230165   4.164   3.308   5.327
 9756SOL     OW30166   6.243   3.564   1.236
 9756SOL    HW130167   6.197   3.648   1.209
 9756SOL    HW230168   6.342   3.576   1.232
 9757SOL     OW30169   6.204   3.464   3.687
 9757SOL    HW130170   6.200   3.459   3.587
 9757SOL    HW230171   6.280   3.407   3.720
 9758SOL     OW30172   2.578   0.092   6.645
 9758SOL    HW130173   2.678   0.092   6.640
 9758SOL    HW230174   2.543   0.169   6.592
 9759SOL     OW30175   2.060   6.736   6.874
 9759SOL    HW130176   2.060   6.834   6.855
 9759SOL    HW230177   2.148   6.697   6.847
 9760SOL     OW30178   4.812   3.063   5.454
 9760SOL    HW130179   4.889   3.059   5.517
 9760SOL    HW230180   4.845   3.084   5.362
 9761SOL     OW30181   6.003   0.767   2.469
 9761SOL    HW130182   6.051   0.818   2.398
 9761SOL    HW230183   5.932   0.710   2.426
 9762SOL     OW30184   3.493   1.606   4.526
 9762SOL    HW130185   3.504   1.550   4.443
 9762SOL    HW230186   3.584   1.634   4.558
 9763SOL     OW30187   5.224   2.237   2.054
 9763SOL    HW130188   5.160   2.297   2.005
 9763SOL    HW230189   5.305   2.223   1.997
 9764SOL     OW30190   0.443   2.898   2.771
 9764SOL    HW130191   0.354   2.930   2.741
 9764SOL    HW230192   0.467   2.814   2.722
 9765SOL     OW30193   6.686   1.414   3.431
 9765SOL    HW130194   6.601   1.463   3.413
 9765SOL    HW230195   6.764   1.475   3.417
 9766SOL     OW30196   2.651   0.321   3.058
 9766SOL    HW130197   2.723   0.340   2.991
 9766SOL    HW230198   2.672   0.369   3.143
 9767SOL     OW30199   4.907   1.501   5.221
 9767SOL    HW130200   4.867   1.591   5.237
 9767SOL    HW230201   4.941   1.464   5.307
 9768SOL     OW30202   5.882   2.052   3.314
 9768SOL    HW130203   5.786   2.078   3.300
 9768SOL    HW230204   5.926   2.120   3.373
 9769SOL     OW30205   2.891   0.852   2.821
 9769SOL    HW130206   2.963   0.785   2.839
 9769SOL    HW230207   2.848   0.831   2.733
 9770SOL     OW30208   5.663   6.780   0.243
 9770SOL    HW130209   5.690   6.835   0.164
 9770SOL    HW230210   5.563   6.777   0.249
 9771SOL     OW30211   2.684   5.101   1.071
 9771SOL    HW130212   2.769   5.087   1.020
 9771SOL    HW230213   2.628   5.018   1.066
 9772SOL     OW30214   1.068   6.028   2.901
 9772SOL    HW130215   1.041   5.940   2.863
 9772SOL    HW230216   1.110   6.014   2.990
 9773SOL     OW30217   5.324   5.772   4.401
 9773SOL    HW130218   5.346   5.867   4.381
 9773SOL    HW230219   5.306   5.723   4.316
 9774SOL     OW30220   6.914   4.955   1.884
 9774SOL    HW130221   6.861   4.870   1.872
 9774SOL    HW230222   6.851   5.032   1.893
 9775SOL     OW30223   2.138   0.522   3.678
 9775SOL    HW130224   2.116   0.454   3.608
 9775SOL    HW230225   2.054   0.565   3.711
 9776SOL     OW30226   1.004   4.532   4.412
 9776SOL    HW130227   0.937   4.604   4.393
 9776SOL    HW230228   0.959   4.443   4.407
 9777SOL     OW30229   5.693   4.495   6.407
 9777SOL    HW130230   5.660   4.401   6.410
 9777SOL    HW230231   5.640   4.547   6.340
 9778SOL     OW30232   0.315   0.816   3.144
 9778SOL    HW130233   0.374   0.893   3.167
 9778SOL    HW230234   0.325   0.744   3.213
 9779SOL     OW30235   2.013   1.056   5.030
 9779SOL    HW130236   1.924   1.013   5.012
 9779SOL    HW230237   2.023   1.135   4.970
 9780SOL     OW30238   3.025   1.823   1.321
 9780SOL    HW130239   2.941   1.865   1.285
 9780SOL    HW230240   3.001   1.745   1.379
 9781SOL     OW30241   1.821   3.700   4.260
 9781SOL    HW130242   1.843   3.654   4.346
 9781SOL    HW230243   1.773   3.637   4.199
 9782SOL     OW30244   6.525   0.641   1.628
 9782SOL    HW130245   6.445   0.584   1.611
 9782SOL    HW230246   6.602   0.607   1.573
 9783SOL     OW30247   5.133   1.838   3.194
 9783SOL    HW130248   5.224   1.878   3.181
 9783SOL    HW230249   5.074   1.903   3.241
 9784SOL     OW30250   4.120   1.399   4.641
 9784SOL    HW130251   4.025   1.376   4.620
 9784SOL    HW230252   4.171   1.316   4.664
 9785SOL     OW30253   0.633   3.626   5.759
 9785SOL    HW130254   0.594   3.711   5.724
 9785SOL    HW230255   0.731   3.623   5.737
 9786SOL     OW30256   2.353   4.553   0.186
 9786SOL    HW130257   2.347   4.515   0.094
 9786SOL    HW230258   2.413   4.495   0.242
 9787SOL     OW30259   4.708   3.450   1.776
 9787SOL    HW130260   4.784   3.392   1.744
 9787SOL    HW230261   4.726   3.545   1.751
 9788SOL     OW30262   0.684   0.711   3.402
 9788SOL    HW130263   0.595   0.671   3.382
 9788SOL    HW230264   0.745   0.699   3.324
 9789SOL     OW30265   1.073   5.331   0.521
 9789SOL    HW130266   1.169   5.309   0.539
 9789SOL    HW230267   1.068   5.413   0.463
 9790SOL     OW30268   5.700   4.151   5.441
 9790SOL    HW130269   5.741   4.205   5.515
 9790SOL    HW230270   5.628   4.205   5.397
 9791SOL     OW30271   0.358   1.103   2.823
 9791SOL    HW130272   0.314   1.123   2.911
 9791SOL    HW230273   0.342   1.007   2.800
 9792SOL     OW30274   5.168   5.509   1.857
 9792SOL    HW130275   5.184   5.576   1.785
 9792SOL    HW230276   5.252   5.456   1.872
 9793SOL     OW30277   5.039   5.671   3.201
 9793SOL    HW130278   5.055   5.766   3.230
 9793SOL    HW230279   4.972   5.629   3.262
 9794SOL     OW30280   6.512   4.006   0.157
 9794SOL    HW130281   6.607   4.012   0.188
 9794SOL    HW230282   6.451   4.028   0.233
 9795SOL     OW30283   2.217   1.769   4.283
 9795SOL    HW130284   2.284   1.842   4.275
 9795SOL    HW230285   2.263   1.681   4.271
 9796SOL     OW30286   4.479   2.394   1.570
 9796SOL    HW130287   4.433   2.305   1.579
 9796SOL    HW230288   4.564   2.392   1.622
 9797SOL     OW30289   2.600   5.087   6.833
 9797SOL    HW130290   2.698   5.092   6.815
 9797SOL    HW230291   2.565   5.178   6.854
 9798SOL     OW30292   2.926   0.207   1.149
 9798SOL    HW130293   2.894   0.134   1.209
 9798SOL    HW230294   3.025   0.215   1.155
 9799SOL     OW30295   3.457   3.934   3.409
 9799SOL    HW130296   3.371   3.961   3.365
 9799SOL    HW230297   3.440   3.854   3.467
 9800SOL     OW30298   3.392   6.338   4.824
 9800SOL    HW130299   3.311   6.337   4.883
 9800SOL    HW230300   3.452   6.414   4.852
 9801SOL     OW30301   4.572   3.980   0.155
 9801SOL    HW130302   4.628   3.984   0.238
 9801SOL    HW230303   4.476   3.993   0.180
 9802SOL     OW30304   0.981   3.072   1.729
 9802SOL    HW130305   1.051   3.016   1.685
 9802SOL    HW230306   1.020   3.119   1.807
 9803SOL     OW30307   6.692   1.746   6.851
 9803SOL    HW130308   6.648   1.657   6.851
 9803SOL    HW230309   6.709   1.775   6.946
 9804SOL     OW30310   0.856   6.216   2.937
 9804SOL    HW130311   0.914   6.138   2.956
 9804SOL    HW230312   0.903   6.300   2.965
 9805SOL     OW30313   0.901   6.536   5.935
 9805SOL    HW130314   0.830   6.466   5.942
 9805SOL    HW230315   0.912   6.563   5.839
 9806SOL     OW30316   1.530   0.866   1.230
 9806SOL    HW130317   1.505   0.777   1.193
 9806SOL    HW230318   1.475   0.886   1.311
 9807SOL     OW30319   2.272   3.321   0.439
 9807SOL    HW130320   2.303   3.304   0.346
 9807SOL    HW230321   2.173   3.317   0.444
 9808SOL     OW30322   5.194   1.040   5.484
 9808SOL    HW130323   5.260   0.982   5.435
 9808SOL    HW230324   5.120   1.064   5.422
 9809SOL     OW30325   0.793   2.171   6.722
 9809SOL    HW130326   0.820   2.237   6.652
 9809SOL    HW230327   0.770   2.084   6.678
 9810SOL     OW30328   2.523   2.496   4.051
 9810SOL    HW130329   2.496   2.588   4.082
 9810SOL    HW230330   2.450   2.431   4.072
 9811SOL     OW30331   5.554   5.492   3.894
 9811SOL    HW130332   5.525   5.493   3.989
 9811SOL    HW230333   5.473   5.496   3.834
 9812SOL     OW30334   3.152   2.415   5.668
 9812SOL    HW130335   3.102   2.380   5.589
 9812SOL    HW230336   3.236   2.459   5.638
 9813SOL     OW30337   5.840   0.721   6.670
 9813SOL    HW130338   5.846   0.627   6.705
 9813SOL    HW230339   5.747   0.738   6.636
 9814SOL     OW30340   0.165   0.799   0.380
 9814SOL    HW130341   0.097   0.869   0.355
 9814SOL    HW230342   0.129   0.709   0.357
 9815SOL     OW30343   5.626   4.001   2.595
 9815SOL    HW130344   5.613   3.925   2.659
 9815SOL    HW230345   5.721   4.002   2.564
 9816SOL     OW30346   0.278   1.887   6.068
 9816SOL    HW130347   0.222   1.825   6.124
 9816SOL    HW230348   0.351   1.926   6.124
 9817SOL     OW30349   2.659   5.626   2.637
 9817SOL    HW130350   2.674   5.651   2.541
 9817SOL    HW230351   2.563   5.644   2.661
 9818SOL     OW30352   1.782   0.830   4.190
 9818SOL    HW130353   1.768   0.828   4.288
 9818SOL    HW230354   1.851   0.899   4.168
 9819SOL     OW30355   4.960   2.854   4.823
 9819SOL    HW130356   4.939   2.927   4.889
 9819SOL    HW230357   4.996   2.895   4.739
 9820SOL     OW30358   3.659   3.477   5.857
 9820SOL    HW130359   3.667   3.559   5.914
 9820SOL    HW230360   3.605   3.408   5.906
 9821SOL     OW30361   4.982   0.889   0.651
 9821SOL    HW130362   5.021   0.883   0.559
 9821SOL    HW230363   4.890   0.927   0.646
 9822SOL     OW30364   2.289   5.602   3.728
 9822SOL    HW130365   2.329   5.532   3.669
 9822SOL    HW230366   2.203   5.568   3.767
 9823SOL     OW30367   2.488   0.209   1.636
 9823SOL    HW130368   2.496   0.152   1.554
 9823SOL    HW230369   2.393   0.236   1.649
 9824SOL     OW30370   1.679   5.865   4.256
 9824SOL    HW130371   1.685   5.940   4.323
 9824SOL    HW230372   1.758   5.805   4.267
 9825SOL     OW30373   5.535   6.944   4.434
 9825SOL    HW130374   5.463   6.875   4.433
 9825SOL    HW230375   5.620   6.904   4.467
 9826SOL     OW30376   3.430   6.136   5.336
 9826SOL    HW130377   3.451   6.074   5.260
 9826SOL    HW230378   3.335   6.166   5.329
 9827SOL     OW30379   1.816   4.142   3.517
 9827SOL    HW130380   1.833   4.047   3.541
 9827SOL    HW230381   1.903   4.192   3.514
 9828SOL     OW30382   3.355   2.610   5.313
 9828SOL    HW130383   3.297   2.535   5.282
 9828SOL    HW230384   3.366   2.678   5.240
 9829SOL     OW30385   4.712   5.971   6.602
 9829SOL    HW130386   4.613   5.965   6.589
 9829SOL    HW230387   4.750   6.037   6.537
 9830SOL     OW30388   5.201   1.566   1.917
 9830SOL    HW130389   5.271   1.576   1.988
 9830SOL    HW230390   5.214   1.479   1.870
 9831SOL     OW30391   0.997   4.391   2.692
 9831SOL    HW130392   0.981   4.468   2.631
 9831SOL    HW230393   0.910   4.348   2.715
 9832SOL     OW30394   4.918   5.484   1.758
 9832SOL    HW130395   4.850   5.497   1.830
 9832SOL    HW230396   5.010   5.487   1.798
 9833SOL     OW30397   3.488   3.451   3.247
 9833SOL    HW130398   3.541   3.367   3.254
 9833SOL    HW230399   3.391   3.429   3.239
 9834SOL     OW30400   2.043   4.444   5.460
 9834SOL    HW130401   1.971   4.420   5.395
 9834SOL    HW230402   2.122   4.479   5.410
 9835SOL     OW30403   3.717   3.362   4.261
 9835SOL    HW130404   3.816   3.376   4.257
 9835SOL    HW230405   3.691   3.286   4.202
 9836SOL     OW30406   0.641   4.119   4.414
 9836SOL    HW130407   0.578   4.189   4.378
 9836SOL    HW230408   0.596   4.030   4.412
 9837SOL     OW30409   5.006   0.485   2.787
 9837SOL    HW130410   5.025   0.518   2.880
 9837SOL    HW230411   5.089   0.491   2.732
 9838SOL     OW30412   1.586   6.881   0.578
 9838SOL    HW130413   1.600   6.783   0.593
 9838SOL    HW230414   1.489   6.903   0.590
 9839SOL     OW30415   4.926   6.521   2.946
 9839SOL    HW130416   4.873   6.512   3.030
 9839SOL    HW230417   4.890   6.457   2.877
 9840SOL     OW30418   5.002   1.994   0.707
 9840SOL    HW130419   4.905   1.978   0.689
 9840SOL    HW230420   5.024   2.090   0.687
 9841SOL     OW30421   1.148   4.391   4.092
 9841SOL    HW130422   1.246   4.408   4.078
 9841SOL    HW230423   1.131   4.377   4.190
 9842SOL     OW30424   3.683   3.324   1.389
 9842SOL    HW130425   3.588   3.296   1.376
 9842SOL    HW230426   3.716   3.288   1.476
 9843SOL     OW30427   6.592   0.169   1.650
 9843SOL    HW130428   6.530   0.110   1.598
 9843SOL    HW230429   6.642   0.228   1.587
 9844SOL     OW30430   6.376   1.185   4.024
 9844SOL    HW130431   6.379   1.085   4.021
 9844SOL    HW230432   6.369   1.215   4.119
 9845SOL     OW30433   1.594   1.989   3.379
 9845SOL    HW130434   1.494   1.992   3.389
 9845SOL    HW230435   1.635   1.964   3.467
 9846SOL     OW30436   4.515   2.170   0.689
 9846SOL    HW130437   4.441   2.137   0.630
 9846SOL    HW230438   4.581   2.221   0.634
 9847SOL     OW30439   4.054   3.594   2.394
 9847SOL    HW130440   3.973   3.621   2.445
 9847SOL    HW230441   4.128   3.571   2.457
 9848SOL     OW30442   4.512   4.827   5.962
 9848SOL    HW130443   4.530   4.892   5.889
 9848SOL    HW230444   4.550   4.862   6.048
 9849SOL     OW30445   0.967   0.299   6.468
 9849SOL    HW130446   1.011   0.301   6.378
 9849SOL    HW230447   0.917   0.384   6.484
 9850SOL     OW30448   0.253   0.830   3.925
 9850SOL    HW130449   0.237   0.732   3.938
 9850SOL    HW230450   0.237   0.854   3.829
 9851SOL     OW30451   2.380   0.372   4.436
 9851SOL    HW130452   2.402   0.354   4.340
 9851SOL    HW230453   2.465   0.391   4.487
 9852SOL     OW30454   1.738   1.438   4.946
 9852SOL    HW130455   1.752   1.491   5.029
 9852SOL    HW230456   1.736   1.500   4.867
 9853SOL     OW30457   6.598   3.461   5.244
 9853SOL    HW130458   6.644   3.429   5.162
 9853SOL    HW230459   6.665   3.500   5.307
 9854SOL     OW30460   0.448   5.800   4.314
 9854SOL    HW130461   0.463   5.898   4.328
 9854SOL    HW230462   0.493   5.749   4.388
 9855SOL     OW30463   2.053   3.670   0.559
 9855SOL    HW130464   2.138   3.707   0.520
 9855SOL    HW230465   2.043   3.700   0.653
 9856SOL     OW30466   5.420   4.649   3.835
 9856SOL    HW130467   5.351   4.694   3.779
 9856SOL    HW230468   5.450   4.711   3.907
 9857SOL     OW30469   5.277   2.359   2.962
 9857SOL    HW130470   5.349   2.425   2.941
 9857SOL    HW230471   5.188   2.401   2.944
 9858SOL     OW30472   0.472   6.668   1.497
 9858SOL    HW130473   0.471   6.754   1.444
 9858SOL    HW230474   0.469   6.690   1.595
 9859SOL     OW30475   6.667   5.256   3.945
 9859SOL    HW130476   6.660   5.340   4.000
 9859SOL    HW230477   6.747   5.263   3.885
 9860SOL     OW30478   1.777   2.684   4.881
 9860SOL    HW130479   1.759   2.748   4.957
 9860SOL    HW230480   1.746   2.593   4.907
 9861SOL     OW30481   2.693   0.459   3.294
 9861SOL    HW130482   2.680   0.527   3.366
 9861SOL    HW230483   2.734   0.377   3.334
 9862SOL     OW30484   2.549   4.088   0.326
 9862SOL    HW130485   2.512   4.040   0.246
 9862SOL    HW230486   2.618   4.031   0.370
 9863SOL     OW30487   3.171   6.046   1.159
 9863SOL    HW130488   3.080   6.045   1.118
 9863SOL    HW230489   3.188   5.958   1.203
 9864SOL     OW30490   3.420   0.517   4.980
 9864SOL    HW130491   3.402   0.613   5.000
 9864SOL    HW230492   3.465   0.509   4.891
 9865SOL     OW30493   1.283   6.514   4.085
 9865SOL    HW130494   1.299   6.422   4.051
 9865SOL    HW230495   1.370   6.562   4.095
 9866SOL     OW30496   6.333   4.469   5.453
 9866SOL    HW130497   6.319   4.374   5.424
 9866SOL    HW230498   6.245   4.510   5.475
 9867SOL     OW30499   6.444   1.984   2.973
 9867SOL    HW130500   6.401   2.074   2.975
 9867SOL    HW230501   6.374   1.914   2.985
 9868SOL     OW30502   0.847   3.353   4.281
 9868SOL    HW130503   0.929   3.390   4.325
 9868SOL    HW230504   0.830   3.402   4.196
 9869SOL     OW30505   0.544   2.949   0.906
 9869SOL    HW130506   0.601   2.926   0.827
 9869SOL    HW230507   0.538   2.869   0.967
 9870SOL     OW30508   4.413   6.345   2.756
 9870SOL    HW130509   4.346   6.279   2.724
 9870SOL    HW230510   4.430   6.331   2.854
 9871SOL     OW30511   6.546   3.333   5.804
 9871SOL    HW130512   6.449   3.352   5.788
 9871SOL    HW230513   6.580   3.271   5.735
 9872SOL     OW30514   2.629   5.392   4.702
 9872SOL    HW130515   2.548   5.433   4.660
 9872SOL    HW230516   2.680   5.342   4.632
 9873SOL     OW30517   2.226   2.570   0.047
 9873SOL    HW130518   2.145   2.570   7.016
 9873SOL    HW230519   2.199   2.566   0.144
 9874SOL     OW30520   0.717   3.330   5.651
 9874SOL    HW130521   0.752   3.421   5.630
 9874SOL    HW230522   0.622   3.336   5.683
 9875SOL     OW30523   6.280   5.533   2.550
 9875SOL    HW130524   6.205   5.598   2.562
 9875SOL    HW230525   6.260   5.472   2.473
 9876SOL     OW30526   5.495   0.940   3.715
 9876SOL    HW130527   5.404   0.929   3.755
 9876SOL    HW230528   5.558   0.972   3.786
 9877SOL     OW30529   6.908   4.736   4.253
 9877SOL    HW130530   6.880   4.642   4.270
 9877SOL    HW230531   6.974   4.764   4.322
 9878SOL     OW30532   2.535   3.731   5.771
 9878SOL    HW130533   2.592   3.805   5.808
 9878SOL    HW230534   2.516   3.664   5.843
 9879SOL     OW30535   6.587   4.604   5.435
 9879SOL    HW130536   6.602   4.572   5.341
 9879SOL    HW230537   6.492   4.587   5.461
 9880SOL     OW30538   2.123   0.788   0.759
 9880SOL    HW130539   2.047   0.841   0.722
 9880SOL    HW230540   2.127   0.800   0.858
 9881SOL     OW30541   6.707   1.582   4.208
 9881SOL    HW130542   6.608   1.595   4.221
 9881SOL    HW230543   6.736   1.502   4.261
 9882SOL     OW30544   3.267   3.669   5.763
 9882SOL    HW130545   3.171   3.696   5.772
 9882SOL    HW230546   3.314   3.687   5.849
 9883SOL     OW30547   0.704   6.507   1.224
 9883SOL    HW130548   0.729   6.596   1.185
 9883SOL    HW230549   0.617   6.516   1.274
 9884SOL     OW30550   4.189   1.928   1.024
 9884SOL    HW130551   4.160   1.950   1.117
 9884SOL    HW230552   4.285   1.953   1.012
 9885SOL     OW30553   0.820   3.129   4.726
 9885SOL    HW130554   0.795   3.171   4.639
 9885SOL    HW230555   0.800   3.193   4.800
 9886SOL     OW30556   6.780   6.078   2.391
 9886SOL    HW130557   6.863   6.078   2.336
 9886SOL    HW230558   6.801   6.112   2.483
 9887SOL     OW30559   3.287   0.064   0.176
 9887SOL    HW130560   3.209   0.095   0.230
 9887SOL    HW230561   3.368   0.116   0.203
 9888SOL     OW30562   5.510   5.863   3.222
 9888SOL    HW130563   5.474   5.948   3.261
 9888SOL    HW230564   5.520   5.794   3.294
 9889SOL     OW30565   1.050   5.214   2.219
 9889SOL    HW130566   0.982   5.285   2.202
 9889SOL    HW230567   1.096   5.231   2.306
 9890SOL     OW30568   0.197   3.344   0.925
 9890SOL    HW130569   0.286   3.319   0.963
 9890SOL    HW230570   0.146   3.261   0.904
 9891SOL     OW30571   5.607   4.520   1.393
 9891SOL    HW130572   5.557   4.487   1.313
 9891SOL    HW230573   5.551   4.508   1.475
 9892SOL     OW30574   2.035   5.824   3.398
 9892SOL    HW130575   2.113   5.886   3.406
 9892SOL    HW230576   2.066   5.730   3.409
 9893SOL     OW30577   6.432   6.568   2.399
 9893SOL    HW130578   6.418   6.565   2.498
 9893SOL    HW230579   6.423   6.476   2.361
 9894SOL     OW30580   2.589   1.615   6.248
 9894SOL    HW130581   2.582   1.643   6.344
 9894SOL    HW230582   2.653   1.676   6.200
 9895SOL     OW30583   6.309   2.013   5.792
 9895SOL    HW130584   6.232   1.988   5.733
 9895SOL    HW230585   6.330   2.110   5.781
 9896SOL     OW30586   5.058   2.317   6.845
 9896SOL    HW130587   5.077   2.343   6.940
 9896SOL    HW230588   5.006   2.232   6.843
 9897SOL     OW30589   4.855   0.566   2.361
 9897SOL    HW130590   4.896   0.596   2.275
 9897SOL    HW230591   4.908   0.603   2.438
 9898SOL     OW30592   0.404   5.059   4.729
 9898SOL    HW130593   0.413   4.995   4.652
 9898SOL    HW230594   0.346   5.136   4.701
 9899SOL     OW30595   6.595   4.814   2.501
 9899SOL    HW130596   6.555   4.900   2.532
 9899SOL    HW230597   6.533   4.770   2.435
 9900SOL     OW30598   2.252   2.305   2.928
 9900SOL    HW130599   2.166   2.307   2.877
 9900SOL    HW230600   2.267   2.393   2.973
 9901SOL     OW30601   1.592   1.735   0.462
 9901SOL    HW130602   1.600   1.698   0.554
 9901SOL    HW230603   1.682   1.734   0.417
 9902SOL     OW30604   3.924   3.423   1.373
 9902SOL    HW130605   3.976   3.382   1.448
 9902SOL    HW230606   3.837   3.376   1.363
 9903SOL     OW30607   4.552   6.756   2.296
 9903SOL    HW130608   4.626   6.697   2.264
 9903SOL    HW230609   4.518   6.722   2.384
 9904SOL     OW30610   6.729   3.879   6.975
 9904SOL    HW130611   6.813   3.860   7.026
 9904SOL    HW230612   6.685   3.960   7.013
 9905SOL     OW30613   1.772   6.435   0.387
 9905SOL    HW130614   1.751   6.426   0.289
 9905SOL    HW230615   1.823   6.355   0.418
 9906SOL     OW30616   1.777   3.629   0.077
 9906SOL    HW130617   1.802   3.549   0.023
 9906SOL    HW230618   1.843   3.641   0.151
 9907SOL     OW30619   2.154   0.143   3.595
 9907SOL    HW130620   2.229   0.156   3.660
 9907SOL    HW230621   2.115   0.232   3.572
 9908SOL     OW30622   0.578   4.044   5.440
 9908SOL    HW130623   0.581   3.974   5.512
 9908SOL    HW230624   0.616   4.007   5.356
 9909SOL     OW30625   3.882   0.222   3.463
 9909SOL    HW130626   3.901   0.283   3.540
 9909SOL    HW230627   3.786   0.194   3.466
 9910SOL     OW30628   0.900   4.980   1.530
 9910SOL    HW130629   0.898   5.046   1.455
 9910SOL    HW230630   0.827   4.912   1.516
 9911SOL     OW30631   4.505   5.501   2.602
 9911SOL    HW130632   4.447   5.420   2.607
 9911SOL    HW230633   4.521   5.537   2.693
 9912SOL     OW30634   4.212   1.109   1.624
 9912SOL    HW130635   4.178   1.065   1.541
 9912SOL    HW230636   4.148   1.181   1.652
 9913SOL     OW30637   6.640   3.058   2.616
 9913SOL    HW130638   6.685   3.137   2.574
 9913SOL    HW230639   6.570   3.090   2.680
 9914SOL     OW30640   0.758   0.480   5.719
 9914SOL    HW130641   0.812   0.553   5.677
 9914SOL    HW230642   0.661   0.506   5.719
 9915SOL     OW30643   4.861   2.921   4.224
 9915SOL    HW130644   4.848   2.824   4.202
 9915SOL    HW230645   4.827   2.977   4.149
 9916SOL     OW30646   2.395   2.418   3.363
 9916SOL    HW130647   2.443   2.359   3.428
 9916SOL    HW230648   2.351   2.362   3.293
 9917SOL     OW30649   3.187   3.381   4.238
 9917SOL    HW130650   3.172   3.457   4.175
 9917SOL    HW230651   3.284   3.376   4.263
 9918SOL     OW30652   0.467   2.212   0.651
 9918SOL    HW130653   0.535   2.220   0.724
 9918SOL    HW230654   0.384   2.169   0.687
 9919SOL     OW30655   2.461   5.504   1.359
 9919SOL    HW130656   2.544   5.501   1.304
 9919SOL    HW230657   2.394   5.565   1.316
 9920SOL     OW30658   3.474   0.991   3.133
 9920SOL    HW130659   3.501   1.051   3.208
 9920SOL    HW230660   3.461   0.898   3.168
 9921SOL     OW30661   5.408   6.050   4.405
 9921SOL    HW130662   5.351   6.117   4.452
 9921SOL    HW230663   5.504   6.080   4.407
 9922SOL     OW30664   4.721   4.342   0.792
 9922SOL    HW130665   4.755   4.296   0.709
 9922SOL    HW230666   4.655   4.283   0.838
 9923SOL     OW30667   7.009   3.430   0.290
 9923SOL    HW130668   0.010   3.499   0.357
 9923SOL    HW230669   6.937   3.466   0.232
 9924SOL     OW30670   5.763   2.330   2.955
 9924SOL    HW130671   5.813   2.364   2.876
 9924SOL    HW230672   5.684   2.389   2.973
 9925SOL     OW30673   1.965   4.324   4.905
 9925SOL    HW130674   2.028   4.401   4.916
 9925SOL    HW230675   2.014   4.247   4.865
 9926SOL     OW30676   3.149   2.311   1.402
 9926SOL    HW130677   3.126   2.237   1.339
 9926SOL    HW230678   3.170   2.274   1.492
 9927SOL     OW30679   0.663   2.243   1.207
 9927SOL    HW130680   0.600   2.313   1.243
 9927SOL    HW230681   0.721   2.211   1.282
 9928SOL     OW30682   5.894   3.942   2.514
 9928SOL    HW130683   5.910   3.919   2.610
 9928SOL    HW230684   5.911   4.040   2.501
 9929SOL     OW30685   3.359   4.434   5.512
 9929SOL    HW130686   3.326   4.527   5.530
 9929SOL    HW230687   3.283   4.377   5.481
 9930SOL     OW30688   0.456   0.010   6.030
 9930SOL    HW130689   0.424   0.022   5.936
 9930SOL    HW230690   0.484   6.941   6.044
 9931SOL     OW30691   7.015   5.498   5.143
 9931SOL    HW130692   6.983   5.417   5.093
 9931SOL    HW230693   6.988   5.490   5.239
 9932SOL     OW30694   1.317   2.036   6.903
 9932SOL    HW130695   1.225   2.069   6.881
 9932SOL    HW230696   1.384   2.079   6.842
 9933SOL     OW30697   1.745   0.896   3.813
 9933SOL    HW130698   1.772   0.992   3.822
 9933SOL    HW230699   1.827   0.839   3.805
 9934SOL     OW30700   6.154   2.296   6.987
 9934SOL    HW130701   6.218   2.372   6.972
 9934SOL    HW230702   6.077   2.328   0.015
 9935SOL     OW30703   2.295   1.170   0.482
 9935SOL    HW130704   2.358   1.093   0.474
 9935SOL    HW230705   2.268   1.181   0.578
 9936SOL     OW30706   6.050   5.037   6.470
 9936SOL    HW130707   6.081   5.077   6.557
 9936SOL    HW230708   6.108   4.960   6.446
 9937SOL     OW30709   1.611   0.918   2.835
 9937SOL    HW130710   1.538   0.982   2.815
 9937SOL    HW230711   1.577   0.824   2.827
 9938SOL     OW30712   5.775   0.301   3.584
 9938SOL    HW130713   5.804   0.302   3.680
 9938SOL    HW230714   5.783   0.394   3.546
 9939SOL     OW30715   2.345   3.116   1.165
 9939SOL    HW130716   2.274   3.175   1.202
 9939SOL    HW230717   2.350   3.129   1.066
 9940SOL     OW30718   0.977   0.882   3.397
 9940SOL    HW130719   0.918   0.879   3.316
 9940SOL    HW230720   1.072   0.866   3.369
 9941SOL     OW30721   3.000   5.491   5.643
 9941SOL    HW130722   2.928   5.549   5.604
 9941SOL    HW230723   3.028   5.527   5.731
 9942SOL     OW30724   4.666   5.325   2.173
 9942SOL    HW130725   4.654   5.397   2.242
 9942SOL    HW230726   4.578   5.306   2.129
 9943SOL     OW30727   0.867   4.408   6.472
 9943SOL    HW130728   0.902   4.326   6.427
 9943SOL    HW230729   0.858   4.481   6.404
 9944SOL     OW30730   6.702   5.571   6.284
 9944SOL    HW130731   6.623   5.523   6.247
 9944SOL    HW230732   6.681   5.605   6.376
 9945SOL     OW30733   5.699   3.829   6.794
 9945SOL    HW130734   5.752   3.913   6.799
 9945SOL    HW230735   5.622   3.842   6.732
 9946SOL     OW30736   6.515   0.098   3.340
 9946SOL    HW130737   6.607   0.078   3.307
 9946SOL    HW230738   6.503   0.197   3.349
 9947SOL     OW30739   1.992   1.567   3.766
 9947SOL    HW130740   1.976   1.595   3.861
 9947SOL    HW230741   1.967   1.642   3.705
 9948SOL     OW30742   6.639   5.478   5.179
 9948SOL    HW130743   6.676   5.421   5.105
 9948SOL    HW230744   6.691   5.562   5.186
 9949SOL     OW30745   6.972   5.185   4.164
 9949SOL    HW130746   6.901   5.232   4.218
 9949SOL    HW230747   6.928   5.131   4.092
 9950SOL     OW30748   6.621   5.110   5.804
 9950SOL    HW130749   6.669   5.034   5.760
 9950SOL    HW230750   6.680   5.191   5.803
 9951SOL     OW30751   1.603   1.996   2.694
 9951SOL    HW130752   1.557   2.075   2.654
 9951SOL    HW230753   1.574   1.913   2.646
 9952SOL     OW30754   1.634   4.094   1.262
 9952SOL    HW130755   1.724   4.052   1.273
 9952SOL    HW230756   1.571   4.057   1.330
 9953SOL     OW30757   5.325   2.424   3.550
 9953SOL    HW130758   5.395   2.491   3.576
 9953SOL    HW230759   5.324   2.349   3.616
 9954SOL     OW30760   1.478   0.604   4.728
 9954SOL    HW130761   1.488   0.509   4.757
 9954SOL    HW230762   1.454   0.661   4.807
 9955SOL     OW30763   3.979   3.880   6.584
 9955SOL    HW130764   3.983   3.803   6.519
 9955SOL    HW230765   3.893   3.876   6.634
 9956SOL     OW30766   0.598   3.780   2.592
 9956SOL    HW130767   0.585   3.701   2.532
 9956SOL    HW230768   0.680   3.768   2.647
 9957SOL     OW30769   5.223   0.071   1.777
 9957SOL    HW130770   5.182   7.006   1.775
 9957SOL    HW230771   5.318   0.064   1.807
 9958SOL     OW30772   2.954   6.058   5.654
 9958SOL    HW130773   2.949   6.022   5.747
 9958SOL    HW230774   3.042   6.105   5.642
 9959SOL     OW30775   4.134   3.279   2.413
 9959SOL    HW130776   4.211   3.241   2.465
 9959SOL    HW230777   4.143   3.379   2.410
 9960SOL     OW30778   0.579   6.364   1.004
 9960SOL    HW130779   0.569   6.429   1.080
 9960SOL    HW230780   0.637   6.405   0.934
 9961SOL     OW30781   2.545   4.563   2.569
 9961SOL    HW130782   2.569   4.511   2.650
 9961SOL    HW230783   2.467   4.622   2.589
 9962SOL     OW30784   3.813   0.872   1.981
 9962SOL    HW130785   3.836   0.777   1.965
 9962SOL    HW230786   3.817   0.923   1.895
 9963SOL     OW30787   2.671   3.392   6.530
 9963SOL    HW130788   2.648   3.469   6.591
 9963SOL    HW230789   2.610   3.393   6.451
 9964SOL     OW30790   3.858   4.812   5.641
 9964SOL    HW130791   3.930   4.743   5.636
 9964SOL    HW230792   3.859   4.869   5.559
 9965SOL     OW30793   3.195   5.436   4.614
 9965SOL    HW130794   3.206   5.434   4.714
 9965SOL    HW230795   3.284   5.429   4.571
 9966SOL     OW30796   2.352   5.317   1.775
 9966SOL    HW130797   2.407   5.270   1.845
 9966SOL    HW230798   2.411   5.342   1.698
 9967SOL     OW30799   6.250   5.028   2.704
 9967SOL    HW130800   6.319   5.032   2.777
 9967SOL    HW230801   6.259   5.109   2.646
 9968SOL     OW30802   4.116   5.476   6.674
 9968SOL    HW130803   4.158   5.514   6.592
 9968SOL    HW230804   4.038   5.533   6.701
 9969SOL     OW30805   1.570   2.884   4.406
 9969SOL    HW130806   1.646   2.852   4.349
 9969SOL    HW230807   1.578   2.983   4.421
 9970SOL     OW30808   6.831   5.063   1.578
 9970SOL    HW130809   6.880   5.130   1.634
 9970SOL    HW230810   6.850   5.079   1.481
 9971SOL     OW30811   2.521   3.797   0.937
 9971SOL    HW130812   2.525   3.711   0.988
 9971SOL    HW230813   2.585   3.862   0.976
 9972SOL     OW30814   2.901   4.515   0.661
 9972SOL    HW130815   2.814   4.524   0.612
 9972SOL    HW230816   2.899   4.433   0.718
 9973SOL     OW30817   4.095   2.282   4.352
 9973SOL    HW130818   4.133   2.317   4.437
 9973SOL    HW230819   4.057   2.191   4.367
 9974SOL     OW30820   0.116   3.389   2.906
 9974SOL    HW130821   0.066   3.473   2.884
 9974SOL    HW230822   0.101   3.321   2.834
 9975SOL     OW30823   0.032   5.077   6.573
 9975SOL    HW130824   7.004   5.042   6.649
 9975SOL    HW230825   0.060   5.001   6.514
 9976SOL     OW30826   0.455   5.131   5.443
 9976SOL    HW130827   0.382   5.065   5.428
 9976SOL    HW230828   0.454   5.161   5.538
 9977SOL     OW30829   5.934   5.215   6.012
 9977SOL    HW130830   5.965   5.124   6.039
 9977SOL    HW230831   5.950   5.227   5.914
 9978SOL     OW30832   6.335   1.429   5.496
 9978SOL    HW130833   6.286   1.460   5.577
 9978SOL    HW230834   6.410   1.492   5.477
 9979SOL     OW30835   6.855   4.022   6.443
 9979SOL    HW130836   6.934   3.977   6.401
 9979SOL    HW230837   6.868   4.027   6.542
 9980SOL     OW30838   1.439   0.443   0.652
 9980SOL    HW130839   1.414   0.358   0.698
 9980SOL    HW230840   1.440   0.517   0.719
 9981SOL     OW30841   2.855   2.287   0.640
 9981SOL    HW130842   2.924   2.346   0.599
 9981SOL    HW230843   2.840   2.314   0.735
 9982SOL     OW30844   1.215   1.256   3.931
 9982SOL    HW130845   1.220   1.326   3.860
 9982SOL    HW230846   1.140   1.277   3.994
 9983SOL     OW30847   0.519   1.218   2.229
 9983SOL    HW130848   0.474   1.301   2.261
 9983SOL    HW230849   0.558   1.233   2.138
 9984SOL     OW30850   0.571   6.775   0.160
 9984SOL    HW130851   0.646   6.736   0.107
 9984SOL    HW230852   0.560   6.722   0.244
 9985SOL     OW30853   3.308   6.281   1.225
 9985SOL    HW130854   3.250   6.200   1.211
 9985SOL    HW230855   3.259   6.363   1.196
 9986SOL     OW30856   5.884   4.875   1.028
 9986SOL    HW130857   5.815   4.817   0.984
 9986SOL    HW230858   5.938   4.922   0.959
 9987SOL     OW30859   6.363   2.229   2.986
 9987SOL    HW130860   6.431   2.300   2.969
 9987SOL    HW230861   6.280   2.270   3.023
 9988SOL     OW30862   6.759   5.289   4.295
 9988SOL    HW130863   6.670   5.279   4.251
 9988SOL    HW230864   6.747   5.302   4.393
 9989SOL     OW30865   6.095   4.138   2.743
 9989SOL    HW130866   5.996   4.149   2.744
 9989SOL    HW230867   6.121   4.064   2.806
 9990SOL     OW30868   2.247   6.623   3.620
 9990SOL    HW130869   2.186   6.553   3.583
 9990SOL    HW230870   2.194   6.703   3.647
 9991SOL     OW30871   2.185   3.086   4.096
 9991SOL    HW130872   2.223   2.994   4.092
 9991SOL    HW230873   2.255   3.150   4.126
 9992SOL     OW30874   4.216   3.502   0.640
 9992SOL    HW130875   4.194   3.425   0.580
 9992SOL    HW230876   4.209   3.473   0.735
 9993SOL     OW30877   4.146   6.674   3.396
 9993SOL    HW130878   4.182   6.766   3.380
 9993SOL    HW230879   4.213   6.621   3.448
 9994SOL     OW30880   7.003   4.199   2.345
 9994SOL    HW130881   6.970   4.105   2.358
 9994SOL    HW230882   6.952   4.243   2.271
 9995SOL     OW30883   3.462   0.302   3.654
 9995SOL    HW130884   3.387   0.338   3.598
 9995SOL    HW230885   3.424   0.240   3.723
 9996SOL     OW30886   2.773   3.266   1.725
 9996SOL    HW130887   2.673   3.279   1.724
 9996SOL    HW230888   2.813   3.331   1.790
 9997SOL     OW30889   4.977   0.927   1.838
 9997SOL    HW130890   4.936   1.008   1.797
 9997SOL    HW230891   5.063   0.906   1.792
 9998SOL     OW30892   5.696   3.696   2.397
 9998SOL    HW130893   5.712   3.765   2.467
 9998SOL    HW230894   5.712   3.735   2.307
 9999SOL     OW30895   0.294   5.807   4.971
 9999SOL    HW130896   0.336   5.883   5.021
 9999SOL    HW230897   0.220   5.842   4.913
10000SOL     OW30898   5.581   1.964   6.846
10000SOL    HW130899   5.517   1.954   6.922
10000SOL    HW230900   5.654   2.027   6.871
10001SOL     OW30901   4.135   0.995   1.397
10001SOL    HW130902   4.052   0.982   1.343
10001SOL    HW230903   4.207   0.935   1.362
10002SOL     OW30904   1.574   1.022   1.933
10002SOL    HW130905   1.619   1.083   1.998
10002SOL    HW230906   1.630   1.014   1.851
10003SOL     OW30907   3.072   2.161   2.275
10003SOL    HW130908   3.150   2.118   2.230
10003SOL    HW230909   3.032   2.230   2.215
10004SOL     OW30910   5.624   3.076   5.011
10004SOL    HW130911   5.648   3.091   4.915
10004SOL    HW230912   5.534   3.032   5.017
10005SOL     OW30913   3.049   5.619   2.298
10005SOL    HW130914   2.983   5.568   2.353
10005SOL    HW230915   3.030   5.716   2.305
10006SOL     OW30916   5.989   0.174   5.692
10006SOL    HW130917   6.008   0.176   5.790
10006SOL    HW230918   6.051   0.110   5.647
10007SOL     OW30919   0.572   3.160   4.066
10007SOL    HW130920   0.666   3.185   4.042
10007SOL    HW230921   0.541   3.085   4.008
10008SOL     OW30922   4.472   1.078   3.387
10008SOL    HW130923   4.426   1.064   3.475
10008SOL    HW230924   4.458   0.998   3.329
10009SOL     OW30925   1.644   4.345   1.617
10009SOL    HW130926   1.551   4.330   1.583
10009SOL    HW230927   1.639   4.382   1.710
10010SOL     OW30928   2.608   6.183   0.240
10010SOL    HW130929   2.519   6.215   0.206
10010SOL    HW230930   2.595   6.102   0.297
10011SOL     OW30931   0.651   3.808   6.630
10011SOL    HW130932   0.749   3.824   6.643
10011SOL    HW230933   0.632   3.711   6.642
10012SOL     OW30934   5.333   6.992   2.402
10012SOL    HW130935   5.424   0.005   2.417
10012SOL    HW230936   5.320   6.915   2.466
10013SOL     OW30937   1.615   1.791   3.837
10013SOL    HW130938   1.696   1.754   3.884
10013SOL    HW230939   1.579   1.869   3.888
10014SOL     OW30940   0.698   1.549   1.246
10014SOL    HW130941   0.630   1.488   1.206
10014SOL    HW230942   0.790   1.514   1.228
10015SOL     OW30943   4.018   5.316   6.959
10015SOL    HW130944   4.035   5.276   6.869
10015SOL    HW230945   3.965   5.252   7.014
10016SOL     OW30946   1.505   0.713   4.257
10016SOL    HW130947   1.415   0.753   4.243
10016SOL    HW230948   1.568   0.744   4.185
10017SOL     OW30949   1.556   1.756   2.909
10017SOL    HW130950   1.544   1.753   2.809
10017SOL    HW230951   1.488   1.817   2.949
10018SOL     OW30952   6.711   4.424   6.101
10018SOL    HW130953   6.730   4.351   6.167
10018SOL    HW230954   6.753   4.400   6.013
10019SOL     OW30955   0.856   2.013   3.430
10019SOL    HW130956   0.859   2.012   3.330
10019SOL    HW230957   0.761   2.004   3.461
10020SOL     OW30958   0.430   0.789   1.372
10020SOL    HW130959   0.398   0.836   1.290
10020SOL    HW230960   0.480   0.853   1.429
10021SOL     OW30961   1.161   1.941   2.480
10021SOL    HW130962   1.108   1.861   2.509
10021SOL    HW230963   1.116   1.985   2.403
10022SOL     OW30964   3.653   6.959   0.814
10022SOL    HW130965   3.669   6.983   0.910
10022SOL    HW230966   3.737   6.976   0.762
10023SOL     OW30967   1.946   5.034   4.961
10023SOL    HW130968   1.930   5.100   4.888
10023SOL    HW230969   2.009   4.963   4.929
10024SOL     OW30970   1.977   6.060   1.303
10024SOL    HW130971   2.011   6.112   1.381
10024SOL    HW230972   2.050   6.048   1.236
10025SOL     OW30973   2.238   2.959   1.893
10025SOL    HW130974   2.138   2.953   1.898
10025SOL    HW230975   2.277   2.869   1.905
10026SOL     OW30976   4.848   0.058   3.301
10026SOL    HW130977   4.832   7.011   3.235
10026SOL    HW230978   4.916   0.122   3.265
10027SOL     OW30979   0.449   3.081   4.985
10027SOL    HW130980   0.508   3.084   5.065
10027SOL    HW230981   0.480   3.150   4.919
10028SOL     OW30982   1.775   1.764   2.286
10028SOL    HW130983   1.752   1.787   2.192
10028SOL    HW230984   1.830   1.680   2.288
10029SOL     OW30985   1.915   1.662   4.024
10029SOL    HW130986   1.915   1.758   4.053
10029SOL    HW230987   1.875   1.606   4.096
10030SOL     OW30988   3.221   0.216   4.932
10030SOL    HW130989   3.161   0.285   4.891
10030SOL    HW230990   3.308   0.214   4.882
10031SOL     OW30991   5.782   4.569   4.188
10031SOL    HW130992   5.766   4.492   4.126
10031SOL    HW230993   5.713   4.568   4.261
10032SOL     OW30994   4.139   0.609   5.204
10032SOL    HW130995   4.057   0.554   5.218
10032SOL    HW230996   4.155   0.667   5.284
10033SOL     OW30997   4.745   2.585   3.931
10033SOL    HW130998   4.805   2.507   3.945
10033SOL    HW230999   4.666   2.577   3.991
10034SOL     OW31000   3.597   0.331   4.205
10034SOL    HW131001   3.558   0.293   4.121
10034SOL    HW231002   3.683   0.284   4.226
10035SOL     OW31003   6.662   4.879   1.662
10035SOL    HW131004   6.722   4.937   1.606
10035SOL    HW231005   6.718   4.816   1.716
10036SOL     OW31006   6.345   0.605   0.826
10036SOL    HW131007   6.306   0.521   0.864
10036SOL    HW231008   6.342   0.602   0.727
10037SOL     OW31009   5.866   1.375   0.322
10037SOL    HW131010   5.886   1.300   0.260
10037SOL    HW231011   5.947   1.395   0.377
10038SOL     OW31012   4.466   0.884   6.246
10038SOL    HW131013   4.521   0.903   6.327
10038SOL    HW231014   4.418   0.797   6.257
10039SOL     OW31015   3.791   6.314   5.362
10039SOL    HW131016   3.701   6.356   5.353
10039SOL    HW231017   3.835   6.309   5.272
10040SOL     OW31018   4.216   6.026   6.418
10040SOL    HW131019   4.121   6.017   6.449
10040SOL    HW231020   4.224   5.990   6.325
10041SOL     OW31021   4.064   5.743   6.929
10041SOL    HW131022   3.982   5.689   6.948
10041SOL    HW231023   4.060   5.828   6.981
10042SOL     OW31024   1.740   2.142   5.126
10042SOL    HW131025   1.660   2.093   5.092
10042SOL    HW231026   1.778   2.094   5.205
10043SOL     OW31027   0.550   2.499   4.554
10043SOL    HW131028   0.472   2.554   4.584
10043SOL    HW231029   0.633   2.530   4.602
10044SOL     OW31030   2.998   1.599   4.696
10044SOL    HW131031   2.905   1.636   4.693
10044SOL    HW231032   3.031   1.598   4.790
10045SOL     OW31033   5.102   6.777   3.737
10045SOL    HW131034   5.034   6.730   3.681
10045SOL    HW231035   5.092   6.748   3.832
10046SOL     OW31036   1.861   3.448   1.255
10046SOL    HW131037   1.934   3.511   1.280
10046SOL    HW231038   1.784   3.459   1.318
10047SOL     OW31039   6.451   3.042   4.956
10047SOL    HW131040   6.549   3.051   4.937
10047SOL    HW231041   6.437   3.044   5.055
10048SOL     OW31042   6.299   1.296   2.498
10048SOL    HW131043   6.308   1.288   2.597
10048SOL    HW231044   6.211   1.338   2.476
10049SOL     OW31045   0.336   0.419   6.826
10049SOL    HW131046   0.238   0.441   6.827
10049SOL    HW231047   0.354   0.346   6.891
10050SOL     OW31048   5.939   2.364   4.573
10050SOL    HW131049   5.968   2.345   4.667
10050SOL    HW231050   5.993   2.309   4.510
10051SOL     OW31051   6.048   2.192   5.227
10051SOL    HW131052   5.999   2.157   5.148
10051SOL    HW231053   6.127   2.134   5.246
10052SOL     OW31054   2.615   2.205   2.721
10052SOL    HW131055   2.588   2.290   2.677
10052SOL    HW231056   2.541   2.172   2.780
10053SOL     OW31057   3.311   6.031   2.012
10053SOL    HW131058   3.288   5.942   2.051
10053SOL    HW231059   3.231   6.091   2.016
10054SOL     OW31060   5.057   5.119   6.321
10054SOL    HW131061   4.992   5.194   6.310
10054SOL    HW231062   5.150   5.156   6.319
10055SOL     OW31063   6.299   1.921   4.992
10055SOL    HW131064   6.321   1.996   4.930
10055SOL    HW231065   6.209   1.884   4.969
10056SOL     OW31066   5.909   4.213   2.480
10056SOL    HW131067   5.834   4.267   2.443
10056SOL    HW231068   5.971   4.272   2.531
10057SOL     OW31069   3.717   1.715   4.670
10057SOL    HW131070   3.679   1.767   4.747
10057SOL    HW231071   3.725   1.775   4.591
10058SOL     OW31072   0.528   3.890   4.447
10058SOL    HW131073   0.457   3.852   4.505
10058SOL    HW231074   0.611   3.834   4.454
10059SOL     OW31075   5.647   0.654   1.170
10059SOL    HW131076   5.617   0.746   1.143
10059SOL    HW231077   5.740   0.659   1.206
10060SOL     OW31078   1.543   1.456   1.188
10060SOL    HW131079   1.635   1.495   1.180
10060SOL    HW231080   1.547   1.357   1.172
10061SOL     OW31081   4.761   1.547   4.344
10061SOL    HW131082   4.810   1.598   4.273
10061SOL    HW231083   4.793   1.452   4.344
10062SOL     OW31084   6.493   0.389   4.026
10062SOL    HW131085   6.494   0.436   4.115
10062SOL    HW231086   6.516   0.292   4.040
10063SOL     OW31087   2.355   0.656   3.764
10063SOL    HW131088   2.279   0.611   3.718
10063SOL    HW231089   2.426   0.680   3.697
10064SOL     OW31090   5.018   6.756   7.020
10064SOL    HW131091   5.078   6.831   0.024
10064SOL    HW231092   5.046   6.671   0.039
10065SOL     OW31093   2.066   0.355   2.238
10065SOL    HW131094   2.098   0.354   2.144
10065SOL    HW231095   2.128   0.303   2.296
10066SOL     OW31096   0.839   2.424   3.875
10066SOL    HW131097   0.775   2.480   3.928
10066SOL    HW231098   0.814   2.328   3.885
10067SOL     OW31099   6.589   4.097   5.174
10067SOL    HW131100   6.529   4.018   5.161
10067SOL    HW231101   6.562   4.171   5.112
10068SOL     OW31102   0.105   3.449   3.329
10068SOL    HW131103   0.086   3.374   3.392
10068SOL    HW231104   0.070   3.426   3.238
10069SOL     OW31105   2.569   5.252   2.997
10069SOL    HW131106   2.571   5.223   3.092
10069SOL    HW231107   2.579   5.352   2.992
10070SOL     OW31108   6.394   6.794   5.151
10070SOL    HW131109   6.486   6.756   5.148
10070SOL    HW231110   6.338   6.752   5.080
10071SOL     OW31111   6.046   5.649   4.181
10071SOL    HW131112   6.090   5.610   4.261
10071SOL    HW231113   6.111   5.707   4.132
10072SOL     OW31114   6.938   6.299   3.958
10072SOL    HW131115   6.899   6.295   4.050
10072SOL    HW231116   6.868   6.332   3.894
10073SOL     OW31117   5.829   4.534   5.297
10073SOL    HW131118   5.830   4.607   5.229
10073SOL    HW231119   5.848   4.446   5.252
10074SOL     OW31120   1.362   0.531   5.463
10074SOL    HW131121   1.413   0.605   5.419
10074SOL    HW231122   1.412   0.500   5.544
10075SOL     OW31123   1.983   2.808   2.946
10075SOL    HW131124   1.970   2.881   2.880
10075SOL    HW231125   2.032   2.732   2.902
10076SOL     OW31126   0.047   0.325   4.061
10076SOL    HW131127   0.129   0.270   4.073
10076SOL    HW231128   0.048   0.402   4.125
10077SOL     OW31129   4.163   3.041   6.382
10077SOL    HW131130   4.134   3.069   6.291
10077SOL    HW231131   4.199   2.948   6.379
10078SOL     OW31132   0.630   5.540   4.124
10078SOL    HW131133   0.567   5.609   4.089
10078SOL    HW231134   0.591   5.449   4.111
10079SOL     OW31135   6.732   3.898   3.278
10079SOL    HW131136   6.646   3.911   3.327
10079SOL    HW231137   6.787   3.982   3.284
10080SOL     OW31138   4.458   1.335   5.601
10080SOL    HW131139   4.518   1.296   5.672
10080SOL    HW231140   4.507   1.406   5.551
10081SOL     OW31141   6.870   0.528   0.916
10081SOL    HW131142   6.784   0.577   0.930
10081SOL    HW231143   6.930   0.543   0.995
10082SOL     OW31144   0.299   5.466   1.419
10082SOL    HW131145   0.218   5.420   1.454
10082SOL    HW231146   0.286   5.487   1.322
10083SOL     OW31147   4.291   1.102   3.635
10083SOL    HW131148   4.273   1.005   3.645
10083SOL    HW231149   4.205   1.153   3.635
10084SOL     OW31150   1.914   0.785   5.375
10084SOL    HW131151   1.880   0.859   5.433
10084SOL    HW231152   1.961   0.717   5.432
10085SOL     OW31153   2.588   5.907   1.175
10085SOL    HW131154   2.628   5.904   1.266
10085SOL    HW231155   2.567   5.814   1.144
10086SOL     OW31156   4.217   5.814   2.501
10086SOL    HW131157   4.286   5.867   2.451
10086SOL    HW231158   4.167   5.874   2.563
10087SOL     OW31159   6.878   6.834   3.775
10087SOL    HW131160   6.801   6.785   3.735
10087SOL    HW231161   6.851   6.928   3.798
10088SOL     OW31162   6.711   0.344   1.482
10088SOL    HW131163   6.805   0.375   1.465
10088SOL    HW231164   6.660   0.342   1.397
10089SOL     OW31165   2.862   1.909   2.295
10089SOL    HW131166   2.770   1.948   2.299
10089SOL    HW231167   2.927   1.973   2.336
10090SOL     OW31168   1.474   4.744   1.625
10090SOL    HW131169   1.419   4.666   1.654
10090SOL    HW231170   1.460   4.820   1.687
10091SOL     OW31171   0.411   4.379   6.390
10091SOL    HW131172   0.461   4.337   6.466
10091SOL    HW231173   0.319   4.338   6.385
10092SOL     OW31174   2.375   2.357   5.559
10092SOL    HW131175   2.360   2.270   5.606
10092SOL    HW231176   2.367   2.432   5.625
10093SOL     OW31177   6.476   2.824   4.741
10093SOL    HW131178   6.466   2.922   4.757
10093SOL    HW231179   6.572   2.803   4.721
10094SOL     OW31180   2.781   5.854   1.681
10094SOL    HW131181   2.694   5.836   1.726
10094SOL    HW231182   2.831   5.924   1.732
10095SOL     OW31183   5.946   1.777   5.238
10095SOL    HW131184   6.037   1.740   5.219
10095SOL    HW231185   5.877   1.720   5.193
10096SOL     OW31186   4.456   5.028   3.017
10096SOL    HW131187   4.385   4.957   3.022
10096SOL    HW231188   4.420   5.106   2.964
10097SOL     OW31189   0.770   1.346   0.471
10097SOL    HW131190   0.837   1.295   0.526
10097SOL    HW231191   0.679   1.309   0.487
10098SOL     OW31192   2.822   0.242   5.021
10098SOL    HW131193   2.759   0.296   4.964
10098SOL    HW231194   2.850   0.296   5.100
10099SOL     OW31195   0.092   5.222   1.247
10099SOL    HW131196   0.033   5.147   1.217
10099SOL    HW231197   0.079   5.238   1.345
10100SOL     OW31198   4.663   0.080   4.871
10100SOL    HW131199   4.584   0.065   4.812
10100SOL    HW231200   4.685   0.177   4.874
10101SOL     OW31201   6.388   3.686   1.928
10101SOL    HW131202   6.459   3.727   1.870
10101SOL    HW231203   6.414   3.696   2.024
10102SOL     OW31204   0.415   1.450   2.630
10102SOL    HW131205   0.504   1.429   2.672
10102SOL    HW231206   0.370   1.365   2.604
10103SOL     OW31207   2.479   0.719   6.013
10103SOL    HW131208   2.391   0.673   6.008
10103SOL    HW231209   2.546   0.669   5.959
10104SOL     OW31210   1.963   1.908   4.256
10104SOL    HW131211   1.915   1.865   4.332
10104SOL    HW231212   2.055   1.870   4.249
10105SOL     OW31213   1.553   0.888   0.213
10105SOL    HW131214   1.473   0.939   0.181
10105SOL    HW231215   1.626   0.952   0.238
10106SOL     OW31216   3.760   6.353   0.427
10106SOL    HW131217   3.756   6.294   0.508
10106SOL    HW231218   3.717   6.307   0.350
10107SOL     OW31219   5.920   1.447   5.738
10107SOL    HW131220   5.992   1.463   5.806
10107SOL    HW231221   5.910   1.349   5.724
10108SOL     OW31222   6.447   0.235   0.041
10108SOL    HW131223   6.473   0.232   6.971
10108SOL    HW231224   6.439   0.330   0.071
10109SOL     OW31225   5.590   0.305   0.521
10109SOL    HW131226   5.525   0.356   0.465
10109SOL    HW231227   5.681   0.313   0.481
10110SOL     OW31228   3.722   5.024   4.768
10110SOL    HW131229   3.623   5.010   4.760
10110SOL    HW231230   3.763   5.016   4.677
10111SOL     OW31231   5.740   3.312   3.269
10111SOL    HW131232   5.704   3.404   3.260
10111SOL    HW231233   5.837   3.311   3.244
10112SOL     OW31234   5.466   3.420   3.723
10112SOL    HW131235   5.523   3.376   3.654
10112SOL    HW231236   5.402   3.354   3.761
10113SOL     OW31237   4.182   6.902   0.219
10113SOL    HW131238   4.144   6.930   0.307
10113SOL    HW231239   4.135   6.820   0.186
10114SOL     OW31240   4.511   1.634   1.315
10114SOL    HW131241   4.483   1.674   1.227
10114SOL    HW231242   4.552   1.706   1.372
10115SOL     OW31243   3.673   0.789   5.110
10115SOL    HW131244   3.747   0.760   5.049
10115SOL    HW231245   3.586   0.790   5.059
10116SOL     OW31246   0.485   6.545   0.327
10116SOL    HW131247   0.558   6.566   0.393
10116SOL    HW231248   0.506   6.458   0.282
10117SOL     OW31249   6.581   5.807   6.083
10117SOL    HW131250   6.598   5.772   5.991
10117SOL    HW231251   6.487   5.841   6.089
10118SOL     OW31252   2.587   4.871   2.694
10118SOL    HW131253   2.623   4.801   2.756
10118SOL    HW231254   2.487   4.875   2.703
10119SOL     OW31255   6.953   5.785   4.604
10119SOL    HW131256   7.012   5.849   4.555
10119SOL    HW231257   7.008   5.708   4.637
10120SOL     OW31258   2.145   3.591   4.717
10120SOL    HW131259   2.185   3.500   4.730
10120SOL    HW231260   2.124   3.605   4.620
10121SOL     OW31261   6.200   3.356   6.888
10121SOL    HW131262   6.177   3.262   6.864
10121SOL    HW231263   6.287   3.357   6.937
10122SOL     OW31264   6.274   3.018   2.352
10122SOL    HW131265   6.319   3.038   2.264
10122SOL    HW231266   6.188   2.971   2.336
10123SOL     OW31267   5.339   6.028   6.941
10123SOL    HW131268   5.255   5.976   6.957
10123SOL    HW231269   5.413   5.990   6.996
10124SOL     OW31270   1.327   4.008   0.342
10124SOL    HW131271   1.358   4.009   0.437
10124SOL    HW231272   1.240   3.960   0.335
10125SOL     OW31273   1.904   0.886   2.236
10125SOL    HW131274   1.891   0.807   2.176
10125SOL    HW231275   1.833   0.886   2.306
10126SOL     OW31276   7.000   6.829   6.622
10126SOL    HW131277   6.995   6.734   6.592
10126SOL    HW231278   6.956   6.888   6.555
10127SOL     OW31279   2.930   4.794   6.279
10127SOL    HW131280   2.948   4.698   6.302
10127SOL    HW231281   3.010   4.849   6.303
10128SOL     OW31282   2.753   0.992   0.324
10128SOL    HW131283   2.771   0.996   0.225
10128SOL    HW231284   2.722   1.082   0.356
10129SOL     OW31285   6.127   1.885   2.463
10129SOL    HW131286   6.104   1.965   2.408
10129SOL    HW231287   6.137   1.805   2.404
10130SOL     OW31288   1.409   3.023   1.461
10130SOL    HW131289   1.336   3.002   1.397
10130SOL    HW231290   1.484   2.958   1.449
10131SOL     OW31291   0.999   6.937   5.110
10131SOL    HW131292   1.028   6.873   5.182
10131SOL    HW231293   0.958   6.886   5.035
10132SOL     OW31294   3.733   0.586   4.258
10132SOL    HW131295   3.654   0.647   4.256
10132SOL    HW231296   3.704   0.492   4.240
10133SOL     OW31297   3.624   6.524   0.653
10133SOL    HW131298   3.555   6.546   0.722
10133SOL    HW231299   3.630   6.425   0.642
10134SOL     OW31300   6.762   6.756   2.553
10134SOL    HW131301   6.724   6.701   2.628
10134SOL    HW231302   6.770   6.700   2.471
10135SOL     OW31303   4.884   3.389   3.405
10135SOL    HW131304   4.907   3.364   3.499
10135SOL    HW231305   4.875   3.306   3.350
10136SOL     OW31306   5.363   1.251   2.311
10136SOL    HW131307   5.343   1.313   2.235
10136SOL    HW231308   5.328   1.160   2.288
10137SOL     OW31309   6.971   3.281   4.444
10137SOL    HW131310   6.916   3.353   4.487
10137SOL    HW231311   0.020   3.323   4.392
10138SOL     OW31312   5.841   3.539   0.237
10138SOL    HW131313   5.884   3.523   0.149
10138SOL    HW231314   5.742   3.545   0.225
10139SOL     OW31315   2.887   3.384   3.547
10139SOL    HW131316   2.920   3.308   3.603
10139SOL    HW231317   2.929   3.469   3.578
10140SOL     OW31318   6.377   5.747   6.903
10140SOL    HW131319   6.468   5.710   6.889
10140SOL    HW231320   6.373   5.794   6.991
10141SOL     OW31321   3.990   0.856   5.855
10141SOL    HW131322   4.083   0.873   5.887
10141SOL    HW231323   3.978   0.897   5.764
10142SOL     OW31324   6.645   0.150   5.918
10142SOL    HW131325   6.629   0.195   6.006
10142SOL    HW231326   6.560   0.149   5.866
10143SOL     OW31327   5.177   0.952   0.077
10143SOL    HW131328   5.087   0.927   0.114
10143SOL    HW231329   5.238   0.977   0.152
10144SOL     OW31330   3.381   0.838   5.806
10144SOL    HW131331   3.429   0.926   5.809
10144SOL    HW231332   3.392   0.792   5.894
10145SOL     OW31333   2.868   5.153   3.838
10145SOL    HW131334   2.826   5.127   3.751
10145SOL    HW231335   2.826   5.101   3.912
10146SOL     OW31336   4.609   4.576   4.957
10146SOL    HW131337   4.510   4.589   4.950
10146SOL    HW231338   4.628   4.507   5.027
10147SOL     OW31339   5.229   4.020   5.663
10147SOL    HW131340   5.254   3.968   5.582
10147SOL    HW231341   5.193   3.958   5.733
10148SOL     OW31342   5.079   4.689   6.292
10148SOL    HW131343   4.983   4.671   6.312
10148SOL    HW231344   5.106   4.637   6.211
10149SOL     OW31345   5.837   3.592   1.542
10149SOL    HW131346   5.769   3.579   1.469
10149SOL    HW231347   5.874   3.685   1.536
10150SOL     OW31348   3.858   3.376   1.050
10150SOL    HW131349   3.917   3.350   1.127
10150SOL    HW231350   3.791   3.443   1.081
10151SOL     OW31351   0.481   5.698   0.019
10151SOL    HW131352   0.403   5.732   6.992
10151SOL    HW231353   0.532   5.631   6.991
10152SOL     OW31354   6.677   6.385   4.479
10152SOL    HW131355   6.768   6.394   4.522
10152SOL    HW231356   6.616   6.335   4.541
10153SOL     OW31357   4.240   5.624   3.405
10153SOL    HW131358   4.167   5.596   3.468
10153SOL    HW231359   4.223   5.584   3.315
10154SOL     OW31360   3.789   5.949   5.079
10154SOL    HW131361   3.797   5.863   5.130
10154SOL    HW231362   3.781   5.928   4.981
10155SOL     OW31363   3.645   2.216   6.279
10155SOL    HW131364   3.686   2.307   6.285
10155SOL    HW231365   3.573   2.206   6.347
10156SOL     OW31366   5.835   0.950   2.237
10156SOL    HW131367   5.866   0.913   2.150
10156SOL    HW231368   5.823   0.876   2.303
10157SOL     OW31369   0.484   2.134   0.349
10157SOL    HW131370   0.555   2.159   0.414
10157SOL    HW231371   0.527   2.107   0.262
10158SOL     OW31372   6.610   5.832   1.109
10158SOL    HW131373   6.643   5.770   1.037
10158SOL    HW231374   6.658   5.919   1.102
10159SOL     OW31375   2.406   3.298   0.687
10159SOL    HW131376   2.505   3.311   0.694
10159SOL    HW231377   2.384   3.254   0.600
10160SOL     OW31378   1.495   2.947   2.299
10160SOL    HW131379   1.419   2.883   2.286
10160SOL    HW231380   1.538   2.966   2.211
10161SOL     OW31381   4.572   3.559   1.155
10161SOL    HW131382   4.563   3.653   1.125
10161SOL    HW231383   4.502   3.539   1.224
10162SOL     OW31384   3.956   4.743   1.012
10162SOL    HW131385   3.999   4.833   1.015
10162SOL    HW231386   3.882   4.739   1.079
10163SOL     OW31387   6.354   4.119   6.960
10163SOL    HW131388   6.420   4.079   7.024
10163SOL    HW231389   6.391   4.205   6.924
10164SOL     OW31390   6.133   3.482   4.000
10164SOL    HW131391   6.144   3.390   4.036
10164SOL    HW231392   6.166   3.486   3.906
10165SOL     OW31393   6.639   1.295   3.660
10165SOL    HW131394   6.662   1.344   3.575
10165SOL    HW231395   6.540   1.283   3.666
10166SOL     OW31396   3.290   1.662   2.056
10166SOL    HW131397   3.338   1.711   1.983
10166SOL    HW231398   3.224   1.723   2.100
10167SOL     OW31399   1.425   4.498   6.842
10167SOL    HW131400   1.469   4.415   6.807
10167SOL    HW231401   1.466   4.524   6.929
10168SOL     OW31402   5.965   2.883   6.216
10168SOL    HW131403   6.061   2.853   6.213
10168SOL    HW231404   5.915   2.825   6.281
10169SOL     OW31405   0.124   4.076   3.534
10169SOL    HW131406   0.196   4.042   3.595
10169SOL    HW231407   0.142   4.045   3.441
10170SOL     OW31408   6.045   5.489   5.537
10170SOL    HW131409   6.045   5.533   5.627
10170SOL    HW231410   6.119   5.422   5.534
10171SOL     OW31411   0.019   2.307   5.059
10171SOL    HW131412   0.105   2.298   5.009
10171SOL    HW231413   0.017   2.395   5.106
10172SOL     OW31414   0.906   5.842   5.358
10172SOL    HW131415   0.827   5.781   5.355
10172SOL    HW231416   0.922   5.872   5.452
10173SOL     OW31417   1.947   2.771   0.504
10173SOL    HW131418   1.930   2.866   0.530
10173SOL    HW231419   1.937   2.762   0.405
10174SOL     OW31420   5.105   4.950   3.301
10174SOL    HW131421   5.013   4.972   3.271
10174SOL    HW231422   5.135   4.866   3.256
10175SOL     OW31423   5.673   2.061   3.038
10175SOL    HW131424   5.739   1.986   3.035
10175SOL    HW231425   5.701   2.133   2.975
10176SOL     OW31426   0.560   3.192   5.228
10176SOL    HW131427   0.622   3.140   5.286
10176SOL    HW231428   0.606   3.275   5.195
10177SOL     OW31429   2.366   1.223   1.698
10177SOL    HW131430   2.411   1.287   1.761
10177SOL    HW231431   2.315   1.155   1.750
10178SOL     OW31432   0.065   1.120   6.978
10178SOL    HW131433   0.012   1.050   0.001
10178SOL    HW231434   0.041   1.118   6.881
10179SOL     OW31435   0.580   2.796   6.560
10179SOL    HW131436   0.501   2.854   6.541
10179SOL    HW231437   0.575   2.761   6.653
10180SOL     OW31438   4.056   1.034   6.200
10180SOL    HW131439   4.129   1.051   6.134
10180SOL    HW231440   4.093   1.037   6.293
10181SOL     OW31441   6.199   3.347   1.986
10181SOL    HW131442   6.171   3.340   2.082
10181SOL    HW231443   6.154   3.426   1.944
10182SOL     OW31444   4.433   0.949   1.590
10182SOL    HW131445   4.355   1.009   1.575
10182SOL    HW231446   4.518   0.999   1.571
10183SOL     OW31447   6.229   2.827   6.197
10183SOL    HW131448   6.234   2.847   6.099
10183SOL    HW231449   6.304   2.873   6.244
10184SOL     OW31450   4.189   1.311   6.225
10184SOL    HW131451   4.269   1.305   6.284
10184SOL    HW231452   4.218   1.327   6.130
10185SOL     OW31453   6.402   6.009   2.946
10185SOL    HW131454   6.409   5.909   2.946
10185SOL    HW231455   6.309   6.036   2.971
10186SOL     OW31456   5.220   3.712   3.950
10186SOL    HW131457   5.200   3.769   3.871
10186SOL    HW231458   5.214   3.767   4.033
10187SOL     OW31459   1.099   3.634   6.747
10187SOL    HW131460   1.060   3.556   6.796
10187SOL    HW231461   1.159   3.602   6.674
10188SOL     OW31462   4.210   4.604   0.410
10188SOL    HW131463   4.113   4.607   0.432
10188SOL    HW231464   4.222   4.612   0.311
10189SOL     OW31465   0.624   1.017   6.935
10189SOL    HW131466   0.637   1.115   6.948
10189SOL    HW231467   0.550   1.002   6.869
10190SOL     OW31468   4.754   2.895   1.369
10190SOL    HW131469   4.752   2.808   1.419
10190SOL    HW231470   4.668   2.907   1.320
10191SOL     OW31471   4.298   5.593   6.880
10191SOL    HW131472   4.299   5.503   6.837
10191SOL    HW231473   4.206   5.631   6.876
10192SOL     OW31474   4.198   1.235   5.561
10192SOL    HW131475   4.147   1.314   5.528
10192SOL    HW231476   4.293   1.261   5.578
10193SOL     OW31477   3.838   3.039   2.012
10193SOL    HW131478   3.805   3.120   2.060
10193SOL    HW231479   3.817   2.958   2.066
10194SOL     OW31480   4.813   6.498   5.558
10194SOL    HW131481   4.807   6.428   5.487
10194SOL    HW231482   4.898   6.487   5.609
10195SOL     OW31483   6.640   6.205   0.438
10195SOL    HW131484   6.561   6.157   0.398
10195SOL    HW231485   6.699   6.139   0.483
10196SOL     OW31486   4.031   2.209   3.805
10196SOL    HW131487   3.936   2.178   3.801
10196SOL    HW231488   4.064   2.203   3.900
10197SOL     OW31489   5.181   1.870   4.875
10197SOL    HW131490   5.107   1.934   4.898
10197SOL    HW231491   5.235   1.851   4.957
10198SOL     OW31492   2.864   6.949   2.665
10198SOL    HW131493   2.916   6.954   2.750
10198SOL    HW231494   2.878   0.007   2.613
10199SOL     OW31495   1.152   2.838   0.746
10199SOL    HW131496   1.209   2.829   0.664
10199SOL    HW231497   1.211   2.842   0.827
10200SOL     OW31498   4.852   2.919   5.775
10200SOL    HW131499   4.821   3.005   5.813
10200SOL    HW231500   4.886   2.860   5.848
10201SOL     OW31501   1.272   5.110   0.149
10201SOL    HW131502   1.194   5.125   0.209
10201SOL    HW231503   1.266   5.172   0.071
10202SOL     OW31504   3.172   4.816   0.221
10202SOL    HW131505   3.083   4.859   0.209
10202SOL    HW231506   3.228   4.831   0.140
10203SOL     OW31507   7.000   2.412   2.510
10203SOL    HW131508   7.020   2.417   2.608
10203SOL    HW231509   6.974   2.318   2.486
10204SOL     OW31510   4.248   5.353   6.276
10204SOL    HW131511   4.239   5.415   6.354
10204SOL    HW231512   4.167   5.360   6.218
10205SOL     OW31513   2.459   0.951   1.932
10205SOL    HW131514   2.505   0.905   1.856
10205SOL    HW231515   2.401   0.885   1.980
10206SOL     OW31516   0.055   0.156   6.787
10206SOL    HW131517   0.035   0.094   6.863
10206SOL    HW231518   0.053   0.104   6.701
10207SOL     OW31519   0.721   2.285   0.083
10207SOL    HW131520   0.684   2.194   0.102
10207SOL    HW231521   0.678   2.322   0.001
10208SOL     OW31522   6.215   5.271   4.023
10208SOL    HW131523   6.194   5.216   4.104
10208SOL    HW231524   6.253   5.359   4.050
10209SOL     OW31525   0.269   6.666   6.422
10209SOL    HW131526   0.328   6.639   6.498
10209SOL    HW231527   0.176   6.632   6.438
10210SOL     OW31528   4.552   6.454   0.803
10210SOL    HW131529   4.457   6.432   0.826
10210SOL    HW231530   4.608   6.372   0.814
10211SOL     OW31531   4.690   6.197   4.614
10211SOL    HW131532   4.753   6.261   4.571
10211SOL    HW231533   4.743   6.125   4.659
10212SOL     OW31534   0.456   0.041   5.625
10212SOL    HW131535   0.426   0.108   5.692
10212SOL    HW231536   0.377   7.018   5.589
10213SOL     OW31537   5.220   3.069   1.898
10213SOL    HW131538   5.130   3.054   1.857
10213SOL    HW231539   5.237   2.999   1.968
10214SOL     OW31540   0.255   1.488   1.868
10214SOL    HW131541   0.214   1.490   1.777
10214SOL    HW231542   0.199   1.543   1.931
10215SOL     OW31543   3.741   3.401   3.715
10215SOL    HW131544   3.793   3.486   3.720
10215SOL    HW231545   3.655   3.411   3.765
10216SOL     OW31546   6.884   1.118   1.278
10216SOL    HW131547   6.886   1.086   1.184
10216SOL    HW231548   6.843   1.048   1.337
10217SOL     OW31549   1.978   2.174   3.858
10217SOL    HW131550   1.989   2.160   3.759
10217SOL    HW231551   2.068   2.168   3.902
10218SOL     OW31552   0.712   0.647   1.593
10218SOL    HW131553   0.730   0.707   1.671
10218SOL    HW231554   0.677   0.560   1.625
10219SOL     OW31555   0.287   2.165   2.518
10219SOL    HW131556   0.240   2.122   2.595
10219SOL    HW231557   0.245   2.254   2.499
10220SOL     OW31558   4.393   1.603   1.590
10220SOL    HW131559   4.447   1.604   1.506
10220SOL    HW231560   4.310   1.658   1.577
10221SOL     OW31561   1.771   4.004   4.838
10221SOL    HW131562   1.765   4.038   4.744
10221SOL    HW231563   1.867   3.987   4.860
10222SOL     OW31564   3.257   4.184   5.240
10222SOL    HW131565   3.285   4.278   5.222
10222SOL    HW231566   3.163   4.184   5.275
10223SOL     OW31567   3.044   5.117   1.032
10223SOL    HW131568   3.124   5.057   1.041
10223SOL    HW231569   3.036   5.148   0.937
10224SOL     OW31570   6.452   2.239   5.664
10224SOL    HW131571   6.467   2.229   5.565
10224SOL    HW231572   6.536   2.216   5.713
10225SOL     OW31573   1.811   5.884   5.783
10225SOL    HW131574   1.783   5.964   5.836
10225SOL    HW231575   1.908   5.891   5.760
10226SOL     OW31576   1.996   0.173   6.191
10226SOL    HW131577   2.047   0.184   6.276
10226SOL    HW231578   1.929   0.247   6.183
10227SOL     OW31579   5.207   4.691   6.878
10227SOL    HW131580   5.292   4.722   6.921
10227SOL    HW231581   5.137   4.678   6.948
10228SOL     OW31582   1.037   5.769   1.991
10228SOL    HW131583   0.965   5.832   2.019
10228SOL    HW231584   1.059   5.785   1.894
10229SOL     OW31585   2.185   2.546   4.747
10229SOL    HW131586   2.224   2.498   4.669
10229SOL    HW231587   2.255   2.604   4.789
10230SOL     OW31588   6.412   6.327   3.281
10230SOL    HW131589   6.387   6.259   3.350
10230SOL    HW231590   6.476   6.286   3.215
10231SOL     OW31591   6.381   4.632   5.184
10231SOL    HW131592   6.445   4.706   5.165
10231SOL    HW231593   6.410   4.584   5.267
10232SOL     OW31594   3.290   1.527   3.779
10232SOL    HW131595   3.208   1.584   3.778
10232SOL    HW231596   3.371   1.584   3.762
10233SOL     OW31597   3.748   3.883   5.279
10233SOL    HW131598   3.821   3.912   5.218
10233SOL    HW231599   3.731   3.955   5.347
10234SOL     OW31600   5.419   0.928   0.497
10234SOL    HW131601   5.460   0.847   0.456
10234SOL    HW231602   5.464   0.947   0.584
10235SOL     OW31603   3.081   2.089   1.241
10235SOL    HW131604   3.119   2.003   1.275
10235SOL    HW231605   3.002   2.070   1.184
10236SOL     OW31606   1.491   1.223   1.461
10236SOL    HW131607   1.471   1.321   1.464
10236SOL    HW231608   1.421   1.173   1.512
10237SOL     OW31609   6.951   4.332   6.486
10237SOL    HW131610   6.901   4.280   6.416
10237SOL    HW231611   6.887   4.364   6.555
10238SOL     OW31612   3.903   3.905   2.341
10238SOL    HW131613   3.810   3.942   2.344
10238SOL    HW231614   3.903   3.811   2.375
10239SOL     OW31615   2.170   3.519   5.690
10239SOL    HW131616   2.258   3.537   5.646
10239SOL    HW231617   2.099   3.512   5.620
10240SOL     OW31618   2.334   4.229   2.596
10240SOL    HW131619   2.413   4.172   2.618
10240SOL    HW231620   2.314   4.290   2.672
10241SOL     OW31621   0.028   6.044   3.565
10241SOL    HW131622   0.070   5.990   3.493
10241SOL    HW231623   7.012   5.982   3.632
10242SOL     OW31624   0.879   1.344   1.827
10242SOL    HW131625   0.892   1.275   1.756
10242SOL    HW231626   0.812   1.411   1.797
10243SOL     OW31627   2.719   5.031   2.898
10243SOL    HW131628   2.638   5.002   2.848
10243SOL    HW231629   2.696   5.112   2.953
10244SOL     OW31630   1.929   4.503   1.046
10244SOL    HW131631   1.949   4.588   1.096
10244SOL    HW231632   1.857   4.453   1.094
10245SOL     OW31633   3.808   4.517   0.877
10245SOL    HW131634   3.869   4.579   0.927
10245SOL    HW231635   3.857   4.433   0.854
10246SOL     OW31636   3.043   3.239   3.713
10246SOL    HW131637   3.079   3.174   3.779
10246SOL    HW231638   3.058   3.332   3.746
10247SOL     OW31639   0.172   4.229   6.380
10247SOL    HW131640   0.092   4.268   6.426
10247SOL    HW231641   0.191   4.138   6.417
10248SOL     OW31642   1.676   6.873   2.868
10248SOL    HW131643   1.614   6.795   2.874
10248SOL    HW231644   1.765   6.842   2.833
10249SOL     OW31645   2.247   6.331   6.519
10249SOL    HW131646   2.324   6.326   6.583
10249SOL    HW231647   2.222   6.427   6.504
10250SOL     OW31648   6.642   2.692   2.022
10250SOL    HW131649   6.654   2.776   1.968
10250SOL    HW231650   6.730   2.646   2.031
10251SOL     OW31651   2.356   1.363   4.777
10251SOL    HW131652   2.399   1.410   4.700
10251SOL    HW231653   2.421   1.301   4.820
10252SOL     OW31654   3.861   5.251   5.898
10252SOL    HW131655   3.919   5.296   5.966
10252SOL    HW231656   3.863   5.152   5.913
10253SOL     OW31657   2.752   6.922   0.416
10253SOL    HW131658   2.672   6.899   0.360
10253SOL    HW231659   2.811   6.842   0.424
10254SOL     OW31660   4.739   1.008   5.417
10254SOL    HW131661   4.703   0.921   5.383
10254SOL    HW231662   4.688   1.084   5.375
10255SOL     OW31663   2.248   6.090   0.723
10255SOL    HW131664   2.187   6.147   0.667
10255SOL    HW231665   2.199   6.008   0.752
10256SOL     OW31666   5.054   1.598   1.399
10256SOL    HW131667   5.064   1.694   1.373
10256SOL    HW231668   4.962   1.582   1.435
10257SOL     OW31669   2.304   4.738   4.501
10257SOL    HW131670   2.280   4.833   4.478
10257SOL    HW231671   2.224   4.680   4.485
10258SOL     OW31672   3.408   1.053   3.782
10258SOL    HW131673   3.403   1.143   3.826
10258SOL    HW231674   3.320   1.007   3.789
10259SOL     OW31675   0.715   5.152   3.328
10259SOL    HW131676   0.656   5.086   3.282
10259SOL    HW231677   0.811   5.126   3.315
10260SOL     OW31678   1.533   1.095   3.633
10260SOL    HW131679   1.517   1.001   3.663
10260SOL    HW231680   1.516   1.158   3.709
10261SOL     OW31681   6.836   5.156   2.599
10261SOL    HW131682   6.851   5.059   2.577
10261SOL    HW231683   6.913   5.210   2.564
10262SOL     OW31684   2.463   6.985   5.341
10262SOL    HW131685   2.510   7.024   5.262
10262SOL    HW231686   2.394   6.920   5.311
10263SOL     OW31687   5.284   0.164   6.904
10263SOL    HW131688   5.382   0.162   6.921
10263SOL    HW231689   5.267   0.165   6.805
10264SOL     OW31690   6.186   7.024   6.642
10264SOL    HW131691   6.255   6.993   6.706
10264SOL    HW231692   6.172   6.954   6.571
10265SOL     OW31693   2.124   2.968   1.550
10265SOL    HW131694   2.214   2.936   1.582
10265SOL    HW231695   2.135   3.054   1.500
10266SOL     OW31696   4.124   3.569   4.036
10266SOL    HW131697   4.154   3.481   4.073
10266SOL    HW231698   4.037   3.557   3.988
10267SOL     OW31699   5.682   2.775   6.620
10267SOL    HW131700   5.732   2.841   6.676
10267SOL    HW231701   5.695   2.683   6.656
10268SOL     OW31702   5.851   5.478   2.284
10268SOL    HW131703   5.791   5.538   2.336
10268SOL    HW231704   5.924   5.533   2.243
10269SOL     OW31705   0.381   3.625   6.877
10269SOL    HW131706   0.322   3.546   6.859
10269SOL    HW231707   0.392   3.636   6.975
10270SOL     OW31708   3.985   4.824   3.001
10270SOL    HW131709   4.065   4.827   3.060
10270SOL    HW231710   4.009   4.777   2.915
10271SOL     OW31711   3.398   2.905   5.942
10271SOL    HW131712   3.406   2.945   6.033
10271SOL    HW231713   3.476   2.934   5.886
10272SOL     OW31714   1.549   1.237   4.957
10272SOL    HW131715   1.483   1.262   5.029
10272SOL    HW231716   1.631   1.293   4.967
10273SOL     OW31717   2.909   5.811   2.780
10273SOL    HW131718   2.871   5.784   2.868
10273SOL    HW231719   2.844   5.789   2.707
10274SOL     OW31720   0.650   5.809   5.153
10274SOL    HW131721   0.637   5.767   5.063
10274SOL    HW231722   0.700   5.895   5.142
10275SOL     OW31723   0.086   6.367   1.733
10275SOL    HW131724   0.164   6.392   1.791
10275SOL    HW231725   0.001   6.390   1.780
10276SOL     OW31726   5.195   4.944   5.459
10276SOL    HW131727   5.172   5.040   5.444
10276SOL    HW231728   5.277   4.920   5.406
10277SOL     OW31729   1.424   5.174   3.831
10277SOL    HW131730   1.423   5.161   3.930
10277SOL    HW231731   1.453   5.268   3.810
10278SOL     OW31732   0.208   2.139   4.599
10278SOL    HW131733   0.268   2.060   4.586
10278SOL    HW231734   0.120   2.121   4.556
10279SOL     OW31735   2.425   5.172   4.346
10279SOL    HW131736   2.500   5.212   4.292
10279SOL    HW231737   2.371   5.111   4.287
10280SOL     OW31738   0.101   3.463   0.666
10280SOL    HW131739   0.131   3.420   0.751
10280SOL    HW231740   0.002   3.480   0.669
10281SOL     OW31741   5.740   1.470   2.105
10281SOL    HW131742   5.785   1.555   2.134
10281SOL    HW231743   5.696   1.428   2.183
10282SOL     OW31744   4.869   3.322   4.341
10282SOL    HW131745   4.941   3.255   4.324
10282SOL    HW231746   4.781   3.276   4.351
10283SOL     OW31747   1.374   3.358   0.576
10283SOL    HW131748   1.387   3.269   0.621
10283SOL    HW231749   1.370   3.344   0.477
10284SOL     OW31750   5.397   2.923   5.049
10284SOL    HW131751   5.429   2.879   5.133
10284SOL    HW231752   5.321   2.870   5.010
10285SOL     OW31753   5.884   6.993   2.489
10285SOL    HW131754   5.968   7.020   2.443
10285SOL    HW231755   5.873   0.019   2.574
10286SOL     OW31756   3.213   1.720   3.064
10286SOL    HW131757   3.213   1.797   3.000
10286SOL    HW231758   3.306   1.692   3.083
10287SOL     OW31759   1.993   6.927   1.308
10287SOL    HW131760   2.032   6.894   1.395
10287SOL    HW231761   2.063   6.976   1.257
10288SOL     OW31762   4.737   6.278   3.006
10288SOL    HW131763   4.773   6.291   2.913
10288SOL    HW231764   4.739   6.366   3.055
10289SOL     OW31765   2.063   6.701   0.134
10289SOL    HW131766   2.123   6.766   0.181
10289SOL    HW231767   2.065   6.718   0.036
10290SOL     OW31768   3.168   3.912   2.714
10290SOL    HW131769   3.196   4.000   2.676
10290SOL    HW231770   3.134   3.853   2.641
10291SOL     OW31771   4.588   1.042   2.938
10291SOL    HW131772   4.489   1.056   2.932
10291SOL    HW231773   4.632   1.078   2.855
10292SOL     OW31774   1.759   0.981   5.011
10292SOL    HW131775   1.763   1.015   5.104
10292SOL    HW231776   1.691   1.032   4.959
10293SOL     OW31777   2.310   4.675   2.623
10293SOL    HW131778   2.262   4.690   2.537
10293SOL    HW231779   2.290   4.750   2.686
10294SOL     OW31780   5.668   3.274   2.877
10294SOL    HW131781   5.652   3.364   2.917
10294SOL    HW231782   5.763   3.266   2.849
10295SOL     OW31783   6.650   4.295   5.588
10295SOL    HW131784   6.656   4.246   5.675
10295SOL    HW231785   6.577   4.254   5.532
10296SOL     OW31786   5.204   1.297   0.209
10296SOL    HW131787   5.110   1.263   0.210
10296SOL    HW231788   5.267   1.221   0.195
10297SOL     OW31789   1.834   6.824   6.483
10297SOL    HW131790   1.909   6.848   6.544
10297SOL    HW231791   1.834   6.884   6.403
10298SOL     OW31792   2.761   4.549   1.644
10298SOL    HW131793   2.798   4.513   1.729
10298SOL    HW231794   2.804   4.504   1.566
10299SOL     OW31795   5.062   5.181   2.985
10299SOL    HW131796   5.155   5.217   2.985
10299SOL    HW231797   5.010   5.222   2.911
10300SOL     OW31798   1.320   3.866   3.422
10300SOL    HW131799   1.293   3.775   3.391
10300SOL    HW231800   1.240   3.915   3.457
10301SOL     OW31801   4.894   2.458   4.532
10301SOL    HW131802   4.839   2.429   4.454
10301SOL    HW231803   4.850   2.536   4.577
10302SOL     OW31804   1.944   7.015   3.893
10302SOL    HW131805   1.997   0.070   3.869
10302SOL    HW231806   1.898   0.004   3.981
10303SOL     OW31807   2.150   6.436   2.883
10303SOL    HW131808   2.092   6.458   2.804
10303SOL    HW231809   2.101   6.460   2.967
10304SOL     OW31810   5.619   0.279   1.719
10304SOL    HW131811   5.556   0.354   1.701
10304SOL    HW231812   5.686   0.307   1.787
10305SOL     OW31813   0.992   4.385   7.024
10305SOL    HW131814   1.052   4.309   6.997
10305SOL    HW231815   1.011   4.464   6.966
10306SOL     OW31816   4.683   6.798   5.986
10306SOL    HW131817   4.646   6.874   5.934
10306SOL    HW231818   4.608   6.742   6.021
10307SOL     OW31819   2.428   2.122   5.693
10307SOL    HW131820   2.483   2.195   5.734
10307SOL    HW231821   2.465   2.101   5.602
10308SOL     OW31822   2.347   4.465   3.445
10308SOL    HW131823   2.346   4.435   3.350
10308SOL    HW231824   2.321   4.561   3.450
10309SOL     OW31825   6.858   1.525   5.298
10309SOL    HW131826   6.766   1.548   5.266
10309SOL    HW231827   6.889   1.594   5.363
10310SOL     OW31828   3.381   3.666   1.163
10310SOL    HW131829   3.377   3.732   1.237
10310SOL    HW231830   3.306   3.601   1.172
10311SOL     OW31831   6.813   6.360   0.234
10311SOL    HW131832   6.771   6.291   0.292
10311SOL    HW231833   6.742   6.416   0.192
10312SOL     OW31834   3.693   6.394   2.470
10312SOL    HW131835   3.707   6.327   2.397
10312SOL    HW231836   3.596   6.397   2.493
10313SOL     OW31837   4.963   6.514   1.394
10313SOL    HW131838   5.062   6.515   1.382
10313SOL    HW231839   4.919   6.507   1.304
10314SOL     OW31840   6.626   0.953   2.013
10314SOL    HW131841   6.589   0.960   1.920
10314SOL    HW231842   6.580   0.878   2.061
10315SOL     OW31843   4.928   6.175   4.935
10315SOL    HW131844   5.006   6.163   4.997
10315SOL    HW231845   4.843   6.169   4.987
10316SOL     OW31846   6.325   1.639   4.350
10316SOL    HW131847   6.366   1.637   4.259
10316SOL    HW231848   6.240   1.585   4.349
10317SOL     OW31849   4.182   5.738   4.725
10317SOL    HW131850   4.129   5.811   4.683
10317SOL    HW231851   4.150   5.723   4.819
10318SOL     OW31852   4.796   5.705   6.611
10318SOL    HW131853   4.769   5.799   6.589
10318SOL    HW231854   4.726   5.663   6.669
10319SOL     OW31855   1.505   2.673   5.341
10319SOL    HW131856   1.484   2.599   5.278
10319SOL    HW231857   1.420   2.715   5.373
10320SOL     OW31858   0.464   0.471   3.057
10320SOL    HW131859   0.532   0.430   2.997
10320SOL    HW231860   0.492   0.460   3.152
10321SOL     OW31861   4.105   1.369   2.333
10321SOL    HW131862   4.065   1.323   2.254
10321SOL    HW231863   4.107   1.307   2.411
10322SOL     OW31864   6.564   5.431   5.639
10322SOL    HW131865   6.528   5.507   5.694
10322SOL    HW231866   6.489   5.370   5.614
10323SOL     OW31867   5.949   2.982   5.559
10323SOL    HW131868   5.908   2.926   5.487
10323SOL    HW231869   6.046   2.959   5.568
10324SOL     OW31870   3.382   3.438   2.409
10324SOL    HW131871   3.369   3.365   2.476
10324SOL    HW231872   3.443   3.508   2.447
10325SOL     OW31873   0.152   3.724   2.264
10325SOL    HW131874   0.092   3.739   2.343
10325SOL    HW231875   0.101   3.744   2.180
10326SOL     OW31876   4.194   3.692   0.240
10326SOL    HW131877   4.179   3.728   0.149
10326SOL    HW231878   4.287   3.714   0.270
10327SOL     OW31879   2.530   1.771   1.724
10327SOL    HW131880   2.597   1.811   1.787
10327SOL    HW231881   2.482   1.696   1.771
10328SOL     OW31882   5.955   2.776   1.090
10328SOL    HW131883   5.919   2.709   1.024
10328SOL    HW231884   5.909   2.764   1.178
10329SOL     OW31885   3.403   0.155   4.013
10329SOL    HW131886   3.483   0.096   4.028
10329SOL    HW231887   3.358   0.129   3.928
10330SOL     OW31888   4.348   0.394   2.316
10330SOL    HW131889   4.398   0.366   2.234
10330SOL    HW231890   4.413   0.419   2.388
10331SOL     OW31891   0.341   1.483   5.263
10331SOL    HW131892   0.338   1.403   5.203
10331SOL    HW231893   0.249   1.502   5.297
10332SOL     OW31894   6.186   1.045   0.725
10332SOL    HW131895   6.134   0.974   0.774
10332SOL    HW231896   6.281   1.046   0.759
10333SOL     OW31897   6.015   3.906   4.663
10333SOL    HW131898   5.987   3.973   4.594
10333SOL    HW231899   5.966   3.924   4.748
10334SOL     OW31900   4.083   6.223   3.636
10334SOL    HW131901   4.083   6.227   3.537
10334SOL    HW231902   4.178   6.224   3.670
10335SOL     OW31903   2.841   4.664   6.626
10335SOL    HW131904   2.764   4.613   6.662
10335SOL    HW231905   2.809   4.748   6.583
10336SOL     OW31906   6.640   6.657   2.818
10336SOL    HW131907   6.695   6.657   2.901
10336SOL    HW231908   6.545   6.677   2.841
10337SOL     OW31909   0.220   6.917   5.820
10337SOL    HW131910   0.135   6.899   5.870
10337SOL    HW231911   0.198   6.959   5.732
10338SOL     OW31912   2.373   6.412   2.436
10338SOL    HW131913   2.313   6.490   2.454
10338SOL    HW231914   2.342   6.333   2.489
10339SOL     OW31915   3.324   5.072   0.528
10339SOL    HW131916   3.350   4.988   0.481
10339SOL    HW231917   3.316   5.146   0.461
10340SOL     OW31918   2.159   5.443   1.114
10340SOL    HW131919   2.168   5.399   1.203
10340SOL    HW231920   2.145   5.541   1.126
10341SOL     OW31921   2.094   3.585   1.422
10341SOL    HW131922   2.170   3.535   1.381
10341SOL    HW231923   2.056   3.532   1.498
10342SOL     OW31924   0.926   6.998   5.587
10342SOL    HW131925   0.883   0.061   5.600
10342SOL    HW231926   0.857   6.926   5.595
10343SOL     OW31927   3.520   5.676   0.147
10343SOL    HW131928   3.510   5.750   0.213
10343SOL    HW231929   3.442   5.613   0.155
10344SOL     OW31930   4.433   4.240   1.555
10344SOL    HW131931   4.416   4.248   1.653
10344SOL    HW231932   4.429   4.144   1.528
10345SOL     OW31933   1.602   1.262   7.024
10345SOL    HW131934   1.515   1.289   6.982
10345SOL    HW231935   1.593   1.170   0.036
10346SOL     OW31936   6.299   6.973   1.277
10346SOL    HW131937   6.351   6.892   1.250
10346SOL    HW231938   6.202   6.950   1.285
10347SOL     OW31939   4.990   1.859   2.305
10347SOL    HW131940   5.049   1.859   2.225
10347SOL    HW231941   4.988   1.951   2.344
10348SOL     OW31942   6.425   1.599   0.524
10348SOL    HW131943   6.503   1.658   0.503
10348SOL    HW231944   6.408   1.538   0.446
10349SOL     OW31945   0.114   1.215   1.454
10349SOL    HW131946   0.016   1.199   1.468
10349SOL    HW231947   0.142   1.297   1.504
10350SOL     OW31948   1.914   6.760   5.366
10350SOL    HW131949   1.910   6.843   5.310
10350SOL    HW231950   2.005   6.720   5.360
10351SOL     OW31951   4.376   5.151   5.935
10351SOL    HW131952   4.399   5.196   6.022
10351SOL    HW231953   4.456   5.102   5.901
10352SOL     OW31954   4.543   2.340   6.456
10352SOL    HW131955   4.450   2.330   6.421
10352SOL    HW231956   4.547   2.420   6.516
10353SOL     OW31957   0.046   3.009   5.732
10353SOL    HW131958   0.083   3.062   5.809
10353SOL    HW231959   0.061   2.912   5.748
10354SOL     OW31960   5.720   2.507   2.107
10354SOL    HW131961   5.781   2.562   2.051
10354SOL    HW231962   5.627   2.543   2.101
10355SOL     OW31963   1.894   0.168   2.396
10355SOL    HW131964   1.820   0.195   2.334
10355SOL    HW231965   1.982   0.185   2.352
10356SOL     OW31966   0.328   4.384   5.978
10356SOL    HW131967   0.239   4.426   5.995
10356SOL    HW231968   0.331   4.292   6.019
10357SOL     OW31969   3.139   3.213   6.395
10357SOL    HW131970   3.040   3.216   6.384
10357SOL    HW231971   3.177   3.305   6.388
10358SOL     OW31972   6.307   3.141   3.487
10358SOL    HW131973   6.222   3.150   3.538
10358SOL    HW231974   6.376   3.098   3.545
10359SOL     OW31975   6.949   1.885   1.467
10359SOL    HW131976   7.017   1.886   1.540
10359SOL    HW231977   6.879   1.816   1.487
10360SOL     OW31978   4.276   5.648   2.003
10360SOL    HW131979   4.329   5.650   2.088
10360SOL    HW231980   4.335   5.674   1.926
10361SOL     OW31981   2.542   0.694   2.867
10361SOL    HW131982   2.508   0.600   2.863
10361SOL    HW231983   2.551   0.730   2.774
10362SOL     OW31984   0.631   5.213   3.915
10362SOL    HW131985   0.634   5.223   3.816
10362SOL    HW231986   0.683   5.132   3.943
10363SOL     OW31987   4.488   2.257   0.960
10363SOL    HW131988   4.476   2.250   0.861
10363SOL    HW231989   4.465   2.170   1.003
10364SOL     OW31990   3.800   3.673   2.529
10364SOL    HW131991   3.719   3.728   2.554
10364SOL    HW231992   3.770   3.589   2.484
10365SOL     OW31993   5.032   4.530   5.197
10365SOL    HW131994   4.980   4.571   5.123
10365SOL    HW231995   5.052   4.434   5.176
10366SOL     OW31996   4.405   0.098   4.299
10366SOL    HW131997   4.359   0.020   4.258
10366SOL    HW231998   4.466   0.140   4.232
10367SOL     OW31999   6.894   1.604   1.634
10367SOL    HW132000   6.829   1.597   1.711
10367SOL    HW232001   6.843   1.605   1.548
10368SOL     OW32002   2.278   0.777   2.092
10368SOL    HW132003   2.216   0.855   2.085
10368SOL    HW232004   2.257   0.711   2.019
10369SOL     OW32005   4.344   1.318   5.273
10369SOL    HW132006   4.348   1.315   5.173
10369SOL    HW232007   4.271   1.258   5.306
10370SOL     OW32008   5.762   1.541   5.154
10370SOL    HW132009   5.777   1.450   5.194
10370SOL    HW232010   5.689   1.587   5.204
10371SOL     OW32011   1.864   5.533   4.113
10371SOL    HW132012   1.917   5.462   4.066
10371SOL    HW232013   1.809   5.582   4.047
10372SOL     OW32014   1.682   1.083   0.701
10372SOL    HW132015   1.643   1.176   0.699
10372SOL    HW232016   1.642   1.029   0.626
10373SOL     OW32017   1.584   6.710   4.892
10373SOL    HW132018   1.533   6.773   4.834
10373SOL    HW232019   1.575   6.617   4.856
10374SOL     OW32020   3.802   1.274   3.069
10374SOL    HW132021   3.890   1.309   3.036
10374SOL    HW232022   3.816   1.185   3.112
10375SOL     OW32023   2.807   1.745   6.468
10375SOL    HW132024   2.877   1.771   6.534
10375SOL    HW232025   2.739   1.819   6.461
10376SOL     OW32026   1.310   5.788   3.684
10376SOL    HW132027   1.244   5.764   3.755
10376SOL    HW232028   1.288   5.878   3.646
10377SOL     OW32029   6.912   1.222   3.730
10377SOL    HW132030   6.950   1.134   3.703
10377SOL    HW232031   6.816   1.227   3.701
10378SOL     OW32032   6.316   0.392   5.526
10378SOL    HW132033   6.378   0.335   5.471
10378SOL    HW232034   6.241   0.425   5.469
10379SOL     OW32035   3.012   6.659   4.138
10379SOL    HW132036   2.940   6.607   4.185
10379SOL    HW232037   3.081   6.596   4.102
10380SOL     OW32038   0.735   2.099   4.511
10380SOL    HW132039   0.729   2.102   4.411
10380SOL    HW232040   0.831   2.113   4.538
10381SOL     OW32041   4.407   4.156   0.598
10381SOL    HW132042   4.373   4.082   0.540
10381SOL    HW232043   4.376   4.244   0.561
10382SOL     OW32044   2.264   5.130   0.784
10382SOL    HW132045   2.181   5.181   0.805
10382SOL    HW232046   2.344   5.184   0.811
10383SOL     OW32047   7.013   3.848   0.698
10383SOL    HW132048   0.064   3.786   0.688
10383SOL    HW232049   6.929   3.796   0.709
10384SOL     OW32050   0.236   0.359   1.072
10384SOL    HW132051   0.295   0.327   1.146
10384SOL    HW232052   0.247   0.298   0.993
10385SOL     OW32053   3.550   6.867   5.867
10385SOL    HW132054   3.506   6.787   5.908
10385SOL    HW232055   3.598   6.838   5.783
10386SOL     OW32056   6.150   1.794   5.448
10386SOL    HW132057   6.150   1.719   5.516
10386SOL    HW232058   6.058   1.806   5.412
10387SOL     OW32059   4.698   1.724   2.523
10387SOL    HW132060   4.750   1.677   2.452
10387SOL    HW232061   4.728   1.691   2.613
10388SOL     OW32062   2.164   6.075   2.337
10388SOL    HW132063   2.093   6.006   2.349
10388SOL    HW232064   2.203   6.098   2.427
10389SOL     OW32065   0.128   6.773   1.146
10389SOL    HW132066   0.137   6.750   1.243
10389SOL    HW232067   0.176   6.705   1.091
10390SOL     OW32068   2.062   2.263   1.772
10390SOL    HW132069   2.067   2.167   1.800
10390SOL    HW232070   2.100   2.320   1.844
10391SOL     OW32071   0.879   5.404   4.088
10391SOL    HW132072   0.811   5.461   4.134
10391SOL    HW232073   0.837   5.318   4.060
10392SOL     OW32074   6.885   4.048   6.709
10392SOL    HW132075   6.851   3.988   6.782
10392SOL    HW232076   6.877   4.143   6.737
10393SOL     OW32077   2.000   2.338   2.225
10393SOL    HW132078   1.941   2.258   2.231
10393SOL    HW232079   2.077   2.319   2.164
10394SOL     OW32080   2.302   6.232   4.566
10394SOL    HW132081   2.353   6.149   4.588
10394SOL    HW232082   2.364   6.302   4.530
10395SOL     OW32083   6.873   1.101   3.209
10395SOL    HW132084   6.782   1.138   3.192
10395SOL    HW232085   6.916   1.150   3.285
10396SOL     OW32086   2.689   0.232   3.938
10396SOL    HW132087   2.655   0.235   3.844
10396SOL    HW232088   2.667   0.143   3.978
10397SOL     OW32089   2.745   1.816   3.991
10397SOL    HW132090   2.827   1.808   3.934
10397SOL    HW232091   2.741   1.907   4.032
10398SOL     OW32092   5.575   2.228   0.656
10398SOL    HW132093   5.601   2.215   0.561
10398SOL    HW232094   5.520   2.311   0.664
10399SOL     OW32095   4.228   1.954   4.713
10399SOL    HW132096   4.136   1.916   4.723
10399SOL    HW232097   4.238   2.035   4.772
10400SOL     OW32098   3.939   5.689   0.811
10400SOL    HW132099   3.920   5.630   0.732
10400SOL    HW232100   4.036   5.680   0.836
10401SOL     OW32101   0.265   0.382   2.408
10401SOL    HW132102   0.192   0.437   2.448
10401SOL    HW232103   0.351   0.403   2.454
10402SOL     OW32104   0.111   2.753   5.736
10402SOL    HW132105   0.160   2.727   5.653
10402SOL    HW232106   0.059   2.675   5.770
10403SOL     OW32107   5.160   0.878   2.876
10403SOL    HW132108   5.234   0.883   2.809
10403SOL    HW232109   5.156   0.964   2.927
10404SOL     OW32110   0.033   6.733   4.084
10404SOL    HW132111   0.055   6.825   4.051
10404SOL    HW232112   6.973   6.704   4.043
10405SOL     OW32113   1.000   5.767   4.975
10405SOL    HW132114   1.033   5.807   5.060
10405SOL    HW232115   0.966   5.675   4.992
10406SOL     OW32116   2.256   3.173   5.290
10406SOL    HW132117   2.322   3.102   5.264
10406SOL    HW232118   2.304   3.260   5.304
10407SOL     OW32119   2.378   0.707   6.690
10407SOL    HW132120   2.343   0.682   6.599
10407SOL    HW232121   2.302   0.738   6.747
10408SOL     OW32122   3.634   6.462   2.133
10408SOL    HW132123   3.733   6.463   2.146
10408SOL    HW232124   3.612   6.483   2.038
10409SOL     OW32125   0.351   3.944   0.742
10409SOL    HW132126   0.294   3.862   0.732
10409SOL    HW232127   0.408   3.955   0.660
10410SOL     OW32128   5.502   1.953   1.297
10410SOL    HW132129   5.473   1.978   1.204
10410SOL    HW232130   5.444   1.880   1.332
10411SOL     OW32131   4.164   5.570   4.365
10411SOL    HW132132   4.156   5.635   4.289
10411SOL    HW232133   4.244   5.593   4.420
10412SOL     OW32134   6.806   1.115   0.819
10412SOL    HW132135   6.844   1.167   0.896
10412SOL    HW232136   6.824   1.017   0.833
10413SOL     OW32137   6.734   2.263   1.450
10413SOL    HW132138   6.828   2.230   1.458
10413SOL    HW232139   6.733   2.363   1.455
10414SOL     OW32140   3.966   6.069   5.960
10414SOL    HW132141   4.056   6.080   5.917
10414SOL    HW232142   3.959   5.976   5.998
10415SOL     OW32143   2.204   4.144   3.890
10415SOL    HW132144   2.118   4.195   3.898
10415SOL    HW232145   2.267   4.195   3.831
10416SOL     OW32146   6.222   0.355   4.981
10416SOL    HW132147   6.293   0.398   5.036
10416SOL    HW232148   6.174   0.286   5.035
10417SOL     OW32149   4.745   4.851   4.032
10417SOL    HW132150   4.784   4.941   4.055
10417SOL    HW232151   4.684   4.861   3.953
10418SOL     OW32152   5.896   4.190   5.897
10418SOL    HW132153   5.989   4.225   5.909
10418SOL    HW232154   5.856   4.231   5.815
10419SOL     OW32155   3.241   0.250   5.280
10419SOL    HW132156   3.275   0.301   5.360
10419SOL    HW232157   3.150   0.214   5.300
10420SOL     OW32158   6.690   3.374   3.918
10420SOL    HW132159   6.695   3.279   3.949
10420SOL    HW232160   6.642   3.378   3.831
10421SOL     OW32161   1.492   3.350   4.867
10421SOL    HW132162   1.537   3.328   4.780
10421SOL    HW232163   1.420   3.417   4.851
10422SOL     OW32164   6.855   3.519   5.423
10422SOL    HW132165   6.938   3.574   5.421
10422SOL    HW232166   6.785   3.567   5.476
10423SOL     OW32167   4.483   4.937   5.071
10423SOL    HW132168   4.531   4.966   4.988
10423SOL    HW232169   4.518   4.989   5.149
10424SOL     OW32170   3.743   2.655   0.463
10424SOL    HW132171   3.757   2.559   0.442
10424SOL    HW232172   3.804   2.683   0.537
10425SOL     OW32173   1.026   5.605   2.463
10425SOL    HW132174   1.089   5.588   2.387
10425SOL    HW232175   0.997   5.518   2.503
10426SOL     OW32176   5.479   3.812   5.598
10426SOL    HW132177   5.405   3.830   5.533
10426SOL    HW232178   5.442   3.766   5.679
10427SOL     OW32179   4.933   0.044   6.809
10427SOL    HW132180   4.982   6.982   6.812
10427SOL    HW232181   4.968   0.099   6.733
10428SOL     OW32182   2.584   1.659   4.126
10428SOL    HW132183   2.627   1.630   4.212
10428SOL    HW232184   2.637   1.733   4.086
10429SOL     OW32185   0.881   4.110   3.059
10429SOL    HW132186   0.784   4.088   3.067
10429SOL    HW232187   0.933   4.027   3.038
10430SOL     OW32188   3.563   6.225   4.530
10430SOL    HW132189   3.504   6.162   4.479
10430SOL    HW232190   3.562   6.199   4.627
10431SOL     OW32191   2.994   0.610   4.395
10431SOL    HW132192   2.897   0.604   4.421
10431SOL    HW232193   3.005   0.677   4.322
10432SOL     OW32194   0.278   2.137   5.733
10432SOL    HW132195   0.300   2.159   5.638
10432SOL    HW232196   0.286   2.219   5.789
10433SOL     OW32197   7.007   6.505   2.539
10433SOL    HW132198   6.994   6.503   2.638
10433SOL    HW232199   0.046   6.578   2.516
10434SOL     OW32200   4.111   6.184   4.712
10434SOL    HW132201   4.148   6.217   4.625
10434SOL    HW232202   4.020   6.224   4.725
10435SOL     OW32203   2.002   1.661   6.451
10435SOL    HW132204   1.904   1.650   6.465
10435SOL    HW232205   2.049   1.650   6.539
10436SOL     OW32206   6.094   4.049   4.103
10436SOL    HW132207   6.060   3.994   4.180
10436SOL    HW232208   6.028   4.046   4.028
10437SOL     OW32209   6.391   4.895   4.981
10437SOL    HW132210   6.384   4.981   5.031
10437SOL    HW232211   6.301   4.870   4.944
10438SOL     OW32212   0.386   5.992   6.017
10438SOL    HW132213   0.296   5.949   6.022
10438SOL    HW232214   0.390   6.069   6.081
10439SOL     OW32215   5.531   0.977   4.704
10439SOL    HW132216   5.544   1.025   4.618
10439SOL    HW232217   5.613   0.987   4.761
10440SOL     OW32218   0.186   6.660   6.792
10440SOL    HW132219   0.115   6.720   6.755
10440SOL    HW232220   0.260   6.716   6.829
10441SOL     OW32221   3.003   1.373   1.361
10441SOL    HW132222   2.914   1.410   1.386
10441SOL    HW232223   2.997   1.273   1.354
10442SOL     OW32224   3.933   6.881   5.103
10442SOL    HW132225   3.959   6.868   5.007
10442SOL    HW232226   4.001   6.940   5.148
10443SOL     OW32227   6.076   2.606   3.345
10443SOL    HW132228   5.978   2.585   3.345
10443SOL    HW232229   6.097   2.667   3.422
10444SOL     OW32230   3.842   5.339   2.098
10444SOL    HW132231   3.931   5.385   2.104
10444SOL    HW232232   3.784   5.388   2.033
10445SOL     OW32233   0.837   3.686   2.723
10445SOL    HW132234   0.808   3.727   2.810
10445SOL    HW232235   0.929   3.719   2.701
10446SOL     OW32236   1.968   3.589   6.414
10446SOL    HW132237   2.001   3.614   6.323
10446SOL    HW232238   1.981   3.665   6.477
10447SOL     OW32239   0.032   0.809   2.515
10447SOL    HW132240   0.130   0.802   2.496
10447SOL    HW232241   0.013   0.891   2.569
10448SOL     OW32242   3.326   0.495   2.428
10448SOL    HW132243   3.373   0.581   2.447
10448SOL    HW232244   3.371   0.420   2.477
10449SOL     OW32245   2.618   5.766   6.617
10449SOL    HW132246   2.612   5.687   6.679
10449SOL    HW232247   2.526   5.799   6.596
10450SOL     OW32248   6.972   1.680   6.794
10450SOL    HW132249   6.885   1.715   6.828
10450SOL    HW232250   6.970   1.580   6.793
10451SOL     OW32251   3.389   6.873   3.131
10451SOL    HW132252   3.405   6.958   3.181
10451SOL    HW232253   3.341   6.809   3.190
10452SOL     OW32254   6.764   3.164   3.328
10452SOL    HW132255   6.699   3.234   3.297
10452SOL    HW232256   6.744   3.077   3.283
10453SOL     OW32257   4.826   6.242   1.426
10453SOL    HW132258   4.878   6.311   1.377
10453SOL    HW232259   4.728   6.255   1.409
10454SOL     OW32260   5.097   1.690   0.457
10454SOL    HW132261   5.157   1.667   0.534
10454SOL    HW232262   5.014   1.733   0.491
10455SOL     OW32263   6.983   6.048   3.900
10455SOL    HW132264   6.909   6.041   3.833
10455SOL    HW232265   6.991   6.143   3.930
10456SOL     OW32266   0.868   5.313   0.683
10456SOL    HW132267   0.861   5.393   0.743
10456SOL    HW232268   0.946   5.324   0.622
10457SOL     OW32269   4.280   3.033   0.438
10457SOL    HW132270   4.223   2.978   0.377
10457SOL    HW232271   4.355   2.978   0.473
10458SOL     OW32272   6.250   0.248   6.780
10458SOL    HW132273   6.347   0.272   6.771
10458SOL    HW232274   6.230   0.168   6.724
10459SOL     OW32275   4.132   5.504   1.373
10459SOL    HW132276   4.108   5.476   1.279
10459SOL    HW232277   4.053   5.491   1.432
10460SOL     OW32278   1.464   3.945   1.930
10460SOL    HW132279   1.496   3.974   1.839
10460SOL    HW232280   1.536   3.895   1.976
10461SOL     OW32281   5.919   4.739   5.125
10461SOL    HW132282   5.982   4.683   5.071
10461SOL    HW232283   5.965   4.822   5.156
10462SOL     OW32284   5.945   2.296   3.148
10462SOL    HW132285   5.931   2.366   3.218
10462SOL    HW232286   5.880   2.311   3.073
10463SOL     OW32287   4.056   1.991   6.115
10463SOL    HW132288   4.029   1.982   6.211
10463SOL    HW232289   3.975   1.986   6.057
10464SOL     OW32290   5.828   6.433   2.247
10464SOL    HW132291   5.914   6.412   2.201
10464SOL    HW232292   5.826   6.529   2.273
10465SOL     OW32293   4.832   5.717   1.260
10465SOL    HW132294   4.838   5.663   1.344
10465SOL    HW232295   4.742   5.705   1.218
10466SOL     OW32296   4.977   4.882   5.308
10466SOL    HW132297   5.017   4.823   5.238
10466SOL    HW232298   5.051   4.923   5.363
10467SOL     OW32299   1.619   2.320   0.477
10467SOL    HW132300   1.521   2.316   0.494
10467SOL    HW232301   1.661   2.233   0.501
10468SOL     OW32302   3.978   4.807   3.385
10468SOL    HW132303   4.004   4.761   3.301
10468SOL    HW232304   4.031   4.769   3.461
10469SOL     OW32305   4.357   4.410   6.029
10469SOL    HW132306   4.319   4.318   6.020
10469SOL    HW232307   4.456   4.406   6.015
10470SOL     OW32308   2.160   1.655   3.508
10470SOL    HW132309   2.255   1.646   3.479
10470SOL    HW232310   2.108   1.576   3.476
10471SOL     OW32311   2.237   0.225   0.529
10471SOL    HW132312   2.300   0.295   0.494
10471SOL    HW232313   2.157   0.270   0.569
10472SOL     OW32314   3.405   5.847   0.344
10472SOL    HW132315   3.398   5.849   0.443
10472SOL    HW232316   3.314   5.842   0.303
10473SOL     OW32317   6.398   6.554   6.154
10473SOL    HW132318   6.446   6.618   6.215
10473SOL    HW232319   6.463   6.514   6.090
10474SOL     OW32320   4.237   0.830   4.124
10474SOL    HW132321   4.167   0.854   4.057
10474SOL    HW232322   4.200   0.761   4.187
10475SOL     OW32323   3.448   6.787   1.811
10475SOL    HW132324   3.531   6.787   1.756
10475SOL    HW232325   3.368   6.791   1.751
10476SOL     OW32326   5.730   6.619   6.116
10476SOL    HW132327   5.813   6.608   6.171
10476SOL    HW232328   5.678   6.697   6.151
10477SOL     OW32329   6.837   1.118   4.902
10477SOL    HW132330   6.905   1.191   4.893
10477SOL    HW232331   6.884   1.032   4.923
10478SOL     OW32332   6.747   6.727   6.896
10478SOL    HW132333   6.790   6.653   6.947
10478SOL    HW232334   6.781   6.815   6.930
10479SOL     OW32335   6.910   1.953   2.019
10479SOL    HW132336   6.920   1.858   1.990
10479SOL    HW232337   6.874   1.956   2.112
10480SOL     OW32338   0.829   1.079   2.153
10480SOL    HW132339   0.751   1.100   2.093
10480SOL    HW232340   0.822   1.134   2.236
10481SOL     OW32341   2.162   6.186   3.715
10481SOL    HW132342   2.200   6.252   3.779
10481SOL    HW232343   2.063   6.179   3.729
10482SOL     OW32344   6.162   5.143   4.519
10482SOL    HW132345   6.150   5.046   4.500
10482SOL    HW232346   6.190   5.156   4.614
10483SOL     OW32347   5.722   5.471   0.913
10483SOL    HW132348   5.755   5.470   1.007
10483SOL    HW232349   5.739   5.381   0.871
10484SOL     OW32350   5.547   1.483   1.913
10484SOL    HW132351   5.611   1.467   1.988
10484SOL    HW232352   5.597   1.485   1.826
10485SOL     OW32353   3.561   4.142   0.234
10485SOL    HW132354   3.516   4.054   0.245
10485SOL    HW232355   3.628   4.155   0.308
10486SOL     OW32356   0.288   0.447   0.716
10486SOL    HW132357   0.210   0.500   0.685
10486SOL    HW232358   0.347   0.505   0.774
10487SOL     OW32359   4.931   0.276   1.761
10487SOL    HW132360   4.925   0.324   1.673
10487SOL    HW232361   4.996   0.323   1.820
10488SOL     OW32362   3.480   1.653   5.680
10488SOL    HW132363   3.499   1.751   5.691
10488SOL    HW232364   3.560   1.601   5.709
10489SOL     OW32365   0.697   6.644   5.474
10489SOL    HW132366   0.723   6.740   5.479
10489SOL    HW232367   0.603   6.632   5.507
10490SOL     OW32368   5.889   2.034   0.648
10490SOL    HW132369   5.908   2.021   0.550
10490SOL    HW232370   5.856   1.947   0.686
10491SOL     OW32371   1.898   2.733   0.235
10491SOL    HW132372   1.903   2.763   0.140
10491SOL    HW232373   1.864   2.639   0.239
10492SOL     OW32374   5.816   4.320   5.658
10492SOL    HW132375   5.912   4.295   5.645
10492SOL    HW232376   5.804   4.417   5.638
10493SOL     OW32377   3.528   0.965   2.000
10493SOL    HW132378   3.539   1.053   2.048
10493SOL    HW232379   3.609   0.909   2.015
10494SOL     OW32380   5.521   4.272   6.022
10494SOL    HW132381   5.520   4.212   5.943
10494SOL    HW232382   5.608   4.322   6.025
10495SOL     OW32383   2.330   6.672   6.893
10495SOL    HW132384   2.324   6.765   6.927
10495SOL    HW232385   2.386   6.617   6.955
10496SOL     OW32386   0.135   4.091   6.787
10496SOL    HW132387   0.200   4.166   6.773
10496SOL    HW232388   0.068   4.091   6.712
10497SOL     OW32389   2.113   6.729   1.946
10497SOL    HW132390   2.138   6.787   2.024
10497SOL    HW232391   2.041   6.773   1.893
10498SOL     OW32392   3.289   5.744   1.268
10498SOL    HW132393   3.361   5.813   1.275
10498SOL    HW232394   3.329   5.653   1.265
10499SOL     OW32395   3.438   6.637   2.530
10499SOL    HW132396   3.410   6.541   2.534
10499SOL    HW232397   3.362   6.694   2.560
10500SOL     OW32398   0.001   2.038   6.249
10500SOL    HW132399   0.043   1.976   6.316
10500SOL    HW232400   0.045   2.128   6.255
10501SOL     OW32401   2.130   6.018   3.017
10501SOL    HW132402   2.166   5.926   3.027
10501SOL    HW232403   2.083   6.027   2.929
10502SOL     OW32404   2.567   0.497   1.192
10502SOL    HW132405   2.651   0.524   1.240
10502SOL    HW232406   2.581   0.409   1.148
10503SOL     OW32407   4.499   2.847   0.559
10503SOL    HW132408   4.476   2.825   0.654
10503SOL    HW232409   4.483   2.767   0.501
10504SOL     OW32410   1.323   1.674   6.522
10504SOL    HW132411   1.267   1.607   6.571
10504SOL    HW232412   1.366   1.630   6.444
10505SOL     OW32413   5.505   5.884   0.061
10505SOL    HW132414   5.494   5.792   0.099
10505SOL    HW232415   5.559   5.940   0.125
10506SOL     OW32416   0.257   5.073   0.307
10506SOL    HW132417   0.308   5.115   0.232
10506SOL    HW232418   0.183   5.134   0.336
10507SOL     OW32419   1.965   0.460   0.191
10507SOL    HW132420   1.908   0.412   0.258
10507SOL    HW232421   1.909   0.486   0.112
10508SOL     OW32422   6.301   6.858   4.855
10508SOL    HW132423   6.249   6.790   4.908
10508SOL    HW232424   6.399   6.849   4.877
10509SOL     OW32425   0.787   5.753   4.275
10509SOL    HW132426   0.807   5.726   4.369
10509SOL    HW232427   0.689   5.744   4.257
10510SOL     OW32428   4.393   6.187   6.066
10510SOL    HW132429   4.369   6.122   5.994
10510SOL    HW232430   4.473   6.240   6.037
10511SOL     OW32431   3.973   1.281   2.081
10511SOL    HW132432   4.013   1.195   2.049
10511SOL    HW232433   3.972   1.347   2.006
10512SOL     OW32434   4.151   0.404   5.767
10512SOL    HW132435   4.103   0.334   5.715
10512SOL    HW232436   4.086   0.461   5.817
10513SOL     OW32437   6.259   2.553   4.453
10513SOL    HW132438   6.171   2.581   4.415
10513SOL    HW232439   6.325   2.627   4.443
10514SOL     OW32440   0.023   4.001   0.472
10514SOL    HW132441   0.030   3.970   0.567
10514SOL    HW232442   6.952   4.013   0.449
10515SOL     OW32443   0.828   3.275   2.881
10515SOL    HW132444   0.815   3.323   2.967
10515SOL    HW232445   0.739   3.239   2.850
10516SOL     OW32446   3.969   1.117   0.503
10516SOL    HW132447   3.881   1.158   0.481
10516SOL    HW232448   4.018   1.095   0.419
10517SOL     OW32449   0.854   2.528   2.199
10517SOL    HW132450   0.855   2.430   2.217
10517SOL    HW232451   0.947   2.565   2.211
10518SOL     OW32452   0.724   5.210   6.572
10518SOL    HW132453   0.658   5.135   6.567
10518SOL    HW232454   0.808   5.183   6.526
10519SOL     OW32455   2.190   3.141   6.621
10519SOL    HW132456   2.286   3.169   6.630
10519SOL    HW232457   2.145   3.198   6.552
10520SOL     OW32458   0.852   2.786   6.565
10520SOL    HW132459   0.762   2.829   6.558
10520SOL    HW232460   0.923   2.856   6.558
10521SOL     OW32461   6.067   6.358   2.150
10521SOL    HW132462   6.164   6.378   2.162
10521SOL    HW232463   6.056   6.277   2.091
10522SOL     OW32464   6.904   0.613   6.043
10522SOL    HW132465   6.940   0.634   5.952
10522SOL    HW232466   6.967   0.647   6.112
10523SOL     OW32467   0.093   5.132   3.827
10523SOL    HW132468   0.044   5.215   3.801
10523SOL    HW232469   0.064   5.056   3.769
10524SOL     OW32470   1.620   0.663   4.510
10524SOL    HW132471   1.557   0.620   4.573
10524SOL    HW232472   1.579   0.667   4.419
10525SOL     OW32473   3.747   6.421   6.481
10525SOL    HW132474   3.792   6.431   6.393
10525SOL    HW232475   3.809   6.375   6.545
10526SOL     OW32476   1.136   6.695   3.697
10526SOL    HW132477   1.120   6.596   3.696
10526SOL    HW232478   1.057   6.742   3.659
10527SOL     OW32479   6.762   1.523   4.959
10527SOL    HW132480   6.700   1.588   4.915
10527SOL    HW232481   6.844   1.571   4.992
10528SOL     OW32482   2.124   3.620   6.183
10528SOL    HW132483   2.077   3.695   6.137
10528SOL    HW232484   2.080   3.533   6.160
10529SOL     OW32485   2.414   5.774   3.903
10529SOL    HW132486   2.379   5.774   3.997
10529SOL    HW232487   2.358   5.713   3.847
10530SOL     OW32488   2.262   0.189   6.386
10530SOL    HW132489   2.282   0.267   6.328
10530SOL    HW232490   2.329   0.116   6.369
10531SOL     OW32491   1.242   3.044   3.964
10531SOL    HW132492   1.315   3.067   4.028
10531SOL    HW232493   1.279   3.034   3.872
10532SOL     OW32494   1.307   5.156   5.572
10532SOL    HW132495   1.219   5.202   5.571
10532SOL    HW232496   1.317   5.100   5.489
10533SOL     OW32497   2.703   1.336   4.997
10533SOL    HW132498   2.703   1.291   5.086
10533SOL    HW232499   2.760   1.418   5.001
10534SOL     OW32500   6.298   6.068   1.370
10534SOL    HW132501   6.294   5.975   1.334
10534SOL    HW232502   6.217   6.084   1.428
10535SOL     OW32503   0.639   2.155   0.959
10535SOL    HW132504   0.643   2.061   0.992
10535SOL    HW232505   0.644   2.218   1.036
10536SOL     OW32506   3.769   0.632   2.995
10536SOL    HW132507   3.802   0.701   3.060
10536SOL    HW232508   3.758   0.674   2.905
10537SOL     OW32509   4.345   5.001   4.122
10537SOL    HW132510   4.277   5.056   4.073
10537SOL    HW232511   4.436   5.040   4.106
10538SOL     OW32512   4.835   1.837   0.488
10538SOL    HW132513   4.785   1.889   0.558
10538SOL    HW232514   4.770   1.789   0.430
10539SOL     OW32515   0.472   3.997   0.512
10539SOL    HW132516   0.532   3.931   0.467
10539SOL    HW232517   0.485   4.087   0.471
10540SOL     OW32518   1.702   2.798   5.110
10540SOL    HW132519   1.607   2.765   5.116
10540SOL    HW232520   1.719   2.867   5.181
10541SOL     OW32521   3.672   4.036   2.313
10541SOL    HW132522   3.635   4.077   2.396
10541SOL    HW232523   3.662   4.101   2.237
10542SOL     OW32524   6.658   0.317   5.372
10542SOL    HW132525   6.572   0.315   5.320
10542SOL    HW232526   6.656   0.394   5.435
10543SOL     OW32527   0.750   1.209   5.263
10543SOL    HW132528   0.766   1.137   5.331
10543SOL    HW232529   0.708   1.169   5.182
10544SOL     OW32530   2.293   6.552   1.871
10544SOL    HW132531   2.251   6.512   1.790
10544SOL    HW232532   2.233   6.622   1.909
10545SOL     OW32533   6.062   1.331   2.354
10545SOL    HW132534   6.129   1.292   2.290
10545SOL    HW232535   5.999   1.259   2.384
10546SOL     OW32536   2.195   1.058   0.136
10546SOL    HW132537   2.151   1.105   0.059
10546SOL    HW232538   2.206   0.961   0.113
10547SOL     OW32539   5.894   2.747   2.284
10547SOL    HW132540   5.888   2.799   2.199
10547SOL    HW232541   5.802   2.729   2.319
10548SOL     OW32542   5.287   4.647   4.381
10548SOL    HW132543   5.267   4.576   4.314
10548SOL    HW232544   5.228   4.635   4.461
10549SOL     OW32545   6.736   6.698   1.918
10549SOL    HW132546   6.811   6.764   1.926
10549SOL    HW232547   6.696   6.705   1.826
10550SOL     OW32548   4.347   5.654   3.756
10550SOL    HW132549   4.317   5.598   3.834
10550SOL    HW232550   4.436   5.622   3.725
10551SOL     OW32551   1.365   2.655   6.208
10551SOL    HW132552   1.415   2.569   6.209
10551SOL    HW232553   1.292   2.652   6.276
10552SOL     OW32554   3.303   1.476   6.798
10552SOL    HW132555   3.309   1.491   6.700
10552SOL    HW232556   3.246   1.547   6.839
10553SOL     OW32557   0.697   4.794   1.498
10553SOL    HW132558   0.648   4.817   1.415
10553SOL    HW232559   0.682   4.698   1.521
10554SOL     OW32560   5.659   5.182   0.071
10554SOL    HW132561   5.673   5.086   0.093
10554SOL    HW232562   5.650   5.192   6.997
10555SOL     OW32563   1.866   3.441   0.622
10555SOL    HW132564   1.872   3.386   0.706
10555SOL    HW232565   1.918   3.525   0.633
10556SOL     OW32566   2.263   2.102   5.363
10556SOL    HW132567   2.354   2.141   5.376
10556SOL    HW232568   2.265   2.005   5.387
10557SOL     OW32569   2.311   2.869   2.905
10557SOL    HW132570   2.316   2.864   2.805
10557SOL    HW232571   2.220   2.900   2.932
10558SOL     OW32572   3.812   1.221   3.766
10558SOL    HW132573   3.782   1.170   3.847
10558SOL    HW232574   3.820   1.318   3.788
10559SOL     OW32575   5.119   0.319   0.933
10559SOL    HW132576   5.194   0.273   0.885
10559SOL    HW232577   5.129   0.304   1.031
10560SOL     OW32578   3.451   5.975   3.293
10560SOL    HW132579   3.517   5.907   3.260
10560SOL    HW232580   3.483   6.067   3.271
10561SOL     OW32581   3.259   4.261   0.467
10561SOL    HW132582   3.356   4.283   0.460
10561SOL    HW232583   3.231   4.208   0.386
10562SOL     OW32584   4.781   5.372   0.352
10562SOL    HW132585   4.759   5.443   0.285
10562SOL    HW232586   4.853   5.405   0.413
10563SOL     OW32587   0.768   1.320   3.681
10563SOL    HW132588   0.804   1.231   3.708
10563SOL    HW232589   0.802   1.343   3.590
10564SOL     OW32590   5.649   6.383   1.591
10564SOL    HW132591   5.637   6.323   1.512
10564SOL    HW232592   5.710   6.459   1.567
10565SOL     OW32593   0.090   0.687   6.217
10565SOL    HW132594   0.142   0.666   6.134
10565SOL    HW232595   0.089   0.607   6.277
10566SOL     OW32596   3.735   2.687   0.147
10566SOL    HW132597   3.736   2.689   0.047
10566SOL    HW232598   3.818   2.643   0.181
10567SOL     OW32599   3.300   2.089   4.146
10567SOL    HW132600   3.291   2.080   4.047
10567SOL    HW232601   3.249   2.169   4.177
10568SOL     OW32602   6.090   2.277   1.443
10568SOL    HW132603   6.176   2.232   1.419
10568SOL    HW232604   6.101   2.326   1.530
10569SOL     OW32605   5.656   1.974   2.053
10569SOL    HW132606   5.620   2.063   2.082
10569SOL    HW232607   5.647   1.909   2.129
10570SOL     OW32608   1.661   5.256   3.441
10570SOL    HW132609   1.665   5.190   3.516
10570SOL    HW232610   1.652   5.207   3.355
10571SOL     OW32611   6.909   5.116   5.522
10571SOL    HW132612   6.987   5.119   5.460
10571SOL    HW232613   6.885   5.021   5.542
10572SOL     OW32614   6.991   3.755   3.493
10572SOL    HW132615   6.923   3.790   3.558
10572SOL    HW232616   6.945   3.733   3.407
10573SOL     OW32617   4.112   7.023   5.261
10573SOL    HW132618   4.203   7.009   5.223
10573SOL    HW232619   4.091   6.949   5.325
10574SOL     OW32620   1.113   1.061   3.767
10574SOL    HW132621   1.131   1.124   3.842
10574SOL    HW232622   1.018   1.071   3.737
10575SOL     OW32623   6.427   1.275   3.099
10575SOL    HW132624   6.373   1.334   3.159
10575SOL    HW232625   6.369   1.238   3.027
10576SOL     OW32626   6.966   6.313   5.161
10576SOL    HW132627   6.881   6.279   5.121
10576SOL    HW232628   6.958   6.411   5.177
10577SOL     OW32629   1.958   3.068   0.589
10577SOL    HW132630   2.011   3.082   0.672
10577SOL    HW232631   1.973   3.145   0.526
10578SOL     OW32632   5.395   0.977   2.697
10578SOL    HW132633   5.454   1.046   2.738
10578SOL    HW232634   5.445   0.928   2.626
10579SOL     OW32635   4.217   2.183   1.349
10579SOL    HW132636   4.201   2.270   1.302
10579SOL    HW232637   4.131   2.150   1.389
10580SOL     OW32638   6.778   0.461   0.058
10580SOL    HW132639   6.801   0.539   0.116
10580SOL    HW232640   6.785   0.488   6.988
10581SOL     OW32641   6.955   6.906   3.474
10581SOL    HW132642   6.944   6.808   3.459
10581SOL    HW232643   6.910   6.932   3.559
10582SOL     OW32644   5.409   5.153   6.508
10582SOL    HW132645   5.372   5.065   6.478
10582SOL    HW232646   5.368   5.177   6.596
10583SOL     OW32647   4.043   1.522   5.115
10583SOL    HW132648   4.043   1.458   5.038
10583SOL    HW232649   4.010   1.475   5.197
10584SOL     OW32650   6.792   6.660   1.260
10584SOL    HW132651   6.843   6.746   1.257
10584SOL    HW232652   6.805   6.616   1.349
10585SOL     OW32653   2.340   2.751   6.434
10585SOL    HW132654   2.278   2.806   6.379
10585SOL    HW232655   2.400   2.810   6.488
10586SOL     OW32656   6.825   4.865   4.934
10586SOL    HW132657   6.781   4.942   4.888
10586SOL    HW232658   6.833   4.788   4.871
10587SOL     OW32659   6.187   3.754   0.332
10587SOL    HW132660   6.276   3.783   0.297
10587SOL    HW232661   6.121   3.752   0.256
10588SOL     OW32662   0.682   3.143   3.572
10588SOL    HW132663   0.774   3.104   3.565
10588SOL    HW232664   0.687   3.229   3.622
10589SOL     OW32665   5.858   1.172   4.428
10589SOL    HW132666   5.927   1.174   4.355
10589SOL    HW232667   5.880   1.100   4.493
10590SOL     OW32668   1.227   0.343   1.896
10590SOL    HW132669   1.299   0.324   1.829
10590SOL    HW232670   1.189   0.257   1.928
10591SOL     OW32671   1.124   1.683   6.304
10591SOL    HW132672   1.211   1.666   6.351
10591SOL    HW232673   1.116   1.780   6.282
10592SOL     OW32674   5.648   3.847   1.502
10592SOL    HW132675   5.633   3.872   1.598
10592SOL    HW232676   5.746   3.848   1.482
10593SOL     OW32677   2.625   5.198   0.477
10593SOL    HW132678   2.644   5.145   0.394
10593SOL    HW232679   2.547   5.258   0.460
10594SOL     OW32680   4.847   6.873   2.468
10594SOL    HW132681   4.797   6.829   2.543
10594SOL    HW232682   4.897   6.952   2.503
10595SOL     OW32683   3.643   6.766   5.636
10595SOL    HW132684   3.723   6.708   5.628
10595SOL    HW232685   3.561   6.714   5.614
10596SOL     OW32686   4.356   0.213   6.985
10596SOL    HW132687   4.269   0.213   0.007
10596SOL    HW232688   4.420   0.274   0.005
10597SOL     OW32689   3.267   1.414   5.054
10597SOL    HW132690   3.272   1.331   4.998
10597SOL    HW232691   3.342   1.475   5.031
10598SOL     OW32692   3.035   2.511   0.522
10598SOL    HW132693   3.011   2.606   0.542
10598SOL    HW232694   3.130   2.506   0.492
10599SOL     OW32695   4.971   2.469   6.345
10599SOL    HW132696   5.051   2.482   6.287
10599SOL    HW232697   4.999   2.439   6.436
10600SOL     OW32698   1.993   2.549   0.654
10600SOL    HW132699   1.991   2.631   0.598
10600SOL    HW232700   2.026   2.572   0.746
10601SOL     OW32701   1.594   4.565   5.856
10601SOL    HW132702   1.672   4.586   5.799
10601SOL    HW232703   1.615   4.587   5.951
10602SOL     OW32704   3.918   1.620   3.115
10602SOL    HW132705   3.819   1.632   3.119
10602SOL    HW232706   3.950   1.634   3.021
10603SOL     OW32707   3.109   5.845   3.607
10603SOL    HW132708   3.113   5.802   3.516
10603SOL    HW232709   3.187   5.814   3.661
10604SOL     OW32710   5.947   4.632   5.503
10604SOL    HW132711   6.019   4.690   5.466
10604SOL    HW232712   5.918   4.566   5.433
10605SOL     OW32713   2.032   5.913   0.770
10605SOL    HW132714   1.998   5.828   0.729
10605SOL    HW232715   1.976   5.935   0.850
10606SOL     OW32716   6.925   0.785   2.270
10606SOL    HW132717   6.874   0.871   2.272
10606SOL    HW232718   6.982   0.778   2.352
10607SOL     OW32719   4.284   4.675   5.974
10607SOL    HW132720   4.300   4.581   6.005
10607SOL    HW232721   4.370   4.725   5.973
10608SOL     OW32722   5.039   2.215   5.761
10608SOL    HW132723   4.987   2.293   5.728
10608SOL    HW232724   5.092   2.176   5.686
10609SOL     OW32725   3.090   6.741   1.028
10609SOL    HW132726   3.162   6.804   0.999
10609SOL    HW232727   3.026   6.727   0.952
10610SOL     OW32728   1.465   2.929   5.753
10610SOL    HW132729   1.526   2.981   5.693
10610SOL    HW232730   1.518   2.888   5.827
10611SOL     OW32731   4.275   3.663   5.730
10611SOL    HW132732   4.208   3.633   5.663
10611SOL    HW232733   4.360   3.612   5.718
10612SOL     OW32734   2.856   0.753   5.278
10612SOL    HW132735   2.804   0.813   5.217
10612SOL    HW232736   2.833   0.658   5.258
10613SOL     OW32737   6.158   6.836   5.340
10613SOL    HW132738   6.235   6.843   5.276
10613SOL    HW232739   6.174   6.898   5.417
10614SOL     OW32740   6.286   1.977   4.343
10614SOL    HW132741   6.336   2.013   4.264
10614SOL    HW232742   6.270   1.879   4.330
10615SOL     OW32743   3.450   6.666   6.022
10615SOL    HW132744   3.409   6.731   6.086
10615SOL    HW232745   3.503   6.597   6.072
10616SOL     OW32746   2.690   6.157   0.712
10616SOL    HW132747   2.710   6.193   0.804
10616SOL    HW232748   2.692   6.232   0.646
10617SOL     OW32749   2.577   2.395   1.343
10617SOL    HW132750   2.610   2.429   1.431
10617SOL    HW232751   2.547   2.471   1.286
10618SOL     OW32752   6.724   3.727   6.582
10618SOL    HW132753   6.819   3.726   6.551
10618SOL    HW232754   6.696   3.634   6.604
10619SOL     OW32755   0.239   4.067   2.351
10619SOL    HW132756   0.196   3.978   2.359
10619SOL    HW232757   0.168   4.138   2.343
10620SOL     OW32758   1.488   5.331   5.365
10620SOL    HW132759   1.437   5.276   5.299
10620SOL    HW232760   1.486   5.285   5.454
10621SOL     OW32761   1.426   6.232   1.848
10621SOL    HW132762   1.488   6.259   1.774
10621SOL    HW232763   1.358   6.305   1.862
10622SOL     OW32764   5.019   1.243   1.172
10622SOL    HW132765   4.961   1.320   1.144
10622SOL    HW232766   5.072   1.211   1.094
10623SOL     OW32767   6.886   4.684   4.753
10623SOL    HW132768   6.956   4.657   4.686
10623SOL    HW232769   6.810   4.620   4.750
10624SOL     OW32770   0.513   2.055   4.846
10624SOL    HW132771   0.430   2.018   4.887
10624SOL    HW232772   0.491   2.101   4.760
10625SOL     OW32773   0.604   4.300   6.835
10625SOL    HW132774   0.543   4.241   6.889
10625SOL    HW232775   0.592   4.280   6.738
10626SOL     OW32776   2.501   3.328   0.959
10626SOL    HW132777   2.426   3.310   0.896
10626SOL    HW232778   2.565   3.251   0.957
10627SOL     OW32779   5.730   6.517   0.595
10627SOL    HW132780   5.730   6.520   0.495
10627SOL    HW232781   5.689   6.601   0.631
10628SOL     OW32782   4.660   5.557   0.176
10628SOL    HW132783   4.664   5.540   0.078
10628SOL    HW232784   4.574   5.522   0.212
10629SOL     OW32785   2.877   4.865   5.171
10629SOL    HW132786   2.869   4.775   5.127
10629SOL    HW232787   2.786   4.896   5.200
10630SOL     OW32788   6.727   1.538   3.920
10630SOL    HW132789   6.816   1.526   3.877
10630SOL    HW232790   6.738   1.550   4.019
10631SOL     OW32791   2.913   5.089   4.785
10631SOL    HW132792   2.953   5.015   4.839
10631SOL    HW232793   2.880   5.161   4.846
10632SOL     OW32794   6.183   1.736   3.990
10632SOL    HW132795   6.144   1.761   4.078
10632SOL    HW232796   6.221   1.643   3.995
10633SOL     OW32797   2.645   3.579   1.776
10633SOL    HW132798   2.726   3.541   1.820
10633SOL    HW232799   2.564   3.527   1.805
10634SOL     OW32800   3.066   5.762   0.689
10634SOL    HW132801   3.014   5.848   0.682
10634SOL    HW232802   3.029   5.707   0.764
10635SOL     OW32803   3.695   1.557   1.202
10635SOL    HW132804   3.688   1.460   1.223
10635SOL    HW232805   3.693   1.570   1.103
10636SOL     OW32806   0.980   1.571   1.640
10636SOL    HW132807   0.974   1.639   1.567
10636SOL    HW232808   1.063   1.515   1.627
10637SOL     OW32809   2.419   4.674   5.650
10637SOL    HW132810   2.433   4.581   5.616
10637SOL    HW232811   2.453   4.682   5.744
10638SOL     OW32812   0.020   5.284   2.871
10638SOL    HW132813   6.961   5.290   2.924
10638SOL    HW232814   0.015   5.204   2.810
10639SOL     OW32815   1.258   3.432   2.534
10639SOL    HW132816   1.199   3.421   2.614
10639SOL    HW232817   1.206   3.414   2.451
10640SOL     OW32818   3.357   0.359   5.723
10640SOL    HW132819   3.285   0.354   5.791
10640SOL    HW232820   3.408   0.273   5.720
10641SOL     OW32821   3.734   2.115   0.298
10641SOL    HW132822   3.762   2.163   0.215
10641SOL    HW232823   3.636   2.095   0.293
10642SOL     OW32824   6.857   3.104   2.027
10642SOL    HW132825   6.777   3.138   1.979
10642SOL    HW232826   6.918   3.181   2.050
10643SOL     OW32827   2.255   5.121   5.410
10643SOL    HW132828   2.282   5.046   5.471
10643SOL    HW232829   2.189   5.179   5.456
10644SOL     OW32830   5.485   2.577   3.303
10644SOL    HW132831   5.454   2.648   3.367
10644SOL    HW232832   5.496   2.616   3.212
10645SOL     OW32833   1.051   1.489   5.115
10645SOL    HW132834   1.068   1.543   5.033
10645SOL    HW232835   0.990   1.539   5.176
10646SOL     OW32836   6.948   1.152   6.448
10646SOL    HW132837   6.950   1.065   6.399
10646SOL    HW232838   7.003   1.220   6.398
10647SOL     OW32839   3.158   5.425   6.669
10647SOL    HW132840   3.258   5.428   6.679
10647SOL    HW232841   3.133   5.356   6.601
10648SOL     OW32842   5.381   4.237   6.244
10648SOL    HW132843   5.295   4.288   6.248
10648SOL    HW232844   5.427   4.256   6.156
10649SOL     OW32845   0.567   4.130   3.770
10649SOL    HW132846   0.629   4.066   3.726
10649SOL    HW232847   0.610   4.219   3.778
10650SOL     OW32848   1.047   6.067   3.422
10650SOL    HW132849   0.959   6.029   3.450
10650SOL    HW232850   1.112   6.060   3.497
10651SOL     OW32851   4.622   6.949   5.772
10651SOL    HW132852   4.687   7.024   5.780
10651SOL    HW232853   4.612   6.924   5.676
10652SOL     OW32854   3.748   6.782   6.334
10652SOL    HW132855   3.784   6.739   6.416
10652SOL    HW232856   3.815   6.774   6.260
10653SOL     OW32857   5.355   3.485   4.044
10653SOL    HW132858   5.330   3.547   3.970
10653SOL    HW232859   5.434   3.429   4.016
10654SOL     OW32860   4.305   1.122   0.634
10654SOL    HW132861   4.221   1.169   0.661
10654SOL    HW232862   4.340   1.163   0.550
10655SOL     OW32863   2.968   5.642   0.910
10655SOL    HW132864   2.949   5.692   0.995
10655SOL    HW232865   2.929   5.550   0.917
10656SOL     OW32866   6.709   2.542   1.605
10656SOL    HW132867   6.623   2.538   1.657
10656SOL    HW232868   6.690   2.572   1.512
10657SOL     OW32869   6.397   0.274   6.287
10657SOL    HW132870   6.417   0.361   6.331
10657SOL    HW232871   6.463   0.258   6.213
10658SOL     OW32872   6.089   3.895   5.142
10658SOL    HW132873   6.144   3.832   5.088
10658SOL    HW232874   6.004   3.850   5.170
10659SOL     OW32875   6.999   6.273   0.584
10659SOL    HW132876   6.969   6.339   0.515
10659SOL    HW232877   6.926   6.206   0.600
10660SOL     OW32878   5.526   3.721   0.027
10660SOL    HW132879   5.583   3.679   6.981
10660SOL    HW232880   5.436   3.742   7.016
10661SOL     OW32881   7.004   6.489   2.804
10661SOL    HW132882   6.999   6.586   2.825
10661SOL    HW232883   6.968   6.436   2.880
10662SOL     OW32884   5.422   0.649   2.336
10662SOL    HW132885   5.434   0.551   2.349
10662SOL    HW232886   5.478   0.681   2.260
10663SOL     OW32887   0.471   0.260   1.872
10663SOL    HW132888   0.545   0.252   1.939
10663SOL    HW232889   0.492   0.334   1.808
10664SOL     OW32890   1.367   5.076   4.734
10664SOL    HW132891   1.304   5.130   4.789
10664SOL    HW232892   1.317   4.999   4.693
10665SOL     OW32893   0.165   1.040   0.730
10665SOL    HW132894   0.123   1.110   0.672
10665SOL    HW232895   0.161   0.951   0.684
10666SOL     OW32896   3.230   4.118   0.235
10666SOL    HW132897   3.215   4.139   0.138
10666SOL    HW232898   3.309   4.057   0.244
10667SOL     OW32899   4.099   3.138   5.309
10667SOL    HW132900   4.129   3.046   5.334
10667SOL    HW232901   4.058   3.136   5.218
10668SOL     OW32902   1.742   1.855   5.433
10668SOL    HW132903   1.812   1.913   5.392
10668SOL    HW232904   1.653   1.901   5.429
10669SOL     OW32905   6.148   6.750   1.095
10669SOL    HW132906   6.095   6.791   1.170
10669SOL    HW232907   6.180   6.822   1.033
10670SOL     OW32908   4.783   4.067   4.898
10670SOL    HW132909   4.786   4.165   4.876
10670SOL    HW232910   4.713   4.022   4.843
10671SOL     OW32911   2.694   1.892   2.687
10671SOL    HW132912   2.656   1.985   2.683
10671SOL    HW232913   2.625   1.826   2.658
10672SOL     OW32914   6.754   2.360   0.718
10672SOL    HW132915   6.804   2.442   0.691
10672SOL    HW232916   6.655   2.378   0.714
10673SOL     OW32917   1.219   1.245   0.216
10673SOL    HW132918   1.267   1.259   0.130
10673SOL    HW232919   1.282   1.261   0.292
10674SOL     OW32920   3.016   4.692   1.173
10674SOL    HW132921   3.080   4.616   1.158
10674SOL    HW232922   3.001   4.739   1.087
10675SOL     OW32923   1.678   0.090   5.934
10675SOL    HW132924   1.665   7.022   5.965
10675SOL    HW232925   1.699   0.090   5.836
10676SOL     OW32926   6.569   6.260   6.237
10676SOL    HW132927   6.537   6.270   6.143
10676SOL    HW232928   6.663   6.224   6.236
10677SOL     OW32929   0.937   0.547   1.868
10677SOL    HW132930   0.916   0.461   1.914
10677SOL    HW232931   0.986   0.607   1.932
10678SOL     OW32932   3.409   5.549   1.886
10678SOL    HW132933   3.379   5.461   1.849
10678SOL    HW232934   3.362   5.567   1.972
10679SOL     OW32935   5.366   4.541   5.905
10679SOL    HW132936   5.412   4.466   5.952
10679SOL    HW232937   5.423   4.572   5.829
10680SOL     OW32938   2.628   1.597   3.748
10680SOL    HW132939   2.616   1.673   3.684
10680SOL    HW232940   2.720   1.601   3.787
10681SOL     OW32941   0.049   4.126   0.017
10681SOL    HW132942   0.037   4.134   6.944
10681SOL    HW232943   0.056   4.217   0.058
10682SOL     OW32944   2.013   2.123   3.325
10682SOL    HW132945   2.082   2.161   3.263
10682SOL    HW232946   2.053   2.050   3.380
10683SOL     OW32947   3.506   2.024   3.699
10683SOL    HW132948   3.560   2.058   3.622
10683SOL    HW232949   3.568   1.993   3.771
10684SOL     OW32950   4.848   3.721   0.944
10684SOL    HW132951   4.759   3.741   0.985
10684SOL    HW232952   4.837   3.704   0.846
10685SOL     OW32953   6.401   4.232   2.272
10685SOL    HW132954   6.471   4.239   2.343
10685SOL    HW232955   6.322   4.287   2.298
10686SOL     OW32956   3.000   5.021   6.733
10686SOL    HW132957   3.022   4.931   6.769
10686SOL    HW232958   3.013   5.023   6.634
10687SOL     OW32959   0.020   5.079   2.083
10687SOL    HW132960   0.007   5.003   2.018
10687SOL    HW232961   0.081   5.147   2.043
10688SOL     OW32962   0.006   4.758   2.972
10688SOL    HW132963   6.942   4.731   3.005
10688SOL    HW232964   7.023   4.835   2.909
10689SOL     OW32965   0.352   0.199   4.021
10689SOL    HW132966   0.331   0.250   4.105
10689SOL    HW232967   0.445   0.163   4.026
10690SOL     OW32968   6.418   5.378   3.696
10690SOL    HW132969   6.334   5.328   3.672
10690SOL    HW232970   6.401   5.435   3.776
10691SOL     OW32971   0.023   1.224   2.571
10691SOL    HW132972   0.119   1.215   2.544
10691SOL    HW232973   0.001   1.320   2.586
10692SOL     OW32974   3.620   4.962   2.923
10692SOL    HW132975   3.607   5.046   2.870
10692SOL    HW232976   3.616   4.883   2.862
10693SOL     OW32977   1.841   0.201   1.539
10693SOL    HW132978   1.805   0.242   1.455
10693SOL    HW232979   1.894   0.269   1.589
10694SOL     OW32980   4.052   6.211   1.657
10694SOL    HW132981   4.042   6.112   1.641
10694SOL    HW232982   4.116   6.226   1.732
10695SOL     OW32983   5.774   2.126   2.420
10695SOL    HW132984   5.772   2.140   2.519
10695SOL    HW232985   5.784   2.214   2.374
10696SOL     OW32986   6.782   4.364   2.691
10696SOL    HW132987   6.758   4.448   2.739
10696SOL    HW232988   6.880   4.363   2.673
10697SOL     OW32989   0.042   6.361   4.745
10697SOL    HW132990   0.002   6.276   4.781
10697SOL    HW232991   7.010   6.438   4.771
10698SOL     OW32992   3.947   6.392   3.821
10698SOL    HW132993   3.997   6.307   3.839
10698SOL    HW232994   3.894   6.382   3.737
10699SOL     OW32995   4.668   1.995   2.431
10699SOL    HW132996   4.655   1.996   2.331
10699SOL    HW232997   4.701   1.905   2.459
10700SOL     OW32998   1.040   7.008   0.422
10700SOL    HW132999   1.027   0.063   0.364
10700SOL    HW233000   1.101   0.005   0.498
10701SOL     OW33001   3.784   6.119   0.093
10701SOL    HW133002   3.833   6.056   0.153
10701SOL    HW233003   3.837   6.203   0.082
10702SOL     OW33004   6.997   2.605   3.165
10702SOL    HW133005   6.970   2.511   3.142
10702SOL    HW233006   0.071   2.608   3.176
10703SOL     OW33007   3.921   3.336   4.022
10703SOL    HW133008   3.860   3.411   4.046
10703SOL    HW233009   3.953   3.291   4.105
10704SOL     OW33010   5.689   5.805   1.579
10704SOL    HW133011   5.706   5.798   1.677
10704SOL    HW233012   5.682   5.901   1.553
10705SOL     OW33013   6.911   4.136   1.466
10705SOL    HW133014   6.958   4.139   1.378
10705SOL    HW233015   6.835   4.201   1.466
10706SOL     OW33016   4.865   6.470   1.883
10706SOL    HW133017   4.931   6.395   1.883
10706SOL    HW233018   4.795   6.453   1.952
10707SOL     OW33019   0.411   0.275   5.007
10707SOL    HW133020   0.416   0.206   5.078
10707SOL    HW233021   0.406   0.230   4.917
10708SOL     OW33022   4.673   1.021   2.403
10708SOL    HW133023   4.574   1.033   2.408
10708SOL    HW233024   4.715   1.058   2.487
10709SOL     OW33025   6.664   1.314   5.099
10709SOL    HW133026   6.702   1.398   5.061
10709SOL    HW233027   6.707   1.235   5.055
10710SOL     OW33028   0.934   6.540   4.698
10710SOL    HW133029   1.026   6.502   4.708
10710SOL    HW233030   0.912   6.547   4.600
10711SOL     OW33031   2.119   6.860   3.687
10711SOL    HW133032   2.057   6.891   3.759
10711SOL    HW233033   2.114   6.923   3.609
10712SOL     OW33034   3.667   0.408   2.474
10712SOL    HW133035   3.725   0.404   2.555
10712SOL    HW233036   3.685   0.492   2.424
10713SOL     OW33037   1.755   4.396   2.356
10713SOL    HW133038   1.689   4.341   2.305
10713SOL    HW233039   1.825   4.336   2.395
10714SOL     OW33040   6.525   2.452   5.110
10714SOL    HW133041   6.490   2.459   5.203
10714SOL    HW233042   6.474   2.513   5.050
10715SOL     OW33043   4.313   0.737   2.975
10715SOL    HW133044   4.276   0.650   2.942
10715SOL    HW233045   4.404   0.722   3.014
10716SOL     OW33046   0.270   2.886   3.504
10716SOL    HW133047   0.355   2.916   3.461
10716SOL    HW233048   0.240   2.800   3.462
10717SOL     OW33049   0.801   2.208   0.734
10717SOL    HW133050   0.741   2.168   0.804
10717SOL    HW233051   0.807   2.307   0.748
10718SOL     OW33052   6.444   4.519   0.122
10718SOL    HW133053   6.419   4.552   0.031
10718SOL    HW233054   6.491   4.592   0.172
10719SOL     OW33055   4.419   5.747   1.366
10719SOL    HW133056   4.354   5.798   1.310
10719SOL    HW233057   4.470   5.811   1.424
10720SOL     OW33058   0.338   4.153   6.135
10720SOL    HW133059   0.286   4.169   6.219
10720SOL    HW233060   0.418   4.096   6.156
10721SOL     OW33061   6.605   2.281   4.536
10721SOL    HW133062   6.666   2.360   4.544
10721SOL    HW233063   6.511   2.313   4.527
10722SOL     OW33064   6.849   3.511   0.652
10722SOL    HW133065   6.771   3.460   0.689
10722SOL    HW233066   6.815   3.583   0.591
10723SOL     OW33067   6.015   3.761   6.915
10723SOL    HW133068   5.966   3.839   6.877
10723SOL    HW233069   6.035   3.778   7.011
10724SOL     OW33070   3.493   0.245   6.173
10724SOL    HW133071   3.510   0.163   6.118
10724SOL    HW233072   3.565   0.254   6.242
10725SOL     OW33073   6.717   4.911   4.183
10725SOL    HW133074   6.785   4.846   4.215
10725SOL    HW233075   6.685   4.884   4.092
10726SOL     OW33076   5.718   6.682   5.266
10726SOL    HW133077   5.751   6.710   5.356
10726SOL    HW233078   5.618   6.677   5.269
10727SOL     OW33079   1.863   5.211   4.769
10727SOL    HW133080   1.839   5.300   4.729
10727SOL    HW233081   1.780   5.169   4.808
10728SOL     OW33082   6.031   6.651   2.186
10728SOL    HW133083   6.093   6.700   2.248
10728SOL    HW233084   6.085   6.590   2.127
10729SOL     OW33085   6.235   1.586   2.946
10729SOL    HW133086   6.245   1.685   2.949
10729SOL    HW233087   6.315   1.545   2.902
10730SOL     OW33088   2.650   6.388   1.264
10730SOL    HW133089   2.697   6.433   1.339
10730SOL    HW233090   2.690   6.298   1.248
10731SOL     OW33091   2.350   5.412   0.028
10731SOL    HW133092   2.274   5.447   6.999
10731SOL    HW233093   2.375   5.480   0.097
10732SOL     OW33094   6.196   0.493   2.658
10732SOL    HW133095   6.242   0.581   2.660
10732SOL    HW233096   6.150   0.477   2.745
10733SOL     OW33097   5.577   2.455   0.218
10733SOL    HW133098   5.558   2.485   0.124
10733SOL    HW233099   5.671   2.479   0.242
10734SOL     OW33100   1.344   0.873   6.850
10734SOL    HW133101   1.327   0.835   6.759
10734SOL    HW233102   1.270   0.848   6.912
10735SOL     OW33103   1.400   4.721   2.350
10735SOL    HW133104   1.373   4.711   2.254
10735SOL    HW233105   1.499   4.714   2.358
10736SOL     OW33106   0.773   0.955   3.045
10736SOL    HW133107   0.823   0.873   3.075
10736SOL    HW233108   0.824   1.037   3.072
10737SOL     OW33109   0.420   2.649   0.620
10737SOL    HW133110   0.326   2.618   0.607
10737SOL    HW233111   0.484   2.582   0.581
10738SOL     OW33112   2.448   0.085   2.510
10738SOL    HW133113   2.491   0.160   2.559
10738SOL    HW233114   2.403   0.024   2.575
10739SOL     OW33115   6.800   1.400   2.942
10739SOL    HW133116   6.770   1.495   2.935
10739SOL    HW233117   6.754   1.356   3.019
10740SOL     OW33118   1.289   5.550   5.783
10740SOL    HW133119   1.375   5.544   5.834
10740SOL    HW233120   1.304   5.520   5.689
10741SOL     OW33121   1.151   1.229   3.334
10741SOL    HW133122   1.231   1.218   3.275
10741SOL    HW233123   1.171   1.194   3.425
10742SOL     OW33124   5.872   6.895   2.172
10742SOL    HW133125   5.927   6.957   2.117
10742SOL    HW233126   5.928   6.817   2.201
10743SOL     OW33127   2.470   2.657   3.527
10743SOL    HW133128   2.451   2.713   3.446
10743SOL    HW233129   2.488   2.563   3.498
10744SOL     OW33130   3.076   1.778   2.499
10744SOL    HW133131   3.112   1.784   2.406
10744SOL    HW233132   3.143   1.735   2.559
10745SOL     OW33133   1.850   4.818   6.695
10745SOL    HW133134   1.887   4.839   6.786
10745SOL    HW233135   1.843   4.718   6.685
10746SOL     OW33136   1.679   5.597   1.472
10746SOL    HW133137   1.704   5.510   1.429
10746SOL    HW233138   1.681   5.670   1.404
10747SOL     OW33139   5.132   1.483   3.550
10747SOL    HW133140   5.193   1.544   3.499
10747SOL    HW233141   5.072   1.435   3.486
10748SOL     OW33142   6.109   5.884   1.037
10748SOL    HW133143   6.056   5.800   1.026
10748SOL    HW233144   6.206   5.860   1.050
10749SOL     OW33145   0.285   5.194   2.984
10749SOL    HW133146   0.284   5.105   3.030
10749SOL    HW233147   0.203   5.245   3.008
10750SOL     OW33148   4.561   4.471   4.681
10750SOL    HW133149   4.570   4.375   4.710
10750SOL    HW233150   4.638   4.523   4.717
10751SOL     OW33151   0.975   3.446   5.279
10751SOL    HW133152   0.978   3.436   5.379
10751SOL    HW233153   1.066   3.428   5.241
10752SOL     OW33154   6.110   3.819   6.303
10752SOL    HW133155   6.016   3.834   6.272
10752SOL    HW233156   6.109   3.778   6.394
10753SOL     OW33157   6.400   6.983   4.213
10753SOL    HW133158   6.479   6.933   4.248
10753SOL    HW233159   6.430   0.045   4.177
10754SOL     OW33160   2.020   2.279   2.787
10754SOL    HW133161   1.931   2.266   2.831
10754SOL    HW233162   2.015   2.247   2.693
10755SOL     OW33163   6.985   1.611   0.737
10755SOL    HW133164   6.994   1.514   0.759
10755SOL    HW233165   7.017   1.666   0.815
10756SOL     OW33166   6.308   3.353   1.043
10756SOL    HW133167   6.271   3.265   1.070
10756SOL    HW233168   6.250   3.426   1.081
10757SOL     OW33169   0.342   3.407   0.483
10757SOL    HW133170   0.337   3.319   0.437
10757SOL    HW233171   0.268   3.414   0.550
10758SOL     OW33172   0.468   5.908   5.307
10758SOL    HW133173   0.419   5.827   5.338
10758SOL    HW233174   0.548   5.880   5.254
10759SOL     OW33175   1.783   3.046   6.803
10759SOL    HW133176   1.870   2.999   6.821
10759SOL    HW233177   1.712   3.006   6.861
10760SOL     OW33178   0.134   6.736   0.751
10760SOL    HW133179   0.201   6.663   0.761
10760SOL    HW233180   0.042   6.698   0.765
10761SOL     OW33181   0.926   2.468   6.263
10761SOL    HW133182   0.957   2.430   6.350
10761SOL    HW233183   1.006   2.488   6.205
10762SOL     OW33184   4.718   0.763   4.851
10762SOL    HW133185   4.753   0.737   4.762
10762SOL    HW233186   4.763   0.709   4.922
10763SOL     OW33187   4.324   6.992   1.127
10763SOL    HW133188   4.298   6.947   1.212
10763SOL    HW233189   4.342   6.924   1.057
10764SOL     OW33190   5.198   1.555   6.479
10764SOL    HW133191   5.158   1.641   6.510
10764SOL    HW233192   5.140   1.514   6.409
10765SOL     OW33193   5.371   1.527   1.545
10765SOL    HW133194   5.333   1.588   1.475
10765SOL    HW233195   5.464   1.556   1.567
10766SOL     OW33196   2.816   3.748   0.455
10766SOL    HW133197   2.882   3.803   0.405
10766SOL    HW233198   2.864   3.681   0.512
10767SOL     OW33199   1.346   0.214   0.807
10767SOL    HW133200   1.305   0.288   0.861
10767SOL    HW233201   1.437   0.195   0.841
10768SOL     OW33202   5.267   5.750   0.385
10768SOL    HW133203   5.273   5.695   0.468
10768SOL    HW233204   5.310   5.701   0.309
10769SOL     OW33205   2.938   5.160   5.378
10769SOL    HW133206   2.983   5.130   5.293
10769SOL    HW233207   2.877   5.237   5.358
10770SOL     OW33208   5.502   0.379   5.096
10770SOL    HW133209   5.446   0.305   5.134
10770SOL    HW233210   5.540   0.434   5.170
10771SOL     OW33211   4.317   0.352   5.323
10771SOL    HW133212   4.361   0.280   5.377
10771SOL    HW233213   4.381   0.385   5.253
10772SOL     OW33214   6.810   0.435   3.452
10772SOL    HW133215   6.801   0.508   3.384
10772SOL    HW233216   6.785   0.348   3.411
10773SOL     OW33217   6.746   4.679   0.073
10773SOL    HW133218   6.779   4.762   0.028
10773SOL    HW233219   6.692   4.704   0.153
10774SOL     OW33220   1.013   2.447   0.993
10774SOL    HW133221   1.088   2.491   1.042
10774SOL    HW233222   0.926   2.473   1.036
10775SOL     OW33223   2.243   4.625   0.818
10775SOL    HW133224   2.335   4.588   0.809
10775SOL    HW233225   2.176   4.561   0.782
10776SOL     OW33226   0.429   6.486   1.279
10776SOL    HW133227   0.433   6.523   1.372
10776SOL    HW233228   0.338   6.504   1.240
10777SOL     OW33229   4.236   0.154   3.124
10777SOL    HW133230   4.282   0.125   3.040
10777SOL    HW233231   4.163   0.090   3.146
10778SOL     OW33232   6.390   6.734   4.527
10778SOL    HW133233   6.295   6.731   4.558
10778SOL    HW233234   6.393   6.716   4.429
10779SOL     OW33235   0.175   4.948   2.643
10779SOL    HW133236   0.166   4.978   2.548
10779SOL    HW233237   0.238   4.870   2.647
10780SOL     OW33238   0.504   6.204   3.204
10780SOL    HW133239   0.533   6.250   3.120
10780SOL    HW233240   0.583   6.168   3.252
10781SOL     OW33241   4.578   1.833   4.293
10781SOL    HW133242   4.542   1.784   4.373
10781SOL    HW233243   4.667   1.874   4.316
10782SOL     OW33244   6.750   2.564   3.493
10782SOL    HW133245   6.686   2.519   3.556
10782SOL    HW233246   6.796   2.640   3.540
10783SOL     OW33247   1.887   3.232   2.505
10783SOL    HW133248   1.791   3.246   2.530
10783SOL    HW233249   1.893   3.160   2.437
10784SOL     OW33250   2.534   6.996   0.897
10784SOL    HW133251   2.477   6.930   0.946
10784SOL    HW233252   2.629   6.966   0.897
10785SOL     OW33253   1.869   5.230   1.411
10785SOL    HW133254   1.956   5.186   1.390
10785SOL    HW233255   1.872   5.268   1.503
10786SOL     OW33256   5.343   3.230   1.719
10786SOL    HW133257   5.293   3.192   1.796
10786SOL    HW233258   5.330   3.172   1.638
10787SOL     OW33259   3.729   1.448   4.844
10787SOL    HW133260   3.760   1.532   4.800
10787SOL    HW233261   3.632   1.458   4.868
10788SOL     OW33262   2.080   4.419   0.141
10788SOL    HW133263   2.039   4.357   0.208
10788SOL    HW233264   2.154   4.471   0.184
10789SOL     OW33265   5.280   1.146   0.688
10789SOL    HW133266   5.365   1.195   0.668
10789SOL    HW233267   5.302   1.054   0.721
10790SOL     OW33268   0.668   0.773   5.567
10790SOL    HW133269   0.619   0.841   5.622
10790SOL    HW233270   0.619   0.759   5.481
10791SOL     OW33271   1.631   1.839   1.614
10791SOL    HW133272   1.599   1.793   1.696
10791SOL    HW233273   1.724   1.872   1.629
10792SOL     OW33274   3.156   3.172   1.533
10792SOL    HW133275   3.172   3.174   1.632
10792SOL    HW233276   3.200   3.092   1.494
10793SOL     OW33277   5.451   2.469   3.906
10793SOL    HW133278   5.360   2.434   3.884
10793SOL    HW233279   5.453   2.499   4.002
10794SOL     OW33280   3.559   4.163   2.080
10794SOL    HW133281   3.544   4.259   2.105
10794SOL    HW233282   3.482   4.130   2.026
10795SOL     OW33283   6.135   4.354   2.996
10795SOL    HW133284   6.071   4.372   3.070
10795SOL    HW233285   6.124   4.259   2.964
10796SOL     OW33286   3.519   7.016   6.401
10796SOL    HW133287   3.532   6.931   6.451
10796SOL    HW233288   3.507   6.995   6.303
10797SOL     OW33289   3.916   2.489   0.765
10797SOL    HW133290   3.896   2.587   0.760
10797SOL    HW233291   4.015   2.476   0.773
10798SOL     OW33292   1.766   0.183   0.615
10798SOL    HW133293   1.858   0.221   0.602
10798SOL    HW233294   1.759   0.097   0.564
10799SOL     OW33295   3.887   1.990   2.014
10799SOL    HW133296   3.842   1.907   2.046
10799SOL    HW233297   3.829   2.069   2.035
10800SOL     OW33298   1.888   6.027   0.347
10800SOL    HW133299   1.980   6.063   0.329
10800SOL    HW233300   1.882   6.000   0.443
10801SOL     OW33301   1.077   0.649   4.087
10801SOL    HW133302   1.139   0.723   4.109
10801SOL    HW233303   1.079   0.632   3.988
10802SOL     OW33304   2.306   2.844   4.804
10802SOL    HW133305   2.321   2.907   4.880
10802SOL    HW233306   2.242   2.886   4.739
10803SOL     OW33307   5.038   4.529   4.759
10803SOL    HW133308   5.002   4.454   4.703
10803SOL    HW233309   5.113   4.495   4.815
10804SOL     OW33310   0.081   4.510   1.131
10804SOL    HW133311   0.100   4.607   1.113
10804SOL    HW233312   0.156   4.471   1.183
10805SOL     OW33313   3.565   0.459   6.521
10805SOL    HW133314   3.554   0.555   6.498
10805SOL    HW233315   3.592   0.451   6.617
10806SOL     OW33316   5.666   3.975   0.195
10806SOL    HW133317   5.635   3.931   0.279
10806SOL    HW233318   5.655   3.912   0.118
10807SOL     OW33319   3.905   6.859   3.309
10807SOL    HW133320   3.982   6.796   3.323
10807SOL    HW233321   3.827   6.829   3.363
10808SOL     OW33322   6.757   3.917   0.330
10808SOL    HW133323   6.825   3.898   0.259
10808SOL    HW233324   6.714   3.831   0.358
10809SOL     OW33325   2.880   0.545   3.951
10809SOL    HW133326   2.956   0.518   4.011
10809SOL    HW233327   2.900   0.634   3.910
10810SOL     OW33328   1.504   1.431   5.956
10810SOL    HW133329   1.497   1.524   5.919
10810SOL    HW233330   1.558   1.431   6.040
10811SOL     OW33331   3.685   5.191   5.046
10811SOL    HW133332   3.704   5.134   4.965
10811SOL    HW233333   3.612   5.148   5.100
10812SOL     OW33334   0.495   3.620   1.986
10812SOL    HW133335   0.436   3.700   1.988
10812SOL    HW233336   0.495   3.580   1.894
10813SOL     OW33337   3.200   6.236   0.069
10813SOL    HW133338   3.162   6.319   0.109
10813SOL    HW233339   3.143   6.158   0.094
10814SOL     OW33340   1.038   0.619   5.372
10814SOL    HW133341   1.071   0.561   5.298
10814SOL    HW233342   1.042   0.715   5.344
10815SOL     OW33343   4.717   5.570   3.222
10815SOL    HW133344   4.715   5.515   3.305
10815SOL    HW233345   4.679   5.517   3.146
10816SOL     OW33346   1.920   1.556   2.336
10816SOL    HW133347   1.884   1.474   2.291
10816SOL    HW233348   2.020   1.551   2.337
10817SOL     OW33349   5.965   6.794   2.974
10817SOL    HW133350   5.940   6.699   2.955
10817SOL    HW233351   6.004   6.835   2.891
10818SOL     OW33352   5.693   2.472   5.561
10818SOL    HW133353   5.754   2.396   5.541
10818SOL    HW233354   5.720   2.516   5.646
10819SOL     OW33355   0.844   4.144   6.895
10819SOL    HW133356   0.779   4.219   6.885
10819SOL    HW233357   0.895   4.155   6.980
10820SOL     OW33358   6.801   6.926   4.128
10820SOL    HW133359   6.784   6.834   4.093
10820SOL    HW233360   6.893   6.955   4.100
10821SOL     OW33361   5.582   6.606   2.548
10821SOL    HW133362   5.565   6.543   2.472
10821SOL    HW233363   5.671   6.650   2.536
10822SOL     OW33364   1.569   2.459   2.710
10822SOL    HW133365   1.618   2.520   2.648
10822SOL    HW233366   1.565   2.500   2.801
10823SOL     OW33367   1.642   5.359   1.338
10823SOL    HW133368   1.592   5.279   1.371
10823SOL    HW233369   1.740   5.340   1.338
10824SOL     OW33370   4.925   6.633   3.595
10824SOL    HW133371   4.838   6.676   3.571
10824SOL    HW233372   4.962   6.587   3.514
10825SOL     OW33373   2.739   0.581   0.850
10825SOL    HW133374   2.651   0.598   0.893
10825SOL    HW233375   2.784   0.504   0.896
10826SOL     OW33376   6.831   3.449   3.081
10826SOL    HW133377   6.905   3.383   3.095
10826SOL    HW233378   6.744   3.407   3.107
10827SOL     OW33379   6.015   3.802   4.267
10827SOL    HW133380   5.937   3.786   4.206
10827SOL    HW233381   6.099   3.773   4.221
10828SOL     OW33382   1.366   5.659   2.255
10828SOL    HW133383   1.278   5.635   2.215
10828SOL    HW233384   1.371   5.758   2.268
10829SOL     OW33385   3.127   3.493   0.862
10829SOL    HW133386   3.094   3.400   0.880
10829SOL    HW233387   3.125   3.545   0.947
10830SOL     OW33388   5.005   2.095   3.315
10830SOL    HW133389   4.941   2.092   3.392
10830SOL    HW233390   5.098   2.108   3.350
10831SOL     OW33391   5.154   6.608   1.630
10831SOL    HW133392   5.228   6.545   1.611
10831SOL    HW233393   5.066   6.559   1.628
10832SOL     OW33394   0.004   2.772   1.008
10832SOL    HW133395   6.997   2.860   0.973
10832SOL    HW233396   0.040   2.717   0.932
10833SOL     OW33397   1.127   0.600   3.825
10833SOL    HW133398   1.143   0.684   3.773
10833SOL    HW233399   1.208   0.541   3.820
10834SOL     OW33400   1.237   1.754   5.899
10834SOL    HW133401   1.334   1.734   5.907
10834SOL    HW233402   1.224   1.847   5.866
10835SOL     OW33403   5.308   1.660   0.690
10835SOL    HW133404   5.323   1.758   0.689
10835SOL    HW233405   5.395   1.612   0.703
10836SOL     OW33406   0.509   1.348   5.755
10836SOL    HW133407   0.463   1.261   5.770
10836SOL    HW233408   0.486   1.382   5.664
10837SOL     OW33409   0.614   4.882   0.185
10837SOL    HW133410   0.601   4.915   0.091
10837SOL    HW233411   0.707   4.903   0.215
10838SOL     OW33412   5.863   6.785   4.252
10838SOL    HW133413   5.845   6.842   4.332
10838SOL    HW233414   5.871   6.844   4.171
10839SOL     OW33415   2.723   3.139   0.828
10839SOL    HW133416   2.681   3.075   0.763
10839SOL    HW233417   2.705   3.108   0.922
10840SOL     OW33418   3.718   6.073   1.515
10840SOL    HW133419   3.746   5.980   1.490
10840SOL    HW233420   3.619   6.083   1.503
10841SOL     OW33421   3.328   6.121   6.131
10841SOL    HW133422   3.333   6.091   6.035
10841SOL    HW233423   3.238   6.098   6.168
10842SOL     OW33424   6.303   4.020   1.263
10842SOL    HW133425   6.396   3.997   1.290
10842SOL    HW233426   6.303   4.057   1.170
10843SOL     OW33427   0.335   1.712   2.193
10843SOL    HW133428   0.328   1.799   2.240
10843SOL    HW233429   0.369   1.726   2.100
10844SOL     OW33430   0.614   6.684   4.276
10844SOL    HW133431   0.551   6.762   4.267
10844SOL    HW233432   0.590   6.631   4.357
10845SOL     OW33433   2.076   0.698   1.506
10845SOL    HW133434   1.985   0.735   1.487
10845SOL    HW233435   2.144   0.750   1.454
10846SOL     OW33436   4.466   2.824   0.835
10846SOL    HW133437   4.529   2.848   0.909
10846SOL    HW233438   4.380   2.791   0.874
10847SOL     OW33439   2.482   1.878   6.762
10847SOL    HW133440   2.559   1.821   6.737
10847SOL    HW233441   2.503   1.974   6.741
10848SOL     OW33442   2.984   2.485   6.387
10848SOL    HW133443   2.952   2.486   6.292
10848SOL    HW233444   2.928   2.421   6.440
10849SOL     OW33445   3.703   4.879   3.745
10849SOL    HW133446   3.605   4.900   3.748
10849SOL    HW233447   3.728   4.850   3.652
10850SOL     OW33448   4.233   6.707   6.578
10850SOL    HW133449   4.180   6.772   6.632
10850SOL    HW233450   4.329   6.710   6.606
10851SOL     OW33451   2.905   2.517   6.726
10851SOL    HW133452   2.988   2.461   6.728
10851SOL    HW233453   2.844   2.482   6.654
10852SOL     OW33454   0.731   6.979   6.191
10852SOL    HW133455   0.637   6.952   6.173
10852SOL    HW233456   0.733   0.021   6.264
10853SOL     OW33457   3.640   1.841   4.892
10853SOL    HW133458   3.664   1.937   4.876
10853SOL    HW233459   3.712   1.797   4.946
10854SOL     OW33460   6.468   0.007   6.396
10854SOL    HW133461   6.395   6.966   6.385
10854SOL    HW233462   6.436   0.096   6.363
10855SOL     OW33463   2.998   6.307   2.520
10855SOL    HW133464   2.906   6.289   2.554
10855SOL    HW233465   3.051   6.356   2.589
10856SOL     OW33466   6.096   0.994   1.356
10856SOL    HW133467   6.164   1.045   1.409
10856SOL    HW233468   6.127   0.987   1.261
10857SOL     OW33469   5.382   2.854   3.462
10857SOL    HW133470   5.372   2.786   3.534
10857SOL    HW233471   5.292   2.890   3.437
10858SOL     OW33472   1.498   2.864   6.763
10858SOL    HW133473   1.542   2.829   6.680
10858SOL    HW233474   1.452   2.950   6.742
10859SOL     OW33475   1.933   4.231   3.874
10859SOL    HW133476   1.914   4.138   3.842
10859SOL    HW233477   1.863   4.259   3.940
10860SOL     OW33478   6.989   1.430   6.047
10860SOL    HW133479   6.914   1.496   6.043
10860SOL    HW233480   0.036   1.460   5.985
10861SOL     OW33481   3.601   2.839   1.915
10861SOL    HW133482   3.590   2.823   2.013
10861SOL    HW233483   3.642   2.758   1.872
10862SOL     OW33484   2.668   1.545   6.747
10862SOL    HW133485   2.705   1.498   6.827
10862SOL    HW233486   2.695   1.496   6.664
10863SOL     OW33487   3.604   1.111   2.773
10863SOL    HW133488   3.614   1.189   2.712
10863SOL    HW233489   3.546   1.136   2.851
10864SOL     OW33490   2.602   4.357   1.436
10864SOL    HW133491   2.525   4.297   1.455
10864SOL    HW233492   2.568   4.449   1.416
10865SOL     OW33493   5.940   2.331   3.511
10865SOL    HW133494   6.012   2.400   3.502
10865SOL    HW233495   5.917   2.320   3.608
10866SOL     OW33496   5.739   3.271   1.147
10866SOL    HW133497   5.661   3.279   1.209
10866SOL    HW233498   5.707   3.263   1.053
10867SOL     OW33499   2.565   3.364   0.223
10867SOL    HW133500   2.576   3.429   0.298
10867SOL    HW233501   2.568   3.271   0.258
10868SOL     OW33502   1.331   1.967   2.945
10868SOL    HW133503   1.287   1.963   2.855
10868SOL    HW233504   1.388   2.049   2.951
10869NA      NA33505   0.552   2.438   6.118
10870NA      NA33506   4.308   4.769   5.133
10871NA      NA33507   2.456   4.718   2.188
10872NA      NA33508   5.226   4.960   3.510
10873NA      NA33509   4.142   2.251   5.181
10874NA      NA33510   3.395   4.165   1.525
10875NA      NA33511   1.180   4.461   0.356
10876NA      NA33512   4.101   4.222   1.587
10877NA      NA33513   4.668   4.540   0.868
10878NA      NA33514   3.283   0.813   5.310
10879NA      NA33515   5.592   5.619   1.455
10880NA      NA33516   1.042   0.671   5.822
10881NA      NA33517   4.869   4.862   1.951
10882NA      NA33518   3.693   2.981   0.989
   7.02605   7.02605   7.02605
