Generated by trjconv : CNT in water t=  97.00000
33518
    1C        C    1   2.848   2.775   4.748
    1C        C    2   2.897   2.719   4.868
    1C        C    3   2.841   2.771   4.985
    1C        C    4   2.844   2.772   4.262
    1C        C    5   2.894   2.723   4.385
    1C        C    6   2.843   2.771   4.507
    1C        C    7   3.010   2.634   4.626
    1C        C    8   2.898   2.721   4.627
    1C        C    9   3.075   2.600   4.746
    1C        C   10   3.008   2.631   4.866
    1C        C   11   3.182   2.497   4.981
    1C        C   12   3.058   2.561   4.977
    1C        C   13   2.842   2.764   3.772
    1C        C   14   2.895   2.718   3.895
    1C        C   15   2.846   2.766   4.019
    1C        C   16   3.014   2.640   4.141
    1C        C   17   2.898   2.719   4.142
    1C        C   18   3.078   2.616   4.264
    1C        C   19   3.013   2.647   4.386
    1C        C   20   3.211   2.561   4.507
    1C        C   21   3.078   2.607   4.505
    1C        C   22   3.279   2.536   4.628
    1C        C   23   3.209   2.552   4.749
    1C        C   24   3.412   2.485   4.869
    1C        C   25   3.270   2.501   4.867
    1C        C   26   3.488   2.475   4.986
    1C        C   27   2.852   2.770   3.283
    1C        C   28   2.907   2.726   3.406
    1C        C   29   2.846   2.762   3.528
    1C        C   30   3.019   2.642   3.650
    1C        C   31   2.900   2.718   3.651
    1C        C   32   3.077   2.605   3.774
    1C        C   33   3.013   2.641   3.894
    1C        C   34   3.207   2.559   4.018
    1C        C   35   3.075   2.607   4.017
    1C        C   36   3.274   2.540   4.141
    1C        C   37   3.209   2.563   4.264
    1C        C   38   3.417   2.511   4.384
    1C        C   39   3.279   2.539   4.385
    1C        C   40   3.490   2.501   4.505
    1C        C   41   3.418   2.509   4.627
    1C        C   42   3.629   2.487   4.745
    1C        C   43   3.487   2.488   4.748
    1C        C   44   3.704   2.492   4.865
    1C        C   45   3.627   2.486   4.982
    1C        C   46   2.838   2.754   2.796
    1C        C   47   2.894   2.710   2.918
    1C        C   48   2.840   2.759   3.039
    1C        C   49   3.016   2.638   3.161
    1C        C   50   2.899   2.718   3.160
    1C        C   51   3.077   2.603   3.283
    1C        C   52   3.017   2.637   3.407
    1C        C   53   3.210   2.547   3.531
    1C        C   54   3.080   2.604   3.528
    1C        C   55   3.278   2.527   3.653
    1C        C   56   3.208   2.553   3.774
    1C        C   57   3.415   2.513   3.898
    1C        C   58   3.277   2.539   3.897
    1C        C   59   3.485   2.508   4.021
    1C        C   60   3.414   2.518   4.142
    1C        C   61   3.629   2.509   4.259
    1C        C   62   3.488   2.506   4.262
    1C        C   63   3.702   2.513   4.380
    1C        C   64   3.631   2.502   4.502
    1C        C   65   3.835   2.548   4.623
    1C        C   66   3.701   2.503   4.624
    1C        C   67   3.905   2.568   4.744
    1C        C   68   3.839   2.533   4.864
    1C        C   69   4.051   2.588   4.977
    1C        C   70   3.924   2.528   4.975
    1C        C   71   2.821   2.727   2.309
    1C        C   72   2.881   2.692   2.433
    1C        C   73   2.834   2.749   2.553
    1C        C   74   3.007   2.624   2.673
    1C        C   75   2.890   2.704   2.675
    1C        C   76   3.072   2.596   2.795
    1C        C   77   3.010   2.630   2.918
    1C        C   78   3.206   2.545   3.037
    1C        C   79   3.075   2.599   3.039
    1C        C   80   3.271   2.531   3.162
    1C        C   81   3.208   2.550   3.287
    1C        C   82   3.417   2.512   3.403
    1C        C   83   3.277   2.527   3.408
    1C        C   84   3.485   2.506   3.526
    1C        C   85   3.418   2.509   3.650
    1C        C   86   3.626   2.510   3.771
    1C        C   87   3.485   2.509   3.775
    1C        C   88   3.695   2.517   3.894
    1C        C   89   3.626   2.510   4.017
    1C        C   90   3.837   2.552   4.136
    1C        C   91   3.700   2.518   4.137
    1C        C   92   3.905   2.573   4.258
    1C        C   93   3.839   2.545   4.380
    1C        C   94   4.030   2.635   4.498
    1C        C   95   3.906   2.567   4.502
    1C        C   96   4.091   2.674   4.619
    1C        C   97   4.033   2.629   4.739
    1C        C   98   4.189   2.769   4.862
    1C        C   99   4.101   2.656   4.862
    1C        C  100   4.210   2.847   4.976
    1C        C  101   2.813   2.721   2.070
    1C        C  102   2.988   2.590   2.192
    1C        C  103   2.872   2.675   2.188
    1C        C  104   3.061   2.573   2.313
    1C        C  105   3.001   2.618   2.432
    1C        C  106   3.200   2.533   2.550
    1C        C  107   3.071   2.589   2.552
    1C        C  108   3.270   2.519   2.672
    1C        C  109   3.202   2.541   2.794
    1C        C  110   3.412   2.499   2.915
    1C        C  111   3.273   2.523   2.915
    1C        C  112   3.483   2.500   3.037
    1C        C  113   3.410   2.508   3.159
    1C        C  114   3.625   2.498   3.282
    1C        C  115   3.484   2.498   3.279
    1C        C  116   3.696   2.511   3.403
    1C        C  117   3.627   2.504   3.525
    1C        C  118   3.833   2.550   3.646
    1C        C  119   3.696   2.515   3.648
    1C        C  120   3.897   2.577   3.770
    1C        C  121   3.831   2.553   3.892
    1C        C  122   4.026   2.643   4.009
    1C        C  123   3.902   2.576   4.013
    1C        C  124   4.089   2.675   4.132
    1C        C  125   4.032   2.635   4.255
    1C        C  126   4.201   2.764   4.378
    1C        C  127   4.092   2.674   4.377
    1C        C  128   4.253   2.816   4.499
    1C        C  129   4.197   2.768   4.619
    1C        C  130   4.330   2.934   4.740
    1C        C  131   4.245   2.819   4.741
    1C        C  132   4.353   3.005   4.860
    1C        C  133   4.282   2.966   4.974
    1C        C  134   3.171   2.468   2.084
    1C        C  135   3.037   2.509   2.085
    1C        C  136   3.260   2.478   2.192
    1C        C  137   3.193   2.519   2.309
    1C        C  138   3.407   2.487   2.430
    1C        C  139   3.266   2.502   2.429
    1C        C  140   3.482   2.488   2.550
    1C        C  141   3.409   2.498   2.671
    1C        C  142   3.623   2.494   2.793
    1C        C  143   3.482   2.490   2.792
    1C        C  144   3.693   2.508   2.915
    1C        C  145   3.624   2.501   3.039
    1C        C  146   3.832   2.541   3.156
    1C        C  147   3.696   2.503   3.160
    1C        C  148   3.901   2.562   3.278
    1C        C  149   3.834   2.544   3.401
    1C        C  150   4.029   2.626   3.523
    1C        C  151   3.901   2.567   3.524
    1C        C  152   4.090   2.666   3.644
    1C        C  153   4.022   2.642   3.766
    1C        C  154   4.199   2.764   3.889
    1C        C  155   4.083   2.684   3.887
    1C        C  156   4.250   2.812   4.012
    1C        C  157   4.200   2.762   4.134
    1C        C  158   4.341   2.921   4.254
    1C        C  159   4.254   2.809   4.256
    1C        C  160   4.379   2.983   4.375
    1C        C  161   4.335   2.931   4.498
    1C        C  162   4.445   3.114   4.616
    1C        C  163   4.369   2.995   4.619
    1C        C  164   4.465   3.186   4.736
    1C        C  165   4.427   3.125   4.858
    1C        C  166   4.527   3.315   4.971
    1C        C  167   4.482   3.184   4.973
    1C        C  168   3.476   2.436   2.077
    1C        C  169   3.399   2.457   2.192
    1C        C  170   3.619   2.475   2.304
    1C        C  171   3.477   2.470   2.309
    1C        C  172   3.692   2.490   2.425
    1C        C  173   3.623   2.490   2.548
    1C        C  174   3.828   2.539   2.671
    1C        C  175   3.693   2.501   2.671
    1C        C  176   3.897   2.564   2.792
    1C        C  177   3.830   2.539   2.914
    1C        C  178   4.027   2.627   3.033
    1C        C  179   3.900   2.566   3.034
    1C        C  180   4.083   2.665   3.157
    1C        C  181   4.028   2.623   3.280
    1C        C  182   4.203   2.747   3.399
    1C        C  183   4.089   2.663   3.401
    1C        C  184   4.251   2.803   3.519
    1C        C  185   4.201   2.753   3.642
    1C        C  186   4.342   2.913   3.765
    1C        C  187   4.252   2.804   3.764
    1C        C  188   4.382   2.975   3.886
    1C        C  189   4.340   2.920   4.009
    1C        C  190   4.446   3.103   4.127
    1C        C  191   4.383   2.976   4.131
    1C        C  192   4.474   3.170   4.249
    1C        C  193   4.441   3.110   4.372
    1C        C  194   4.509   3.314   4.490
    1C        C  195   4.470   3.178   4.493
    1C        C  196   4.525   3.386   4.611
    1C        C  197   4.508   3.321   4.735
    1C        C  198   4.557   3.534   4.849
    1C        C  199   4.540   3.391   4.854
    1C        C  200   4.586   3.618   4.961
    1C        C  201   3.615   2.420   2.076
    1C        C  202   3.831   2.513   2.184
    1C        C  203   3.696   2.466   2.185
    1C        C  204   3.902   2.541   2.304
    1C        C  205   3.830   2.520   2.423
    1C        C  206   4.019   2.617   2.542
    1C        C  207   3.891   2.556   2.546
    1C        C  208   4.082   2.655   2.662
    1C        C  209   4.025   2.624   2.788
    1C        C  210   4.197   2.750   2.906
    1C        C  211   4.085   2.664   2.909
    1C        C  212   4.245   2.798   3.030
    1C        C  213   4.194   2.752   3.153
    1C        C  214   4.335   2.909   3.271
    1C        C  215   4.251   2.795   3.275
    1C        C  216   4.375   2.967   3.394
    1C        C  217   4.337   2.915   3.520
    1C        C  218   4.438   3.100   3.639
    1C        C  219   4.379   2.971   3.642
    1C        C  220   4.467   3.167   3.760
    1C        C  221   4.444   3.102   3.883
    1C        C  222   4.501   3.307   4.007
    1C        C  223   4.467   3.170   4.005
    1C        C  224   4.518   3.380   4.127
    1C        C  225   4.508   3.307   4.247
    1C        C  226   4.520   3.523   4.366
    1C        C  227   4.517   3.382   4.366
    1C        C  228   4.524   3.598   4.486
    1C        C  229   4.528   3.527   4.608
    1C        C  230   4.505   3.741   4.725
    1C        C  231   4.540   3.604   4.727
    1C        C  232   4.499   3.818   4.844
    1C        C  233   4.547   3.752   4.958
    1C        C  234   4.019   2.608   2.063
    1C        C  235   3.895   2.546   2.064
    1C        C  236   4.090   2.645   2.178
    1C        C  237   4.025   2.612   2.299
    1C        C  238   4.198   2.737   2.423
    1C        C  239   4.085   2.651   2.422
    1C        C  240   4.251   2.786   2.544
    1C        C  241   4.196   2.738   2.665
    1C        C  242   4.342   2.902   2.782
    1C        C  243   4.252   2.793   2.783
    1C        C  244   4.377   2.964   2.904
    1C        C  245   4.336   2.906   3.026
    1C        C  246   4.433   3.094   3.151
    1C        C  247   4.379   2.963   3.148
    1C        C  248   4.452   3.160   3.274
    1C        C  249   4.431   3.096   3.398
    1C        C  250   4.494   3.304   3.515
    1C        C  251   4.460   3.167   3.517
    1C        C  252   4.511   3.372   3.637
    1C        C  253   4.502   3.304   3.761
    1C        C  254   4.517   3.515   3.881
    1C        C  255   4.512   3.374   3.883
    1C        C  256   4.512   3.591   4.001
    1C        C  257   4.515   3.521   4.124
    1C        C  258   4.494   3.734   4.241
    1C        C  259   4.513   3.594   4.245
    1C        C  260   4.470   3.802   4.363
    1C        C  261   4.493   3.736   4.485
    1C        C  262   4.427   3.941   4.604
    1C        C  263   4.471   3.807   4.605
    1C        C  264   4.398   4.009   4.725
    1C        C  265   4.431   3.941   4.845
    1C        C  266   4.324   4.130   4.963
    1C        C  267   4.400   4.013   4.961
    1C        C  268   4.268   2.774   2.064
    1C        C  269   4.205   2.727   2.180
    1C        C  270   4.347   2.888   2.298
    1C        C  271   4.255   2.780   2.301
    1C        C  272   4.383   2.954   2.418
    1C        C  273   4.342   2.894   2.539
    1C        C  274   4.446   3.083   2.661
    1C        C  275   4.386   2.955   2.658
    1C        C  276   4.468   3.153   2.782
    1C        C  277   4.443   3.089   2.905
    1C        C  278   4.499   3.292   3.026
    1C        C  279   4.468   3.154   3.028
    1C        C  280   4.506   3.366   3.147
    1C        C  281   4.494   3.295   3.268
    1C        C  282   4.511   3.509   3.390
    1C        C  283   4.502   3.368   3.389
    1C        C  284   4.515   3.580   3.512
    1C        C  285   4.516   3.513   3.636
    1C        C  286   4.491   3.725   3.754
    1C        C  287   4.514   3.585   3.758
    1C        C  288   4.471   3.795   3.875
    1C        C  289   4.493   3.731   3.999
    1C        C  290   4.430   3.936   4.116
    1C        C  291   4.478   3.803   4.119
    1C        C  292   4.399   3.999   4.239
    1C        C  293   4.426   3.936   4.363
    1C        C  294   4.333   4.132   4.479
    1C        C  295   4.397   4.006   4.482
    1C        C  296   4.287   4.189   4.600
    1C        C  297   4.326   4.131   4.723
    1C        C  298   4.201   4.309   4.838
    1C        C  299   4.284   4.193   4.844
    1C        C  300   4.169   4.401   4.943
    1C        C  301   4.355   2.882   2.062
    1C        C  302   4.469   3.071   2.176
    1C        C  303   4.400   2.946   2.179
    1C        C  304   4.479   3.145   2.297
    1C        C  305   4.445   3.081   2.418
    1C        C  306   4.507   3.286   2.538
    1C        C  307   4.470   3.149   2.539
    1C        C  308   4.518   3.358   2.658
    1C        C  309   4.503   3.289   2.781
    1C        C  310   4.518   3.501   2.900
    1C        C  311   4.513   3.360   2.903
    1C        C  312   4.513   3.575   3.020
    1C        C  313   4.509   3.507   3.144
    1C        C  314   4.482   3.717   3.263
    1C        C  315   4.505   3.578   3.267
    1C        C  316   4.469   3.786   3.386
    1C        C  317   4.487   3.719   3.509
    1C        C  318   4.424   3.922   3.627
    1C        C  319   4.473   3.790   3.630
    1C        C  320   4.392   3.988   3.748
    1C        C  321   4.421   3.927   3.872
    1C        C  322   4.326   4.118   3.989
    1C        C  323   4.397   3.996   3.993
    1C        C  324   4.286   4.176   4.111
    1C        C  325   4.326   4.120   4.235
    1C        C  326   4.188   4.283   4.353
    1C        C  327   4.289   4.184   4.355
    1C        C  328   4.139   4.338   4.474
    1C        C  329   4.191   4.292   4.597
    1C        C  330   4.023   4.430   4.714
    1C        C  331   4.137   4.344   4.717
    1C        C  332   3.969   4.489   4.830
    1C        C  333   4.049   4.473   4.945
    1C        C  334   4.550   3.270   2.060
    1C        C  335   4.535   3.131   2.064
    1C        C  336   4.541   3.352   2.173
    1C        C  337   4.510   3.284   2.293
    1C        C  338   4.524   3.496   2.411
    1C        C  339   4.520   3.355   2.415
    1C        C  340   4.522   3.569   2.532
    1C        C  341   4.525   3.499   2.655
    1C        C  342   4.487   3.708   2.774
    1C        C  343   4.513   3.570   2.777
    1C        C  344   4.476   3.783   2.894
    1C        C  345   4.491   3.714   3.017
    1C        C  346   4.420   3.914   3.138
    1C        C  347   4.469   3.782   3.139
    1C        C  348   4.392   3.981   3.260
    1C        C  349   4.425   3.920   3.383
    1C        C  350   4.325   4.109   3.501
    1C        C  351   4.397   3.987   3.504
    1C        C  352   4.280   4.167   3.622
    1C        C  353   4.321   4.110   3.745
    1C        C  354   4.182   4.272   3.864
    1C        C  355   4.280   4.170   3.866
    1C        C  356   4.127   4.316   3.987
    1C        C  357   4.181   4.270   4.109
    1C        C  358   4.012   4.399   4.230
    1C        C  359   4.127   4.318   4.231
    1C        C  360   3.955   4.446   4.351
    1C        C  361   4.021   4.416   4.473
    1C        C  362   3.829   4.515   4.594
    1C        C  363   3.957   4.456   4.592
    1C        C  364   3.762   4.545   4.714
    1C        C  365   3.838   4.539   4.834
    1C        C  366   3.627   4.589   4.952
    1C        C  367   3.765   4.572   4.949
    1C        C  368   4.520   3.567   2.054
    1C        C  369   4.536   3.493   2.171
    1C        C  370   4.502   3.708   2.289
    1C        C  371   4.522   3.569   2.290
    1C        C  372   4.486   3.776   2.412
    1C        C  373   4.503   3.709   2.534
    1C        C  374   4.424   3.912   2.651
    1C        C  375   4.472   3.779   2.653
    1C        C  376   4.399   3.978   2.773
    1C        C  377   4.437   3.919   2.896
    1C        C  378   4.317   4.097   3.010
    1C        C  379   4.397   3.981   3.016
    1C        C  380   4.274   4.153   3.133
    1C        C  381   4.314   4.099   3.257
    1C        C  382   4.179   4.261   3.376
    1C        C  383   4.280   4.162   3.379
    1C        C  384   4.123   4.305   3.499
    1C        C  385   4.181   4.267   3.622
    1C        C  386   4.007   4.392   3.743
    1C        C  387   4.128   4.319   3.742
    1C        C  388   3.944   4.427   3.864
    1C        C  389   4.008   4.392   3.985
    1C        C  390   3.818   4.484   4.109
    1C        C  391   3.948   4.430   4.108
    1C        C  392   3.752   4.513   4.231
    1C        C  393   3.825   4.499   4.352
    1C        C  394   3.618   4.552   4.473
    1C        C  395   3.757   4.528   4.473
    1C        C  396   3.547   4.567   4.594
    1C        C  397   3.622   4.563   4.714
    1C        C  398   3.411   4.551   4.838
    1C        C  399   3.551   4.572   4.835
    1C        C  400   3.339   4.519   4.954
    1C        C  401   4.502   3.705   2.051
    1C        C  402   4.454   3.917   2.168
    1C        C  403   4.491   3.781   2.168
    1C        C  404   4.410   3.978   2.288
    1C        C  405   4.437   3.909   2.408
    1C        C  406   4.327   4.095   2.526
    1C        C  407   4.404   3.977   2.527
    1C        C  408   4.280   4.153   2.646
    1C        C  409   4.320   4.095   2.768
    1C        C  410   4.175   4.255   2.887
    1C        C  411   4.272   4.152   2.888
    1C        C  412   4.120   4.297   3.011
    1C        C  413   4.172   4.251   3.134
    1C        C  414   4.004   4.381   3.253
    1C        C  415   4.123   4.305   3.254
    1C        C  416   3.942   4.415   3.376
    1C        C  417   4.005   4.383   3.498
    1C        C  418   3.816   4.480   3.619
    1C        C  419   3.947   4.426   3.619
    1C        C  420   3.749   4.505   3.740
    1C        C  421   3.815   4.486   3.863
    1C        C  422   3.611   4.529   3.989
    1C        C  423   3.750   4.505   3.987
    1C        C  424   3.539   4.537   4.110
    1C        C  425   3.613   4.539   4.231
    1C        C  426   3.404   4.550   4.357
    1C        C  427   3.545   4.557   4.353
    1C        C  428   3.335   4.544   4.480
    1C        C  429   3.406   4.560   4.601
    1C        C  430   3.193   4.518   4.723
    1C        C  431   3.333   4.545   4.721
    1C        C  432   3.125   4.494   4.845
    1C        C  433   3.203   4.489   4.961
    1C        C  434   4.386   4.123   2.053
    1C        C  435   4.452   3.999   2.055
    1C        C  436   4.304   4.165   2.162
    1C        C  437   4.335   4.099   2.284
    1C        C  438   4.179   4.248   2.403
    1C        C  439   4.283   4.152   2.404
    1C        C  440   4.124   4.295   2.524
    1C        C  441   4.180   4.253   2.647
    1C        C  442   4.006   4.383   2.763
    1C        C  443   4.124   4.306   2.766
    1C        C  444   3.944   4.412   2.887
    1C        C  445   4.004   4.377   3.010
    1C        C  446   3.811   4.470   3.132
    1C        C  447   3.940   4.411   3.131
    1C        C  448   3.746   4.497   3.254
    1C        C  449   3.815   4.477   3.376
    1C        C  450   3.609   4.530   3.498
    1C        C  451   3.747   4.503   3.497
    1C        C  452   3.540   4.538   3.621
    1C        C  453   3.610   4.530   3.743
    1C        C  454   3.400   4.540   3.865
    1C        C  455   3.541   4.539   3.867
    1C        C  456   3.329   4.532   3.987
    1C        C  457   3.398   4.534   4.110
    1C        C  458   3.195   4.501   4.239
    1C        C  459   3.332   4.537   4.235
    1C        C  460   3.127   4.486   4.361
    1C        C  461   3.197   4.510   4.481
    1C        C  462   2.998   4.434   4.602
    1C        C  463   3.125   4.494   4.601
    1C        C  464   2.934   4.399   4.723
    1C        C  465   2.990   4.445   4.846
    1C        C  466   2.799   4.341   4.958
    1C        C  467   2.905   4.433   4.960
    1C        C  468   4.125   4.286   2.041
    1C        C  469   4.192   4.254   2.160
    1C        C  470   4.006   4.369   2.278
    1C        C  471   4.129   4.296   2.280
    1C        C  472   3.941   4.404   2.398
    1C        C  473   4.004   4.370   2.520
    1C        C  474   3.813   4.467   2.643
    1C        C  475   3.940   4.405   2.640
    1C        C  476   3.746   4.494   2.765
    1C        C  477   3.814   4.467   2.886
    1C        C  478   3.608   4.516   3.009
    1C        C  479   3.746   4.490   3.008
    1C        C  480   3.536   4.528   3.131
    1C        C  481   3.607   4.522   3.253
    1C        C  482   3.396   4.531   3.377
    1C        C  483   3.538   4.530   3.375
    1C        C  484   3.329   4.528   3.501
    1C        C  485   3.399   4.543   3.623
    1C        C  486   3.189   4.506   3.744
    1C        C  487   3.327   4.536   3.744
    1C        C  488   3.126   4.480   3.868
    1C        C  489   3.192   4.500   3.991
    1C        C  490   3.004   4.412   4.116
    1C        C  491   3.130   4.476   4.116
    1C        C  492   2.940   4.384   4.240
    1C        C  493   2.998   4.427   4.361
    1C        C  494   2.828   4.302   4.484
    1C        C  495   2.933   4.396   4.483
    1C        C  496   2.776   4.254   4.607
    1C        C  497   2.822   4.312   4.727
    1C        C  498   2.662   4.166   4.844
    1C        C  499   2.750   4.276   4.843
    1C        C  500   2.595   4.116   4.956
    1C        C  501   4.002   4.351   2.040
    1C        C  502   3.817   4.465   2.156
    1C        C  503   3.944   4.404   2.156
    1C        C  504   3.744   4.479   2.277
    1C        C  505   3.811   4.458   2.400
    1C        C  506   3.606   4.514   2.522
    1C        C  507   3.745   4.487   2.521
    1C        C  508   3.536   4.521   2.644
    1C        C  509   3.607   4.515   2.766
    1C        C  510   3.394   4.530   2.887
    1C        C  511   3.535   4.522   2.888
    1C        C  512   3.324   4.523   3.009
    1C        C  513   3.395   4.527   3.131
    1C        C  514   3.191   4.485   3.256
    1C        C  515   3.326   4.525   3.255
    1C        C  516   3.124   4.466   3.379
    1C        C  517   3.192   4.494   3.500
    1C        C  518   3.000   4.409   3.626
    1C        C  519   3.123   4.479   3.622
    1C        C  520   2.943   4.369   3.749
    1C        C  521   3.002   4.412   3.869
    1C        C  522   2.842   4.278   3.994
    1C        C  523   2.948   4.371   3.993
    1C        C  524   2.791   4.236   4.119
    1C        C  525   2.835   4.290   4.242
    1C        C  526   2.694   4.133   4.362
    1C        C  527   2.779   4.247   4.364
    1C        C  528   2.651   4.079   4.485
    1C        C  529   2.689   4.143   4.605
    1C        C  530   2.588   3.958   4.731
    1C        C  531   2.640   4.090   4.727
    1C        C  532   2.540   3.901   4.852
    1C        C  533   2.526   3.994   4.960
    1C        C  534   3.617   4.554   2.038
    1C        C  535   3.747   4.503   2.041
    1C        C  536   3.538   4.538   2.157
    1C        C  537   3.606   4.510   2.279
    1C        C  538   3.394   4.520   2.398
    1C        C  539   3.535   4.521   2.401
    1C        C  540   3.325   4.516   2.521
    1C        C  541   3.394   4.523   2.644
    1C        C  542   3.186   4.487   2.766
    1C        C  543   3.323   4.518   2.766
    1C        C  544   3.120   4.466   2.889
    1C        C  545   3.186   4.491   3.012
    1C        C  546   2.995   4.404   3.133
    1C        C  547   3.120   4.470   3.135
    1C        C  548   2.936   4.371   3.257
    1C        C  549   2.996   4.407   3.380
    1C        C  550   2.832   4.278   3.504
    1C        C  551   2.941   4.368   3.504
    1C        C  552   2.780   4.234   3.627
    1C        C  553   2.829   4.284   3.749
    1C        C  554   2.696   4.123   3.875
    1C        C  555   2.787   4.231   3.873
    1C        C  556   2.658   4.067   3.998
    1C        C  557   2.696   4.131   4.118
    1C        C  558   2.594   3.945   4.246
    1C        C  559   2.663   4.069   4.240
    1C        C  560   2.565   3.881   4.368
    1C        C  561   2.591   3.951   4.488
    1C        C  562   2.539   3.749   4.613
    1C        C  563   2.565   3.887   4.611
    1C        C  564   2.516   3.683   4.736
    1C        C  565   2.519   3.759   4.856
    1C        C  566   2.527   3.550   4.977
    1C        C  567   2.523   3.689   4.977
    1C        C  568   3.325   4.483   2.042
    1C        C  569   3.399   4.510   2.158
    1C        C  570   3.183   4.481   2.281
    1C        C  571   3.321   4.512   2.277
    1C        C  572   3.116   4.460   2.404
    1C        C  573   3.188   4.482   2.524
    1C        C  574   2.988   4.405   2.646
    1C        C  575   3.115   4.467   2.645
    1C        C  576   2.932   4.362   2.768
    1C        C  577   2.996   4.398   2.889
    1C        C  578   2.826   4.273   3.015
    1C        C  579   2.938   4.360   3.011
    1C        C  580   2.779   4.222   3.138
    1C        C  581   2.833   4.274   3.258
    1C        C  582   2.701   4.112   3.386
    1C        C  583   2.786   4.225   3.381
    1C        C  584   2.666   4.054   3.510
    1C        C  585   2.694   4.122   3.630
    1C        C  586   2.597   3.934   3.757
    1C        C  587   2.656   4.063   3.753
    1C        C  588   2.574   3.870   3.880
    1C        C  589   2.599   3.938   4.002
    1C        C  590   2.539   3.737   4.126
    1C        C  591   2.573   3.875   4.125
    1C        C  592   2.525   3.672   4.251
    1C        C  593   2.535   3.743   4.372
    1C        C  594   2.518   3.533   4.500
    1C        C  595   2.522   3.674   4.495
    1C        C  596   2.521   3.465   4.624
    1C        C  597   2.516   3.541   4.743
    1C        C  598   2.536   3.327   4.861
    1C        C  599   2.525   3.467   4.864
    1C        C  600   2.543   3.250   4.978
    1C        C  601   3.194   4.440   2.043
    1C        C  602   2.984   4.393   2.158
    1C        C  603   3.120   4.437   2.162
    1C        C  604   2.925   4.361   2.283
    1C        C  605   2.988   4.401   2.403
    1C        C  606   2.816   4.277   2.528
    1C        C  607   2.926   4.366   2.525
    1C        C  608   2.769   4.224   2.650
    1C        C  609   2.820   4.276   2.771
    1C        C  610   2.685   4.113   2.895
    1C        C  611   2.772   4.225   2.894
    1C        C  612   2.649   4.056   3.019
    1C        C  613   2.689   4.114   3.141
    1C        C  614   2.595   3.926   3.266
    1C        C  615   2.655   4.055   3.265
    1C        C  616   2.573   3.863   3.390
    1C        C  617   2.604   3.927   3.512
    1C        C  618   2.535   3.730   3.639
    1C        C  619   2.573   3.865   3.636
    1C        C  620   2.521   3.661   3.761
    1C        C  621   2.536   3.734   3.881
    1C        C  622   2.515   3.525   4.011
    1C        C  623   2.530   3.666   4.005
    1C        C  624   2.515   3.457   4.134
    1C        C  625   2.515   3.531   4.254
    1C        C  626   2.538   3.323   4.379
    1C        C  627   2.517   3.462   4.378
    1C        C  628   2.557   3.254   4.501
    1C        C  629   2.542   3.325   4.622
    1C        C  630   2.593   3.116   4.745
    1C        C  631   2.551   3.252   4.742
    1C        C  632   2.616   3.045   4.866
    1C        C  633   2.568   3.112   4.983
    1C        C  634   2.778   4.310   2.054
    1C        C  635   2.888   4.397   2.051
    1C        C  636   2.752   4.231   2.167
    1C        C  637   2.811   4.275   2.287
    1C        C  638   2.678   4.111   2.410
    1C        C  639   2.764   4.223   2.409
    1C        C  640   2.637   4.052   2.531
    1C        C  641   2.684   4.111   2.650
    1C        C  642   2.586   3.926   2.776
    1C        C  643   2.641   4.056   2.773
    1C        C  644   2.567   3.859   2.899
    1C        C  645   2.595   3.925   3.020
    1C        C  646   2.534   3.724   3.147
    1C        C  647   2.570   3.861   3.144
    1C        C  648   2.521   3.655   3.270
    1C        C  649   2.535   3.727   3.391
    1C        C  650   2.512   3.521   3.519
    1C        C  651   2.521   3.662   3.515
    1C        C  652   2.514   3.450   3.641
    1C        C  653   2.515   3.520   3.764
    1C        C  654   2.544   3.315   3.890
    1C        C  655   2.516   3.454   3.889
    1C        C  656   2.558   3.250   4.015
    1C        C  657   2.538   3.317   4.137
    1C        C  658   2.606   3.117   4.259
    1C        C  659   2.553   3.248   4.259
    1C        C  660   2.635   3.054   4.381
    1C        C  661   2.601   3.119   4.502
    1C        C  662   2.701   2.933   4.628
    1C        C  663   2.624   3.051   4.623
    1C        C  664   2.746   2.874   4.747
    1C        C  665   2.693   2.924   4.869
    1C        C  666   2.739   2.865   4.988
    1C        C  667   2.685   4.027   2.052
    1C        C  668   2.688   4.105   2.168
    1C        C  669   2.594   3.913   2.289
    1C        C  670   2.648   4.044   2.289
    1C        C  671   2.563   3.850   2.412
    1C        C  672   2.583   3.921   2.533
    1C        C  673   2.521   3.720   2.659
    1C        C  674   2.561   3.856   2.656
    1C        C  675   2.509   3.651   2.782
    1C        C  676   2.528   3.723   2.902
    1C        C  677   2.509   3.514   3.029
    1C        C  678   2.518   3.655   3.025
    1C        C  679   2.514   3.444   3.151
    1C        C  680   2.515   3.514   3.274
    1C        C  681   2.536   3.308   3.401
    1C        C  682   2.511   3.447   3.398
    1C        C  683   2.552   3.239   3.523
    1C        C  684   2.536   3.310   3.644
    1C        C  685   2.604   3.112   3.770
    1C        C  686   2.560   3.246   3.768
    1C        C  687   2.640   3.051   3.892
    1C        C  688   2.608   3.118   4.013
    1C        C  689   2.719   2.938   4.138
    1C        C  690   2.641   3.057   4.136
    1C        C  691   2.751   2.878   4.261
    1C        C  692   2.716   2.938   4.384
    1C        C  693   2.751   2.878   4.507
    1C        C  694   2.631   3.897   2.057
    1C        C  695   2.528   3.705   2.175
    1C        C  696   2.576   3.838   2.171
    1C        C  697   2.508   3.641   2.299
    1C        C  698   2.525   3.714   2.418
    1C        C  699   2.502   3.503   2.544
    1C        C  700   2.512   3.644   2.540
    1C        C  701   2.512   3.435   2.667
    1C        C  702   2.505   3.510   2.786
    1C        C  703   2.525   3.300   2.912
    1C        C  704   2.507   3.440   2.909
    1C        C  705   2.543   3.231   3.034
    1C        C  706   2.531   3.304   3.154
    1C        C  707   2.599   3.106   3.280
    1C        C  708   2.551   3.239   3.278
    1C        C  709   2.633   3.044   3.402
    1C        C  710   2.605   3.108   3.525
    1C        C  711   2.712   2.928   3.648
    1C        C  712   2.637   3.048   3.649
    1C        C  713   2.754   2.874   3.771
    1C        C  714   2.713   2.930   3.894
    1C        C  715   2.758   2.876   4.017
    1C        C  716   2.457   3.497   2.064
    1C        C  717   2.493   3.632   2.061
    1C        C  718   2.471   3.422   2.185
    1C        C  719   2.492   3.500   2.303
    1C        C  720   2.523   3.289   2.423
    1C        C  721   2.495   3.428   2.424
    1C        C  722   2.537   3.222   2.547
    1C        C  723   2.528   3.294   2.668
    1C        C  724   2.590   3.094   2.792
    1C        C  725   2.544   3.228   2.791
    1C        C  726   2.615   3.030   2.915
    1C        C  727   2.589   3.097   3.036
    1C        C  728   2.702   2.919   3.159
    1C        C  729   2.624   3.037   3.159
    1C        C  730   2.755   2.872   3.282
    1C        C  731   2.712   2.927   3.405
    1C        C  732   2.753   2.868   3.527
    1C        C  733   2.492   3.195   2.072
    1C        C  734   2.490   3.280   2.183
    1C        C  735   2.585   3.084   2.304
    1C        C  736   2.531   3.216   2.303
    1C        C  737   2.613   3.020   2.426
    1C        C  738   2.589   3.091   2.546
    1C        C  739   2.698   2.912   2.670
    1C        C  740   2.621   3.031   2.670
    1C        C  741   2.741   2.857   2.792
    1C        C  742   2.699   2.916   2.914
    1C        C  743   2.747   2.865   3.037
    1C        C  744   2.546   3.066   2.070
    1C        C  745   2.686   2.896   2.188
    1C        C  746   2.604   3.011   2.185
    1C        C  747   2.724   2.832   2.308
    1C        C  748   2.686   2.899   2.426
    1C        C  749   2.740   2.854   2.548
    1C        C  750   2.735   2.835   2.071
    1C        C  751   3.657   2.291   2.016
    1C        O  752   3.664   2.175   2.065
    1C        O  753   3.704   2.295   1.884
    1C        C  754   4.615   3.053   1.968
    1C        O  755   4.577   3.041   1.848
    1C        O  756   4.750   3.015   1.974
    1C        C  757   4.466   4.224   1.979
    1C        O  758   4.534   4.313   2.038
    1C        O  759   4.431   4.276   1.854
    1C        C  760   3.599   4.674   1.954
    1C        O  761   3.621   4.792   1.996
    1C        O  762   3.617   4.650   1.817
    1C        C  763   2.861   4.497   1.945
    1C        O  764   2.891   4.473   1.825
    1C        O  765   2.756   4.589   1.953
    1C        C  766   2.335   3.474   1.983
    1C        O  767   2.351   3.439   1.863
    1C        O  768   2.204   3.521   1.998
    1C        C  769   4.701   3.586   5.049
    1C        O  770   4.677   3.561   5.170
    1C        O  771   4.836   3.614   5.022
    1C        C  772   4.273   4.465   5.027
    1C        O  773   4.247   4.463   5.150
    1C        O  774   4.403   4.513   5.005
    1C        C  775   4.159   2.542   5.066
    1C        O  776   4.210   2.429   5.039
    1C        O  777   4.134   2.549   5.204
    1C        C  778   2.893   4.555   5.043
    1C        O  779   2.826   4.658   5.015
    1C        O  780   2.944   4.561   5.174
    1C        C  781   2.464   3.047   5.066
    1C        O  782   2.375   2.981   5.005
    1C        O  783   2.510   2.980   5.178
    1C        C  784   2.392   4.007   5.023
    1C        O  785   2.288   4.027   4.954
    1C        O  786   2.368   3.976   5.157
    1C        C  787   2.946   2.413   2.017
    1C        O  788   2.904   2.442   1.902
    1C        O  789   2.876   2.315   2.086
    1C        C  790   3.194   2.401   5.093
    1C        O  791   3.175   2.276   5.085
    1C        O  792   3.144   2.439   5.218
    1C        H  793   4.331   2.982   5.068
    1C        H  794   4.220   2.796   5.069
    1C        H  795   4.520   3.126   5.054
    1C        H  796   4.496   3.369   5.058
    1C        H  797   4.580   3.811   5.042
    1C        H  798   4.435   3.982   5.056
    1C        H  799   4.261   4.132   5.049
    1C        H  800   3.994   4.461   5.036
    1C        H  801   3.820   4.626   5.023
    1C        H  802   3.591   4.664   5.020
    1C        H  803   3.395   4.519   5.045
    1C        H  804   3.168   4.432   5.045
    1C        H  805   3.903   2.453   5.048
    1C        H  806   3.676   2.442   5.066
    1C        H  807   2.997   2.563   5.065
    1C        H  808   3.439   2.482   5.080
    1C        H  809   2.872   2.729   5.079
    1C        H  810   2.678   2.868   5.076
    1C        H  811   2.534   3.296   5.074
    1C        H  812   2.519   3.502   5.073
    1C        H  813   2.535   3.740   5.070
    1C        H  814   2.603   4.167   5.050
    1C        H  815   2.739   4.339   5.046
    1C        H  816   2.760   2.900   1.989
    1C        H  817   2.875   2.709   1.983
    1C        H  818   3.220   2.465   1.989
    1C        H  819   3.430   2.453   1.981
    1C        H  820   3.835   2.576   1.981
    1C        H  821   4.067   2.621   1.968
    1C        H  822   4.269   2.706   1.981
    1C        H  823   4.386   2.916   1.965
    1C        H  824   4.616   3.306   1.982
    1C        H  825   4.525   3.515   1.960
    1C        H  826   4.497   3.759   1.959
    1C        H  827   3.808   4.535   1.959
    1C        H  828   3.937   4.301   1.972
    1C        H  829   4.190   4.311   1.960
    1C        H  830   4.534   3.977   1.990
    1C        H  831   2.665   3.828   1.982
    1C        H  832   2.716   4.074   1.961
    1C        H  833   2.706   4.324   1.976
    1C        H  834   3.360   4.504   1.943
    1C        H  835   3.171   4.364   1.972
    1C        H  836   2.516   2.995   1.996
    1C        H  837   2.414   3.202   2.000
    1C        H  838   2.474   3.691   1.973
    2V3OU   H29  839   2.803   3.556   1.480
    2V3OU   C27  840   2.782   3.510   1.580
    2V3OU   H27  841   2.729   3.576   1.653
    2V3OU   H28  842   2.731   3.411   1.567
    2V3OU   O11  843   2.909   3.475   1.634
    2V3OU   C15  844   2.923   3.398   1.748
    2V3OU   C13  845   3.050   3.375   1.804
    2V3OU   C14  846   3.076   3.272   1.895
    2V3OU   C16  847   2.971   3.194   1.940
    2V3OU    H6  848   2.989   3.105   2.002
    2V3OU   C12  849   3.213   3.227   1.930
    2V3OU    O2  850   3.237   3.122   1.993
    2V3OU   C10  851   3.323   3.304   1.871
    2V3OU    C8  852   3.455   3.269   1.901
    2V3OU   O10  853   3.488   3.153   1.964
    2V3OU   H26  854   3.402   3.114   1.986
    2V3OU    C6  855   3.565   3.348   1.856
    2V3OU    C5  856   3.538   3.469   1.793
    2V3OU    C4  857   3.704   3.297   1.868
    2V3OU    H4  858   3.721   3.232   1.959
    2V3OU    H5  859   3.716   3.230   1.779
    2V3OU    C2  860   3.820   3.397   1.874
    2V3OU    O6  861   3.805   3.471   1.995
    2V3OU   H21  862   3.773   3.557   1.963
    2V3OU    C3  863   3.784   3.492   1.760
    2V3OU    H2  864   3.862   3.572   1.753
    2V3OU    H3  865   3.783   3.437   1.662
    2V3OU   C25  866   3.953   3.323   1.855
    2V3OU    O7  867   3.998   3.295   1.745
    2V3OU   C26  868   4.030   3.284   1.981
    2V3OU   H22  869   4.062   3.383   2.021
    2V3OU   H23  870   4.122   3.226   1.954
    2V3OU    O8  871   3.961   3.207   2.077
    2V3OU   H24  872   3.913   3.267   2.136
    2V3OU    C1  873   3.652   3.566   1.778
    2V3OU    H1  874   3.627   3.620   1.682
    2V3OU    O3  875   3.654   3.656   1.888
    2V3OU   C19  876   3.621   3.795   1.881
    2V3OU    H9  877   3.518   3.803   1.834
    2V3OU    O4  878   3.716   3.853   1.795
    2V3OU   C20  879   3.845   3.878   1.852
    2V3OU   H10  880   3.894   3.777   1.866
    2V3OU   C24  881   3.613   3.856   2.021
    2V3OU   H16  882   3.545   3.797   2.088
    2V3OU   H17  883   3.565   3.957   2.012
    2V3OU   C23  884   3.752   3.874   2.083
    2V3OU   H15  885   3.792   3.768   2.096
    2V3OU    N1  886   3.737   3.952   2.204
    2V3OU   H19  887   3.811   3.918   2.263
    2V3OU   H20  888   3.650   3.936   2.250
    2V3OU   C21  889   3.851   3.948   1.988
    2V3OU   H11  890   3.950   3.920   2.035
    2V3OU    O5  891   3.831   4.088   2.000
    2V3OU   H18  892   3.777   4.099   2.080
    2V3OU   C22  893   3.914   3.953   1.740
    2V3OU   H12  894   3.864   4.051   1.720
    2V3OU   H13  895   3.904   3.894   1.645
    2V3OU   H14  896   4.024   3.966   1.758
    2V3OU   C11  897   3.159   3.469   1.773
    2V3OU    O1  898   3.142   3.588   1.736
    2V3OU    C9  899   3.296   3.430   1.810
    2V3OU    C7  900   3.403   3.510   1.771
    2V3OU    O9  901   3.387   3.616   1.683
    2V3OU   H25  902   3.292   3.634   1.683
    2V3OU   C17  903   2.821   3.313   1.795
    2V3OU    H7  904   2.718   3.343   1.780
    2V3OU   C18  905   2.843   3.212   1.888
    2V3OU    H8  906   2.763   3.146   1.924
    3SOL     OW  907   1.266   3.485   1.407
    3SOL    HW1  908   1.225   3.505   1.318
    3SOL    HW2  909   1.241   3.556   1.472
    4SOL     OW  910   5.746   0.542   1.797
    4SOL    HW1  911   5.695   0.462   1.767
    4SOL    HW2  912   5.822   0.559   1.734
    5SOL     OW  913   4.222   1.744   0.747
    5SOL    HW1  914   4.239   1.737   0.845
    5SOL    HW2  915   4.124   1.758   0.731
    6SOL     OW  916   2.963   2.113   1.938
    6SOL    HW1  917   2.952   2.183   2.009
    6SOL    HW2  918   2.879   2.106   1.885
    7SOL     OW  919   5.378   1.807   2.092
    7SOL    HW1  920   5.465   1.785   2.047
    7SOL    HW2  921   5.388   1.891   2.145
    8SOL     OW  922   2.710   0.298   3.883
    8SOL    HW1  923   2.805   0.313   3.855
    8SOL    HW2  924   2.658   0.383   3.874
    9SOL     OW  925   1.969   4.785   5.924
    9SOL    HW1  926   1.970   4.822   6.017
    9SOL    HW2  927   1.962   4.860   5.858
   10SOL     OW  928   1.155   4.397   6.304
   10SOL    HW1  929   1.103   4.320   6.341
   10SOL    HW2  930   1.213   4.437   6.375
   11SOL     OW  931   4.476   6.447   0.126
   11SOL    HW1  932   4.571   6.444   0.095
   11SOL    HW2  933   4.433   6.532   0.094
   12SOL     OW  934   5.314   5.969   2.865
   12SOL    HW1  935   5.281   6.045   2.809
   12SOL    HW2  936   5.284   5.883   2.826
   13SOL     OW  937   2.809   6.283   3.778
   13SOL    HW1  938   2.799   6.371   3.731
   13SOL    HW2  939   2.891   6.237   3.745
   14SOL     OW  940   3.775   6.438   0.153
   14SOL    HW1  941   3.799   6.531   0.181
   14SOL    HW2  942   3.676   6.426   0.158
   15SOL     OW  943   1.121   6.688   7.006
   15SOL    HW1  944   1.123   6.588   7.009
   15SOL    HW2  945   1.183   6.725   0.050
   16SOL     OW  946   6.607   2.490   6.191
   16SOL    HW1  947   6.558   2.568   6.230
   16SOL    HW2  948   6.663   2.447   6.262
   17SOL     OW  949   5.104   6.566   3.923
   17SOL    HW1  950   5.073   6.657   3.947
   17SOL    HW2  951   5.027   6.503   3.924
   18SOL     OW  952   1.914   1.714   5.657
   18SOL    HW1  953   1.821   1.750   5.651
   18SOL    HW2  954   1.916   1.636   5.720
   19SOL     OW  955   0.415   6.951   2.499
   19SOL    HW1  956   0.343   6.882   2.510
   19SOL    HW2  957   0.374   0.017   2.502
   20SOL     OW  958   3.646   1.705   4.088
   20SOL    HW1  959   3.640   1.795   4.045
   20SOL    HW2  960   3.705   1.711   4.169
   21SOL     OW  961   3.130   1.472   1.571
   21SOL    HW1  962   3.181   1.505   1.492
   21SOL    HW2  963   3.177   1.392   1.610
   22SOL     OW  964   2.243   6.164   5.910
   22SOL    HW1  965   2.189   6.213   5.977
   22SOL    HW2  966   2.285   6.229   5.846
   23SOL     OW  967   4.588   6.594   4.475
   23SOL    HW1  968   4.538   6.568   4.392
   23SOL    HW2  969   4.528   6.585   4.554
   24SOL     OW  970   5.330   1.318   5.172
   24SOL    HW1  971   5.429   1.328   5.182
   24SOL    HW2  972   5.291   1.289   5.259
   25SOL     OW  973   4.020   5.785   0.595
   25SOL    HW1  974   4.061   5.749   0.512
   25SOL    HW2  975   3.925   5.754   0.601
   26SOL     OW  976   6.455   1.149   1.716
   26SOL    HW1  977   6.403   1.073   1.676
   26SOL    HW2  978   6.443   1.148   1.815
   27SOL     OW  979   6.039   0.374   2.829
   27SOL    HW1  980   6.112   0.398   2.892
   27SOL    HW2  981   5.951   0.399   2.869
   28SOL     OW  982   4.222   0.350   6.994
   28SOL    HW1  983   4.136   0.391   6.962
   28SOL    HW2  984   4.209   0.251   7.003
   29SOL     OW  985   4.586   2.496   1.328
   29SOL    HW1  986   4.582   2.507   1.229
   29SOL    HW2  987   4.520   2.557   1.371
   30SOL     OW  988   3.481   0.819   4.900
   30SOL    HW1  989   3.551   0.807   4.830
   30SOL    HW2  990   3.431   0.904   4.884
   31SOL     OW  991   0.693   1.068   4.902
   31SOL    HW1  992   0.709   1.153   4.851
   31SOL    HW2  993   0.625   1.085   4.973
   32SOL     OW  994   0.792   1.826   1.895
   32SOL    HW1  995   0.734   1.867   1.824
   32SOL    HW2  996   0.883   1.809   1.857
   33SOL     OW  997   2.015   2.592   6.523
   33SOL    HW1  998   2.019   2.624   6.618
   33SOL    HW2  999   1.936   2.633   6.478
   34SOL     OW 1000   2.285   0.241   4.916
   34SOL    HW1 1001   2.188   0.216   4.914
   34SOL    HW2 1002   2.338   0.164   4.951
   35SOL     OW 1003   5.112   1.629   0.117
   35SOL    HW1 1004   5.100   1.728   0.127
   35SOL    HW2 1005   5.029   1.589   0.077
   36SOL     OW 1006   1.636   1.250   5.693
   36SOL    HW1 1007   1.696   1.317   5.737
   36SOL    HW2 1008   1.584   1.201   5.763
   37SOL     OW 1009   3.163   6.558   1.322
   37SOL    HW1 1010   3.206   6.479   1.365
   37SOL    HW2 1011   3.192   6.564   1.227
   38SOL     OW 1012   0.047   6.674   3.406
   38SOL    HW1 1013   0.101   6.754   3.431
   38SOL    HW2 1014   7.007   6.698   3.333
   39SOL     OW 1015   6.692   3.168   5.171
   39SOL    HW1 1016   6.700   3.189   5.269
   39SOL    HW2 1017   6.601   3.197   5.139
   40SOL     OW 1018   6.157   0.739   2.687
   40SOL    HW1 1019   6.065   0.700   2.685
   40SOL    HW2 1020   6.216   0.689   2.625
   41SOL     OW 1021   1.395   6.734   5.042
   41SOL    HW1 1022   1.452   6.653   5.058
   41SOL    HW2 1023   1.316   6.708   4.985
   42SOL     OW 1024   3.746   0.509   6.780
   42SOL    HW1 1025   3.707   0.530   6.870
   42SOL    HW2 1026   3.845   0.504   6.786
   43SOL     OW 1027   5.502   6.485   5.438
   43SOL    HW1 1028   5.601   6.492   5.438
   43SOL    HW2 1029   5.474   6.391   5.455
   44SOL     OW 1030   0.315   2.532   6.259
   44SOL    HW1 1031   0.246   2.603   6.250
   44SOL    HW2 1032   0.404   2.573   6.279
   45SOL     OW 1033   2.445   1.193   2.166
   45SOL    HW1 1034   2.533   1.190   2.213
   45SOL    HW2 1035   2.456   1.238   2.077
   46SOL     OW 1036   1.590   3.857   4.545
   46SOL    HW1 1037   1.638   3.890   4.464
   46SOL    HW2 1038   1.632   3.772   4.577
   47SOL     OW 1039   7.001   4.553   3.291
   47SOL    HW1 1040   6.975   4.614   3.216
   47SOL    HW2 1041   6.925   4.545   3.356
   48SOL     OW 1042   0.337   2.188   5.278
   48SOL    HW1 1043   0.290   2.243   5.210
   48SOL    HW2 1044   0.271   2.137   5.332
   49SOL     OW 1045   4.604   3.466   0.888
   49SOL    HW1 1046   4.585   3.478   0.985
   49SOL    HW2 1047   4.700   3.442   0.875
   50SOL     OW 1048   6.480   3.719   4.583
   50SOL    HW1 1049   6.526   3.644   4.535
   50SOL    HW2 1050   6.546   3.791   4.604
   51SOL     OW 1051   3.292   4.993   3.151
   51SOL    HW1 1052   3.363   4.923   3.162
   51SOL    HW2 1053   3.238   4.973   3.070
   52SOL     OW 1054   2.685   1.606   1.954
   52SOL    HW1 1055   2.710   1.542   2.027
   52SOL    HW2 1056   2.620   1.561   1.893
   53SOL     OW 1057   5.052   6.708   4.362
   53SOL    HW1 1058   5.103   6.730   4.445
   53SOL    HW2 1059   5.026   6.793   4.316
   54SOL     OW 1060   3.542   4.995   5.691
   54SOL    HW1 1061   3.529   5.088   5.654
   54SOL    HW2 1062   3.463   4.939   5.669
   55SOL     OW 1063   4.010   1.938   6.356
   55SOL    HW1 1064   3.946   2.004   6.394
   55SOL    HW2 1065   3.992   1.926   6.258
   56SOL     OW 1066   1.066   0.412   2.435
   56SOL    HW1 1067   1.101   0.320   2.452
   56SOL    HW2 1068   0.972   0.406   2.400
   57SOL     OW 1069   5.097   1.105   0.512
   57SOL    HW1 1070   5.110   1.143   0.420
   57SOL    HW2 1071   5.097   1.006   0.507
   58SOL     OW 1072   0.131   5.880   6.563
   58SOL    HW1 1073   0.190   5.801   6.581
   58SOL    HW2 1074   0.115   5.929   6.648
   59SOL     OW 1075   1.157   0.466   6.152
   59SOL    HW1 1076   1.163   0.554   6.106
   59SOL    HW2 1077   1.237   0.411   6.129
   60SOL     OW 1078   4.449   6.995   5.255
   60SOL    HW1 1079   4.374   0.034   5.274
   60SOL    HW2 1080   4.461   6.987   5.156
   61SOL     OW 1081   5.005   0.272   3.946
   61SOL    HW1 1082   5.103   0.288   3.931
   61SOL    HW2 1083   4.977   0.191   3.894
   62SOL     OW 1084   1.858   0.382   3.981
   62SOL    HW1 1085   1.931   0.427   4.033
   62SOL    HW2 1086   1.778   0.442   3.979
   63SOL     OW 1087   6.381   2.832   3.140
   63SOL    HW1 1088   6.448   2.773   3.095
   63SOL    HW2 1089   6.364   2.912   3.082
   64SOL     OW 1090   6.098   3.860   6.429
   64SOL    HW1 1091   6.037   3.782   6.413
   64SOL    HW2 1092   6.106   3.876   6.527
   65SOL     OW 1093   6.927   4.399   4.893
   65SOL    HW1 1094   6.926   4.490   4.933
   65SOL    HW2 1095   7.020   4.363   4.893
   66SOL     OW 1096   3.296   0.416   0.312
   66SOL    HW1 1097   3.232   0.478   0.266
   66SOL    HW2 1098   3.325   0.344   0.249
   67SOL     OW 1099   5.565   5.992   4.992
   67SOL    HW1 1100   5.486   5.942   5.027
   67SOL    HW2 1101   5.549   6.091   5.000
   68SOL     OW 1102   6.108   2.044   6.194
   68SOL    HW1 1103   6.020   1.998   6.204
   68SOL    HW2 1104   6.094   2.143   6.199
   69SOL     OW 1105   2.857   4.320   6.195
   69SOL    HW1 1106   2.891   4.226   6.198
   69SOL    HW2 1107   2.784   4.326   6.126
   70SOL     OW 1108   7.021   5.656   2.541
   70SOL    HW1 1109   0.001   5.641   2.640
   70SOL    HW2 1110   7.007   5.568   2.495
   71SOL     OW 1111   1.870   2.760   3.396
   71SOL    HW1 1112   1.870   2.661   3.410
   71SOL    HW2 1113   1.937   2.803   3.455
   72SOL     OW 1114   2.659   5.405   3.767
   72SOL    HW1 1115   2.699   5.496   3.771
   72SOL    HW2 1116   2.619   5.390   3.677
   73SOL     OW 1117   3.722   1.806   0.460
   73SOL    HW1 1118   3.705   1.735   0.529
   73SOL    HW2 1119   3.765   1.885   0.504
   74SOL     OW 1120   5.156   6.505   6.609
   74SOL    HW1 1121   5.119   6.416   6.582
   74SOL    HW2 1122   5.102   6.578   6.567
   75SOL     OW 1123   3.825   5.755   5.665
   75SOL    HW1 1124   3.847   5.852   5.654
   75SOL    HW2 1125   3.892   5.713   5.726
   76SOL     OW 1126   1.832   2.594   1.241
   76SOL    HW1 1127   1.900   2.666   1.254
   76SOL    HW2 1128   1.870   2.523   1.181
   77SOL     OW 1129   6.112   4.993   5.274
   77SOL    HW1 1130   6.030   5.007   5.218
   77SOL    HW2 1131   6.185   5.052   5.242
   78SOL     OW 1132   6.419   6.099   5.824
   78SOL    HW1 1133   6.398   6.189   5.786
   78SOL    HW2 1134   6.333   6.052   5.845
   79SOL     OW 1135   3.519   6.847   0.498
   79SOL    HW1 1136   3.553   6.878   0.586
   79SOL    HW2 1137   3.579   6.776   0.462
   80SOL     OW 1138   0.191   1.678   4.671
   80SOL    HW1 1139   0.134   1.598   4.689
   80SOL    HW2 1140   0.282   1.648   4.642
   81SOL     OW 1141   1.794   0.981   3.085
   81SOL    HW1 1142   1.756   1.069   3.115
   81SOL    HW2 1143   1.724   0.930   3.035
   82SOL     OW 1144   6.570   5.050   6.581
   82SOL    HW1 1145   6.591   4.958   6.616
   82SOL    HW2 1146   6.484   5.048   6.531
   83SOL     OW 1147   7.007   6.342   0.430
   83SOL    HW1 1148   6.963   6.388   0.507
   83SOL    HW2 1149   6.937   6.295   0.375
   84SOL     OW 1150   5.209   3.734   2.153
   84SOL    HW1 1151   5.148   3.672   2.104
   84SOL    HW2 1152   5.157   3.810   2.191
   85SOL     OW 1153   0.722   1.599   5.439
   85SOL    HW1 1154   0.642   1.629   5.387
   85SOL    HW2 1155   0.731   1.656   5.521
   86SOL     OW 1156   0.402   0.353   5.739
   86SOL    HW1 1157   0.406   0.432   5.801
   86SOL    HW2 1158   0.457   0.371   5.658
   87SOL     OW 1159   4.514   2.292   0.361
   87SOL    HW1 1160   4.504   2.193   0.368
   87SOL    HW2 1161   4.438   2.330   0.307
   88SOL     OW 1162   5.404   1.121   0.868
   88SOL    HW1 1163   5.356   1.187   0.811
   88SOL    HW2 1164   5.451   1.169   0.942
   89SOL     OW 1165   1.691   2.952   6.547
   89SOL    HW1 1166   1.733   3.039   6.571
   89SOL    HW2 1167   1.677   2.897   6.630
   90SOL     OW 1168   5.834   6.194   3.982
   90SOL    HW1 1169   5.862   6.277   3.933
   90SOL    HW2 1170   5.818   6.121   3.916
   91SOL     OW 1171   4.738   4.815   4.584
   91SOL    HW1 1172   4.753   4.741   4.650
   91SOL    HW2 1173   4.688   4.889   4.627
   92SOL     OW 1174   3.190   4.389   1.053
   92SOL    HW1 1175   3.141   4.321   1.107
   92SOL    HW2 1176   3.214   4.467   1.111
   93SOL     OW 1177   3.983   4.987   5.811
   93SOL    HW1 1178   3.917   5.058   5.838
   93SOL    HW2 1179   3.990   4.919   5.884
   94SOL     OW 1180   2.968   5.861   0.071
   94SOL    HW1 1181   2.898   5.932   0.080
   94SOL    HW2 1182   2.944   5.799   7.021
   95SOL     OW 1183   0.229   0.096   4.180
   95SOL    HW1 1184   0.173   0.151   4.119
   95SOL    HW2 1185   0.311   0.066   4.131
   96SOL     OW 1186   2.328   0.169   5.235
   96SOL    HW1 1187   2.324   0.205   5.328
   96SOL    HW2 1188   2.236   0.145   5.204
   97SOL     OW 1189   5.969   3.566   4.304
   97SOL    HW1 1190   5.880   3.524   4.320
   97SOL    HW2 1191   6.032   3.541   4.378
   98SOL     OW 1192   5.096   2.535   6.111
   98SOL    HW1 1193   5.096   2.452   6.166
   98SOL    HW2 1194   5.148   2.519   6.027
   99SOL     OW 1195   3.803   2.731   0.757
   99SOL    HW1 1196   3.815   2.679   0.841
   99SOL    HW2 1197   3.857   2.689   0.684
  100SOL     OW 1198   0.337   6.189   6.358
  100SOL    HW1 1199   0.247   6.153   6.336
  100SOL    HW2 1200   0.346   6.198   6.457
  101SOL     OW 1201   0.743   5.997   4.335
  101SOL    HW1 1202   0.788   6.023   4.249
  101SOL    HW2 1203   0.777   6.055   4.409
  102SOL     OW 1204   3.593   0.601   3.178
  102SOL    HW1 1205   3.688   0.569   3.178
  102SOL    HW2 1206   3.590   0.695   3.146
  103SOL     OW 1207   4.339   2.242   1.542
  103SOL    HW1 1208   4.325   2.151   1.503
  103SOL    HW2 1209   4.263   2.302   1.516
  104SOL     OW 1210   6.727   5.536   2.294
  104SOL    HW1 1211   6.767   5.585   2.216
  104SOL    HW2 1212   6.789   5.543   2.372
  105SOL     OW 1213   6.528   1.183   6.862
  105SOL    HW1 1214   6.561   1.232   6.782
  105SOL    HW2 1215   6.495   1.092   6.835
  106SOL     OW 1216   2.725   6.209   6.523
  106SOL    HW1 1217   2.697   6.305   6.530
  106SOL    HW2 1218   2.819   6.204   6.492
  107SOL     OW 1219   1.161   2.633   1.067
  107SOL    HW1 1220   1.134   2.548   1.113
  107SOL    HW2 1221   1.245   2.618   1.016
  108SOL     OW 1222   4.717   4.975   6.744
  108SOL    HW1 1223   4.645   4.969   6.814
  108SOL    HW2 1224   4.756   5.067   6.745
  109SOL     OW 1225   0.462   0.338   0.806
  109SOL    HW1 1226   0.394   0.398   0.846
  109SOL    HW2 1227   0.469   0.254   0.860
  110SOL     OW 1228   3.587   6.062   5.731
  110SOL    HW1 1229   3.556   6.155   5.753
  110SOL    HW2 1230   3.512   6.011   5.689
  111SOL     OW 1231   3.683   0.805   3.510
  111SOL    HW1 1232   3.673   0.709   3.485
  111SOL    HW2 1233   3.775   0.821   3.546
  112SOL     OW 1234   6.088   5.633   5.799
  112SOL    HW1 1235   6.013   5.693   5.827
  112SOL    HW2 1236   6.067   5.539   5.825
  113SOL     OW 1237   6.872   4.566   3.692
  113SOL    HW1 1238   6.850   4.568   3.594
  113SOL    HW2 1239   6.848   4.476   3.729
  114SOL     OW 1240   0.602   6.775   0.346
  114SOL    HW1 1241   0.684   6.832   0.338
  114SOL    HW2 1242   0.615   6.708   0.419
  115SOL     OW 1243   4.614   1.347   4.115
  115SOL    HW1 1244   4.586   1.411   4.044
  115SOL    HW2 1245   4.631   1.397   4.201
  116SOL     OW 1246   6.161   4.877   2.124
  116SOL    HW1 1247   6.197   4.925   2.204
  116SOL    HW2 1248   6.063   4.860   2.135
  117SOL     OW 1249   1.246   0.411   6.557
  117SOL    HW1 1250   1.328   0.445   6.512
  117SOL    HW2 1251   1.165   0.448   6.511
  118SOL     OW 1252   0.354   0.652   2.005
  118SOL    HW1 1253   0.320   0.573   2.056
  118SOL    HW2 1254   0.365   0.626   1.909
  119SOL     OW 1255   6.671   2.610   6.554
  119SOL    HW1 1256   6.615   2.688   6.580
  119SOL    HW2 1257   6.756   2.642   6.513
  120SOL     OW 1258   6.251   6.657   1.177
  120SOL    HW1 1259   6.348   6.677   1.191
  120SOL    HW2 1260   6.213   6.618   1.261
  121SOL     OW 1261   2.504   3.806   6.409
  121SOL    HW1 1262   2.549   3.748   6.341
  121SOL    HW2 1263   2.412   3.828   6.379
  122SOL     OW 1264   0.888   3.722   4.945
  122SOL    HW1 1265   0.978   3.748   4.910
  122SOL    HW2 1266   0.844   3.658   4.882
  123SOL     OW 1267   6.900   1.695   1.492
  123SOL    HW1 1268   6.876   1.668   1.399
  123SOL    HW2 1269   6.970   1.634   1.529
  124SOL     OW 1270   5.206   3.247   0.105
  124SOL    HW1 1271   5.115   3.209   0.123
  124SOL    HW2 1272   5.255   3.258   0.191
  125SOL     OW 1273   1.627   2.260   2.012
  125SOL    HW1 1274   1.664   2.243   2.104
  125SOL    HW2 1275   1.543   2.313   2.019
  126SOL     OW 1276   2.783   4.487   0.802
  126SOL    HW1 1277   2.707   4.527   0.750
  126SOL    HW2 1278   2.813   4.553   0.872
  127SOL     OW 1279   0.046   5.400   6.036
  127SOL    HW1 1280   0.079   5.387   5.942
  127SOL    HW2 1281   7.015   5.321   6.063
  128SOL     OW 1282   4.457   3.001   1.428
  128SOL    HW1 1283   4.453   3.055   1.512
  128SOL    HW2 1284   4.457   2.904   1.451
  129SOL     OW 1285   3.487   3.958   6.208
  129SOL    HW1 1286   3.553   3.882   6.204
  129SOL    HW2 1287   3.419   3.939   6.279
  130SOL     OW 1288   0.861   0.948   3.993
  130SOL    HW1 1289   0.905   0.881   3.933
  130SOL    HW2 1290   0.899   0.941   4.085
  131SOL     OW 1291   4.559   1.614   2.517
  131SOL    HW1 1292   4.549   1.516   2.533
  131SOL    HW2 1293   4.487   1.664   2.566
  132SOL     OW 1294   0.807   2.914   1.547
  132SOL    HW1 1295   0.867   2.926   1.626
  132SOL    HW2 1296   0.863   2.890   1.467
  133SOL     OW 1297   6.105   6.149   2.689
  133SOL    HW1 1298   6.015   6.191   2.693
  133SOL    HW2 1299   6.150   6.172   2.603
  134SOL     OW 1300   6.673   3.211   3.251
  134SOL    HW1 1301   6.581   3.242   3.227
  134SOL    HW2 1302   6.666   3.132   3.312
  135SOL     OW 1303   5.251   1.693   3.847
  135SOL    HW1 1304   5.188   1.635   3.899
  135SOL    HW2 1305   5.298   1.637   3.778
  136SOL     OW 1306   5.419   4.043   5.478
  136SOL    HW1 1307   5.436   4.033   5.576
  136SOL    HW2 1308   5.373   4.131   5.462
  137SOL     OW 1309   5.381   0.145   5.815
  137SOL    HW1 1310   5.440   0.185   5.885
  137SOL    HW2 1311   5.309   0.210   5.791
  138SOL     OW 1312   6.907   4.803   4.418
  138SOL    HW1 1313   6.938   4.898   4.410
  138SOL    HW2 1314   6.896   4.764   4.327
  139SOL     OW 1315   3.090   4.931   5.412
  139SOL    HW1 1316   3.010   4.886   5.372
  139SOL    HW2 1317   3.065   4.972   5.500
  140SOL     OW 1318   5.284   5.111   4.124
  140SOL    HW1 1319   5.197   5.137   4.166
  140SOL    HW2 1320   5.323   5.033   4.174
  141SOL     OW 1321   1.080   1.766   4.659
  141SOL    HW1 1322   0.982   1.779   4.642
  141SOL    HW2 1323   1.113   1.689   4.604
  142SOL     OW 1324   1.451   6.375   1.513
  142SOL    HW1 1325   1.452   6.389   1.612
  142SOL    HW2 1326   1.544   6.386   1.477
  143SOL     OW 1327   5.015   5.011   2.279
  143SOL    HW1 1328   4.925   5.010   2.236
  143SOL    HW2 1329   5.057   4.921   2.269
  144SOL     OW 1330   1.641   6.806   6.519
  144SOL    HW1 1331   1.587   6.883   6.554
  144SOL    HW2 1332   1.613   6.785   6.426
  145SOL     OW 1333   0.501   5.325   0.851
  145SOL    HW1 1334   0.561   5.262   0.802
  145SOL    HW2 1335   0.408   5.287   0.854
  146SOL     OW 1336   5.037   6.513   0.444
  146SOL    HW1 1337   5.088   6.491   0.361
  146SOL    HW2 1338   5.085   6.474   0.523
  147SOL     OW 1339   6.659   3.037   0.663
  147SOL    HW1 1340   6.619   3.103   0.598
  147SOL    HW2 1341   6.657   2.946   0.623
  148SOL     OW 1342   0.855   4.991   5.755
  148SOL    HW1 1343   0.808   4.930   5.820
  148SOL    HW2 1344   0.945   5.014   5.792
  149SOL     OW 1345   2.938   1.168   4.568
  149SOL    HW1 1346   2.920   1.099   4.638
  149SOL    HW2 1347   2.879   1.152   4.489
  150SOL     OW 1348   6.826   5.102   6.837
  150SOL    HW1 1349   6.913   5.070   6.799
  150SOL    HW2 1350   6.769   5.139   6.764
  151SOL     OW 1351   3.815   1.365   1.402
  151SOL    HW1 1352   3.840   1.348   1.306
  151SOL    HW2 1353   3.716   1.358   1.413
  152SOL     OW 1354   2.871   0.781   4.666
  152SOL    HW1 1355   2.848   0.790   4.569
  152SOL    HW2 1356   2.859   0.870   4.711
  153SOL     OW 1357   2.200   1.003   2.918
  153SOL    HW1 1358   2.119   1.051   2.954
  153SOL    HW2 1359   2.243   1.059   2.847
  154SOL     OW 1360   6.921   2.208   1.973
  154SOL    HW1 1361   6.952   2.277   1.907
  154SOL    HW2 1362   6.822   2.200   1.970
  155SOL     OW 1363   0.155   0.787   2.928
  155SOL    HW1 1364   0.233   0.831   2.971
  155SOL    HW2 1365   0.147   0.819   2.833
  156SOL     OW 1366   6.161   1.503   1.366
  156SOL    HW1 1367   6.146   1.552   1.452
  156SOL    HW2 1368   6.227   1.553   1.310
  157SOL     OW 1369   6.057   3.494   2.906
  157SOL    HW1 1370   6.113   3.450   2.975
  157SOL    HW2 1371   6.023   3.426   2.841
  158SOL     OW 1372   2.971   0.925   2.941
  158SOL    HW1 1373   2.943   0.974   2.858
  158SOL    HW2 1374   2.963   0.985   3.020
  159SOL     OW 1375   4.704   4.476   1.932
  159SOL    HW1 1376   4.639   4.412   1.972
  159SOL    HW2 1377   4.738   4.440   1.845
  160SOL     OW 1378   6.552   4.140   5.943
  160SOL    HW1 1379   6.510   4.056   5.909
  160SOL    HW2 1380   6.625   4.168   5.880
  161SOL     OW 1381   2.164   5.042   5.144
  161SOL    HW1 1382   2.220   4.975   5.194
  161SOL    HW2 1383   2.214   5.128   5.135
  162SOL     OW 1384   4.701   5.989   0.801
  162SOL    HW1 1385   4.695   5.898   0.762
  162SOL    HW2 1386   4.703   6.057   0.728
  163SOL     OW 1387   4.318   6.798   1.694
  163SOL    HW1 1388   4.411   6.830   1.674
  163SOL    HW2 1389   4.256   6.830   1.621
  164SOL     OW 1390   6.200   3.571   0.876
  164SOL    HW1 1391   6.149   3.656   0.862
  164SOL    HW2 1392   6.296   3.592   0.896
  165SOL     OW 1393   4.867   3.681   6.507
  165SOL    HW1 1394   4.795   3.619   6.474
  165SOL    HW2 1395   4.953   3.658   6.462
  166SOL     OW 1396   0.157   6.346   2.805
  166SOL    HW1 1397   0.128   6.428   2.854
  166SOL    HW2 1398   0.154   6.268   2.867
  167SOL     OW 1399   6.480   2.386   6.887
  167SOL    HW1 1400   6.499   2.304   6.941
  167SOL    HW2 1401   6.516   2.373   6.794
  168SOL     OW 1402   2.228   5.119   0.994
  168SOL    HW1 1403   2.241   5.036   0.940
  168SOL    HW2 1404   2.232   5.097   1.091
  169SOL     OW 1405   2.064   0.302   2.237
  169SOL    HW1 1406   2.129   0.336   2.305
  169SOL    HW2 1407   2.111   0.288   2.150
  170SOL     OW 1408   0.022   1.931   3.630
  170SOL    HW1 1409   6.986   1.898   3.702
  170SOL    HW2 1410   0.109   1.882   3.634
  171SOL     OW 1411   3.959   3.690   0.431
  171SOL    HW1 1412   4.058   3.690   0.440
  171SOL    HW2 1413   3.934   3.682   0.335
  172SOL     OW 1414   6.832   2.172   5.456
  172SOL    HW1 1415   6.851   2.233   5.379
  172SOL    HW2 1416   6.912   2.167   5.516
  173SOL     OW 1417   6.969   6.753   4.833
  173SOL    HW1 1418   6.983   6.820   4.761
  173SOL    HW2 1419   7.022   6.670   4.813
  174SOL     OW 1420   2.536   5.193   3.568
  174SOL    HW1 1421   2.605   5.124   3.547
  174SOL    HW2 1422   2.555   5.277   3.518
  175SOL     OW 1423   2.045   6.171   2.034
  175SOL    HW1 1424   2.024   6.267   2.051
  175SOL    HW2 1425   1.968   6.114   2.063
  176SOL     OW 1426   2.052   4.187   1.344
  176SOL    HW1 1427   2.086   4.189   1.439
  176SOL    HW2 1428   2.050   4.280   1.307
  177SOL     OW 1429   4.714   2.128   3.039
  177SOL    HW1 1430   4.798   2.098   2.994
  177SOL    HW2 1431   4.642   2.142   2.971
  178SOL     OW 1432   4.688   4.645   6.617
  178SOL    HW1 1433   4.592   4.645   6.644
  178SOL    HW2 1434   4.741   4.702   6.681
  179SOL     OW 1435   3.248   0.332   0.583
  179SOL    HW1 1436   3.270   0.349   0.487
  179SOL    HW2 1437   3.246   0.419   0.633
  180SOL     OW 1438   0.914   1.026   6.642
  180SOL    HW1 1439   0.938   0.981   6.728
  180SOL    HW2 1440   0.909   1.125   6.657
  181SOL     OW 1441   3.366   2.211   6.241
  181SOL    HW1 1442   3.344   2.308   6.252
  181SOL    HW2 1443   3.461   2.195   6.269
  182SOL     OW 1444   3.982   2.142   4.392
  182SOL    HW1 1445   3.882   2.145   4.396
  182SOL    HW2 1446   4.016   2.075   4.458
  183SOL     OW 1447   4.536   1.302   1.735
  183SOL    HW1 1448   4.546   1.326   1.639
  183SOL    HW2 1449   4.626   1.299   1.778
  184SOL     OW 1450   1.405   4.935   3.256
  184SOL    HW1 1451   1.451   5.023   3.265
  184SOL    HW2 1452   1.421   4.881   3.338
  185SOL     OW 1453   1.813   3.444   6.487
  185SOL    HW1 1454   1.836   3.519   6.549
  185SOL    HW2 1455   1.853   3.461   6.397
  186SOL     OW 1456   5.766   0.231   3.037
  186SOL    HW1 1457   5.760   0.136   3.067
  186SOL    HW2 1458   5.853   0.270   3.067
  187SOL     OW 1459   5.664   0.805   3.947
  187SOL    HW1 1460   5.661   0.719   3.896
  187SOL    HW2 1461   5.604   0.872   3.905
  188SOL     OW 1462   5.887   2.260   3.217
  188SOL    HW1 1463   5.907   2.205   3.298
  188SOL    HW2 1464   5.804   2.226   3.173
  189SOL     OW 1465   2.153   4.782   2.848
  189SOL    HW1 1466   2.164   4.772   2.947
  189SOL    HW2 1467   2.104   4.867   2.828
  190SOL     OW 1468   4.053   1.189   5.229
  190SOL    HW1 1469   3.954   1.171   5.227
  190SOL    HW2 1470   4.070   1.284   5.207
  191SOL     OW 1471   5.915   5.856   6.317
  191SOL    HW1 1472   5.820   5.871   6.292
  191SOL    HW2 1473   5.925   5.857   6.417
  192SOL     OW 1474   6.701   0.081   1.911
  192SOL    HW1 1475   6.720   7.016   1.871
  192SOL    HW2 1476   6.677   0.145   1.839
  193SOL     OW 1477   5.328   3.462   7.008
  193SOL    HW1 1478   5.304   3.495   6.917
  193SOL    HW2 1479   5.285   3.374   7.024
  194SOL     OW 1480   3.229   0.825   3.193
  194SOL    HW1 1481   3.161   0.861   3.257
  194SOL    HW2 1482   3.198   0.738   3.156
  195SOL     OW 1483   1.827   5.474   3.676
  195SOL    HW1 1484   1.756   5.404   3.674
  195SOL    HW2 1485   1.807   5.540   3.748
  196SOL     OW 1486   1.493   1.986   6.627
  196SOL    HW1 1487   1.415   1.941   6.583
  196SOL    HW2 1488   1.489   2.085   6.609
  197SOL     OW 1489   2.189   0.941   1.246
  197SOL    HW1 1490   2.150   0.933   1.338
  197SOL    HW2 1491   2.283   0.907   1.247
  198SOL     OW 1492   3.629   1.508   3.158
  198SOL    HW1 1493   3.586   1.592   3.124
  198SOL    HW2 1494   3.717   1.531   3.200
  199SOL     OW 1495   0.962   2.339   4.020
  199SOL    HW1 1496   0.966   2.265   4.087
  199SOL    HW2 1497   0.962   2.427   4.067
  200SOL     OW 1498   0.410   2.661   0.323
  200SOL    HW1 1499   0.336   2.726   0.309
  200SOL    HW2 1500   0.390   2.604   0.402
  201SOL     OW 1501   0.675   0.432   5.980
  201SOL    HW1 1502   0.766   0.404   5.949
  201SOL    HW2 1503   0.680   0.524   6.019
  202SOL     OW 1504   4.701   0.255   6.059
  202SOL    HW1 1505   4.603   0.260   6.080
  202SOL    HW2 1506   4.724   0.323   5.990
  203SOL     OW 1507   5.553   3.167   5.421
  203SOL    HW1 1508   5.498   3.092   5.385
  203SOL    HW2 1509   5.499   3.251   5.423
  204SOL     OW 1510   6.936   0.491   6.053
  204SOL    HW1 1511   6.926   0.537   5.965
  204SOL    HW2 1512   7.023   0.443   6.057
  205SOL     OW 1513   0.829   2.885   2.262
  205SOL    HW1 1514   0.832   2.787   2.246
  205SOL    HW2 1515   0.740   2.911   2.300
  206SOL     OW 1516   0.190   3.174   0.753
  206SOL    HW1 1517   0.244   3.160   0.836
  206SOL    HW2 1518   0.150   3.266   0.754
  207SOL     OW 1519   5.098   1.983   3.595
  207SOL    HW1 1520   5.127   1.935   3.677
  207SOL    HW2 1521   4.998   1.993   3.595
  208SOL     OW 1522   0.995   4.224   4.768
  208SOL    HW1 1523   1.064   4.232   4.697
  208SOL    HW2 1524   0.940   4.141   4.753
  209SOL     OW 1525   6.671   4.699   2.449
  209SOL    HW1 1526   6.749   4.679   2.389
  209SOL    HW2 1527   6.604   4.754   2.400
  210SOL     OW 1528   4.594   2.174   0.091
  210SOL    HW1 1529   4.602   2.250   0.026
  210SOL    HW2 1530   4.502   2.135   0.085
  211SOL     OW 1531   1.277   0.448   3.272
  211SOL    HW1 1532   1.352   0.429   3.209
  211SOL    HW2 1533   1.275   0.546   3.293
  212SOL     OW 1534   1.824   4.165   3.392
  212SOL    HW1 1535   1.829   4.073   3.353
  212SOL    HW2 1536   1.802   4.159   3.489
  213SOL     OW 1537   2.252   4.991   1.245
  213SOL    HW1 1538   2.156   4.989   1.272
  213SOL    HW2 1539   2.288   4.897   1.245
  214SOL     OW 1540   4.705   5.815   2.333
  214SOL    HW1 1541   4.639   5.877   2.290
  214SOL    HW2 1542   4.733   5.852   2.421
  215SOL     OW 1543   2.362   4.813   1.975
  215SOL    HW1 1544   2.381   4.901   1.931
  215SOL    HW2 1545   2.291   4.764   1.923
  216SOL     OW 1546   1.387   0.009   2.181
  216SOL    HW1 1547   1.352   0.016   2.274
  216SOL    HW2 1548   1.422   6.942   2.165
  217SOL     OW 1549   1.796   3.902   6.701
  217SOL    HW1 1550   1.747   3.958   6.768
  217SOL    HW2 1551   1.773   3.933   6.609
  218SOL     OW 1552   0.782   2.432   5.621
  218SOL    HW1 1553   0.841   2.510   5.603
  218SOL    HW2 1554   0.834   2.347   5.612
  219SOL     OW 1555   3.803   1.171   0.893
  219SOL    HW1 1556   3.831   1.193   0.987
  219SOL    HW2 1557   3.861   1.098   0.858
  220SOL     OW 1558   3.255   6.931   0.516
  220SOL    HW1 1559   3.346   6.892   0.531
  220SOL    HW2 1560   3.191   6.894   0.584
  221SOL     OW 1561   5.130   5.446   1.081
  221SOL    HW1 1562   5.197   5.449   1.156
  221SOL    HW2 1563   5.157   5.512   1.011
  222SOL     OW 1564   2.210   4.398   6.094
  222SOL    HW1 1565   2.206   4.324   6.160
  222SOL    HW2 1566   2.156   4.374   6.013
  223SOL     OW 1567   6.252   2.499   5.240
  223SOL    HW1 1568   6.301   2.453   5.314
  223SOL    HW2 1569   6.314   2.563   5.194
  224SOL     OW 1570   2.169   1.604   5.880
  224SOL    HW1 1571   2.193   1.701   5.877
  224SOL    HW2 1572   2.231   1.556   5.942
  225SOL     OW 1573   4.912   3.919   6.206
  225SOL    HW1 1574   4.854   3.848   6.167
  225SOL    HW2 1575   4.893   4.006   6.161
  226SOL     OW 1576   1.009   1.807   6.430
  226SOL    HW1 1577   0.936   1.740   6.444
  226SOL    HW2 1578   1.029   1.816   6.333
  227SOL     OW 1579   1.933   3.689   2.385
  227SOL    HW1 1580   1.994   3.679   2.464
  227SOL    HW2 1581   1.957   3.621   2.316
  228SOL     OW 1582   1.734   0.386   2.938
  228SOL    HW1 1583   1.766   0.384   2.843
  228SOL    HW2 1584   1.717   0.293   2.969
  229SOL     OW 1585   5.201   4.807   6.752
  229SOL    HW1 1586   5.297   4.804   6.783
  229SOL    HW2 1587   5.197   4.849   6.662
  230SOL     OW 1588   4.510   6.028   4.852
  230SOL    HW1 1589   4.533   6.113   4.804
  230SOL    HW2 1590   4.531   5.950   4.794
  231SOL     OW 1591   4.910   1.468   0.031
  231SOL    HW1 1592   4.943   1.428   6.970
  231SOL    HW2 1593   4.849   1.403   0.077
  232SOL     OW 1594   1.169   2.236   6.108
  232SOL    HW1 1595   1.185   2.297   6.031
  232SOL    HW2 1596   1.112   2.282   6.176
  233SOL     OW 1597   2.520   1.502   3.597
  233SOL    HW1 1598   2.437   1.457   3.630
  233SOL    HW2 1599   2.596   1.484   3.660
  234SOL     OW 1600   4.947   1.241   6.322
  234SOL    HW1 1601   4.912   1.267   6.412
  234SOL    HW2 1602   4.888   1.279   6.251
  235SOL     OW 1603   4.937   3.040   2.177
  235SOL    HW1 1604   4.851   3.022   2.129
  235SOL    HW2 1605   5.014   3.017   2.118
  236SOL     OW 1606   4.317   3.775   6.384
  236SOL    HW1 1607   4.324   3.723   6.299
  236SOL    HW2 1608   4.233   3.829   6.384
  237SOL     OW 1609   5.803   3.847   2.315
  237SOL    HW1 1610   5.802   3.941   2.280
  237SOL    HW2 1611   5.711   3.808   2.308
  238SOL     OW 1612   6.182   1.493   0.433
  238SOL    HW1 1613   6.119   1.544   0.491
  238SOL    HW2 1614   6.276   1.506   0.465
  239SOL     OW 1615   1.507   3.956   0.484
  239SOL    HW1 1616   1.576   3.922   0.548
  239SOL    HW2 1617   1.439   4.009   0.534
  240SOL     OW 1618   5.990   3.583   3.329
  240SOL    HW1 1619   6.012   3.679   3.314
  240SOL    HW2 1620   6.013   3.558   3.423
  241SOL     OW 1621   2.924   1.365   3.982
  241SOL    HW1 1622   3.006   1.307   3.980
  241SOL    HW2 1623   2.879   1.356   4.071
  242SOL     OW 1624   3.531   4.094   3.748
  242SOL    HW1 1625   3.520   4.081   3.649
  242SOL    HW2 1626   3.441   4.111   3.790
  243SOL     OW 1627   4.717   2.829   6.179
  243SOL    HW1 1628   4.778   2.908   6.170
  243SOL    HW2 1629   4.723   2.794   6.273
  244SOL     OW 1630   6.137   3.470   5.974
  244SOL    HW1 1631   6.126   3.470   5.875
  244SOL    HW2 1632   6.167   3.380   6.005
  245SOL     OW 1633   3.091   1.872   2.685
  245SOL    HW1 1634   3.082   1.798   2.619
  245SOL    HW2 1635   3.085   1.835   2.778
  246SOL     OW 1636   6.029   1.466   3.591
  246SOL    HW1 1637   6.039   1.540   3.525
  246SOL    HW2 1638   6.079   1.489   3.674
  247SOL     OW 1639   2.247   1.583   0.720
  247SOL    HW1 1640   2.319   1.649   0.697
  247SOL    HW2 1641   2.189   1.568   0.639
  248SOL     OW 1642   1.930   1.386   2.362
  248SOL    HW1 1643   1.874   1.366   2.282
  248SOL    HW2 1644   2.025   1.401   2.333
  249SOL     OW 1645   5.548   6.718   4.837
  249SOL    HW1 1646   5.494   6.653   4.783
  249SOL    HW2 1647   5.501   6.807   4.838
  250SOL     OW 1648   3.271   2.921   0.327
  250SOL    HW1 1649   3.249   2.905   0.423
  250SOL    HW2 1650   3.277   2.834   0.279
  251SOL     OW 1651   4.323   3.702   5.433
  251SOL    HW1 1652   4.338   3.674   5.528
  251SOL    HW2 1653   4.411   3.708   5.386
  252SOL     OW 1654   6.213   6.618   5.967
  252SOL    HW1 1655   6.264   6.587   6.047
  252SOL    HW2 1656   6.132   6.561   5.956
  253SOL     OW 1657   4.409   5.338   5.799
  253SOL    HW1 1658   4.448   5.248   5.821
  253SOL    HW2 1659   4.312   5.327   5.777
  254SOL     OW 1660   5.785   2.788   4.315
  254SOL    HW1 1661   5.808   2.695   4.344
  254SOL    HW2 1662   5.717   2.827   4.377
  255SOL     OW 1663   2.241   4.673   6.110
  255SOL    HW1 1664   2.243   4.574   6.126
  255SOL    HW2 1665   2.232   4.691   6.013
  256SOL     OW 1666   4.753   2.997   5.568
  256SOL    HW1 1667   4.788   3.024   5.658
  256SOL    HW2 1668   4.700   3.071   5.529
  257SOL     OW 1669   4.938   6.163   3.241
  257SOL    HW1 1670   4.965   6.221   3.164
  257SOL    HW2 1671   4.880   6.216   3.304
  258SOL     OW 1672   2.711   3.711   6.245
  258SOL    HW1 1673   2.718   3.686   6.148
  258SOL    HW2 1674   2.801   3.738   6.279
  259SOL     OW 1675   4.190   0.086   2.682
  259SOL    HW1 1676   4.123   0.059   2.614
  259SOL    HW2 1677   4.160   0.170   2.728
  260SOL     OW 1678   4.071   5.295   3.638
  260SOL    HW1 1679   4.049   5.201   3.663
  260SOL    HW2 1680   4.133   5.294   3.559
  261SOL     OW 1681   4.668   5.074   0.482
  261SOL    HW1 1682   4.640   5.129   0.560
  261SOL    HW2 1683   4.592   5.017   0.452
  262SOL     OW 1684   2.143   4.276   0.377
  262SOL    HW1 1685   2.055   4.296   0.332
  262SOL    HW2 1686   2.134   4.194   0.433
  263SOL     OW 1687   1.442   6.719   4.071
  263SOL    HW1 1688   1.418   6.744   3.977
  263SOL    HW2 1689   1.496   6.793   4.113
  264SOL     OW 1690   0.134   3.078   6.793
  264SOL    HW1 1691   0.112   3.175   6.780
  264SOL    HW2 1692   0.074   3.039   6.863
  265SOL     OW 1693   5.598   0.231   3.866
  265SOL    HW1 1694   5.652   0.314   3.879
  265SOL    HW2 1695   5.622   0.189   3.779
  266SOL     OW 1696   4.882   2.153   5.428
  266SOL    HW1 1697   4.940   2.105   5.493
  266SOL    HW2 1698   4.896   2.116   5.336
  267SOL     OW 1699   1.293   0.601   5.082
  267SOL    HW1 1700   1.365   0.613   5.014
  267SOL    HW2 1701   1.320   0.647   5.167
  268SOL     OW 1702   3.534   1.122   0.891
  268SOL    HW1 1703   3.506   1.078   0.977
  268SOL    HW2 1704   3.632   1.139   0.893
  269SOL     OW 1705   3.527   2.280   0.287
  269SOL    HW1 1706   3.447   2.247   0.337
  269SOL    HW2 1707   3.497   2.342   0.214
  270SOL     OW 1708   0.057   6.586   0.069
  270SOL    HW1 1709   7.011   6.523   0.101
  270SOL    HW2 1710   0.114   6.540   0.001
  271SOL     OW 1711   0.303   2.059   6.415
  271SOL    HW1 1712   0.402   2.048   6.408
  271SOL    HW2 1713   0.282   2.146   6.460
  272SOL     OW 1714   3.064   6.199   3.734
  272SOL    HW1 1715   3.124   6.269   3.772
  272SOL    HW2 1716   3.107   6.161   3.652
  273SOL     OW 1717   1.915   5.271   5.376
  273SOL    HW1 1718   1.912   5.180   5.335
  273SOL    HW2 1719   2.009   5.306   5.373
  274SOL     OW 1720   4.129   0.929   4.247
  274SOL    HW1 1721   4.034   0.959   4.246
  274SOL    HW2 1722   4.186   0.999   4.290
  275SOL     OW 1723   0.339   6.664   3.054
  275SOL    HW1 1724   0.257   6.700   3.097
  275SOL    HW2 1725   0.415   6.729   3.066
  276SOL     OW 1726   0.025   0.165   4.430
  276SOL    HW1 1727   0.083   0.143   4.352
  276SOL    HW2 1728   0.080   0.160   4.514
  277SOL     OW 1729   2.176   2.868   0.682
  277SOL    HW1 1730   2.099   2.807   0.661
  277SOL    HW2 1731   2.260   2.831   0.641
  278SOL     OW 1732   0.042   2.473   2.560
  278SOL    HW1 1733   6.973   2.505   2.575
  278SOL    HW2 1734   0.050   2.377   2.589
  279SOL     OW 1735   5.674   2.674   4.017
  279SOL    HW1 1736   5.755   2.718   3.979
  279SOL    HW2 1737   5.701   2.613   4.091
  280SOL     OW 1738   1.927   4.953   2.066
  280SOL    HW1 1739   1.981   4.894   2.126
  280SOL    HW2 1740   1.838   4.911   2.049
  281SOL     OW 1741   2.198   3.783   0.879
  281SOL    HW1 1742   2.124   3.807   0.815
  281SOL    HW2 1743   2.245   3.866   0.907
  282SOL     OW 1744   3.280   1.634   5.937
  282SOL    HW1 1745   3.291   1.641   6.036
  282SOL    HW2 1746   3.369   1.636   5.892
  283SOL     OW 1747   5.059   2.957   6.430
  283SOL    HW1 1748   5.158   2.953   6.434
  283SOL    HW2 1749   5.028   2.937   6.337
  284SOL     OW 1750   0.477   3.378   3.794
  284SOL    HW1 1751   0.428   3.304   3.840
  284SOL    HW2 1752   0.427   3.464   3.808
  285SOL     OW 1753   5.844   4.452   3.695
  285SOL    HW1 1754   5.776   4.473   3.624
  285SOL    HW2 1755   5.907   4.529   3.705
  286SOL     OW 1756   3.252   3.868   6.919
  286SOL    HW1 1757   3.314   3.790   6.912
  286SOL    HW2 1758   3.171   3.852   6.863
  287SOL     OW 1759   1.974   3.958   0.967
  287SOL    HW1 1760   2.041   3.964   1.041
  287SOL    HW2 1761   1.953   3.862   0.949
  288SOL     OW 1762   4.777   1.727   6.985
  288SOL    HW1 1763   4.849   1.731   6.916
  288SOL    HW2 1764   4.716   1.650   6.965
  289SOL     OW 1765   2.631   4.608   6.097
  289SOL    HW1 1766   2.571   4.567   6.028
  289SOL    HW2 1767   2.616   4.565   6.185
  290SOL     OW 1768   0.317   2.143   5.926
  290SOL    HW1 1769   0.285   2.100   6.010
  290SOL    HW2 1770   0.325   2.242   5.940
  291SOL     OW 1771   6.844   1.634   2.509
  291SOL    HW1 1772   6.883   1.604   2.421
  291SOL    HW2 1773   6.889   1.719   2.537
  292SOL     OW 1774   2.088   0.720   3.259
  292SOL    HW1 1775   2.088   0.639   3.317
  292SOL    HW2 1776   2.163   0.714   3.193
  293SOL     OW 1777   4.204   5.173   4.340
  293SOL    HW1 1778   4.187   5.081   4.304
  293SOL    HW2 1779   4.298   5.201   4.316
  294SOL     OW 1780   5.400   6.588   6.466
  294SOL    HW1 1781   5.325   6.561   6.527
  294SOL    HW2 1782   5.390   6.540   6.379
  295SOL     OW 1783   4.904   0.833   3.612
  295SOL    HW1 1784   4.814   0.797   3.588
  295SOL    HW2 1785   4.894   0.897   3.688
  296SOL     OW 1786   2.784   2.229   3.663
  296SOL    HW1 1787   2.731   2.313   3.655
  296SOL    HW2 1788   2.721   2.151   3.672
  297SOL     OW 1789   1.492   3.928   3.472
  297SOL    HW1 1790   1.502   3.951   3.375
  297SOL    HW2 1791   1.581   3.902   3.509
  298SOL     OW 1792   6.471   4.900   1.124
  298SOL    HW1 1793   6.473   4.982   1.182
  298SOL    HW2 1794   6.494   4.820   1.179
  299SOL     OW 1795   6.604   2.354   4.842
  299SOL    HW1 1796   6.622   2.302   4.925
  299SOL    HW2 1797   6.687   2.356   4.786
  300SOL     OW 1798   6.010   0.562   3.281
  300SOL    HW1 1799   6.009   0.583   3.379
  300SOL    HW2 1800   6.032   0.646   3.230
  301SOL     OW 1801   5.635   3.790   6.159
  301SOL    HW1 1802   5.569   3.781   6.084
  301SOL    HW2 1803   5.692   3.870   6.143
  302SOL     OW 1804   0.786   6.961   3.854
  302SOL    HW1 1805   0.835   7.024   3.794
  302SOL    HW2 1806   0.754   7.009   3.935
  303SOL     OW 1807   5.127   0.795   3.467
  303SOL    HW1 1808   5.037   0.808   3.509
  303SOL    HW2 1809   5.188   0.869   3.498
  304SOL     OW 1810   2.409   0.255   3.620
  304SOL    HW1 1811   2.366   0.169   3.596
  304SOL    HW2 1812   2.482   0.239   3.687
  305SOL     OW 1813   1.449   3.342   0.669
  305SOL    HW1 1814   1.363   3.299   0.643
  305SOL    HW2 1815   1.449   3.359   0.768
  306SOL     OW 1816   2.065   0.966   3.830
  306SOL    HW1 1817   2.008   1.048   3.818
  306SOL    HW2 1818   2.050   0.904   3.753
  307SOL     OW 1819   3.967   0.447   1.228
  307SOL    HW1 1820   3.879   0.461   1.183
  307SOL    HW2 1821   4.017   0.375   1.180
  308SOL     OW 1822   0.808   5.853   3.870
  308SOL    HW1 1823   0.779   5.946   3.845
  308SOL    HW2 1824   0.757   5.786   3.817
  309SOL     OW 1825   3.483   5.288   5.052
  309SOL    HW1 1826   3.548   5.364   5.055
  309SOL    HW2 1827   3.474   5.256   4.957
  310SOL     OW 1828   0.460   6.548   5.805
  310SOL    HW1 1829   0.369   6.506   5.804
  310SOL    HW2 1830   0.505   6.527   5.892
  311SOL     OW 1831   0.537   6.588   1.125
  311SOL    HW1 1832   0.572   6.565   1.034
  311SOL    HW2 1833   0.466   6.523   1.151
  312SOL     OW 1834   4.779   2.115   4.924
  312SOL    HW1 1835   4.740   2.206   4.942
  312SOL    HW2 1836   4.727   2.071   4.851
  313SOL     OW 1837   1.437   4.000   1.502
  313SOL    HW1 1838   1.494   3.917   1.495
  313SOL    HW2 1839   1.377   3.993   1.582
  314SOL     OW 1840   3.900   6.274   0.698
  314SOL    HW1 1841   3.893   6.178   0.671
  314SOL    HW2 1842   3.863   6.286   0.790
  315SOL     OW 1843   0.492   2.021   3.233
  315SOL    HW1 1844   0.500   2.114   3.198
  315SOL    HW2 1845   0.542   1.958   3.173
  316SOL     OW 1846   2.601   2.510   3.901
  316SOL    HW1 1847   2.571   2.421   3.935
  316SOL    HW2 1848   2.700   2.518   3.913
  317SOL     OW 1849   0.140   1.578   6.727
  317SOL    HW1 1850   0.174   1.566   6.633
  317SOL    HW2 1851   0.217   1.581   6.790
  318SOL     OW 1852   2.327   4.582   0.665
  318SOL    HW1 1853   2.347   4.573   0.762
  318SOL    HW2 1854   2.312   4.491   0.625
  319SOL     OW 1855   1.756   6.207   0.922
  319SOL    HW1 1856   1.841   6.241   0.882
  319SOL    HW2 1857   1.709   6.148   0.855
  320SOL     OW 1858   6.063   3.652   0.464
  320SOL    HW1 1859   5.986   3.589   0.466
  320SOL    HW2 1860   6.138   3.612   0.411
  321SOL     OW 1861   2.020   2.775   1.318
  321SOL    HW1 1862   1.982   2.855   1.364
  321SOL    HW2 1863   2.090   2.734   1.376
  322SOL     OW 1864   3.519   3.152   5.148
  322SOL    HW1 1865   3.510   3.164   5.049
  322SOL    HW2 1866   3.607   3.110   5.169
  323SOL     OW 1867   0.433   4.072   1.894
  323SOL    HW1 1868   0.399   4.127   1.817
  323SOL    HW2 1869   0.493   4.128   1.951
  324SOL     OW 1870   0.794   2.253   4.932
  324SOL    HW1 1871   0.741   2.273   5.014
  324SOL    HW2 1872   0.866   2.321   4.921
  325SOL     OW 1873   2.246   2.546   1.915
  325SOL    HW1 1874   2.290   2.603   1.984
  325SOL    HW2 1875   2.306   2.471   1.890
  326SOL     OW 1876   1.670   5.065   6.610
  326SOL    HW1 1877   1.624   5.050   6.522
  326SOL    HW2 1878   1.604   5.097   6.677
  327SOL     OW 1879   6.342   5.123   5.125
  327SOL    HW1 1880   6.385   5.155   5.209
  327SOL    HW2 1881   6.390   5.042   5.090
  328SOL     OW 1882   3.848   5.324   2.512
  328SOL    HW1 1883   3.761   5.360   2.479
  328SOL    HW2 1884   3.863   5.352   2.606
  329SOL     OW 1885   3.346   3.698   3.133
  329SOL    HW1 1886   3.268   3.665   3.186
  329SOL    HW2 1887   3.324   3.787   3.093
  330SOL     OW 1888   3.461   0.367   1.892
  330SOL    HW1 1889   3.404   0.433   1.940
  330SOL    HW2 1890   3.409   0.284   1.873
  331SOL     OW 1891   5.157   5.374   5.999
  331SOL    HW1 1892   5.194   5.432   5.926
  331SOL    HW2 1893   5.220   5.298   6.016
  332SOL     OW 1894   3.462   1.899   2.743
  332SOL    HW1 1895   3.399   1.892   2.820
  332SOL    HW2 1896   3.416   1.873   2.659
  333SOL     OW 1897   4.156   6.038   6.372
  333SOL    HW1 1898   4.161   6.052   6.273
  333SOL    HW2 1899   4.226   6.092   6.417
  334SOL     OW 1900   4.211   6.933   2.248
  334SOL    HW1 1901   4.298   6.960   2.291
  334SOL    HW2 1902   4.224   6.927   2.149
  335SOL     OW 1903   2.740   6.831   3.400
  335SOL    HW1 1904   2.745   6.930   3.384
  335SOL    HW2 1905   2.739   6.784   3.312
  336SOL     OW 1906   2.758   0.873   3.750
  336SOL    HW1 1907   2.780   0.858   3.654
  336SOL    HW2 1908   2.698   0.953   3.758
  337SOL     OW 1909   6.603   3.864   1.277
  337SOL    HW1 1910   6.634   3.873   1.182
  337SOL    HW2 1911   6.568   3.772   1.292
  338SOL     OW 1912   3.222   3.006   1.271
  338SOL    HW1 1913   3.176   3.044   1.191
  338SOL    HW2 1914   3.168   3.024   1.353
  339SOL     OW 1915   4.414   6.534   3.037
  339SOL    HW1 1916   4.494   6.491   3.079
  339SOL    HW2 1917   4.408   6.505   2.941
  340SOL     OW 1918   4.824   4.039   4.361
  340SOL    HW1 1919   4.827   3.947   4.322
  340SOL    HW2 1920   4.842   4.106   4.289
  341SOL     OW 1921   5.250   5.181   4.464
  341SOL    HW1 1922   5.308   5.250   4.423
  341SOL    HW2 1923   5.300   5.133   4.536
  342SOL     OW 1924   6.386   4.146   0.722
  342SOL    HW1 1925   6.465   4.203   0.744
  342SOL    HW2 1926   6.403   4.098   0.636
  343SOL     OW 1927   3.122   0.313   2.409
  343SOL    HW1 1928   3.194   0.270   2.463
  343SOL    HW2 1929   3.163   0.380   2.347
  344SOL     OW 1930   3.115   5.292   0.851
  344SOL    HW1 1931   3.051   5.245   0.790
  344SOL    HW2 1932   3.109   5.391   0.836
  345SOL     OW 1933   0.937   6.871   5.115
  345SOL    HW1 1934   0.995   6.952   5.109
  345SOL    HW2 1935   0.841   6.899   5.110
  346SOL     OW 1936   1.345   0.197   3.026
  346SOL    HW1 1937   1.396   0.236   3.103
  346SOL    HW2 1938   1.389   0.224   2.940
  347SOL     OW 1939   5.029   6.721   6.473
  347SOL    HW1 1940   4.977   6.750   6.553
  347SOL    HW2 1941   5.018   6.788   6.400
  348SOL     OW 1942   3.847   5.461   1.849
  348SOL    HW1 1943   3.859   5.412   1.762
  348SOL    HW2 1944   3.760   5.511   1.846
  349SOL     OW 1945   1.286   4.671   2.038
  349SOL    HW1 1946   1.200   4.712   2.007
  349SOL    HW2 1947   1.354   4.742   2.051
  350SOL     OW 1948   4.609   3.391   1.226
  350SOL    HW1 1949   4.532   3.347   1.180
  350SOL    HW2 1950   4.647   3.329   1.294
  351SOL     OW 1951   3.487   1.938   0.447
  351SOL    HW1 1952   3.482   1.993   0.530
  351SOL    HW2 1953   3.583   1.925   0.422
  352SOL     OW 1954   2.938   0.642   6.774
  352SOL    HW1 1955   2.927   0.594   6.861
  352SOL    HW2 1956   2.895   0.732   6.781
  353SOL     OW 1957   2.371   6.192   1.485
  353SOL    HW1 1958   2.293   6.132   1.502
  353SOL    HW2 1959   2.413   6.218   1.572
  354SOL     OW 1960   5.039   1.628   1.298
  354SOL    HW1 1961   4.988   1.666   1.221
  354SOL    HW2 1962   4.985   1.556   1.341
  355SOL     OW 1963   0.245   2.412   2.364
  355SOL    HW1 1964   0.340   2.416   2.394
  355SOL    HW2 1965   0.185   2.448   2.436
  356SOL     OW 1966   4.253   5.472   3.751
  356SOL    HW1 1967   4.332   5.428   3.795
  356SOL    HW2 1968   4.196   5.402   3.709
  357SOL     OW 1969   0.325   5.058   5.419
  357SOL    HW1 1970   0.271   5.040   5.337
  357SOL    HW2 1971   0.293   5.142   5.462
  358SOL     OW 1972   5.666   0.471   1.482
  358SOL    HW1 1973   5.732   0.399   1.505
  358SOL    HW2 1974   5.713   0.559   1.478
  359SOL     OW 1975   1.404   1.565   2.069
  359SOL    HW1 1976   1.328   1.546   2.007
  359SOL    HW2 1977   1.468   1.488   2.067
  360SOL     OW 1978   4.183   6.732   0.287
  360SOL    HW1 1979   4.236   6.651   0.312
  360SOL    HW2 1980   4.219   6.811   0.336
  361SOL     OW 1981   4.617   0.145   2.685
  361SOL    HW1 1982   4.536   0.204   2.685
  361SOL    HW2 1983   4.660   0.148   2.595
  362SOL     OW 1984   3.097   3.367   0.866
  362SOL    HW1 1985   3.073   3.384   0.770
  362SOL    HW2 1986   3.155   3.441   0.899
  363SOL     OW 1987   4.243   4.702   4.100
  363SOL    HW1 1988   4.149   4.729   4.119
  363SOL    HW2 1989   4.289   4.677   4.185
  364SOL     OW 1990   1.225   5.431   5.885
  364SOL    HW1 1991   1.244   5.525   5.857
  364SOL    HW2 1992   1.267   5.414   5.975
  365SOL     OW 1993   4.474   6.460   1.824
  365SOL    HW1 1994   4.523   6.479   1.739
  365SOL    HW2 1995   4.411   6.384   1.810
  366SOL     OW 1996   5.703   0.616   6.992
  366SOL    HW1 1997   5.724   0.563   0.050
  366SOL    HW2 1998   5.632   0.569   6.939
  367SOL     OW 1999   5.243   2.915   0.923
  367SOL    HW1 2000   5.199   2.838   0.875
  367SOL    HW2 2001   5.305   2.879   0.992
  368SOL     OW 2002   1.098   4.774   5.190
  368SOL    HW1 2003   1.140   4.846   5.133
  368SOL    HW2 2004   1.159   4.695   5.193
  369SOL     OW 2005   1.027   3.671   2.297
  369SOL    HW1 2006   1.023   3.751   2.237
  369SOL    HW2 2007   0.947   3.671   2.358
  370SOL     OW 2008   3.719   1.378   6.043
  370SOL    HW1 2009   3.781   1.447   6.082
  370SOL    HW2 2010   3.699   1.402   5.948
  371SOL     OW 2011   4.038   2.834   6.575
  371SOL    HW1 2012   4.017   2.742   6.609
  371SOL    HW2 2013   4.115   2.872   6.627
  372SOL     OW 2014   0.648   6.160   6.289
  372SOL    HW1 2015   0.640   6.253   6.324
  372SOL    HW2 2016   0.722   6.113   6.337
  373SOL     OW 2017   0.061   6.701   0.364
  373SOL    HW1 2018   0.073   6.633   0.291
  373SOL    HW2 2019   0.141   6.761   0.368
  374SOL     OW 2020   3.198   0.904   1.374
  374SOL    HW1 2021   3.183   0.963   1.453
  374SOL    HW2 2022   3.286   0.926   1.332
  375SOL     OW 2023   0.107   4.598   2.976
  375SOL    HW1 2024   0.176   4.670   2.987
  375SOL    HW2 2025   0.143   4.527   2.915
  376SOL     OW 2026   2.158   2.804   3.730
  376SOL    HW1 2027   2.242   2.752   3.748
  376SOL    HW2 2028   2.156   2.885   3.789
  377SOL     OW 2029   4.888   1.682   3.892
  377SOL    HW1 2030   4.919   1.663   3.799
  377SOL    HW2 2031   4.896   1.780   3.910
  378SOL     OW 2032   5.057   2.961   4.904
  378SOL    HW1 2033   5.029   2.964   5.000
  378SOL    HW2 2034   5.128   2.892   4.892
  379SOL     OW 2035   6.384   3.437   1.141
  379SOL    HW1 2036   6.404   3.340   1.154
  379SOL    HW2 2037   6.300   3.461   1.191
  380SOL     OW 2038   0.809   2.222   0.727
  380SOL    HW1 2039   0.845   2.166   0.802
  380SOL    HW2 2040   0.842   2.186   0.640
  381SOL     OW 2041   3.491   3.584   0.929
  381SOL    HW1 2042   3.561   3.527   0.972
  381SOL    HW2 2043   3.404   3.571   0.977
  382SOL     OW 2044   2.854   6.045   0.618
  382SOL    HW1 2045   2.917   6.078   0.547
  382SOL    HW2 2046   2.840   5.947   0.606
  383SOL     OW 2047   6.350   2.638   0.021
  383SOL    HW1 2048   6.404   2.555   0.011
  383SOL    HW2 2049   6.407   2.710   0.060
  384SOL     OW 2050   1.735   5.659   5.519
  384SOL    HW1 2051   1.717   5.564   5.494
  384SOL    HW2 2052   1.745   5.714   5.436
  385SOL     OW 2053   4.653   5.419   0.617
  385SOL    HW1 2054   4.633   5.328   0.653
  385SOL    HW2 2055   4.746   5.446   0.643
  386SOL     OW 2056   3.314   6.404   5.701
  386SOL    HW1 2057   3.310   6.486   5.644
  386SOL    HW2 2058   3.410   6.384   5.723
  387SOL     OW 2059   0.287   0.449   5.195
  387SOL    HW1 2060   0.386   0.450   5.206
  387SOL    HW2 2061   0.264   0.402   5.109
  388SOL     OW 2062   6.936   2.295   4.806
  388SOL    HW1 2063   0.008   2.270   4.794
  388SOL    HW2 2064   6.887   2.219   4.850
  389SOL     OW 2065   4.208   4.499   1.535
  389SOL    HW1 2066   4.291   4.526   1.486
  389SOL    HW2 2067   4.223   4.413   1.583
  390SOL     OW 2068   3.696   2.076   0.288
  390SOL    HW1 2069   3.636   2.155   0.275
  390SOL    HW2 2070   3.754   2.065   0.208
  391SOL     OW 2071   3.141   4.369   5.368
  391SOL    HW1 2072   3.094   4.313   5.299
  391SOL    HW2 2073   3.146   4.464   5.336
  392SOL     OW 2074   1.315   3.720   1.850
  392SOL    HW1 2075   1.399   3.772   1.835
  392SOL    HW2 2076   1.275   3.745   1.938
  393SOL     OW 2077   1.166   4.226   1.587
  393SOL    HW1 2078   1.233   4.295   1.612
  393SOL    HW2 2079   1.181   4.143   1.642
  394SOL     OW 2080   6.926   1.018   6.558
  394SOL    HW1 2081   6.841   0.966   6.545
  394SOL    HW2 2082   6.932   1.047   6.653
  395SOL     OW 2083   5.471   4.544   0.983
  395SOL    HW1 2084   5.424   4.513   0.900
  395SOL    HW2 2085   5.565   4.508   0.983
  396SOL     OW 2086   2.059   1.043   1.487
  396SOL    HW1 2087   1.991   0.975   1.458
  396SOL    HW2 2088   2.034   1.133   1.451
  397SOL     OW 2089   4.182   2.017   5.269
  397SOL    HW1 2090   4.215   2.063   5.186
  397SOL    HW2 2091   4.130   2.082   5.325
  398SOL     OW 2092   1.453   1.388   4.176
  398SOL    HW1 2093   1.552   1.384   4.169
  398SOL    HW2 2094   1.413   1.370   4.086
  399SOL     OW 2095   5.734   6.489   4.002
  399SOL    HW1 2096   5.809   6.460   3.942
  399SOL    HW2 2097   5.662   6.532   3.948
  400SOL     OW 2098   5.852   0.357   4.388
  400SOL    HW1 2099   5.840   0.260   4.368
  400SOL    HW2 2100   5.948   0.375   4.407
  401SOL     OW 2101   0.351   5.010   5.769
  401SOL    HW1 2102   0.258   4.972   5.768
  401SOL    HW2 2103   0.347   5.105   5.801
  402SOL     OW 2104   5.848   1.437   3.284
  402SOL    HW1 2105   5.879   1.455   3.190
  402SOL    HW2 2106   5.785   1.509   3.312
  403SOL     OW 2107   3.050   1.200   5.271
  403SOL    HW1 2108   3.128   1.262   5.274
  403SOL    HW2 2109   2.965   1.253   5.272
  404SOL     OW 2110   3.424   5.329   3.699
  404SOL    HW1 2111   3.341   5.297   3.742
  404SOL    HW2 2112   3.502   5.274   3.729
  405SOL     OW 2113   2.060   4.830   4.001
  405SOL    HW1 2114   2.016   4.746   4.033
  405SOL    HW2 2115   2.153   4.835   4.036
  406SOL     OW 2116   0.108   6.098   5.397
  406SOL    HW1 2117   0.169   6.024   5.425
  406SOL    HW2 2118   0.163   6.177   5.368
  407SOL     OW 2119   1.918   3.054   4.348
  407SOL    HW1 2120   2.011   3.026   4.370
  407SOL    HW2 2121   1.864   3.060   4.432
  408SOL     OW 2122   2.259   1.629   3.643
  408SOL    HW1 2123   2.252   1.531   3.625
  408SOL    HW2 2124   2.232   1.681   3.562
  409SOL     OW 2125   0.415   3.456   2.556
  409SOL    HW1 2126   0.455   3.408   2.479
  409SOL    HW2 2127   0.374   3.390   2.619
  410SOL     OW 2128   1.304   1.260   1.231
  410SOL    HW1 2129   1.267   1.191   1.294
  410SOL    HW2 2130   1.399   1.279   1.254
  411SOL     OW 2131   6.976   2.993   1.599
  411SOL    HW1 2132   6.991   2.895   1.610
  411SOL    HW2 2133   0.034   3.042   1.627
  412SOL     OW 2134   1.244   5.156   2.442
  412SOL    HW1 2135   1.274   5.064   2.419
  412SOL    HW2 2136   1.159   5.151   2.495
  413SOL     OW 2137   5.908   6.050   2.445
  413SOL    HW1 2138   5.899   5.964   2.495
  413SOL    HW2 2139   5.836   6.113   2.474
  414SOL     OW 2140   1.689   6.381   3.059
  414SOL    HW1 2141   1.647   6.468   3.087
  414SOL    HW2 2142   1.661   6.360   2.965
  415SOL     OW 2143   6.173   0.917   0.480
  415SOL    HW1 2144   6.166   0.942   0.383
  415SOL    HW2 2145   6.223   0.831   0.489
  416SOL     OW 2146   5.255   3.572   5.049
  416SOL    HW1 2147   5.169   3.524   5.070
  416SOL    HW2 2148   5.297   3.603   5.134
  417SOL     OW 2149   2.014   1.872   6.321
  417SOL    HW1 2150   2.104   1.828   6.309
  417SOL    HW2 2151   1.943   1.812   6.284
  418SOL     OW 2152   4.097   6.972   4.661
  418SOL    HW1 2153   4.094   0.026   4.599
  418SOL    HW2 2154   4.013   6.970   4.715
  419SOL     OW 2155   0.226   6.969   0.536
  419SOL    HW1 2156   0.169   6.956   0.617
  419SOL    HW2 2157   0.304   0.003   0.560
  420SOL     OW 2158   4.097   0.720   6.761
  420SOL    HW1 2159   4.020   0.769   6.802
  420SOL    HW2 2160   4.171   0.785   6.742
  421SOL     OW 2161   5.053   4.106   2.592
  421SOL    HW1 2162   5.088   4.064   2.508
  421SOL    HW2 2163   5.002   4.189   2.569
  422SOL     OW 2164   5.452   2.592   1.449
  422SOL    HW1 2165   5.371   2.641   1.480
  422SOL    HW2 2166   5.520   2.590   1.522
  423SOL     OW 2167   3.695   0.866   6.500
  423SOL    HW1 2168   3.629   0.807   6.454
  423SOL    HW2 2169   3.696   0.956   6.455
  424SOL     OW 2170   1.335   3.851   4.287
  424SOL    HW1 2171   1.243   3.851   4.325
  424SOL    HW2 2172   1.395   3.796   4.346
  425SOL     OW 2173   3.015   0.917   6.553
  425SOL    HW1 2174   2.957   0.849   6.508
  425SOL    HW2 2175   3.085   0.870   6.607
  426SOL     OW 2176   2.595   2.141   4.232
  426SOL    HW1 2177   2.599   2.042   4.244
  426SOL    HW2 2178   2.638   2.186   4.310
  427SOL     OW 2179   4.136   2.173   2.964
  427SOL    HW1 2180   4.088   2.151   2.879
  427SOL    HW2 2181   4.181   2.091   2.999
  428SOL     OW 2182   2.632   2.167   5.940
  428SOL    HW1 2183   2.712   2.227   5.941
  428SOL    HW2 2184   2.660   2.074   5.964
  429SOL     OW 2185   0.137   5.585   4.094
  429SOL    HW1 2186   0.189   5.655   4.144
  429SOL    HW2 2187   0.064   5.550   4.151
  430SOL     OW 2188   1.430   0.021   3.602
  430SOL    HW1 2189   1.514   0.074   3.592
  430SOL    HW2 2190   1.408   7.001   3.515
  431SOL     OW 2191   2.198   1.886   1.716
  431SOL    HW1 2192   2.284   1.893   1.665
  431SOL    HW2 2193   2.125   1.930   1.663
  432SOL     OW 2194   4.864   1.919   1.354
  432SOL    HW1 2195   4.944   1.880   1.400
  432SOL    HW2 2196   4.892   1.999   1.301
  433SOL     OW 2197   1.470   5.376   1.017
  433SOL    HW1 2198   1.487   5.466   1.057
  433SOL    HW2 2199   1.513   5.305   1.074
  434SOL     OW 2200   4.793   5.653   3.775
  434SOL    HW1 2201   4.737   5.666   3.693
  434SOL    HW2 2202   4.888   5.636   3.749
  435SOL     OW 2203   3.703   1.866   5.767
  435SOL    HW1 2204   3.694   1.910   5.856
  435SOL    HW2 2205   3.798   1.836   5.754
  436SOL     OW 2206   4.730   6.664   2.953
  436SOL    HW1 2207   4.710   6.757   2.922
  436SOL    HW2 2208   4.720   6.660   3.053
  437SOL     OW 2209   6.326   0.814   4.956
  437SOL    HW1 2210   6.360   0.854   4.871
  437SOL    HW2 2211   6.399   0.814   5.025
  438SOL     OW 2212   0.300   4.663   2.306
  438SOL    HW1 2213   0.341   4.582   2.347
  438SOL    HW2 2214   0.201   4.652   2.302
  439SOL     OW 2215   0.014   0.695   4.701
  439SOL    HW1 2216   0.010   0.774   4.763
  439SOL    HW2 2217   6.984   0.620   4.739
  440SOL     OW 2218   4.303   1.593   0.556
  440SOL    HW1 2219   4.396   1.621   0.531
  440SOL    HW2 2220   4.271   1.649   0.633
  441SOL     OW 2221   0.403   4.438   2.520
  441SOL    HW1 2222   0.415   4.523   2.572
  441SOL    HW2 2223   0.491   4.395   2.505
  442SOL     OW 2224   5.576   2.717   5.533
  442SOL    HW1 2225   5.596   2.790   5.468
  442SOL    HW2 2226   5.568   2.756   5.625
  443SOL     OW 2227   5.158   2.984   2.014
  443SOL    HW1 2228   5.179   3.012   1.920
  443SOL    HW2 2229   5.237   2.939   2.054
  444SOL     OW 2230   4.410   1.599   1.884
  444SOL    HW1 2231   4.343   1.633   1.950
  444SOL    HW2 2232   4.489   1.561   1.932
  445SOL     OW 2233   1.453   5.113   2.727
  445SOL    HW1 2234   1.421   5.128   2.633
  445SOL    HW2 2235   1.375   5.105   2.788
  446SOL     OW 2236   5.817   6.942   1.386
  446SOL    HW1 2237   5.761   6.931   1.468
  446SOL    HW2 2238   5.851   6.852   1.357
  447SOL     OW 2239   5.882   4.647   0.678
  447SOL    HW1 2240   5.940   4.599   0.743
  447SOL    HW2 2241   5.939   4.691   0.608
  448SOL     OW 2242   3.020   6.811   3.448
  448SOL    HW1 2243   3.069   6.865   3.379
  448SOL    HW2 2244   2.922   6.813   3.429
  449SOL     OW 2245   1.454   3.612   4.953
  449SOL    HW1 2246   1.531   3.675   4.960
  449SOL    HW2 2247   1.428   3.582   5.045
  450SOL     OW 2248   7.022   5.064   3.682
  450SOL    HW1 2249   6.928   5.094   3.667
  450SOL    HW2 2250   0.008   4.970   3.648
  451SOL     OW 2251   0.891   1.960   1.430
  451SOL    HW1 2252   0.835   2.004   1.360
  451SOL    HW2 2253   0.981   1.937   1.391
  452SOL     OW 2254   4.721   5.535   2.336
  452SOL    HW1 2255   4.718   5.501   2.242
  452SOL    HW2 2256   4.723   5.635   2.336
  453SOL     OW 2257   3.357   0.890   6.561
  453SOL    HW1 2258   3.301   0.817   6.600
  453SOL    HW2 2259   3.450   0.885   6.598
  454SOL     OW 2260   6.594   3.438   6.250
  454SOL    HW1 2261   6.516   3.450   6.311
  454SOL    HW2 2262   6.677   3.427   6.304
  455SOL     OW 2263   5.512   4.983   5.647
  455SOL    HW1 2264   5.535   5.009   5.553
  455SOL    HW2 2265   5.452   5.052   5.687
  456SOL     OW 2266   2.668   1.261   2.878
  456SOL    HW1 2267   2.573   1.282   2.899
  456SOL    HW2 2268   2.694   1.176   2.924
  457SOL     OW 2269   2.343   6.637   0.228
  457SOL    HW1 2270   2.388   6.725   0.213
  457SOL    HW2 2271   2.306   6.634   0.321
  458SOL     OW 2272   2.907   1.941   3.137
  458SOL    HW1 2273   2.910   1.875   3.062
  458SOL    HW2 2274   2.873   1.897   3.220
  459SOL     OW 2275   3.854   0.375   3.342
  459SOL    HW1 2276   3.875   0.433   3.263
  459SOL    HW2 2277   3.879   0.280   3.321
  460SOL     OW 2278   0.812   1.537   6.241
  460SOL    HW1 2279   0.827   1.599   6.164
  460SOL    HW2 2280   0.713   1.523   6.254
  461SOL     OW 2281   1.307   4.853   5.532
  461SOL    HW1 2282   1.266   4.906   5.606
  461SOL    HW2 2283   1.238   4.795   5.489
  462SOL     OW 2284   3.756   4.051   4.621
  462SOL    HW1 2285   3.796   4.084   4.706
  462SOL    HW2 2286   3.658   4.036   4.634
  463SOL     OW 2287   5.126   6.251   3.624
  463SOL    HW1 2288   5.201   6.256   3.558
  463SOL    HW2 2289   5.100   6.155   3.638
  464SOL     OW 2290   4.119   5.154   6.550
  464SOL    HW1 2291   4.114   5.102   6.465
  464SOL    HW2 2292   4.158   5.244   6.531
  465SOL     OW 2293   0.820   3.842   1.256
  465SOL    HW1 2294   0.833   3.935   1.221
  465SOL    HW2 2295   0.903   3.789   1.242
  466SOL     OW 2296   4.034   5.310   4.762
  466SOL    HW1 2297   4.029   5.215   4.732
  466SOL    HW2 2298   3.996   5.318   4.855
  467SOL     OW 2299   6.137   6.927   2.134
  467SOL    HW1 2300   6.049   6.888   2.161
  467SOL    HW2 2301   6.149   7.016   2.179
  468SOL     OW 2302   2.988   6.365   6.215
  468SOL    HW1 2303   3.026   6.287   6.266
  468SOL    HW2 2304   2.888   6.363   6.222
  469SOL     OW 2305   3.055   4.881   4.600
  469SOL    HW1 2306   3.021   4.830   4.522
  469SOL    HW2 2307   3.029   4.977   4.592
  470SOL     OW 2308   2.366   4.334   2.825
  470SOL    HW1 2309   2.344   4.259   2.763
  470SOL    HW2 2310   2.295   4.404   2.819
  471SOL     OW 2311   1.509   2.365   4.217
  471SOL    HW1 2312   1.570   2.401   4.288
  471SOL    HW2 2313   1.436   2.430   4.199
  472SOL     OW 2314   5.602   3.578   6.544
  472SOL    HW1 2315   5.542   3.572   6.623
  472SOL    HW2 2316   5.582   3.662   6.493
  473SOL     OW 2317   6.338   2.815   1.817
  473SOL    HW1 2318   6.259   2.865   1.782
  473SOL    HW2 2319   6.365   2.744   1.751
  474SOL     OW 2320   4.710   6.087   4.366
  474SOL    HW1 2321   4.748   6.178   4.383
  474SOL    HW2 2322   4.690   6.043   4.454
  475SOL     OW 2323   5.824   1.513   0.359
  475SOL    HW1 2324   5.853   1.505   0.454
  475SOL    HW2 2325   5.879   1.451   0.303
  476SOL     OW 2326   1.166   4.082   0.664
  476SOL    HW1 2327   1.258   4.119   0.648
  476SOL    HW2 2328   1.105   4.112   0.591
  477SOL     OW 2329   1.689   4.807   3.866
  477SOL    HW1 2330   1.704   4.776   3.960
  477SOL    HW2 2331   1.648   4.899   3.868
  478SOL     OW 2332   5.005   6.136   2.399
  478SOL    HW1 2333   5.058   6.052   2.412
  478SOL    HW2 2334   4.984   6.147   2.302
  479SOL     OW 2335   3.266   4.111   3.306
  479SOL    HW1 2336   3.260   4.039   3.375
  479SOL    HW2 2337   3.180   4.163   3.305
  480SOL     OW 2338   1.139   0.715   2.791
  480SOL    HW1 2339   1.197   0.634   2.792
  480SOL    HW2 2340   1.055   0.696   2.740
  481SOL     OW 2341   0.332   6.770   0.372
  481SOL    HW1 2342   0.310   6.843   0.436
  481SOL    HW2 2343   0.431   6.766   0.358
  482SOL     OW 2344   4.147   4.824   2.088
  482SOL    HW1 2345   4.064   4.777   2.057
  482SOL    HW2 2346   4.189   4.772   2.163
  483SOL     OW 2347   5.961   2.489   3.959
  483SOL    HW1 2348   5.938   2.452   4.049
  483SOL    HW2 2349   5.998   2.416   3.902
  484SOL     OW 2350   2.722   4.841   3.690
  484SOL    HW1 2351   2.701   4.751   3.651
  484SOL    HW2 2352   2.641   4.878   3.734
  485SOL     OW 2353   5.633   2.921   1.233
  485SOL    HW1 2354   5.595   2.939   1.324
  485SOL    HW2 2355   5.657   3.008   1.189
  486SOL     OW 2356   5.825   6.139   6.496
  486SOL    HW1 2357   5.839   6.182   6.407
  486SOL    HW2 2358   5.738   6.088   6.495
  487SOL     OW 2359   0.121   6.711   5.707
  487SOL    HW1 2360   0.155   6.643   5.772
  487SOL    HW2 2361   0.074   6.666   5.632
  488SOL     OW 2362   2.081   5.548   3.590
  488SOL    HW1 2363   1.999   5.517   3.640
  488SOL    HW2 2364   2.075   5.518   3.495
  489SOL     OW 2365   1.970   5.621   6.123
  489SOL    HW1 2366   2.036   5.584   6.058
  489SOL    HW2 2367   2.014   5.634   6.212
  490SOL     OW 2368   0.824   4.045   4.441
  490SOL    HW1 2369   0.748   3.984   4.419
  490SOL    HW2 2370   0.846   4.037   4.538
  491SOL     OW 2371   0.233   2.871   0.295
  491SOL    HW1 2372   0.229   2.932   0.215
  491SOL    HW2 2373   0.205   2.922   0.376
  492SOL     OW 2374   1.193   2.520   5.876
  492SOL    HW1 2375   1.124   2.567   5.930
  492SOL    HW2 2376   1.258   2.587   5.839
  493SOL     OW 2377   1.956   5.429   4.816
  493SOL    HW1 2378   2.056   5.420   4.822
  493SOL    HW2 2379   1.915   5.339   4.803
  494SOL     OW 2380   2.630   6.958   4.398
  494SOL    HW1 2381   2.713   6.952   4.452
  494SOL    HW2 2382   2.652   6.945   4.301
  495SOL     OW 2383   3.646   4.049   6.493
  495SOL    HW1 2384   3.703   4.129   6.507
  495SOL    HW2 2385   3.553   4.078   6.471
  496SOL     OW 2386   4.898   1.509   2.996
  496SOL    HW1 2387   4.971   1.551   3.051
  496SOL    HW2 2388   4.905   1.542   2.902
  497SOL     OW 2389   4.757   1.591   0.359
  497SOL    HW1 2390   4.741   1.611   0.263
  497SOL    HW2 2391   4.778   1.494   0.370
  498SOL     OW 2392   0.078   6.832   1.086
  498SOL    HW1 2393   0.013   6.765   1.050
  498SOL    HW2 2394   0.068   6.840   1.185
  499SOL     OW 2395   3.023   6.117   0.421
  499SOL    HW1 2396   3.069   6.063   0.350
  499SOL    HW2 2397   2.994   6.205   0.382
  500SOL     OW 2398   5.505   2.008   6.969
  500SOL    HW1 2399   5.563   2.083   6.937
  500SOL    HW2 2400   5.436   1.986   6.900
  501SOL     OW 2401   0.968   1.312   4.666
  501SOL    HW1 2402   1.037   1.384   4.655
  501SOL    HW2 2403   1.007   1.236   4.718
  502SOL     OW 2404   2.682   4.287   6.772
  502SOL    HW1 2405   2.587   4.257   6.757
  502SOL    HW2 2406   2.722   4.234   6.846
  503SOL     OW 2407   3.841   5.007   0.752
  503SOL    HW1 2408   3.749   5.038   0.731
  503SOL    HW2 2409   3.902   5.086   0.759
  504SOL     OW 2410   6.777   5.945   1.417
  504SOL    HW1 2411   6.824   5.868   1.373
  504SOL    HW2 2412   6.839   5.989   1.482
  505SOL     OW 2413   4.945   5.657   5.469
  505SOL    HW1 2414   4.857   5.704   5.463
  505SOL    HW2 2415   4.990   5.659   5.379
  506SOL     OW 2416   4.059   5.108   2.624
  506SOL    HW1 2417   4.116   5.081   2.547
  506SOL    HW2 2418   3.974   5.055   2.623
  507SOL     OW 2419   3.154   0.681   1.513
  507SOL    HW1 2420   3.182   0.711   1.604
  507SOL    HW2 2421   3.178   0.750   1.446
  508SOL     OW 2422   0.374   4.057   2.830
  508SOL    HW1 2423   0.443   3.993   2.864
  508SOL    HW2 2424   0.297   4.060   2.893
  509SOL     OW 2425   4.484   0.573   5.861
  509SOL    HW1 2426   4.553   0.645   5.858
  509SOL    HW2 2427   4.526   0.485   5.837
  510SOL     OW 2428   6.589   3.758   6.907
  510SOL    HW1 2429   6.560   3.703   6.829
  510SOL    HW2 2430   6.510   3.778   6.964
  511SOL     OW 2431   0.492   2.047   0.613
  511SOL    HW1 2432   0.402   2.022   0.577
  511SOL    HW2 2433   0.510   1.998   0.698
  512SOL     OW 2434   0.534   2.203   3.927
  512SOL    HW1 2435   0.565   2.108   3.932
  512SOL    HW2 2436   0.561   2.243   3.840
  513SOL     OW 2437   5.000   1.008   3.134
  513SOL    HW1 2438   5.062   0.930   3.133
  513SOL    HW2 2439   5.052   1.093   3.135
  514SOL     OW 2440   5.549   0.946   4.683
  514SOL    HW1 2441   5.597   0.904   4.760
  514SOL    HW2 2442   5.565   0.892   4.601
  515SOL     OW 2443   3.918   0.305   5.794
  515SOL    HW1 2444   3.861   0.380   5.762
  515SOL    HW2 2445   4.005   0.306   5.745
  516SOL     OW 2446   2.241   6.112   2.495
  516SOL    HW1 2447   2.278   6.128   2.403
  516SOL    HW2 2448   2.305   6.056   2.547
  517SOL     OW 2449   3.075   5.715   1.585
  517SOL    HW1 2450   3.045   5.702   1.490
  517SOL    HW2 2451   3.009   5.772   1.633
  518SOL     OW 2452   2.015   3.964   4.339
  518SOL    HW1 2453   2.084   3.987   4.270
  518SOL    HW2 2454   2.045   3.885   4.392
  519SOL     OW 2455   6.808   0.478   1.946
  519SOL    HW1 2456   6.857   0.554   1.988
  519SOL    HW2 2457   6.841   0.464   1.853
  520SOL     OW 2458   1.998   4.167   0.777
  520SOL    HW1 2459   1.948   4.158   0.691
  520SOL    HW2 2460   1.972   4.091   0.838
  521SOL     OW 2461   6.625   6.370   5.016
  521SOL    HW1 2462   6.661   6.291   4.968
  521SOL    HW2 2463   6.682   6.450   4.998
  522SOL     OW 2464   3.678   4.594   1.354
  522SOL    HW1 2465   3.745   4.650   1.403
  522SOL    HW2 2466   3.706   4.498   1.358
  523SOL     OW 2467   0.958   0.172   0.788
  523SOL    HW1 2468   0.973   0.220   0.875
  523SOL    HW2 2469   0.867   0.192   0.754
  524SOL     OW 2470   6.444   1.898   1.423
  524SOL    HW1 2471   6.377   1.973   1.429
  524SOL    HW2 2472   6.518   1.917   1.487
  525SOL     OW 2473   0.674   3.307   4.696
  525SOL    HW1 2474   0.599   3.310   4.630
  525SOL    HW2 2475   0.751   3.257   4.657
  526SOL     OW 2476   3.671   0.210   3.783
  526SOL    HW1 2477   3.718   0.298   3.790
  526SOL    HW2 2478   3.734   0.142   3.745
  527SOL     OW 2479   0.369   1.398   0.538
  527SOL    HW1 2480   0.275   1.365   0.535
  527SOL    HW2 2481   0.410   1.374   0.626
  528SOL     OW 2482   6.865   2.757   4.596
  528SOL    HW1 2483   6.860   2.804   4.508
  528SOL    HW2 2484   6.786   2.696   4.606
  529SOL     OW 2485   1.850   7.008   7.002
  529SOL    HW1 2486   1.949   7.011   7.015
  529SOL    HW2 2487   1.819   6.913   7.001
  530SOL     OW 2488   3.430   4.638   0.908
  530SOL    HW1 2489   3.367   4.639   0.986
  530SOL    HW2 2490   3.386   4.678   0.828
  531SOL     OW 2491   1.924   0.329   0.449
  531SOL    HW1 2492   1.894   0.367   0.361
  531SOL    HW2 2493   1.917   0.229   0.446
  532SOL     OW 2494   1.372   2.375   6.317
  532SOL    HW1 2495   1.338   2.321   6.240
  532SOL    HW2 2496   1.350   2.471   6.302
  533SOL     OW 2497   3.958   0.219   4.131
  533SOL    HW1 2498   3.950   0.312   4.097
  533SOL    HW2 2499   4.054   0.190   4.127
  534SOL     OW 2500   2.185   4.126   2.152
  534SOL    HW1 2501   2.167   4.118   2.054
  534SOL    HW2 2502   2.264   4.185   2.166
  535SOL     OW 2503   4.938   3.451   3.889
  535SOL    HW1 2504   4.903   3.421   3.977
  535SOL    HW2 2505   5.037   3.457   3.893
  536SOL     OW 2506   6.559   6.982   2.126
  536SOL    HW1 2507   6.561   7.015   2.221
  536SOL    HW2 2508   6.614   0.018   2.069
  537SOL     OW 2509   2.888   1.870   3.662
  537SOL    HW1 2510   2.963   1.932   3.638
  537SOL    HW2 2511   2.801   1.911   3.634
  538SOL     OW 2512   3.534   4.928   5.191
  538SOL    HW1 2513   3.478   4.881   5.123
  538SOL    HW2 2514   3.480   4.943   5.274
  539SOL     OW 2515   0.859   6.964   0.261
  539SOL    HW1 2516   0.915   0.003   0.208
  539SOL    HW2 2517   0.908   6.877   0.271
  540SOL     OW 2518   1.214   0.561   3.964
  540SOL    HW1 2519   1.170   0.478   3.929
  540SOL    HW2 2520   1.196   0.568   4.063
  541SOL     OW 2521   4.736   5.612   4.061
  541SOL    HW1 2522   4.818   5.601   4.118
  541SOL    HW2 2523   4.763   5.640   3.969
  542SOL     OW 2524   3.541   0.531   5.311
  542SOL    HW1 2525   3.551   0.517   5.212
  542SOL    HW2 2526   3.609   0.477   5.360
  543SOL     OW 2527   6.553   2.192   3.839
  543SOL    HW1 2528   6.581   2.261   3.905
  543SOL    HW2 2529   6.454   2.183   3.841
  544SOL     OW 2530   1.530   3.482   1.587
  544SOL    HW1 2531   1.615   3.516   1.548
  544SOL    HW2 2532   1.465   3.462   1.514
  545SOL     OW 2533   6.074   7.021   1.607
  545SOL    HW1 2534   6.102   6.925   1.602
  545SOL    HW2 2535   5.990   0.010   1.554
  546SOL     OW 2536   0.126   4.415   2.498
  546SOL    HW1 2537   0.092   4.429   2.405
  546SOL    HW2 2538   0.224   4.437   2.501
  547SOL     OW 2539   4.977   0.894   6.272
  547SOL    HW1 2540   4.980   0.818   6.337
  547SOL    HW2 2541   5.030   0.971   6.308
  548SOL     OW 2542   4.076   2.163   0.096
  548SOL    HW1 2543   3.980   2.145   0.074
  548SOL    HW2 2544   4.108   2.242   0.045
  549SOL     OW 2545   5.864   1.366   1.524
  549SOL    HW1 2546   5.799   1.409   1.587
  549SOL    HW2 2547   5.954   1.361   1.569
  550SOL     OW 2548   0.246   6.095   3.342
  550SOL    HW1 2549   0.153   6.099   3.308
  550SOL    HW2 2550   0.276   6.000   3.346
  551SOL     OW 2551   6.184   0.432   0.245
  551SOL    HW1 2552   6.226   0.347   0.276
  551SOL    HW2 2553   6.168   0.492   0.324
  552SOL     OW 2554   0.281   5.882   5.432
  552SOL    HW1 2555   0.277   5.791   5.472
  552SOL    HW2 2556   0.374   5.901   5.400
  553SOL     OW 2557   3.137   1.529   0.091
  553SOL    HW1 2558   3.209   1.480   0.139
  553SOL    HW2 2559   3.124   1.619   0.133
  554SOL     OW 2560   5.337   6.637   1.125
  554SOL    HW1 2561   5.342   6.692   1.042
  554SOL    HW2 2562   5.305   6.693   1.201
  555SOL     OW 2563   1.412   3.706   5.650
  555SOL    HW1 2564   1.474   3.657   5.711
  555SOL    HW2 2565   1.319   3.703   5.688
  556SOL     OW 2566   6.018   0.566   4.057
  556SOL    HW1 2567   6.088   0.494   4.057
  556SOL    HW2 2568   5.930   0.528   4.084
  557SOL     OW 2569   6.772   4.050   6.578
  557SOL    HW1 2570   6.691   4.059   6.519
  557SOL    HW2 2571   6.743   4.019   6.669
  558SOL     OW 2572   2.997   3.926   2.473
  558SOL    HW1 2573   2.945   3.992   2.419
  558SOL    HW2 2574   2.972   3.833   2.446
  559SOL     OW 2575   6.694   6.129   5.751
  559SOL    HW1 2576   6.599   6.109   5.773
  559SOL    HW2 2577   6.707   6.129   5.652
  560SOL     OW 2578   6.694   3.100   4.122
  560SOL    HW1 2579   6.682   3.192   4.084
  560SOL    HW2 2580   6.693   3.032   4.049
  561SOL     OW 2581   0.992   2.878   0.202
  561SOL    HW1 2582   1.036   2.842   0.284
  561SOL    HW2 2583   0.940   2.960   0.225
  562SOL     OW 2584   4.212   0.028   5.030
  562SOL    HW1 2585   4.147   0.094   5.068
  562SOL    HW2 2586   4.248   0.062   4.943
  563SOL     OW 2587   1.515   0.690   4.405
  563SOL    HW1 2588   1.597   0.649   4.445
  563SOL    HW2 2589   1.532   0.787   4.387
  564SOL     OW 2590   6.811   1.562   6.554
  564SOL    HW1 2591   6.777   1.566   6.648
  564SOL    HW2 2592   6.849   1.472   6.536
  565SOL     OW 2593   3.431   3.433   3.823
  565SOL    HW1 2594   3.356   3.495   3.844
  565SOL    HW2 2595   3.394   3.352   3.776
  566SOL     OW 2596   2.983   0.709   3.599
  566SOL    HW1 2597   3.038   0.770   3.541
  566SOL    HW2 2598   2.887   0.733   3.591
  567SOL     OW 2599   2.350   2.475   5.457
  567SOL    HW1 2600   2.435   2.434   5.424
  567SOL    HW2 2601   2.363   2.574   5.467
  568SOL     OW 2602   0.519   6.135   6.986
  568SOL    HW1 2603   0.553   6.076   6.913
  568SOL    HW2 2604   0.526   6.231   6.957
  569SOL     OW 2605   6.146   2.545   0.187
  569SOL    HW1 2606   6.193   2.460   0.210
  569SOL    HW2 2607   6.196   2.593   0.115
  570SOL     OW 2608   2.306   0.316   6.176
  570SOL    HW1 2609   2.398   0.292   6.144
  570SOL    HW2 2610   2.314   0.381   6.252
  571SOL     OW 2611   2.123   4.947   1.606
  571SOL    HW1 2612   2.099   5.043   1.615
  571SOL    HW2 2613   2.222   4.936   1.619
  572SOL     OW 2614   2.973   0.595   4.167
  572SOL    HW1 2615   3.028   0.560   4.091
  572SOL    HW2 2616   2.995   0.691   4.182
  573SOL     OW 2617   0.209   0.895   5.556
  573SOL    HW1 2618   0.304   0.925   5.553
  573SOL    HW2 2619   0.201   0.816   5.616
  574SOL     OW 2620   2.486   1.812   5.628
  574SOL    HW1 2621   2.564   1.766   5.585
  574SOL    HW2 2622   2.464   1.895   5.576
  575SOL     OW 2623   4.028   3.030   0.235
  575SOL    HW1 2624   3.930   3.016   0.249
  575SOL    HW2 2625   4.077   2.949   0.266
  576SOL     OW 2626   2.267   2.848   2.740
  576SOL    HW1 2627   2.273   2.868   2.837
  576SOL    HW2 2628   2.174   2.819   2.718
  577SOL     OW 2629   0.768   0.977   1.751
  577SOL    HW1 2630   0.789   0.952   1.846
  577SOL    HW2 2631   0.681   0.934   1.724
  578SOL     OW 2632   2.532   6.725   6.358
  578SOL    HW1 2633   2.547   6.629   6.381
  578SOL    HW2 2634   2.456   6.761   6.411
  579SOL     OW 2635   2.166   3.792   2.046
  579SOL    HW1 2636   2.240   3.826   2.105
  579SOL    HW2 2637   2.184   3.698   2.020
  580SOL     OW 2638   4.499   5.782   4.643
  580SOL    HW1 2639   4.488   5.755   4.547
  580SOL    HW2 2640   4.415   5.763   4.693
  581SOL     OW 2641   1.675   2.775   4.466
  581SOL    HW1 2642   1.592   2.793   4.414
  581SOL    HW2 2643   1.651   2.756   4.562
  582SOL     OW 2644   4.824   5.338   4.298
  582SOL    HW1 2645   4.798   5.265   4.235
  582SOL    HW2 2646   4.816   5.426   4.251
  583SOL     OW 2647   4.089   5.947   5.827
  583SOL    HW1 2648   4.004   5.979   5.785
  583SOL    HW2 2649   4.092   5.847   5.823
  584SOL     OW 2650   4.997   0.814   4.928
  584SOL    HW1 2651   4.958   0.788   5.017
  584SOL    HW2 2652   4.975   0.909   4.908
  585SOL     OW 2653   2.901   0.548   1.934
  585SOL    HW1 2654   2.962   0.625   1.915
  585SOL    HW2 2655   2.953   0.473   1.974
  586SOL     OW 2656   4.006   0.613   0.889
  586SOL    HW1 2657   4.029   0.587   0.795
  586SOL    HW2 2658   3.907   0.607   0.902
  587SOL     OW 2659   4.872   1.880   1.759
  587SOL    HW1 2660   4.969   1.862   1.775
  587SOL    HW2 2661   4.823   1.881   1.846
  588SOL     OW 2662   2.071   5.397   3.029
  588SOL    HW1 2663   2.070   5.497   3.029
  588SOL    HW2 2664   1.985   5.363   2.992
  589SOL     OW 2665   2.998   5.676   1.330
  589SOL    HW1 2666   2.969   5.583   1.307
  589SOL    HW2 2667   2.948   5.741   1.273
  590SOL     OW 2668   4.293   1.990   0.639
  590SOL    HW1 2669   4.337   2.045   0.710
  590SOL    HW2 2670   4.269   1.901   0.677
  591SOL     OW 2671   3.374   6.189   4.442
  591SOL    HW1 2672   3.357   6.237   4.356
  591SOL    HW2 2673   3.320   6.230   4.514
  592SOL     OW 2674   3.681   2.037   4.299
  592SOL    HW1 2675   3.598   2.046   4.354
  592SOL    HW2 2676   3.663   2.070   4.206
  593SOL     OW 2677   3.065   2.357   6.588
  593SOL    HW1 2678   3.004   2.301   6.644
  593SOL    HW2 2679   3.020   2.444   6.567
  594SOL     OW 2680   4.792   1.242   1.825
  594SOL    HW1 2681   4.857   1.291   1.767
  594SOL    HW2 2682   4.838   1.166   1.871
  595SOL     OW 2683   5.834   5.761   2.564
  595SOL    HW1 2684   5.745   5.758   2.609
  595SOL    HW2 2685   5.905   5.777   2.632
  596SOL     OW 2686   5.908   4.811   4.012
  596SOL    HW1 2687   5.815   4.774   4.010
  596SOL    HW2 2688   5.927   4.845   4.104
  597SOL     OW 2689   2.322   0.463   6.400
  597SOL    HW1 2690   2.405   0.479   6.452
  597SOL    HW2 2691   2.275   0.550   6.384
  598SOL     OW 2692   2.924   3.737   4.292
  598SOL    HW1 2693   2.993   3.669   4.316
  598SOL    HW2 2694   2.843   3.691   4.256
  599SOL     OW 2695   1.232   4.745   1.696
  599SOL    HW1 2696   1.154   4.730   1.758
  599SOL    HW2 2697   1.314   4.704   1.737
  600SOL     OW 2698   6.558   3.601   5.031
  600SOL    HW1 2699   6.482   3.658   4.999
  600SOL    HW2 2700   6.625   3.591   4.957
  601SOL     OW 2701   1.534   6.394   5.588
  601SOL    HW1 2702   1.436   6.374   5.590
  601SOL    HW2 2703   1.585   6.311   5.612
  602SOL     OW 2704   2.078   6.961   3.791
  602SOL    HW1 2705   2.095   6.923   3.881
  602SOL    HW2 2706   2.055   0.033   3.799
  603SOL     OW 2707   1.200   1.410   5.266
  603SOL    HW1 2708   1.147   1.355   5.201
  603SOL    HW2 2709   1.243   1.486   5.218
  604SOL     OW 2710   6.662   2.189   1.999
  604SOL    HW1 2711   6.656   2.278   2.044
  604SOL    HW2 2712   6.690   2.120   2.065
  605SOL     OW 2713   6.650   6.631   1.509
  605SOL    HW1 2714   6.700   6.635   1.595
  605SOL    HW2 2715   6.595   6.713   1.498
  606SOL     OW 2716   3.857   7.013   4.413
  606SOL    HW1 2717   3.846   0.088   4.411
  606SOL    HW2 2718   3.777   6.971   4.455
  607SOL     OW 2719   1.556   4.153   6.277
  607SOL    HW1 2720   1.510   4.096   6.209
  607SOL    HW2 2721   1.538   4.249   6.257
  608SOL     OW 2722   2.779   1.169   5.547
  608SOL    HW1 2723   2.819   1.079   5.563
  608SOL    HW2 2724   2.800   1.230   5.623
  609SOL     OW 2725   3.289   2.845   1.989
  609SOL    HW1 2726   3.320   2.821   1.897
  609SOL    HW2 2727   3.253   2.938   1.989
  610SOL     OW 2728   4.746   3.666   1.637
  610SOL    HW1 2729   4.803   3.665   1.555
  610SOL    HW2 2730   4.788   3.611   1.709
  611SOL     OW 2731   3.266   0.280   2.636
  611SOL    HW1 2732   3.281   0.192   2.683
  611SOL    HW2 2733   3.352   0.313   2.600
  612SOL     OW 2734   4.157   4.855   4.978
  612SOL    HW1 2735   4.226   4.822   4.913
  612SOL    HW2 2736   4.067   4.820   4.952
  613SOL     OW 2737   4.527   4.906   5.519
  613SOL    HW1 2738   4.471   4.936   5.443
  613SOL    HW2 2739   4.578   4.984   5.556
  614SOL     OW 2740   3.568   5.756   5.772
  614SOL    HW1 2741   3.580   5.832   5.836
  614SOL    HW2 2742   3.629   5.770   5.693
  615SOL     OW 2743   1.098   4.990   2.117
  615SOL    HW1 2744   1.005   4.954   2.110
  615SOL    HW2 2745   1.106   5.072   2.061
  616SOL     OW 2746   6.316   3.731   3.366
  616SOL    HW1 2747   6.263   3.708   3.447
  616SOL    HW2 2748   6.410   3.698   3.377
  617SOL     OW 2749   3.212   6.179   6.339
  617SOL    HW1 2750   3.275   6.256   6.352
  617SOL    HW2 2751   3.223   6.115   6.415
  618SOL     OW 2752   1.426   1.119   2.761
  618SOL    HW1 2753   1.359   1.177   2.715
  618SOL    HW2 2754   1.391   1.026   2.768
  619SOL     OW 2755   0.597   1.053   0.068
  619SOL    HW1 2756   0.638   1.145   0.073
  619SOL    HW2 2757   0.509   1.054   0.117
  620SOL     OW 2758   4.494   3.740   1.228
  620SOL    HW1 2759   4.585   3.729   1.187
  620SOL    HW2 2760   4.497   3.814   1.295
  621SOL     OW 2761   0.535   4.825   1.405
  621SOL    HW1 2762   0.552   4.726   1.399
  621SOL    HW2 2763   0.621   4.873   1.422
  622SOL     OW 2764   1.240   0.334   0.112
  622SOL    HW1 2765   1.164   0.396   0.093
  622SOL    HW2 2766   1.259   0.279   0.030
  623SOL     OW 2767   0.607   4.643   6.235
  623SOL    HW1 2768   0.568   4.648   6.143
  623SOL    HW2 2769   0.556   4.576   6.289
  624SOL     OW 2770   0.441   2.355   2.007
  624SOL    HW1 2771   0.487   2.428   1.957
  624SOL    HW2 2772   0.355   2.390   2.045
  625SOL     OW 2773   2.219   1.278   1.800
  625SOL    HW1 2774   2.232   1.201   1.737
  625SOL    HW2 2775   2.169   1.351   1.753
  626SOL     OW 2776   3.287   6.539   4.420
  626SOL    HW1 2777   3.233   6.619   4.393
  626SOL    HW2 2778   3.291   6.474   4.344
  627SOL     OW 2779   4.587   0.888   6.975
  627SOL    HW1 2780   4.630   0.808   6.933
  627SOL    HW2 2781   4.504   0.911   6.925
  628SOL     OW 2782   5.128   4.113   4.058
  628SOL    HW1 2783   5.082   4.029   4.029
  628SOL    HW2 2784   5.225   4.108   4.034
  629SOL     OW 2785   1.728   6.153   0.500
  629SOL    HW1 2786   1.724   6.252   0.494
  629SOL    HW2 2787   1.796   6.126   0.569
  630SOL     OW 2788   3.740   2.158   1.135
  630SOL    HW1 2789   3.707   2.165   1.041
  630SOL    HW2 2790   3.840   2.152   1.134
  631SOL     OW 2791   2.267   6.719   5.135
  631SOL    HW1 2792   2.365   6.720   5.155
  631SOL    HW2 2793   2.253   6.696   5.039
  632SOL     OW 2794   1.913   1.206   1.063
  632SOL    HW1 2795   1.937   1.292   1.017
  632SOL    HW2 2796   1.946   1.129   1.008
  633SOL     OW 2797   2.214   0.116   5.884
  633SOL    HW1 2798   2.296   0.166   5.913
  633SOL    HW2 2799   2.134   0.176   5.892
  634SOL     OW 2800   3.595   6.035   0.154
  634SOL    HW1 2801   3.607   6.074   0.063
  634SOL    HW2 2802   3.645   6.090   0.221
  635SOL     OW 2803   2.768   0.668   3.074
  635SOL    HW1 2804   2.826   0.691   3.152
  635SOL    HW2 2805   2.781   0.736   3.002
  636SOL     OW 2806   5.303   5.284   0.298
  636SOL    HW1 2807   5.361   5.295   0.378
  636SOL    HW2 2808   5.308   5.367   0.241
  637SOL     OW 2809   5.329   4.546   0.731
  637SOL    HW1 2810   5.316   4.447   0.724
  637SOL    HW2 2811   5.348   4.583   0.640
  638SOL     OW 2812   5.451   1.660   2.696
  638SOL    HW1 2813   5.371   1.601   2.686
  638SOL    HW2 2814   5.513   1.621   2.763
  639SOL     OW 2815   4.257   4.660   2.276
  639SOL    HW1 2816   4.350   4.624   2.276
  639SOL    HW2 2817   4.218   4.653   2.367
  640SOL     OW 2818   3.083   4.418   5.716
  640SOL    HW1 2819   3.131   4.470   5.645
  640SOL    HW2 2820   3.035   4.481   5.777
  641SOL     OW 2821   6.869   5.896   4.879
  641SOL    HW1 2822   6.958   5.931   4.851
  641SOL    HW2 2823   6.860   5.800   4.852
  642SOL     OW 2824   1.513   5.070   5.879
  642SOL    HW1 2825   1.534   5.149   5.822
  642SOL    HW2 2826   1.515   5.097   5.976
  643SOL     OW 2827   5.713   6.364   4.734
  643SOL    HW1 2828   5.617   6.392   4.737
  643SOL    HW2 2829   5.753   6.373   4.825
  644SOL     OW 2830   1.571   6.039   2.118
  644SOL    HW1 2831   1.605   5.949   2.091
  644SOL    HW2 2832   1.645   6.091   2.162
  645SOL     OW 2833   5.991   3.511   3.589
  645SOL    HW1 2834   5.991   3.412   3.605
  645SOL    HW2 2835   6.082   3.547   3.608
  646SOL     OW 2836   1.327   1.628   4.808
  646SOL    HW1 2837   1.246   1.667   4.763
  646SOL    HW2 2838   1.344   1.678   4.893
  647SOL     OW 2839   5.591   3.306   0.331
  647SOL    HW1 2840   5.514   3.332   0.390
  647SOL    HW2 2841   5.610   3.209   0.343
  648SOL     OW 2842   5.740   2.161   2.822
  648SOL    HW1 2843   5.653   2.210   2.819
  648SOL    HW2 2844   5.736   2.092   2.895
  649SOL     OW 2845   4.209   4.690   1.728
  649SOL    HW1 2846   4.194   4.640   1.643
  649SOL    HW2 2847   4.267   4.635   1.789
  650SOL     OW 2848   3.925   4.098   0.996
  650SOL    HW1 2849   3.855   4.032   0.968
  650SOL    HW2 2850   4.010   4.082   0.946
  651SOL     OW 2851   0.748   5.350   6.142
  651SOL    HW1 2852   0.749   5.421   6.072
  651SOL    HW2 2853   0.668   5.361   6.200
  652SOL     OW 2854   3.833   1.265   2.734
  652SOL    HW1 2855   3.747   1.309   2.710
  652SOL    HW2 2856   3.905   1.334   2.742
  653SOL     OW 2857   3.928   5.279   3.312
  653SOL    HW1 2858   3.975   5.343   3.252
  653SOL    HW2 2859   3.852   5.325   3.358
  654SOL     OW 2860   6.338   4.907   0.188
  654SOL    HW1 2861   6.281   4.987   0.202
  654SOL    HW2 2862   6.424   4.918   0.237
  655SOL     OW 2863   0.953   0.822   0.310
  655SOL    HW1 2864   0.977   0.826   0.407
  655SOL    HW2 2865   1.034   0.795   0.257
  656SOL     OW 2866   2.648   6.273   2.085
  656SOL    HW1 2867   2.724   6.290   2.148
  656SOL    HW2 2868   2.588   6.354   2.083
  657SOL     OW 2869   3.758   1.409   6.829
  657SOL    HW1 2870   3.823   1.335   6.815
  657SOL    HW2 2871   3.771   1.478   6.757
  658SOL     OW 2872   3.768   5.134   5.962
  658SOL    HW1 2873   3.703   5.208   5.944
  658SOL    HW2 2874   3.765   5.109   6.059
  659SOL     OW 2875   2.429   0.065   6.643
  659SOL    HW1 2876   2.390   7.008   6.601
  659SOL    HW2 2877   2.517   0.042   6.684
  660SOL     OW 2878   4.011   5.572   3.265
  660SOL    HW1 2879   4.014   5.665   3.227
  660SOL    HW2 2880   3.921   5.555   3.303
  661SOL     OW 2881   5.640   5.424   2.744
  661SOL    HW1 2882   5.680   5.505   2.787
  661SOL    HW2 2883   5.646   5.432   2.644
  662SOL     OW 2884   3.621   1.299   0.365
  662SOL    HW1 2885   3.670   1.381   0.333
  662SOL    HW2 2886   3.646   1.280   0.460
  663SOL     OW 2887   2.412   4.707   4.979
  663SOL    HW1 2888   2.485   4.718   5.047
  663SOL    HW2 2889   2.400   4.609   4.959
  664SOL     OW 2890   6.199   1.025   0.207
  664SOL    HW1 2891   6.241   1.086   0.139
  664SOL    HW2 2892   6.100   1.031   0.200
  665SOL     OW 2893   2.309   5.186   2.510
  665SOL    HW1 2894   2.321   5.157   2.415
  665SOL    HW2 2895   2.305   5.106   2.569
  666SOL     OW 2896   4.023   0.887   1.886
  666SOL    HW1 2897   4.035   0.985   1.868
  666SOL    HW2 2898   3.940   0.855   1.841
  667SOL     OW 2899   0.998   6.695   2.448
  667SOL    HW1 2900   0.936   6.646   2.386
  667SOL    HW2 2901   1.058   6.754   2.395
  668SOL     OW 2902   5.328   3.559   0.444
  668SOL    HW1 2903   5.317   3.585   0.348
  668SOL    HW2 2904   5.424   3.568   0.470
  669SOL     OW 2905   4.741   1.535   2.295
  669SOL    HW1 2906   4.814   1.600   2.272
  669SOL    HW2 2907   4.688   1.571   2.371
  670SOL     OW 2908   2.618   1.968   2.953
  670SOL    HW1 2909   2.708   1.946   2.915
  670SOL    HW2 2910   2.597   1.903   3.027
  671SOL     OW 2911   3.495   6.703   0.987
  671SOL    HW1 2912   3.483   6.660   0.897
  671SOL    HW2 2913   3.584   6.747   0.990
  672SOL     OW 2914   1.190   6.785   2.166
  672SOL    HW1 2915   1.289   6.779   2.163
  672SOL    HW2 2916   1.150   6.696   2.145
  673SOL     OW 2917   5.853   6.623   0.508
  673SOL    HW1 2918   5.822   6.568   0.431
  673SOL    HW2 2919   5.816   6.586   0.593
  674SOL     OW 2920   6.945   1.305   4.366
  674SOL    HW1 2921   6.859   1.306   4.416
  674SOL    HW2 2922   7.019   1.277   4.427
  675SOL     OW 2923   6.815   2.754   2.742
  675SOL    HW1 2924   6.726   2.797   2.729
  675SOL    HW2 2925   6.882   2.797   2.681
  676SOL     OW 2926   2.598   5.907   5.910
  676SOL    HW1 2927   2.678   5.907   5.850
  676SOL    HW2 2928   2.620   5.956   5.995
  677SOL     OW 2929   5.019   1.250   0.920
  677SOL    HW1 2930   5.083   1.289   0.854
  677SOL    HW2 2931   5.066   1.184   0.977
  678SOL     OW 2932   1.930   5.113   4.851
  678SOL    HW1 2933   1.912   5.026   4.898
  678SOL    HW2 2934   2.011   5.156   4.891
  679SOL     OW 2935   5.210   2.094   5.159
  679SOL    HW1 2936   5.117   2.130   5.151
  679SOL    HW2 2937   5.225   2.060   5.252
  680SOL     OW 2938   5.195   0.099   4.377
  680SOL    HW1 2939   5.133   0.177   4.387
  680SOL    HW2 2940   5.288   0.127   4.399
  681SOL     OW 2941   4.324   4.966   2.540
  681SOL    HW1 2942   4.355   5.054   2.575
  681SOL    HW2 2943   4.390   4.931   2.474
  682SOL     OW 2944   0.661   0.808   3.163
  682SOL    HW1 2945   0.640   0.905   3.174
  682SOL    HW2 2946   0.590   0.753   3.209
  683SOL     OW 2947   4.225   3.780   1.278
  683SOL    HW1 2948   4.171   3.746   1.201
  683SOL    HW2 2949   4.321   3.757   1.264
  684SOL     OW 2950   6.702   0.867   6.584
  684SOL    HW1 2951   6.626   0.921   6.549
  684SOL    HW2 2952   6.688   0.848   6.681
  685SOL     OW 2953   3.357   0.310   2.948
  685SOL    HW1 2954   3.361   0.216   2.912
  685SOL    HW2 2955   3.333   0.373   2.874
  686SOL     OW 2956   4.919   0.450   4.808
  686SOL    HW1 2957   4.863   0.470   4.888
  686SOL    HW2 2958   5.002   0.506   4.811
  687SOL     OW 2959   0.918   1.937   3.927
  687SOL    HW1 2960   0.878   1.956   3.838
  687SOL    HW2 2961   0.869   1.862   3.971
  688SOL     OW 2962   6.749   1.101   0.066
  688SOL    HW1 2963   6.704   1.017   0.097
  688SOL    HW2 2964   6.740   1.109   6.991
  689SOL     OW 2965   1.505   5.596   5.680
  689SOL    HW1 2966   1.548   5.686   5.670
  689SOL    HW2 2967   1.449   5.576   5.600
  690SOL     OW 2968   5.878   3.592   2.276
  690SOL    HW1 2969   5.896   3.539   2.359
  690SOL    HW2 2970   5.891   3.689   2.296
  691SOL     OW 2971   5.359   1.660   0.725
  691SOL    HW1 2972   5.310   1.605   0.656
  691SOL    HW2 2973   5.299   1.676   0.803
  692SOL     OW 2974   2.296   0.545   4.921
  692SOL    HW1 2975   2.390   0.563   4.891
  692SOL    HW2 2976   2.280   0.446   4.922
  693SOL     OW 2977   5.435   6.274   3.601
  693SOL    HW1 2978   5.423   6.175   3.604
  693SOL    HW2 2979   5.529   6.297   3.624
  694SOL     OW 2980   4.469   6.710   5.400
  694SOL    HW1 2981   4.462   6.799   5.355
  694SOL    HW2 2982   4.563   6.695   5.429
  695SOL     OW 2983   3.463   0.112   3.953
  695SOL    HW1 2984   3.471   0.108   4.052
  695SOL    HW2 2985   3.537   0.168   3.916
  696SOL     OW 2986   5.547   4.504   3.153
  696SOL    HW1 2987   5.510   4.562   3.225
  696SOL    HW2 2988   5.495   4.418   3.150
  697SOL     OW 2989   1.085   5.785   2.028
  697SOL    HW1 2990   1.001   5.838   2.044
  697SOL    HW2 2991   1.164   5.840   2.053
  698SOL     OW 2992   5.822   6.385   0.335
  698SOL    HW1 2993   5.819   6.386   0.235
  698SOL    HW2 2994   5.750   6.325   0.370
  699SOL     OW 2995   2.437   2.646   0.981
  699SOL    HW1 2996   2.527   2.679   0.955
  699SOL    HW2 2997   2.439   2.613   1.076
  700SOL     OW 2998   3.275   0.361   3.726
  700SOL    HW1 2999   3.252   0.289   3.792
  700SOL    HW2 3000   3.195   0.379   3.668
  701SOL     OW 3001   5.397   5.183   1.449
  701SOL    HW1 3002   5.334   5.111   1.421
  701SOL    HW2 3003   5.491   5.149   1.445
  702SOL     OW 3004   3.326   0.862   4.533
  702SOL    HW1 3005   3.402   0.927   4.529
  702SOL    HW2 3006   3.283   0.856   4.443
  703SOL     OW 3007   2.844   2.149   6.303
  703SOL    HW1 3008   2.896   2.098   6.371
  703SOL    HW2 3009   2.748   2.152   6.329
  704SOL     OW 3010   1.738   2.646   5.548
  704SOL    HW1 3011   1.696   2.623   5.636
  704SOL    HW2 3012   1.677   2.708   5.498
  705SOL     OW 3013   0.089   6.741   5.152
  705SOL    HW1 3014   0.136   6.752   5.239
  705SOL    HW2 3015   0.105   6.649   5.117
  706SOL     OW 3016   4.489   1.154   5.150
  706SOL    HW1 3017   4.444   1.242   5.133
  706SOL    HW2 3018   4.536   1.124   5.067
  707SOL     OW 3019   3.473   5.187   4.094
  707SOL    HW1 3020   3.407   5.118   4.066
  707SOL    HW2 3021   3.424   5.265   4.135
  708SOL     OW 3022   4.031   6.577   4.084
  708SOL    HW1 3023   4.012   6.548   4.177
  708SOL    HW2 3024   4.012   6.501   4.021
  709SOL     OW 3025   2.918   6.862   1.488
  709SOL    HW1 3026   2.869   6.882   1.573
  709SOL    HW2 3027   2.890   6.928   1.418
  710SOL     OW 3028   4.545   2.804   1.727
  710SOL    HW1 3029   4.629   2.799   1.674
  710SOL    HW2 3030   4.537   2.895   1.769
  711SOL     OW 3031   7.006   2.223   6.691
  711SOL    HW1 3032   0.049   2.265   6.630
  711SOL    HW2 3033   6.976   2.136   6.653
  712SOL     OW 3034   5.240   4.237   0.688
  712SOL    HW1 3035   5.210   4.169   0.621
  712SOL    HW2 3036   5.162   4.267   0.742
  713SOL     OW 3037   3.908   2.747   5.337
  713SOL    HW1 3038   3.952   2.811   5.401
  713SOL    HW2 3039   3.977   2.685   5.299
  714SOL     OW 3040   5.564   5.553   3.245
  714SOL    HW1 3041   5.579   5.550   3.344
  714SOL    HW2 3042   5.652   5.541   3.197
  715SOL     OW 3043   6.431   5.253   5.336
  715SOL    HW1 3044   6.408   5.208   5.422
  715SOL    HW2 3045   6.530   5.264   5.330
  716SOL     OW 3046   1.727   2.128   3.084
  716SOL    HW1 3047   1.709   2.116   2.987
  716SOL    HW2 3048   1.640   2.147   3.131
  717SOL     OW 3049   5.202   3.885   4.262
  717SOL    HW1 3050   5.139   3.960   4.240
  717SOL    HW2 3051   5.250   3.857   4.179
  718SOL     OW 3052   5.965   1.568   5.293
  718SOL    HW1 3053   5.955   1.662   5.325
  718SOL    HW2 3054   6.062   1.550   5.273
  719SOL     OW 3055   5.303   0.283   3.266
  719SOL    HW1 3056   5.237   0.310   3.336
  719SOL    HW2 3057   5.267   0.204   3.216
  720SOL     OW 3058   2.963   1.250   0.553
  720SOL    HW1 3059   3.012   1.240   0.466
  720SOL    HW2 3060   3.026   1.232   0.629
  721SOL     OW 3061   0.014   1.725   3.235
  721SOL    HW1 3062   6.988   1.642   3.260
  721SOL    HW2 3063   0.111   1.711   3.254
  722SOL     OW 3064   4.743   6.679   0.465
  722SOL    HW1 3065   4.762   6.591   0.421
  722SOL    HW2 3066   4.795   6.685   0.551
  723SOL     OW 3067   2.664   5.671   3.837
  723SOL    HW1 3068   2.609   5.689   3.919
  723SOL    HW2 3069   2.612   5.695   3.755
  724SOL     OW 3070   0.787   1.427   4.388
  724SOL    HW1 3071   0.869   1.371   4.380
  724SOL    HW2 3072   0.713   1.372   4.429
  725SOL     OW 3073   1.480   3.869   2.834
  725SOL    HW1 3074   1.385   3.876   2.803
  725SOL    HW2 3075   1.540   3.851   2.756
  726SOL     OW 3076   1.834   4.098   0.552
  726SOL    HW1 3077   1.783   4.183   0.537
  726SOL    HW2 3078   1.780   4.036   0.608
  727SOL     OW 3079   4.397   5.792   5.421
  727SOL    HW1 3080   4.403   5.878   5.472
  727SOL    HW2 3081   4.347   5.807   5.336
  728SOL     OW 3082   6.974   3.703   3.802
  728SOL    HW1 3083   0.011   3.780   3.785
  728SOL    HW2 3084   7.013   3.619   3.765
  729SOL     OW 3085   0.506   4.374   1.458
  729SOL    HW1 3086   0.433   4.435   1.491
  729SOL    HW2 3087   0.574   4.428   1.409
  730SOL     OW 3088   4.571   0.778   3.246
  730SOL    HW1 3089   4.561   0.822   3.156
  730SOL    HW2 3090   4.493   0.717   3.262
  731SOL     OW 3091   4.546   5.057   6.119
  731SOL    HW1 3092   4.533   5.077   6.022
  731SOL    HW2 3093   4.466   5.088   6.170
  732SOL     OW 3094   4.598   1.705   4.786
  732SOL    HW1 3095   4.660   1.630   4.808
  732SOL    HW2 3096   4.590   1.715   4.687
  733SOL     OW 3097   6.011   6.254   3.194
  733SOL    HW1 3098   6.053   6.266   3.284
  733SOL    HW2 3099   6.039   6.165   3.156
  734SOL     OW 3100   5.997   6.343   2.296
  734SOL    HW1 3101   6.028   6.285   2.221
  734SOL    HW2 3102   5.900   6.326   2.313
  735SOL     OW 3103   4.514   0.483   2.407
  735SOL    HW1 3104   4.421   0.509   2.433
  735SOL    HW2 3105   4.579   0.541   2.455
  736SOL     OW 3106   1.731   1.656   4.093
  736SOL    HW1 3107   1.672   1.651   4.174
  736SOL    HW2 3108   1.743   1.752   4.067
  737SOL     OW 3109   4.554   1.262   6.259
  737SOL    HW1 3110   4.547   1.162   6.259
  737SOL    HW2 3111   4.647   1.289   6.233
  738SOL     OW 3112   1.831   4.667   0.881
  738SOL    HW1 3113   1.915   4.618   0.902
  738SOL    HW2 3114   1.763   4.650   0.952
  739SOL     OW 3115   3.078   0.131   4.225
  739SOL    HW1 3116   3.003   0.079   4.182
  739SOL    HW2 3117   3.049   0.225   4.239
  740SOL     OW 3118   5.556   3.609   2.590
  740SOL    HW1 3119   5.506   3.690   2.558
  740SOL    HW2 3120   5.506   3.526   2.564
  741SOL     OW 3121   2.377   1.049   3.137
  741SOL    HW1 3122   2.358   1.001   3.222
  741SOL    HW2 3123   2.306   1.028   3.069
  742SOL     OW 3124   2.042   6.758   1.733
  742SOL    HW1 3125   2.081   6.811   1.808
  742SOL    HW2 3126   1.944   6.750   1.745
  743SOL     OW 3127   1.035   6.103   3.442
  743SOL    HW1 3128   1.061   6.116   3.537
  743SOL    HW2 3129   1.085   6.026   3.403
  744SOL     OW 3130   4.959   1.922   0.028
  744SOL    HW1 3131   4.940   2.012   7.013
  744SOL    HW2 3132   4.873   1.871   0.038
  745SOL     OW 3133   2.538   6.715   5.115
  745SOL    HW1 3134   2.530   6.680   5.022
  745SOL    HW2 3135   2.606   6.662   5.165
  746SOL     OW 3136   6.589   4.500   5.639
  746SOL    HW1 3137   6.653   4.473   5.567
  746SOL    HW2 3138   6.597   4.436   5.716
  747SOL     OW 3139   5.073   5.969   3.372
  747SOL    HW1 3140   5.005   6.034   3.337
  747SOL    HW2 3141   5.094   5.901   3.302
  748SOL     OW 3142   5.549   5.493   2.133
  748SOL    HW1 3143   5.535   5.571   2.193
  748SOL    HW2 3144   5.462   5.466   2.092
  749SOL     OW 3145   4.840   3.730   3.795
  749SOL    HW1 3146   4.851   3.635   3.825
  749SOL    HW2 3147   4.855   3.737   3.696
  750SOL     OW 3148   2.248   2.030   1.960
  750SOL    HW1 3149   2.316   1.981   2.014
  750SOL    HW2 3150   2.239   1.987   1.870
  751SOL     OW 3151   3.953   0.334   0.778
  751SOL    HW1 3152   3.879   0.315   0.713
  751SOL    HW2 3153   3.951   0.266   0.852
  752SOL     OW 3154   3.458   2.394   5.460
  752SOL    HW1 3155   3.392   2.325   5.431
  752SOL    HW2 3156   3.417   2.485   5.451
  753SOL     OW 3157   3.779   3.744   4.778
  753SOL    HW1 3158   3.868   3.785   4.755
  753SOL    HW2 3159   3.713   3.817   4.794
  754SOL     OW 3160   5.681   0.255   0.261
  754SOL    HW1 3161   5.679   0.351   0.290
  754SOL    HW2 3162   5.617   0.202   0.316
  755SOL     OW 3163   4.071   4.533   5.348
  755SOL    HW1 3164   4.130   4.503   5.274
  755SOL    HW2 3165   4.080   4.632   5.360
  756SOL     OW 3166   1.942   5.285   6.231
  756SOL    HW1 3167   1.908   5.379   6.233
  756SOL    HW2 3168   1.917   5.238   6.315
  757SOL     OW 3169   2.622   6.125   2.986
  757SOL    HW1 3170   2.644   6.110   3.083
  757SOL    HW2 3171   2.578   6.044   2.948
  758SOL     OW 3172   3.380   1.036   4.057
  758SOL    HW1 3173   3.371   1.010   3.961
  758SOL    HW2 3174   3.369   1.135   4.066
  759SOL     OW 3175   0.398   2.968   4.074
  759SOL    HW1 3176   0.302   2.989   4.055
  759SOL    HW2 3177   0.406   2.872   4.099
  760SOL     OW 3178   6.060   5.623   3.181
  760SOL    HW1 3179   6.077   5.689   3.108
  760SOL    HW2 3180   6.139   5.620   3.242
  761SOL     OW 3181   4.046   3.494   6.231
  761SOL    HW1 3182   4.089   3.444   6.157
  761SOL    HW2 3183   4.046   3.438   6.314
  762SOL     OW 3184   3.395   5.714   4.003
  762SOL    HW1 3185   3.300   5.728   4.032
  762SOL    HW2 3186   3.396   5.671   3.912
  763SOL     OW 3187   5.591   0.689   0.347
  763SOL    HW1 3188   5.498   0.700   0.311
  763SOL    HW2 3189   5.599   0.599   0.390
  764SOL     OW 3190   5.797   0.434   5.761
  764SOL    HW1 3191   5.835   0.389   5.680
  764SOL    HW2 3192   5.697   0.421   5.761
  765SOL     OW 3193   6.540   6.316   0.708
  765SOL    HW1 3194   6.595   6.338   0.789
  765SOL    HW2 3195   6.556   6.386   0.638
  766SOL     OW 3196   2.238   2.377   4.930
  766SOL    HW1 3197   2.259   2.442   5.003
  766SOL    HW2 3198   2.219   2.426   4.845
  767SOL     OW 3199   6.467   6.016   4.341
  767SOL    HW1 3200   6.403   5.939   4.345
  767SOL    HW2 3201   6.507   6.021   4.249
  768SOL     OW 3202   2.279   5.086   2.260
  768SOL    HW1 3203   2.228   5.001   2.277
  768SOL    HW2 3204   2.215   5.162   2.252
  769SOL     OW 3205   2.580   2.171   4.589
  769SOL    HW1 3206   2.540   2.225   4.664
  769SOL    HW2 3207   2.642   2.103   4.626
  770SOL     OW 3208   1.660   4.467   5.632
  770SOL    HW1 3209   1.682   4.529   5.557
  770SOL    HW2 3210   1.572   4.494   5.672
  771SOL     OW 3211   1.306   5.709   3.160
  771SOL    HW1 3212   1.353   5.704   3.249
  771SOL    HW2 3213   1.242   5.634   3.153
  772SOL     OW 3214   5.539   4.295   0.472
  772SOL    HW1 3215   5.541   4.213   0.529
  772SOL    HW2 3216   5.594   4.366   0.516
  773SOL     OW 3217   0.822   3.782   3.322
  773SOL    HW1 3218   0.726   3.810   3.332
  773SOL    HW2 3219   0.856   3.747   3.409
  774SOL     OW 3220   2.330   0.293   3.362
  774SOL    HW1 3221   2.294   0.201   3.348
  774SOL    HW2 3222   2.355   0.305   3.458
  775SOL     OW 3223   1.786   4.497   2.536
  775SOL    HW1 3224   1.865   4.449   2.498
  775SOL    HW2 3225   1.711   4.432   2.548
  776SOL     OW 3226   3.062   5.177   6.889
  776SOL    HW1 3227   3.111   5.242   6.947
  776SOL    HW2 3228   3.057   5.212   6.795
  777SOL     OW 3229   2.291   4.202   0.102
  777SOL    HW1 3230   2.390   4.189   0.094
  777SOL    HW2 3231   2.252   4.128   0.156
  778SOL     OW 3232   2.968   6.393   0.391
  778SOL    HW1 3233   2.874   6.358   0.399
  778SOL    HW2 3234   2.990   6.448   0.471
  779SOL     OW 3235   6.858   2.320   3.224
  779SOL    HW1 3236   6.878   2.397   3.163
  779SOL    HW2 3237   6.795   2.257   3.179
  780SOL     OW 3238   0.605   1.921   3.970
  780SOL    HW1 3239   0.565   1.912   4.061
  780SOL    HW2 3240   0.658   1.840   3.948
  781SOL     OW 3241   0.787   4.578   0.258
  781SOL    HW1 3242   0.725   4.654   0.236
  781SOL    HW2 3243   0.805   4.526   0.175
  782SOL     OW 3244   1.838   3.512   4.943
  782SOL    HW1 3245   1.931   3.475   4.948
  782SOL    HW2 3246   1.823   3.576   5.018
  783SOL     OW 3247   6.068   4.744   6.384
  783SOL    HW1 3248   6.082   4.696   6.471
  783SOL    HW2 3249   5.971   4.765   6.373
  784SOL     OW 3250   2.587   6.097   0.680
  784SOL    HW1 3251   2.527   6.047   0.619
  784SOL    HW2 3252   2.682   6.076   0.658
  785SOL     OW 3253   1.280   7.013   4.851
  785SOL    HW1 3254   1.190   6.970   4.847
  785SOL    HW2 3255   1.270   0.087   4.843
  786SOL     OW 3256   6.598   1.180   3.617
  786SOL    HW1 3257   6.671   1.225   3.667
  786SOL    HW2 3258   6.514   1.233   3.625
  787SOL     OW 3259   2.178   0.069   0.716
  787SOL    HW1 3260   2.277   0.088   0.713
  787SOL    HW2 3261   2.160   0.002   0.788
  788SOL     OW 3262   2.275   2.217   1.657
  788SOL    HW1 3263   2.337   2.139   1.649
  788SOL    HW2 3264   2.245   2.247   1.567
  789SOL     OW 3265   4.430   4.965   2.174
  789SOL    HW1 3266   4.389   4.888   2.125
  789SOL    HW2 3267   4.529   4.949   2.183
  790SOL     OW 3268   0.751   2.227   2.555
  790SOL    HW1 3269   0.817   2.276   2.611
  790SOL    HW2 3270   0.744   2.132   2.587
  791SOL     OW 3271   3.010   5.713   4.504
  791SOL    HW1 3272   3.000   5.743   4.599
  791SOL    HW2 3273   3.042   5.790   4.449
  792SOL     OW 3274   1.618   0.665   0.445
  792SOL    HW1 3275   1.596   0.727   0.519
  792SOL    HW2 3276   1.705   0.619   0.465
  793SOL     OW 3277   3.047   6.033   3.963
  793SOL    HW1 3278   3.046   6.078   3.874
  793SOL    HW2 3279   2.992   5.950   3.959
  794SOL     OW 3280   3.423   3.070   2.878
  794SOL    HW1 3281   3.513   3.027   2.881
  794SOL    HW2 3282   3.421   3.147   2.941
  795SOL     OW 3283   3.611   0.416   6.237
  795SOL    HW1 3284   3.622   0.325   6.196
  795SOL    HW2 3285   3.635   0.412   6.334
  796SOL     OW 3286   1.054   3.321   0.290
  796SOL    HW1 3287   1.031   3.418   0.285
  796SOL    HW2 3288   1.153   3.310   0.302
  797SOL     OW 3289   4.589   0.035   0.613
  797SOL    HW1 3290   4.547   6.971   0.634
  797SOL    HW2 3291   4.524   0.109   0.635
  798SOL     OW 3292   4.366   6.629   0.823
  798SOL    HW1 3293   4.267   6.624   0.804
  798SOL    HW2 3294   4.397   6.724   0.811
  799SOL     OW 3295   2.193   2.120   5.837
  799SOL    HW1 3296   2.259   2.163   5.776
  799SOL    HW2 3297   2.220   2.026   5.855
  800SOL     OW 3298   6.103   3.589   2.641
  800SOL    HW1 3299   6.107   3.553   2.734
  800SOL    HW2 3300   6.103   3.512   2.576
  801SOL     OW 3301   2.512   5.632   5.923
  801SOL    HW1 3302   2.562   5.572   5.986
  801SOL    HW2 3303   2.541   5.727   5.937
  802SOL     OW 3304   4.929   2.544   6.412
  802SOL    HW1 3305   4.939   2.455   6.457
  802SOL    HW2 3306   5.007   2.559   6.352
  803SOL     OW 3307   2.381   1.328   5.157
  803SOL    HW1 3308   2.411   1.261   5.226
  803SOL    HW2 3309   2.313   1.284   5.097
  804SOL     OW 3310   5.373   0.571   2.646
  804SOL    HW1 3311   5.465   0.533   2.653
  804SOL    HW2 3312   5.365   0.623   2.561
  805SOL     OW 3313   3.708   1.005   3.302
  805SOL    HW1 3314   3.677   0.975   3.392
  805SOL    HW2 3315   3.629   1.025   3.244
  806SOL     OW 3316   2.339   5.943   5.656
  806SOL    HW1 3317   2.422   5.952   5.712
  806SOL    HW2 3318   2.296   5.855   5.675
  807SOL     OW 3319   0.800   5.859   6.070
  807SOL    HW1 3320   0.711   5.884   6.109
  807SOL    HW2 3321   0.815   5.910   5.986
  808SOL     OW 3322   5.361   2.925   6.416
  808SOL    HW1 3323   5.422   2.875   6.478
  808SOL    HW2 3324   5.404   2.934   6.326
  809SOL     OW 3325   2.484   4.755   0.043
  809SOL    HW1 3326   2.542   4.779   6.990
  809SOL    HW2 3327   2.437   4.669   0.025
  810SOL     OW 3328   3.580   3.125   6.832
  810SOL    HW1 3329   3.518   3.048   6.846
  810SOL    HW2 3330   3.547   3.182   6.758
  811SOL     OW 3331   5.949   4.744   4.599
  811SOL    HW1 3332   5.885   4.817   4.575
  811SOL    HW2 3333   5.903   4.655   4.590
  812SOL     OW 3334   0.516   3.103   1.976
  812SOL    HW1 3335   0.593   3.077   2.035
  812SOL    HW2 3336   0.515   3.045   1.894
  813SOL     OW 3337   1.307   1.977   4.717
  813SOL    HW1 3338   1.377   1.981   4.646
  813SOL    HW2 3339   1.218   1.957   4.676
  814SOL     OW 3340   0.635   5.311   2.717
  814SOL    HW1 3341   0.666   5.298   2.811
  814SOL    HW2 3342   0.619   5.409   2.701
  815SOL     OW 3343   4.917   1.994   4.537
  815SOL    HW1 3344   4.992   1.984   4.471
  815SOL    HW2 3345   4.953   2.029   4.623
  816SOL     OW 3346   5.409   4.981   6.494
  816SOL    HW1 3347   5.360   5.067   6.487
  816SOL    HW2 3348   5.428   4.959   6.590
  817SOL     OW 3349   1.198   3.959   0.038
  817SOL    HW1 3350   1.159   3.872   0.009
  817SOL    HW2 3351   1.138   4.001   0.106
  818SOL     OW 3352   6.619   2.197   5.067
  818SOL    HW1 3353   6.538   2.140   5.076
  818SOL    HW2 3354   6.658   2.213   5.158
  819SOL     OW 3355   5.026   2.596   1.416
  819SOL    HW1 3356   4.936   2.566   1.447
  819SOL    HW2 3357   5.070   2.521   1.367
  820SOL     OW 3358   2.126   2.096   4.958
  820SOL    HW1 3359   2.104   2.046   5.042
  820SOL    HW2 3360   2.169   2.184   4.981
  821SOL     OW 3361   5.009   3.639   5.767
  821SOL    HW1 3362   5.082   3.707   5.767
  821SOL    HW2 3363   4.980   3.621   5.861
  822SOL     OW 3364   0.791   4.433   3.238
  822SOL    HW1 3365   0.736   4.350   3.221
  822SOL    HW2 3366   0.829   4.427   3.331
  823SOL     OW 3367   1.082   3.121   5.312
  823SOL    HW1 3368   1.162   3.092   5.258
  823SOL    HW2 3369   1.106   3.199   5.369
  824SOL     OW 3370   5.659   1.172   6.157
  824SOL    HW1 3371   5.681   1.137   6.248
  824SOL    HW2 3372   5.709   1.257   6.140
  825SOL     OW 3373   5.572   5.482   1.121
  825SOL    HW1 3374   5.556   5.410   1.053
  825SOL    HW2 3375   5.618   5.559   1.078
  826SOL     OW 3376   3.854   2.293   6.615
  826SOL    HW1 3377   3.829   2.389   6.604
  826SOL    HW2 3378   3.935   2.286   6.673
  827SOL     OW 3379   3.917   4.073   4.860
  827SOL    HW1 3380   3.842   4.104   4.918
  827SOL    HW2 3381   3.996   4.133   4.873
  828SOL     OW 3382   6.543   5.854   6.051
  828SOL    HW1 3383   6.628   5.802   6.065
  828SOL    HW2 3384   6.500   5.825   5.966
  829SOL     OW 3385   3.299   3.556   2.743
  829SOL    HW1 3386   3.316   3.652   2.720
  829SOL    HW2 3387   3.383   3.514   2.778
  830SOL     OW 3388   6.433   4.645   0.065
  830SOL    HW1 3389   6.378   4.696   0.131
  830SOL    HW2 3390   6.515   4.610   0.110
  831SOL     OW 3391   4.461   0.307   1.669
  831SOL    HW1 3392   4.476   0.213   1.700
  831SOL    HW2 3393   4.440   0.365   1.748
  832SOL     OW 3394   2.658   1.786   4.810
  832SOL    HW1 3395   2.628   1.871   4.853
  832SOL    HW2 3396   2.703   1.729   4.879
  833SOL     OW 3397   2.942   2.038   0.109
  833SOL    HW1 3398   2.871   2.031   0.039
  833SOL    HW2 3399   2.918   1.979   0.186
  834SOL     OW 3400   5.390   2.996   6.996
  834SOL    HW1 3401   5.327   3.073   6.984
  834SOL    HW2 3402   5.378   2.932   6.920
  835SOL     OW 3403   0.464   7.013   4.069
  835SOL    HW1 3404   0.449   6.914   4.073
  835SOL    HW2 3405   0.563   0.006   4.072
  836SOL     OW 3406   3.925   1.219   4.198
  836SOL    HW1 3407   3.889   1.301   4.242
  836SOL    HW2 3408   3.885   1.137   4.240
  837SOL     OW 3409   1.831   0.814   0.938
  837SOL    HW1 3410   1.848   0.751   1.013
  837SOL    HW2 3411   1.863   0.775   0.852
  838SOL     OW 3412   1.683   5.158   3.922
  838SOL    HW1 3413   1.763   5.103   3.945
  838SOL    HW2 3414   1.693   5.249   3.963
  839SOL     OW 3415   1.451   1.924   0.531
  839SOL    HW1 3416   1.541   1.884   0.517
  839SOL    HW2 3417   1.405   1.936   0.443
  840SOL     OW 3418   5.304   5.165   6.744
  840SOL    HW1 3419   5.354   5.078   6.747
  840SOL    HW2 3420   5.356   5.235   6.792
  841SOL     OW 3421   3.535   4.990   6.681
  841SOL    HW1 3422   3.457   5.033   6.726
  841SOL    HW2 3423   3.526   4.890   6.685
  842SOL     OW 3424   4.035   6.346   0.184
  842SOL    HW1 3425   4.050   6.322   0.280
  842SOL    HW2 3426   3.942   6.378   0.172
  843SOL     OW 3427   1.275   1.276   2.248
  843SOL    HW1 3428   1.222   1.191   2.256
  843SOL    HW2 3429   1.214   1.352   2.226
  844SOL     OW 3430   6.939   0.884   1.747
  844SOL    HW1 3431   6.864   0.867   1.683
  844SOL    HW2 3432   6.967   0.798   1.789
  845SOL     OW 3433   3.316   1.004   2.322
  845SOL    HW1 3434   3.277   0.995   2.413
  845SOL    HW2 3435   3.381   1.080   2.321
  846SOL     OW 3436   2.716   1.404   0.543
  846SOL    HW1 3437   2.802   1.355   0.555
  846SOL    HW2 3438   2.680   1.430   0.632
  847SOL     OW 3439   2.821   4.067   1.629
  847SOL    HW1 3440   2.795   3.983   1.580
  847SOL    HW2 3441   2.903   4.049   1.683
  848SOL     OW 3442   6.872   5.724   0.439
  848SOL    HW1 3443   6.795   5.666   0.414
  848SOL    HW2 3444   6.933   5.673   0.500
  849SOL     OW 3445   5.956   3.627   6.387
  849SOL    HW1 3446   5.889   3.568   6.434
  849SOL    HW2 3447   5.959   3.604   6.290
  850SOL     OW 3448   1.089   0.623   4.724
  850SOL    HW1 3449   1.114   0.526   4.727
  850SOL    HW2 3450   1.151   0.672   4.664
  851SOL     OW 3451   6.244   3.248   6.076
  851SOL    HW1 3452   6.328   3.210   6.115
  851SOL    HW2 3453   6.166   3.191   6.102
  852SOL     OW 3454   0.461   4.009   2.270
  852SOL    HW1 3455   0.523   4.077   2.232
  852SOL    HW2 3456   0.451   4.025   2.368
  853SOL     OW 3457   2.932   2.544   6.941
  853SOL    HW1 3458   2.843   2.556   6.985
  853SOL    HW2 3459   2.983   2.473   6.989
  854SOL     OW 3460   5.678   6.657   6.628
  854SOL    HW1 3461   5.615   6.679   6.554
  854SOL    HW2 3462   5.695   6.558   6.630
  855SOL     OW 3463   5.549   1.323   0.404
  855SOL    HW1 3464   5.639   1.337   0.445
  855SOL    HW2 3465   5.547   1.365   0.314
  856SOL     OW 3466   2.305   5.414   1.170
  856SOL    HW1 3467   2.234   5.436   1.237
  856SOL    HW2 3468   2.374   5.355   1.213
  857SOL     OW 3469   6.317   5.333   5.682
  857SOL    HW1 3470   6.218   5.347   5.694
  857SOL    HW2 3471   6.333   5.240   5.650
  858SOL     OW 3472   4.828   3.277   0.478
  858SOL    HW1 3473   4.845   3.326   0.392
  858SOL    HW2 3474   4.912   3.230   0.506
  859SOL     OW 3475   4.742   6.651   5.391
  859SOL    HW1 3476   4.795   6.566   5.395
  859SOL    HW2 3477   4.749   6.691   5.299
  860SOL     OW 3478   5.373   3.536   5.847
  860SOL    HW1 3479   5.394   3.499   5.938
  860SOL    HW2 3480   5.289   3.589   5.851
  861SOL     OW 3481   2.178   5.924   2.112
  861SOL    HW1 3482   2.166   5.865   2.032
  861SOL    HW2 3483   2.152   6.018   2.089
  862SOL     OW 3484   0.534   4.048   3.223
  862SOL    HW1 3485   0.560   3.994   3.142
  862SOL    HW2 3486   0.454   4.104   3.202
  863SOL     OW 3487   6.660   0.638   0.320
  863SOL    HW1 3488   6.689   0.729   0.351
  863SOL    HW2 3489   6.712   0.614   0.238
  864SOL     OW 3490   5.725   7.006   4.896
  864SOL    HW1 3491   5.631   6.980   4.876
  864SOL    HW2 3492   5.777   6.925   4.924
  865SOL     OW 3493   1.649   6.240   5.079
  865SOL    HW1 3494   1.605   6.157   5.044
  865SOL    HW2 3495   1.712   6.216   5.153
  866SOL     OW 3496   3.094   6.592   1.957
  866SOL    HW1 3497   3.088   6.662   2.028
  866SOL    HW2 3498   3.169   6.614   1.895
  867SOL     OW 3499   5.772   2.539   6.974
  867SOL    HW1 3500   5.839   2.519   6.903
  867SOL    HW2 3501   5.681   2.543   6.933
  868SOL     OW 3502   6.891   1.857   2.693
  868SOL    HW1 3503   6.863   1.944   2.733
  868SOL    HW2 3504   6.991   1.849   2.696
  869SOL     OW 3505   6.833   4.244   3.430
  869SOL    HW1 3506   6.784   4.186   3.365
  869SOL    HW2 3507   6.790   4.237   3.520
  870SOL     OW 3508   3.723   5.152   2.214
  870SOL    HW1 3509   3.690   5.060   2.194
  870SOL    HW2 3510   3.701   5.176   2.309
  871SOL     OW 3511   4.625   1.830   2.841
  871SOL    HW1 3512   4.563   1.782   2.904
  871SOL    HW2 3513   4.694   1.766   2.807
  872SOL     OW 3514   0.071   2.934   5.136
  872SOL    HW1 3515   0.036   2.983   5.216
  872SOL    HW2 3516   7.022   2.924   5.069
  873SOL     OW 3517   4.933   6.682   6.020
  873SOL    HW1 3518   5.016   6.734   6.000
  873SOL    HW2 3519   4.888   6.658   5.935
  874SOL     OW 3520   4.422   4.451   0.629
  874SOL    HW1 3521   4.411   4.402   0.542
  874SOL    HW2 3522   4.388   4.545   0.618
  875SOL     OW 3523   5.164   5.623   0.554
  875SOL    HW1 3524   5.195   5.564   0.629
  875SOL    HW2 3525   5.131   5.566   0.479
  876SOL     OW 3526   6.925   6.536   1.264
  876SOL    HW1 3527   7.008   6.520   1.318
  876SOL    HW2 3528   6.867   6.603   1.312
  877SOL     OW 3529   2.470   3.445   6.300
  877SOL    HW1 3530   2.474   3.536   6.259
  877SOL    HW2 3531   2.487   3.376   6.230
  878SOL     OW 3532   4.112   6.826   4.058
  878SOL    HW1 3533   4.104   6.866   4.150
  878SOL    HW2 3534   4.081   6.731   4.060
  879SOL     OW 3535   5.872   0.396   0.558
  879SOL    HW1 3536   5.912   0.487   0.544
  879SOL    HW2 3537   5.923   0.329   0.504
  880SOL     OW 3538   2.902   3.273   3.142
  880SOL    HW1 3539   2.811   3.307   3.122
  880SOL    HW2 3540   2.969   3.346   3.128
  881SOL     OW 3541   4.084   1.500   6.679
  881SOL    HW1 3542   4.044   1.417   6.717
  881SOL    HW2 3543   4.034   1.580   6.713
  882SOL     OW 3544   1.122   3.636   4.539
  882SOL    HW1 3545   1.140   3.540   4.560
  882SOL    HW2 3546   1.195   3.693   4.577
  883SOL     OW 3547   2.954   0.166   2.629
  883SOL    HW1 3548   3.022   0.229   2.592
  883SOL    HW2 3549   2.995   0.076   2.644
  884SOL     OW 3550   4.571   3.165   5.445
  884SOL    HW1 3551   4.531   3.252   5.417
  884SOL    HW2 3552   4.500   3.095   5.446
  885SOL     OW 3553   3.695   2.820   6.177
  885SOL    HW1 3554   3.611   2.785   6.219
  885SOL    HW2 3555   3.736   2.749   6.120
  886SOL     OW 3556   3.692   6.988   6.998
  886SOL    HW1 3557   3.615   7.011   6.939
  886SOL    HW2 3558   3.664   6.992   0.069
  887SOL     OW 3559   4.754   1.988   4.318
  887SOL    HW1 3560   4.834   2.010   4.375
  887SOL    HW2 3561   4.721   2.071   4.273
  888SOL     OW 3562   6.940   6.963   3.362
  888SOL    HW1 3563   0.007   7.002   3.352
  888SOL    HW2 3564   6.901   6.944   3.272
  889SOL     OW 3565   0.689   3.529   0.085
  889SOL    HW1 3566   0.764   3.507   0.022
  889SOL    HW2 3567   0.659   3.446   0.131
  890SOL     OW 3568   2.822   5.499   4.160
  890SOL    HW1 3569   2.724   5.501   4.137
  890SOL    HW2 3570   2.875   5.491   4.076
  891SOL     OW 3571   5.766   5.637   1.014
  891SOL    HW1 3572   5.848   5.609   1.065
  891SOL    HW2 3573   5.729   5.721   1.054
  892SOL     OW 3574   3.299   5.112   6.762
  892SOL    HW1 3575   3.221   5.107   6.825
  892SOL    HW2 3576   3.267   5.132   6.670
  893SOL     OW 3577   2.483   6.483   2.700
  893SOL    HW1 3578   2.534   6.549   2.754
  893SOL    HW2 3579   2.390   6.516   2.686
  894SOL     OW 3580   1.556   3.754   1.483
  894SOL    HW1 3581   1.486   3.703   1.532
  894SOL    HW2 3582   1.541   3.744   1.384
  895SOL     OW 3583   0.731   6.090   3.765
  895SOL    HW1 3584   0.638   6.091   3.799
  895SOL    HW2 3585   0.778   6.174   3.792
  896SOL     OW 3586   6.350   6.113   5.313
  896SOL    HW1 3587   6.440   6.157   5.318
  896SOL    HW2 3588   6.299   6.133   5.397
  897SOL     OW 3589   5.446   0.954   6.757
  897SOL    HW1 3590   5.353   0.969   6.722
  897SOL    HW2 3591   5.448   0.869   6.810
  898SOL     OW 3592   4.236   5.991   3.196
  898SOL    HW1 3593   4.196   6.070   3.150
  898SOL    HW2 3594   4.194   5.907   3.160
  899SOL     OW 3595   6.542   4.744   6.609
  899SOL    HW1 3596   6.605   4.710   6.539
  899SOL    HW2 3597   6.535   4.676   6.682
  900SOL     OW 3598   5.137   6.128   0.698
  900SOL    HW1 3599   5.092   6.082   0.621
  900SOL    HW2 3600   5.219   6.078   0.724
  901SOL     OW 3601   1.509   1.005   2.066
  901SOL    HW1 3602   1.418   1.043   2.082
  901SOL    HW2 3603   1.578   1.059   2.114
  902SOL     OW 3604   6.025   4.358   1.883
  902SOL    HW1 3605   6.097   4.359   1.815
  902SOL    HW2 3606   6.061   4.321   1.969
  903SOL     OW 3607   6.916   2.849   0.169
  903SOL    HW1 3608   6.962   2.888   0.090
  903SOL    HW2 3609   6.925   2.910   0.248
  904SOL     OW 3610   3.102   1.655   2.540
  904SOL    HW1 3611   3.006   1.644   2.515
  904SOL    HW2 3612   3.160   1.631   2.462
  905SOL     OW 3613   5.940   2.479   6.779
  905SOL    HW1 3614   6.006   2.411   6.749
  905SOL    HW2 3615   5.983   2.569   6.781
  906SOL     OW 3616   6.488   3.306   6.480
  906SOL    HW1 3617   6.396   3.311   6.519
  906SOL    HW2 3618   6.552   3.277   6.551
  907SOL     OW 3619   5.011   3.649   6.723
  907SOL    HW1 3620   4.955   3.671   6.643
  907SOL    HW2 3621   5.001   3.722   6.791
  908SOL     OW 3622   2.333   4.611   2.663
  908SOL    HW1 3623   2.430   4.625   2.686
  908SOL    HW2 3624   2.276   4.650   2.734
  909SOL     OW 3625   5.228   5.167   6.432
  909SOL    HW1 3626   5.188   5.114   6.357
  909SOL    HW2 3627   5.234   5.263   6.405
  910SOL     OW 3628   2.506   3.366   1.272
  910SOL    HW1 3629   2.441   3.320   1.333
  910SOL    HW2 3630   2.480   3.349   1.177
  911SOL     OW 3631   0.960   5.364   6.514
  911SOL    HW1 3632   0.979   5.308   6.434
  911SOL    HW2 3633   0.875   5.414   6.501
  912SOL     OW 3634   4.783   2.284   2.680
  912SOL    HW1 3635   4.784   2.184   2.678
  912SOL    HW2 3636   4.865   2.317   2.727
  913SOL     OW 3637   4.971   0.128   3.501
  913SOL    HW1 3638   4.876   0.143   3.477
  913SOL    HW2 3639   5.011   0.062   3.438
  914SOL     OW 3640   2.705   6.826   0.332
  914SOL    HW1 3641   2.667   6.738   0.305
  914SOL    HW2 3642   2.635   6.879   0.380
  915SOL     OW 3643   6.290   5.802   0.602
  915SOL    HW1 3644   6.337   5.849   0.677
  915SOL    HW2 3645   6.318   5.842   0.515
  916SOL     OW 3646   0.681   2.388   2.192
  916SOL    HW1 3647   0.739   2.309   2.210
  916SOL    HW2 3648   0.624   2.369   2.112
  917SOL     OW 3649   6.739   6.870   0.747
  917SOL    HW1 3650   6.716   6.955   0.700
  917SOL    HW2 3651   6.795   6.813   0.687
  918SOL     OW 3652   1.691   5.340   0.335
  918SOL    HW1 3653   1.750   5.302   0.264
  918SOL    HW2 3654   1.595   5.325   0.311
  919SOL     OW 3655   5.811   2.082   4.670
  919SOL    HW1 3656   5.788   2.110   4.577
  919SOL    HW2 3657   5.763   1.997   4.693
  920SOL     OW 3658   2.710   4.757   2.172
  920SOL    HW1 3659   2.723   4.686   2.103
  920SOL    HW2 3660   2.617   4.753   2.208
  921SOL     OW 3661   5.015   5.509   4.846
  921SOL    HW1 3662   5.104   5.504   4.801
  921SOL    HW2 3663   5.000   5.601   4.882
  922SOL     OW 3664   4.125   3.469   3.848
  922SOL    HW1 3665   4.152   3.434   3.759
  922SOL    HW2 3666   4.135   3.569   3.849
  923SOL     OW 3667   2.312   3.377   5.649
  923SOL    HW1 3668   2.222   3.358   5.687
  923SOL    HW2 3669   2.304   3.398   5.551
  924SOL     OW 3670   0.356   3.767   2.887
  924SOL    HW1 3671   0.273   3.773   2.832
  924SOL    HW2 3672   0.355   3.682   2.940
  925SOL     OW 3673   6.317   1.784   0.403
  925SOL    HW1 3674   6.361   1.874   0.402
  925SOL    HW2 3675   6.219   1.795   0.386
  926SOL     OW 3676   0.615   1.612   1.944
  926SOL    HW1 3677   0.547   1.623   1.872
  926SOL    HW2 3678   0.672   1.694   1.949
  927SOL     OW 3679   5.769   3.926   3.435
  927SOL    HW1 3680   5.785   4.006   3.493
  927SOL    HW2 3681   5.759   3.845   3.492
  928SOL     OW 3682   2.955   4.919   6.865
  928SOL    HW1 3683   3.009   4.861   6.926
  928SOL    HW2 3684   2.991   5.012   6.867
  929SOL     OW 3685   6.824   1.342   5.603
  929SOL    HW1 3686   6.756   1.415   5.593
  929SOL    HW2 3687   6.844   1.302   5.514
  930SOL     OW 3688   5.581   5.559   5.621
  930SOL    HW1 3689   5.514   5.626   5.588
  930SOL    HW2 3690   5.586   5.483   5.556
  931SOL     OW 3691   6.263   2.629   2.962
  931SOL    HW1 3692   6.241   2.703   3.025
  931SOL    HW2 3693   6.178   2.586   2.930
  932SOL     OW 3694   3.514   0.334   3.595
  932SOL    HW1 3695   3.431   0.322   3.650
  932SOL    HW2 3696   3.594   0.314   3.652
  933SOL     OW 3697   1.464   4.611   1.813
  933SOL    HW1 3698   1.412   4.609   1.898
  933SOL    HW2 3699   1.556   4.576   1.829
  934SOL     OW 3700   1.786   4.340   6.940
  934SOL    HW1 3701   1.857   4.302   7.000
  934SOL    HW2 3702   1.743   4.418   6.985
  935SOL     OW 3703   5.874   3.297   3.890
  935SOL    HW1 3704   5.804   3.269   3.956
  935SOL    HW2 3705   5.943   3.352   3.936
  936SOL     OW 3706   1.640   6.951   6.103
  936SOL    HW1 3707   1.631   6.923   6.007
  936SOL    HW2 3708   1.620   0.024   6.111
  937SOL     OW 3709   4.361   1.464   5.643
  937SOL    HW1 3710   4.402   1.395   5.582
  937SOL    HW2 3711   4.350   1.425   5.734
  938SOL     OW 3712   5.559   5.644   4.377
  938SOL    HW1 3713   5.647   5.601   4.360
  938SOL    HW2 3714   5.501   5.634   4.296
  939SOL     OW 3715   0.641   6.713   5.633
  939SOL    HW1 3716   0.608   6.684   5.723
  939SOL    HW2 3717   0.582   6.786   5.598
  940SOL     OW 3718   1.918   5.304   6.969
  940SOL    HW1 3719   2.007   5.275   6.934
  940SOL    HW2 3720   1.931   5.380   0.008
  941SOL     OW 3721   3.317   0.326   6.737
  941SOL    HW1 3722   3.299   0.391   6.811
  941SOL    HW2 3723   3.289   0.365   6.650
  942SOL     OW 3724   0.383   5.355   0.508
  942SOL    HW1 3725   0.435   5.427   0.553
  942SOL    HW2 3726   0.410   5.349   0.412
  943SOL     OW 3727   3.083   5.398   2.491
  943SOL    HW1 3728   3.144   5.407   2.570
  943SOL    HW2 3729   2.993   5.365   2.521
  944SOL     OW 3730   0.091   6.382   4.505
  944SOL    HW1 3731   0.081   6.284   4.491
  944SOL    HW2 3732   0.070   6.430   4.420
  945SOL     OW 3733   0.784   5.479   6.935
  945SOL    HW1 3734   0.712   5.421   6.898
  945SOL    HW2 3735   0.865   5.471   6.877
  946SOL     OW 3736   4.885   3.251   3.677
  946SOL    HW1 3737   4.889   3.327   3.742
  946SOL    HW2 3738   4.938   3.273   3.595
  947SOL     OW 3739   3.695   4.134   4.203
  947SOL    HW1 3740   3.606   4.150   4.161
  947SOL    HW2 3741   3.700   4.040   4.236
  948SOL     OW 3742   3.889   0.560   2.849
  948SOL    HW1 3743   3.937   0.597   2.769
  948SOL    HW2 3744   3.791   0.553   2.829
  949SOL     OW 3745   2.506   0.084   6.392
  949SOL    HW1 3746   2.482   0.102   6.488
  949SOL    HW2 3747   2.478   7.016   6.368
  950SOL     OW 3748   0.052   0.185   1.800
  950SOL    HW1 3749   0.103   0.197   1.715
  950SOL    HW2 3750   0.113   0.199   1.878
  951SOL     OW 3751   2.209   6.620   3.560
  951SOL    HW1 3752   2.128   6.636   3.504
  951SOL    HW2 3753   2.215   6.523   3.584
  952SOL     OW 3754   3.182   1.035   2.005
  952SOL    HW1 3755   3.164   1.126   1.968
  952SOL    HW2 3756   3.274   1.033   2.046
  953SOL     OW 3757   6.263   4.597   5.801
  953SOL    HW1 3758   6.269   4.610   5.703
  953SOL    HW2 3759   6.170   4.618   5.832
  954SOL     OW 3760   4.786   6.032   2.525
  954SOL    HW1 3761   4.849   6.075   2.461
  954SOL    HW2 3762   4.835   6.009   2.610
  955SOL     OW 3763   1.329   4.873   6.839
  955SOL    HW1 3764   1.240   4.914   6.857
  955SOL    HW2 3765   1.391   4.943   6.804
  956SOL     OW 3766   5.784   0.216   1.293
  956SOL    HW1 3767   5.764   0.168   1.379
  956SOL    HW2 3768   5.715   0.287   1.278
  957SOL     OW 3769   5.607   1.437   3.113
  957SOL    HW1 3770   5.508   1.417   3.113
  957SOL    HW2 3771   5.650   1.388   3.188
  958SOL     OW 3772   5.259   0.049   1.910
  958SOL    HW1 3773   5.265   0.148   1.898
  958SOL    HW2 3774   5.201   0.029   1.989
  959SOL     OW 3775   4.062   6.705   4.578
  959SOL    HW1 3776   4.134   6.651   4.622
  959SOL    HW2 3777   4.061   6.797   4.617
  960SOL     OW 3778   0.998   0.156   6.774
  960SOL    HW1 3779   0.970   0.249   6.749
  960SOL    HW2 3780   0.916   0.102   6.796
  961SOL     OW 3781   3.344   6.922   3.146
  961SOL    HW1 3782   3.344   6.869   3.230
  961SOL    HW2 3783   3.425   6.981   3.143
  962SOL     OW 3784   6.208   0.579   5.050
  962SOL    HW1 3785   6.248   0.551   4.962
  962SOL    HW2 3786   6.245   0.669   5.076
  963SOL     OW 3787   5.797   3.108   0.684
  963SOL    HW1 3788   5.786   3.024   0.630
  963SOL    HW2 3789   5.883   3.152   0.658
  964SOL     OW 3790   4.801   4.570   5.435
  964SOL    HW1 3791   4.898   4.592   5.423
  964SOL    HW2 3792   4.785   4.544   5.531
  965SOL     OW 3793   5.996   3.253   3.624
  965SOL    HW1 3794   5.943   3.245   3.709
  965SOL    HW2 3795   5.966   3.183   3.559
  966SOL     OW 3796   4.745   2.339   4.524
  966SOL    HW1 3797   4.802   2.337   4.442
  966SOL    HW2 3798   4.659   2.385   4.504
  967SOL     OW 3799   5.131   3.781   6.153
  967SOL    HW1 3800   5.056   3.838   6.186
  967SOL    HW2 3801   5.190   3.757   6.230
  968SOL     OW 3802   3.811   0.318   1.674
  968SOL    HW1 3803   3.801   0.279   1.583
  968SOL    HW2 3804   3.793   0.417   1.670
  969SOL     OW 3805   3.574   4.220   6.210
  969SOL    HW1 3806   3.536   4.128   6.200
  969SOL    HW2 3807   3.670   4.220   6.184
  970SOL     OW 3808   6.384   0.172   6.228
  970SOL    HW1 3809   6.346   0.116   6.301
  970SOL    HW2 3810   6.411   0.261   6.264
  971SOL     OW 3811   5.814   4.386   3.070
  971SOL    HW1 3812   5.731   4.422   3.113
  971SOL    HW2 3813   5.891   4.446   3.091
  972SOL     OW 3814   0.211   3.063   0.513
  972SOL    HW1 3815   0.207   3.141   0.450
  972SOL    HW2 3816   0.208   3.097   0.607
  973SOL     OW 3817   6.974   3.563   6.022
  973SOL    HW1 3818   7.020   3.513   6.096
  973SOL    HW2 3819   6.976   3.661   6.042
  974SOL     OW 3820   6.773   5.145   3.601
  974SOL    HW1 3821   6.683   5.106   3.620
  974SOL    HW2 3822   6.766   5.245   3.595
  975SOL     OW 3823   2.601   0.395   2.061
  975SOL    HW1 3824   2.538   0.428   2.131
  975SOL    HW2 3825   2.584   0.299   2.043
  976SOL     OW 3826   6.229   3.134   2.910
  976SOL    HW1 3827   6.249   3.047   2.865
  976SOL    HW2 3828   6.130   3.143   2.922
  977SOL     OW 3829   0.332   0.694   2.565
  977SOL    HW1 3830   0.348   0.617   2.627
  977SOL    HW2 3831   0.307   0.775   2.618
  978SOL     OW 3832   5.407   3.220   2.089
  978SOL    HW1 3833   5.448   3.292   2.034
  978SOL    HW2 3834   5.318   3.194   2.050
  979SOL     OW 3835   0.743   4.099   6.699
  979SOL    HW1 3836   0.644   4.086   6.712
  979SOL    HW2 3837   0.760   4.140   6.610
  980SOL     OW 3838   3.084   1.546   4.494
  980SOL    HW1 3839   3.141   1.479   4.447
  980SOL    HW2 3840   3.018   1.584   4.429
  981SOL     OW 3841   6.770   6.603   5.236
  981SOL    HW1 3842   6.677   6.581   5.204
  981SOL    HW2 3843   6.806   6.679   5.182
  982SOL     OW 3844   6.052   0.947   5.843
  982SOL    HW1 3845   6.138   0.996   5.833
  982SOL    HW2 3846   5.981   1.009   5.877
  983SOL     OW 3847   0.281   4.578   4.844
  983SOL    HW1 3848   0.338   4.586   4.762
  983SOL    HW2 3849   0.199   4.635   4.833
  984SOL     OW 3850   0.413   2.706   3.345
  984SOL    HW1 3851   0.337   2.753   3.300
  984SOL    HW2 3852   0.467   2.656   3.277
  985SOL     OW 3853   6.407   4.725   5.330
  985SOL    HW1 3854   6.327   4.740   5.272
  985SOL    HW2 3855   6.457   4.811   5.341
  986SOL     OW 3856   5.457   4.810   1.062
  986SOL    HW1 3857   5.490   4.720   1.033
  986SOL    HW2 3858   5.465   4.818   1.161
  987SOL     OW 3859   4.959   4.622   4.213
  987SOL    HW1 3860   4.940   4.718   4.195
  987SOL    HW2 3861   4.913   4.595   4.298
  988SOL     OW 3862   2.648   4.274   1.552
  988SOL    HW1 3863   2.641   4.358   1.605
  988SOL    HW2 3864   2.718   4.215   1.592
  989SOL     OW 3865   0.420   1.736   1.154
  989SOL    HW1 3866   0.416   1.832   1.181
  989SOL    HW2 3867   0.357   1.720   1.078
  990SOL     OW 3868   3.866   0.017   3.678
  990SOL    HW1 3869   3.887   0.007   3.775
  990SOL    HW2 3870   3.865   6.951   3.634
  991SOL     OW 3871   0.158   5.165   3.342
  991SOL    HW1 3872   0.198   5.081   3.307
  991SOL    HW2 3873   0.189   5.180   3.436
  992SOL     OW 3874   0.406   2.561   1.072
  992SOL    HW1 3875   0.393   2.645   1.020
  992SOL    HW2 3876   0.380   2.482   1.016
  993SOL     OW 3877   1.123   5.253   0.241
  993SOL    HW1 3878   1.042   5.269   0.184
  993SOL    HW2 3879   1.120   5.314   0.320
  994SOL     OW 3880   3.256   6.211   0.114
  994SOL    HW1 3881   3.213   6.127   0.147
  994SOL    HW2 3882   3.229   6.288   0.172
  995SOL     OW 3883   6.058   3.799   5.629
  995SOL    HW1 3884   6.011   3.761   5.550
  995SOL    HW2 3885   6.141   3.745   5.648
  996SOL     OW 3886   3.584   6.339   5.759
  996SOL    HW1 3887   3.586   6.403   5.836
  996SOL    HW2 3888   3.678   6.308   5.740
  997SOL     OW 3889   1.571   6.228   3.924
  997SOL    HW1 3890   1.633   6.151   3.939
  997SOL    HW2 3891   1.540   6.263   4.013
  998SOL     OW 3892   6.448   0.652   6.426
  998SOL    HW1 3893   6.466   0.719   6.497
  998SOL    HW2 3894   6.354   0.661   6.394
  999SOL     OW 3895   4.892   4.332   2.523
  999SOL    HW1 3896   4.820   4.296   2.582
  999SOL    HW2 3897   4.897   4.431   2.534
 1000SOL     OW 3898   4.642   2.102   1.095
 1000SOL    HW1 3899   4.654   2.003   1.092
 1000SOL    HW2 3900   4.618   2.136   1.004
 1001SOL     OW 3901   3.411   6.427   2.702
 1001SOL    HW1 3902   3.459   6.439   2.789
 1001SOL    HW2 3903   3.385   6.517   2.666
 1002SOL     OW 3904   5.143   2.507   0.967
 1002SOL    HW1 3905   5.239   2.501   0.993
 1002SOL    HW2 3906   5.107   2.414   0.953
 1003SOL     OW 3907   0.619   0.167   3.172
 1003SOL    HW1 3908   0.529   0.123   3.177
 1003SOL    HW2 3909   0.679   0.125   3.240
 1004SOL     OW 3910   5.579   1.568   3.619
 1004SOL    HW1 3911   5.659   1.579   3.677
 1004SOL    HW2 3912   5.596   1.610   3.530
 1005SOL     OW 3913   1.383   4.693   2.801
 1005SOL    HW1 3914   1.407   4.623   2.734
 1005SOL    HW2 3915   1.283   4.699   2.809
 1006SOL     OW 3916   2.576   3.705   1.060
 1006SOL    HW1 3917   2.529   3.794   1.056
 1006SOL    HW2 3918   2.566   3.658   0.973
 1007SOL     OW 3919   4.712   0.633   6.921
 1007SOL    HW1 3920   4.804   0.599   6.904
 1007SOL    HW2 3921   4.656   0.619   6.840
 1008SOL     OW 3922   7.020   4.588   5.559
 1008SOL    HW1 3923   0.065   4.527   5.519
 1008SOL    HW2 3924   0.019   4.683   5.537
 1009SOL     OW 3925   6.947   5.198   6.470
 1009SOL    HW1 3926   0.006   5.223   6.422
 1009SOL    HW2 3927   6.871   5.198   6.405
 1010SOL     OW 3928   2.524   3.130   0.857
 1010SOL    HW1 3929   2.461   3.083   0.918
 1010SOL    HW2 3930   2.618   3.119   0.890
 1011SOL     OW 3931   6.553   5.339   2.376
 1011SOL    HW1 3932   6.600   5.261   2.418
 1011SOL    HW2 3933   6.621   5.401   2.336
 1012SOL     OW 3934   4.500   0.523   3.373
 1012SOL    HW1 3935   4.586   0.537   3.324
 1012SOL    HW2 3936   4.450   0.448   3.332
 1013SOL     OW 3937   0.171   6.414   6.592
 1013SOL    HW1 3938   0.171   6.472   6.510
 1013SOL    HW2 3939   0.085   6.363   6.596
 1014SOL     OW 3940   1.070   4.728   5.465
 1014SOL    HW1 3941   0.983   4.696   5.501
 1014SOL    HW2 3942   1.065   4.735   5.365
 1015SOL     OW 3943   3.100   6.362   6.852
 1015SOL    HW1 3944   3.038   6.284   6.842
 1015SOL    HW2 3945   3.195   6.329   6.852
 1016SOL     OW 3946   5.757   4.335   1.753
 1016SOL    HW1 3947   5.706   4.378   1.828
 1016SOL    HW2 3948   5.849   4.375   1.748
 1017SOL     OW 3949   2.141   1.796   2.191
 1017SOL    HW1 3950   2.058   1.740   2.192
 1017SOL    HW2 3951   2.163   1.826   2.284
 1018SOL     OW 3952   6.848   5.878   3.565
 1018SOL    HW1 3953   6.880   5.840   3.478
 1018SOL    HW2 3954   6.906   5.843   3.640
 1019SOL     OW 3955   6.589   4.576   0.804
 1019SOL    HW1 3956   6.666   4.513   0.808
 1019SOL    HW2 3957   6.615   4.657   0.751
 1020SOL     OW 3958   6.077   0.772   0.829
 1020SOL    HW1 3959   5.984   0.809   0.827
 1020SOL    HW2 3960   6.142   0.843   0.803
 1021SOL     OW 3961   0.008   6.123   1.006
 1021SOL    HW1 3962   0.062   6.198   1.044
 1021SOL    HW2 3963   0.015   6.043   1.066
 1022SOL     OW 3964   2.737   5.543   6.673
 1022SOL    HW1 3965   2.778   5.594   6.597
 1022SOL    HW2 3966   2.705   5.608   6.742
 1023SOL     OW 3967   0.537   1.657   3.372
 1023SOL    HW1 3968   0.473   1.727   3.404
 1023SOL    HW2 3969   0.566   1.601   3.450
 1024SOL     OW 3970   1.824   1.878   4.722
 1024SOL    HW1 3971   1.879   1.954   4.757
 1024SOL    HW2 3972   1.777   1.907   4.639
 1025SOL     OW 3973   4.742   3.698   0.559
 1025SOL    HW1 3974   4.681   3.685   0.481
 1025SOL    HW2 3975   4.691   3.740   0.634
 1026SOL     OW 3976   2.828   2.613   0.923
 1026SOL    HW1 3977   2.894   2.678   0.887
 1026SOL    HW2 3978   2.736   2.651   0.916
 1027SOL     OW 3979   0.822   6.716   0.816
 1027SOL    HW1 3980   0.877   6.666   0.749
 1027SOL    HW2 3981   0.766   6.784   0.769
 1028SOL     OW 3982   1.803   5.913   2.487
 1028SOL    HW1 3983   1.860   5.984   2.529
 1028SOL    HW2 3984   1.851   5.825   2.491
 1029SOL     OW 3985   0.725   1.100   5.893
 1029SOL    HW1 3986   0.684   1.181   5.852
 1029SOL    HW2 3987   0.765   1.124   5.981
 1030SOL     OW 3988   3.630   3.193   1.257
 1030SOL    HW1 3989   3.724   3.158   1.265
 1030SOL    HW2 3990   3.585   3.185   1.346
 1031SOL     OW 3991   3.424   3.500   1.271
 1031SOL    HW1 3992   3.427   3.600   1.273
 1031SOL    HW2 3993   3.504   3.465   1.223
 1032SOL     OW 3994   2.361   1.933   6.444
 1032SOL    HW1 3995   2.293   1.981   6.500
 1032SOL    HW2 3996   2.315   1.883   6.371
 1033SOL     OW 3997   0.999   6.509   2.151
 1033SOL    HW1 3998   1.053   6.433   2.189
 1033SOL    HW2 3999   1.013   6.513   2.052
 1034SOL     OW 4000   3.234   0.459   4.253
 1034SOL    HW1 4001   3.301   0.531   4.273
 1034SOL    HW2 4002   3.145   0.484   4.290
 1035SOL     OW 4003   0.911   1.961   5.782
 1035SOL    HW1 4004   0.891   2.009   5.867
 1035SOL    HW2 4005   1.008   1.936   5.780
 1036SOL     OW 4006   5.462   1.826   1.239
 1036SOL    HW1 4007   5.413   1.741   1.219
 1036SOL    HW2 4008   5.507   1.819   1.328
 1037SOL     OW 4009   1.395   2.620   2.333
 1037SOL    HW1 4010   1.488   2.593   2.307
 1037SOL    HW2 4011   1.386   2.720   2.323
 1038SOL     OW 4012   2.769   6.109   0.144
 1038SOL    HW1 4013   2.823   6.193   0.152
 1038SOL    HW2 4014   2.702   6.119   0.071
 1039SOL     OW 4015   3.757   2.953   3.675
 1039SOL    HW1 4016   3.826   3.024   3.691
 1039SOL    HW2 4017   3.769   2.915   3.583
 1040SOL     OW 4018   3.523   1.297   3.021
 1040SOL    HW1 4019   3.507   1.228   3.091
 1040SOL    HW2 4020   3.556   1.381   3.063
 1041SOL     OW 4021   0.107   5.613   6.191
 1041SOL    HW1 4022   0.158   5.689   6.150
 1041SOL    HW2 4023   0.057   5.564   6.119
 1042SOL     OW 4024   5.668   4.920   2.638
 1042SOL    HW1 4025   5.662   5.002   2.696
 1042SOL    HW2 4026   5.660   4.947   2.542
 1043SOL     OW 4027   3.029   2.110   3.635
 1043SOL    HW1 4028   3.089   2.135   3.711
 1043SOL    HW2 4029   2.943   2.161   3.642
 1044SOL     OW 4030   5.180   4.800   1.781
 1044SOL    HW1 4031   5.171   4.899   1.770
 1044SOL    HW2 4032   5.263   4.768   1.734
 1045SOL     OW 4033   1.885   0.744   2.881
 1045SOL    HW1 4034   1.808   0.740   2.944
 1045SOL    HW2 4035   1.962   0.693   2.919
 1046SOL     OW 4036   3.142   1.005   0.663
 1046SOL    HW1 4037   3.148   1.093   0.708
 1046SOL    HW2 4038   3.048   0.990   0.630
 1047SOL     OW 4039   3.971   6.329   3.946
 1047SOL    HW1 4040   3.971   6.321   3.846
 1047SOL    HW2 4041   4.016   6.249   3.986
 1048SOL     OW 4042   1.199   6.269   2.216
 1048SOL    HW1 4043   1.247   6.266   2.129
 1048SOL    HW2 4044   1.207   6.180   2.262
 1049SOL     OW 4045   4.390   6.236   5.218
 1049SOL    HW1 4046   4.356   6.170   5.150
 1049SOL    HW2 4047   4.337   6.226   5.302
 1050SOL     OW 4048   3.594   5.452   2.798
 1050SOL    HW1 4049   3.613   5.489   2.707
 1050SOL    HW2 4050   3.569   5.527   2.860
 1051SOL     OW 4051   0.840   0.093   6.359
 1051SOL    HW1 4052   0.839   0.094   6.259
 1051SOL    HW2 4053   0.911   0.031   6.391
 1052SOL     OW 4054   3.275   0.807   7.012
 1052SOL    HW1 4055   3.258   0.709   7.003
 1052SOL    HW2 4056   3.204   0.858   6.963
 1053SOL     OW 4057   5.653   2.812   3.313
 1053SOL    HW1 4058   5.619   2.835   3.404
 1053SOL    HW2 4059   5.671   2.896   3.262
 1054SOL     OW 4060   3.138   4.992   6.164
 1054SOL    HW1 4061   3.092   4.904   6.157
 1054SOL    HW2 4062   3.231   4.984   6.128
 1055SOL     OW 4063   5.127   6.223   6.588
 1055SOL    HW1 4064   5.219   6.231   6.627
 1055SOL    HW2 4065   5.068   6.171   6.651
 1056SOL     OW 4066   3.163   3.721   6.552
 1056SOL    HW1 4067   3.247   3.716   6.499
 1056SOL    HW2 4068   3.183   3.704   6.648
 1057SOL     OW 4069   2.714   2.032   0.866
 1057SOL    HW1 4070   2.727   1.979   0.950
 1057SOL    HW2 4071   2.769   1.991   0.793
 1058SOL     OW 4072   2.365   2.622   2.381
 1058SOL    HW1 4073   2.287   2.680   2.402
 1058SOL    HW2 4074   2.339   2.553   2.314
 1059SOL     OW 4075   2.692   6.774   1.892
 1059SOL    HW1 4076   2.607   6.723   1.887
 1059SOL    HW2 4077   2.761   6.719   1.939
 1060SOL     OW 4078   5.841   6.329   5.569
 1060SOL    HW1 4079   5.861   6.408   5.511
 1060SOL    HW2 4080   5.870   6.245   5.522
 1061SOL     OW 4081   0.068   3.899   0.204
 1061SOL    HW1 4082   0.076   3.977   0.266
 1061SOL    HW2 4083   7.010   3.909   0.149
 1062SOL     OW 4084   3.592   6.524   4.911
 1062SOL    HW1 4085   3.526   6.582   4.959
 1062SOL    HW2 4086   3.671   6.508   4.970
 1063SOL     OW 4087   2.836   6.700   6.001
 1063SOL    HW1 4088   2.900   6.624   5.997
 1063SOL    HW2 4089   2.757   6.675   6.056
 1064SOL     OW 4090   1.777   3.677   0.605
 1064SOL    HW1 4091   1.810   3.697   0.512
 1064SOL    HW2 4092   1.688   3.633   0.601
 1065SOL     OW 4093   4.331   1.119   4.324
 1065SOL    HW1 4094   4.414   1.123   4.268
 1065SOL    HW2 4095   4.267   1.189   4.293
 1066SOL     OW 4096   5.149   6.976   1.648
 1066SOL    HW1 4097   5.140   0.007   1.565
 1066SOL    HW2 4098   5.087   7.011   1.718
 1067SOL     OW 4099   2.580   1.454   0.138
 1067SOL    HW1 4100   2.665   1.469   0.088
 1067SOL    HW2 4101   2.596   1.470   0.236
 1068SOL     OW 4102   6.385   3.402   1.455
 1068SOL    HW1 4103   6.464   3.341   1.459
 1068SOL    HW2 4104   6.303   3.349   1.434
 1069SOL     OW 4105   6.429   3.938   1.766
 1069SOL    HW1 4106   6.365   3.863   1.752
 1069SOL    HW2 4107   6.409   3.984   1.853
 1070SOL     OW 4108   0.864   0.048   1.858
 1070SOL    HW1 4109   0.929   0.116   1.823
 1070SOL    HW2 4110   0.902   0.005   1.940
 1071SOL     OW 4111   6.829   3.059   5.643
 1071SOL    HW1 4112   6.920   3.099   5.648
 1071SOL    HW2 4113   6.810   3.030   5.549
 1072SOL     OW 4114   2.215   1.418   2.374
 1072SOL    HW1 4115   2.252   1.326   2.386
 1072SOL    HW2 4116   2.265   1.464   2.300
 1073SOL     OW 4117   4.923   1.797   3.027
 1073SOL    HW1 4118   4.997   1.746   3.071
 1073SOL    HW2 4119   4.869   1.845   3.097
 1074SOL     OW 4120   2.595   4.468   1.757
 1074SOL    HW1 4121   2.681   4.502   1.795
 1074SOL    HW2 4122   2.543   4.544   1.717
 1075SOL     OW 4123   5.879   3.738   5.421
 1075SOL    HW1 4124   5.904   3.774   5.331
 1075SOL    HW2 4125   5.794   3.686   5.414
 1076SOL     OW 4126   2.262   4.112   4.704
 1076SOL    HW1 4127   2.281   4.210   4.698
 1076SOL    HW2 4128   2.275   4.082   4.798
 1077SOL     OW 4129   0.378   0.009   0.094
 1077SOL    HW1 4130   0.322   6.952   0.110
 1077SOL    HW2 4131   0.397   0.018   7.020
 1078SOL     OW 4132   6.709   6.636   4.122
 1078SOL    HW1 4133   6.740   6.728   4.145
 1078SOL    HW2 4134   6.668   6.636   4.030
 1079SOL     OW 4135   0.674   6.906   2.495
 1079SOL    HW1 4136   0.576   6.899   2.512
 1079SOL    HW2 4137   0.724   6.849   2.560
 1080SOL     OW 4138   2.833   5.446   6.193
 1080SOL    HW1 4139   2.844   5.424   6.290
 1080SOL    HW2 4140   2.878   5.377   6.137
 1081SOL     OW 4141   6.685   5.596   4.163
 1081SOL    HW1 4142   6.696   5.517   4.225
 1081SOL    HW2 4143   6.588   5.610   4.144
 1082SOL     OW 4144   4.960   6.574   6.266
 1082SOL    HW1 4145   4.946   6.642   6.194
 1082SOL    HW2 4146   4.969   6.620   6.354
 1083SOL     OW 4147   5.125   4.311   1.077
 1083SOL    HW1 4148   5.153   4.301   1.173
 1083SOL    HW2 4149   5.206   4.308   1.018
 1084SOL     OW 4150   6.808   0.290   5.541
 1084SOL    HW1 4151   6.851   0.211   5.585
 1084SOL    HW2 4152   6.875   0.364   5.534
 1085SOL     OW 4153   1.200   4.113   4.587
 1085SOL    HW1 4154   1.243   4.076   4.670
 1085SOL    HW2 4155   1.270   4.154   4.529
 1086SOL     OW 4156   5.771   5.360   0.809
 1086SOL    HW1 4157   5.825   5.444   0.799
 1086SOL    HW2 4158   5.824   5.293   0.861
 1087SOL     OW 4159   3.277   0.454   5.636
 1087SOL    HW1 4160   3.219   0.510   5.694
 1087SOL    HW2 4161   3.265   0.480   5.540
 1088SOL     OW 4162   6.974   4.963   3.271
 1088SOL    HW1 4163   0.033   5.017   3.260
 1088SOL    HW2 4164   6.972   4.890   3.203
 1089SOL     OW 4165   6.559   4.032   3.936
 1089SOL    HW1 4166   6.653   4.016   3.966
 1089SOL    HW2 4167   6.502   3.953   3.962
 1090SOL     OW 4168   5.673   1.867   5.052
 1090SOL    HW1 4169   5.592   1.926   5.060
 1090SOL    HW2 4170   5.644   1.774   5.030
 1091SOL     OW 4171   2.240   2.727   3.136
 1091SOL    HW1 4172   2.230   2.638   3.092
 1091SOL    HW2 4173   2.337   2.752   3.140
 1092SOL     OW 4174   0.445   5.617   1.238
 1092SOL    HW1 4175   0.444   5.552   1.162
 1092SOL    HW2 4176   0.482   5.573   1.319
 1093SOL     OW 4177   1.802   6.813   2.628
 1093SOL    HW1 4178   1.717   6.855   2.599
 1093SOL    HW2 4179   1.804   6.717   2.599
 1094SOL     OW 4180   1.103   0.155   3.152
 1094SOL    HW1 4181   1.057   0.236   3.187
 1094SOL    HW2 4182   1.178   0.182   3.092
 1095SOL     OW 4183   5.882   3.432   0.128
 1095SOL    HW1 4184   5.889   3.352   0.187
 1095SOL    HW2 4185   5.788   3.440   0.093
 1096SOL     OW 4186   2.778   5.678   1.757
 1096SOL    HW1 4187   2.774   5.607   1.687
 1096SOL    HW2 4188   2.813   5.763   1.717
 1097SOL     OW 4189   3.383   5.242   4.593
 1097SOL    HW1 4190   3.467   5.255   4.540
 1097SOL    HW2 4191   3.304   5.248   4.532
 1098SOL     OW 4192   6.337   4.877   0.877
 1098SOL    HW1 4193   6.253   4.834   0.909
 1098SOL    HW2 4194   6.391   4.908   0.956
 1099SOL     OW 4195   4.668   0.673   5.583
 1099SOL    HW1 4196   4.597   0.612   5.550
 1099SOL    HW2 4197   4.626   0.756   5.622
 1100SOL     OW 4198   3.268   1.798   3.948
 1100SOL    HW1 4199   3.252   1.701   3.965
 1100SOL    HW2 4200   3.364   1.813   3.927
 1101SOL     OW 4201   6.314   2.998   6.223
 1101SOL    HW1 4202   6.399   3.031   6.262
 1101SOL    HW2 4203   6.239   3.015   6.287
 1102SOL     OW 4204   2.725   1.397   3.806
 1102SOL    HW1 4205   2.798   1.382   3.872
 1102SOL    HW2 4206   2.637   1.368   3.845
 1103SOL     OW 4207   2.134   0.217   6.849
 1103SOL    HW1 4208   2.216   0.272   6.834
 1103SOL    HW2 4209   2.092   0.195   6.761
 1104SOL     OW 4210   0.788   3.373   4.084
 1104SOL    HW1 4211   0.799   3.282   4.043
 1104SOL    HW2 4212   0.878   3.417   4.089
 1105SOL     OW 4213   5.524   0.940   5.718
 1105SOL    HW1 4214   5.582   0.948   5.799
 1105SOL    HW2 4215   5.526   1.027   5.668
 1106SOL     OW 4216   0.340   2.326   0.966
 1106SOL    HW1 4217   0.401   2.290   0.895
 1106SOL    HW2 4218   0.340   2.263   1.044
 1107SOL     OW 4219   0.923   1.268   0.151
 1107SOL    HW1 4220   0.933   1.218   0.237
 1107SOL    HW2 4221   0.825   1.284   0.134
 1108SOL     OW 4222   2.947   6.529   3.877
 1108SOL    HW1 4223   2.966   6.432   3.864
 1108SOL    HW2 4224   2.850   6.543   3.895
 1109SOL     OW 4225   4.887   1.904   4.039
 1109SOL    HW1 4226   4.981   1.937   4.026
 1109SOL    HW2 4227   4.871   1.889   4.137
 1110SOL     OW 4228   3.024   0.632   2.290
 1110SOL    HW1 4229   3.030   0.634   2.390
 1110SOL    HW2 4230   2.944   0.578   2.263
 1111SOL     OW 4231   5.482   4.055   6.405
 1111SOL    HW1 4232   5.453   4.095   6.318
 1111SOL    HW2 4233   5.538   4.121   6.454
 1112SOL     OW 4234   4.846   0.194   2.291
 1112SOL    HW1 4235   4.899   0.279   2.287
 1112SOL    HW2 4236   4.908   0.116   2.300
 1113SOL     OW 4237   5.432   4.909   2.323
 1113SOL    HW1 4238   5.386   4.844   2.384
 1113SOL    HW2 4239   5.365   4.970   2.281
 1114SOL     OW 4240   3.821   3.516   5.382
 1114SOL    HW1 4241   3.731   3.541   5.416
 1114SOL    HW2 4242   3.812   3.478   5.290
 1115SOL     OW 4243   2.714   4.570   5.755
 1115SOL    HW1 4244   2.618   4.562   5.729
 1115SOL    HW2 4245   2.765   4.616   5.682
 1116SOL     OW 4246   4.797   7.015   6.086
 1116SOL    HW1 4247   4.880   0.008   6.034
 1116SOL    HW2 4248   4.744   0.075   6.095
 1117SOL     OW 4249   1.193   2.946   1.645
 1117SOL    HW1 4250   1.203   2.847   1.642
 1117SOL    HW2 4251   1.255   2.988   1.578
 1118SOL     OW 4252   3.362   4.895   6.923
 1118SOL    HW1 4253   3.331   4.969   6.864
 1118SOL    HW2 4254   3.400   4.933   7.007
 1119SOL     OW 4255   3.398   4.932   4.402
 1119SOL    HW1 4256   3.326   4.999   4.387
 1119SOL    HW2 4257   3.387   4.890   4.492
 1120SOL     OW 4258   6.838   4.429   0.774
 1120SOL    HW1 4259   6.882   4.339   0.778
 1120SOL    HW2 4260   6.897   4.493   0.724
 1121SOL     OW 4261   6.313   4.558   4.478
 1121SOL    HW1 4262   6.260   4.642   4.467
 1121SOL    HW2 4263   6.307   4.526   4.573
 1122SOL     OW 4264   5.673   2.579   1.596
 1122SOL    HW1 4265   5.732   2.531   1.530
 1122SOL    HW2 4266   5.717   2.579   1.686
 1123SOL     OW 4267   3.883   1.606   2.884
 1123SOL    HW1 4268   3.788   1.628   2.905
 1123SOL    HW2 4269   3.916   1.536   2.947
 1124SOL     OW 4270   2.284   2.822   4.633
 1124SOL    HW1 4271   2.291   2.785   4.725
 1124SOL    HW2 4272   2.358   2.786   4.576
 1125SOL     OW 4273   1.294   3.791   3.923
 1125SOL    HW1 4274   1.311   3.869   3.983
 1125SOL    HW2 4275   1.237   3.819   3.846
 1126SOL     OW 4276   3.414   5.476   4.740
 1126SOL    HW1 4277   3.464   5.530   4.807
 1126SOL    HW2 4278   3.468   5.394   4.717
 1127SOL     OW 4279   5.893   6.780   2.940
 1127SOL    HW1 4280   5.807   6.831   2.937
 1127SOL    HW2 4281   5.874   6.683   2.956
 1128SOL     OW 4282   5.710   1.324   3.575
 1128SOL    HW1 4283   5.796   1.324   3.525
 1128SOL    HW2 4284   5.679   1.418   3.588
 1129SOL     OW 4285   1.810   0.541   0.566
 1129SOL    HW1 4286   1.860   0.473   0.512
 1129SOL    HW2 4287   1.872   0.585   0.630
 1130SOL     OW 4288   2.142   4.842   2.223
 1130SOL    HW1 4289   2.158   4.747   2.247
 1130SOL    HW2 4290   2.197   4.866   2.143
 1131SOL     OW 4291   1.368   5.507   4.786
 1131SOL    HW1 4292   1.372   5.506   4.686
 1131SOL    HW2 4293   1.300   5.441   4.818
 1132SOL     OW 4294   2.709   1.096   2.314
 1132SOL    HW1 4295   2.768   1.136   2.384
 1132SOL    HW2 4296   2.764   1.038   2.253
 1133SOL     OW 4297   1.016   6.870   4.831
 1133SOL    HW1 4298   0.976   6.893   4.919
 1133SOL    HW2 4299   0.958   6.905   4.757
 1134SOL     OW 4300   3.699   6.843   1.682
 1134SOL    HW1 4301   3.705   6.848   1.782
 1134SOL    HW2 4302   3.648   6.923   1.648
 1135SOL     OW 4303   1.783   5.672   3.900
 1135SOL    HW1 4304   1.770   5.768   3.873
 1135SOL    HW2 4305   1.730   5.654   3.983
 1136SOL     OW 4306   2.167   5.719   1.935
 1136SOL    HW1 4307   2.209   5.638   1.895
 1136SOL    HW2 4308   2.076   5.731   1.896
 1137SOL     OW 4309   0.903   5.123   5.477
 1137SOL    HW1 4310   0.981   5.185   5.475
 1137SOL    HW2 4311   0.876   5.107   5.572
 1138SOL     OW 4312   2.005   2.741   4.575
 1138SOL    HW1 4313   2.094   2.776   4.604
 1138SOL    HW2 4314   1.977   2.786   4.490
 1139SOL     OW 4315   2.946   5.449   4.386
 1139SOL    HW1 4316   2.972   5.541   4.414
 1139SOL    HW2 4317   2.879   5.453   4.312
 1140SOL     OW 4318   1.215   1.381   0.798
 1140SOL    HW1 4319   1.209   1.430   0.711
 1140SOL    HW2 4320   1.311   1.379   0.828
 1141SOL     OW 4321   6.117   5.044   6.292
 1141SOL    HW1 4322   6.051   5.119   6.302
 1141SOL    HW2 4323   6.068   4.958   6.281
 1142SOL     OW 4324   2.350   6.209   2.824
 1142SOL    HW1 4325   2.290   6.270   2.772
 1142SOL    HW2 4326   2.390   6.141   2.763
 1143SOL     OW 4327   1.568   3.845   1.897
 1143SOL    HW1 4328   1.567   3.909   1.974
 1143SOL    HW2 4329   1.662   3.832   1.865
 1144SOL     OW 4330   5.633   4.369   1.433
 1144SOL    HW1 4331   5.605   4.338   1.342
 1144SOL    HW2 4332   5.612   4.298   1.500
 1145SOL     OW 4333   6.886   1.243   1.146
 1145SOL    HW1 4334   6.814   1.231   1.214
 1145SOL    HW2 4335   6.975   1.244   1.192
 1146SOL     OW 4336   0.721   1.215   1.637
 1146SOL    HW1 4337   0.746   1.127   1.677
 1146SOL    HW2 4338   0.781   1.235   1.560
 1147SOL     OW 4339   3.334   6.305   1.416
 1147SOL    HW1 4340   3.407   6.343   1.472
 1147SOL    HW2 4341   3.371   6.275   1.329
 1148SOL     OW 4342   4.394   5.160   3.729
 1148SOL    HW1 4343   4.322   5.154   3.659
 1148SOL    HW2 4344   4.426   5.068   3.752
 1149SOL     OW 4345   4.653   2.802   1.127
 1149SOL    HW1 4346   4.646   2.706   1.102
 1149SOL    HW2 4347   4.656   2.811   1.226
 1150SOL     OW 4348   1.995   4.263   0.100
 1150SOL    HW1 4349   2.089   4.296   0.110
 1150SOL    HW2 4350   1.987   4.171   0.139
 1151SOL     OW 4351   6.387   5.781   4.026
 1151SOL    HW1 4352   6.313   5.817   4.083
 1151SOL    HW2 4353   6.450   5.855   4.002
 1152SOL     OW 4354   3.951   6.685   6.641
 1152SOL    HW1 4355   3.862   6.679   6.596
 1152SOL    HW2 4356   3.951   6.761   6.706
 1153SOL     OW 4357   6.468   0.586   1.077
 1153SOL    HW1 4358   6.469   0.583   0.977
 1153SOL    HW2 4359   6.535   0.522   1.113
 1154SOL     OW 4360   1.648   2.459   1.416
 1154SOL    HW1 4361   1.702   2.531   1.372
 1154SOL    HW2 4362   1.584   2.501   1.480
 1155SOL     OW 4363   2.830   6.193   5.017
 1155SOL    HW1 4364   2.806   6.103   4.981
 1155SOL    HW2 4365   2.913   6.225   4.972
 1156SOL     OW 4366   2.996   2.125   3.970
 1156SOL    HW1 4367   3.083   2.108   3.923
 1156SOL    HW2 4368   2.964   2.041   4.013
 1157SOL     OW 4369   3.671   1.119   6.034
 1157SOL    HW1 4370   3.636   1.076   5.951
 1157SOL    HW2 4371   3.680   1.218   6.018
 1158SOL     OW 4372   6.113   6.077   2.962
 1158SOL    HW1 4373   6.081   5.982   2.957
 1158SOL    HW2 4374   6.104   6.120   2.873
 1159SOL     OW 4375   6.309   5.971   1.672
 1159SOL    HW1 4376   6.339   6.037   1.603
 1159SOL    HW2 4377   6.259   6.018   1.744
 1160SOL     OW 4378   5.748   1.178   0.806
 1160SOL    HW1 4379   5.829   1.150   0.857
 1160SOL    HW2 4380   5.675   1.204   0.870
 1161SOL     OW 4381   0.752   5.395   0.658
 1161SOL    HW1 4382   0.850   5.414   0.671
 1161SOL    HW2 4383   0.708   5.475   0.618
 1162SOL     OW 4384   2.615   2.540   4.660
 1162SOL    HW1 4385   2.579   2.595   4.584
 1162SOL    HW2 4386   2.548   2.471   4.687
 1163SOL     OW 4387   5.733   3.250   1.796
 1163SOL    HW1 4388   5.790   3.278   1.873
 1163SOL    HW2 4389   5.780   3.272   1.710
 1164SOL     OW 4390   4.656   2.364   5.000
 1164SOL    HW1 4391   4.651   2.416   4.915
 1164SOL    HW2 4392   4.563   2.347   5.034
 1165SOL     OW 4393   4.169   6.373   3.118
 1165SOL    HW1 4394   4.247   6.430   3.091
 1165SOL    HW2 4395   4.158   6.297   3.054
 1166SOL     OW 4396   2.711   5.168   6.680
 1166SOL    HW1 4397   2.647   5.096   6.706
 1166SOL    HW2 4398   2.660   5.249   6.651
 1167SOL     OW 4399   5.895   4.790   2.240
 1167SOL    HW1 4400   5.876   4.727   2.316
 1167SOL    HW2 4401   5.808   4.823   2.202
 1168SOL     OW 4402   6.251   1.492   3.341
 1168SOL    HW1 4403   6.343   1.522   3.366
 1168SOL    HW2 4404   6.188   1.569   3.350
 1169SOL     OW 4405   5.559   1.100   5.198
 1169SOL    HW1 4406   5.490   1.027   5.198
 1169SOL    HW2 4407   5.615   1.093   5.281
 1170SOL     OW 4408   4.727   6.557   3.813
 1170SOL    HW1 4409   4.641   6.518   3.845
 1170SOL    HW2 4410   4.781   6.486   3.768
 1171SOL     OW 4411   1.102   0.133   1.096
 1171SOL    HW1 4412   1.100   0.064   1.023
 1171SOL    HW2 4413   1.087   0.088   1.184
 1172SOL     OW 4414   6.828   3.475   6.392
 1172SOL    HW1 4415   6.800   3.568   6.368
 1172SOL    HW2 4416   6.887   3.438   6.320
 1173SOL     OW 4417   3.671   1.572   0.298
 1173SOL    HW1 4418   3.604   1.605   0.231
 1173SOL    HW2 4419   3.707   1.650   0.351
 1174SOL     OW 4420   3.542   3.111   0.649
 1174SOL    HW1 4421   3.598   3.049   0.705
 1174SOL    HW2 4422   3.455   3.127   0.695
 1175SOL     OW 4423   2.985   3.186   3.982
 1175SOL    HW1 4424   3.045   3.113   4.014
 1175SOL    HW2 4425   2.961   3.170   3.886
 1176SOL     OW 4426   5.510   3.795   6.413
 1176SOL    HW1 4427   5.548   3.776   6.322
 1176SOL    HW2 4428   5.500   3.893   6.426
 1177SOL     OW 4429   6.826   2.327   5.238
 1177SOL    HW1 4430   6.918   2.365   5.249
 1177SOL    HW2 4431   6.774   2.383   5.174
 1178SOL     OW 4432   3.283   5.082   0.551
 1178SOL    HW1 4433   3.251   5.047   0.639
 1178SOL    HW2 4434   3.376   5.118   0.561
 1179SOL     OW 4435   2.551   5.733   0.047
 1179SOL    HW1 4436   2.580   5.813   0.100
 1179SOL    HW2 4437   2.460   5.704   0.077
 1180SOL     OW 4438   4.035   6.089   0.877
 1180SOL    HW1 4439   4.040   6.144   0.794
 1180SOL    HW2 4440   4.059   5.994   0.856
 1181SOL     OW 4441   0.581   5.616   0.573
 1181SOL    HW1 4442   0.508   5.674   0.610
 1181SOL    HW2 4443   0.583   5.625   0.473
 1182SOL     OW 4444   4.427   4.907   2.935
 1182SOL    HW1 4445   4.352   4.842   2.948
 1182SOL    HW2 4446   4.390   5.000   2.932
 1183SOL     OW 4447   2.140   3.543   6.164
 1183SOL    HW1 4448   2.217   3.595   6.128
 1183SOL    HW2 4449   2.088   3.505   6.087
 1184SOL     OW 4450   1.497   6.530   5.355
 1184SOL    HW1 4451   1.575   6.538   5.292
 1184SOL    HW2 4452   1.527   6.483   5.439
 1185SOL     OW 4453   6.905   1.299   6.481
 1185SOL    HW1 4454   6.986   1.242   6.469
 1185SOL    HW2 4455   6.844   1.286   6.403
 1186SOL     OW 4456   5.370   6.281   5.053
 1186SOL    HW1 4457   5.370   6.372   5.094
 1186SOL    HW2 4458   5.296   6.227   5.092
 1187SOL     OW 4459   6.095   0.480   5.866
 1187SOL    HW1 4460   6.004   0.440   5.855
 1187SOL    HW2 4461   6.152   0.455   5.788
 1188SOL     OW 4462   2.347   6.841   5.544
 1188SOL    HW1 4463   2.309   6.900   5.472
 1188SOL    HW2 4464   2.306   6.750   5.537
 1189SOL     OW 4465   5.731   3.599   3.241
 1189SOL    HW1 4466   5.659   3.591   3.309
 1189SOL    HW2 4467   5.819   3.574   3.282
 1190SOL     OW 4468   1.972   6.126   2.536
 1190SOL    HW1 4469   2.071   6.114   2.535
 1190SOL    HW2 4470   1.948   6.215   2.498
 1191SOL     OW 4471   4.884   5.551   2.560
 1191SOL    HW1 4472   4.903   5.470   2.615
 1191SOL    HW2 4473   4.799   5.538   2.509
 1192SOL     OW 4474   4.588   6.298   3.570
 1192SOL    HW1 4475   4.640   6.276   3.652
 1192SOL    HW2 4476   4.524   6.224   3.549
 1193SOL     OW 4477   6.641   5.517   3.716
 1193SOL    HW1 4478   6.618   5.606   3.755
 1193SOL    HW2 4479   6.586   5.446   3.760
 1194SOL     OW 4480   4.165   0.795   1.363
 1194SOL    HW1 4481   4.242   0.777   1.303
 1194SOL    HW2 4482   4.196   0.842   1.446
 1195SOL     OW 4483   5.928   2.320   2.692
 1195SOL    HW1 4484   5.847   2.277   2.734
 1195SOL    HW2 4485   6.011   2.285   2.736
 1196SOL     OW 4486   6.498   6.603   4.740
 1196SOL    HW1 4487   6.427   6.566   4.800
 1196SOL    HW2 4488   6.467   6.689   4.700
 1197SOL     OW 4489   2.994   6.370   0.677
 1197SOL    HW1 4490   3.004   6.286   0.730
 1197SOL    HW2 4491   2.898   6.381   0.651
 1198SOL     OW 4492   0.967   1.851   0.706
 1198SOL    HW1 4493   0.979   1.914   0.783
 1198SOL    HW2 4494   1.056   1.810   0.683
 1199SOL     OW 4495   5.124   4.752   2.266
 1199SOL    HW1 4496   5.198   4.716   2.322
 1199SOL    HW2 4497   5.126   4.709   2.175
 1200SOL     OW 4498   2.966   3.666   2.394
 1200SOL    HW1 4499   3.021   3.594   2.434
 1200SOL    HW2 4500   2.943   3.643   2.299
 1201SOL     OW 4501   1.645   1.851   4.513
 1201SOL    HW1 4502   1.634   1.940   4.470
 1201SOL    HW2 4503   1.606   1.853   4.605
 1202SOL     OW 4504   6.989   4.969   6.599
 1202SOL    HW1 4505   0.049   4.975   6.651
 1202SOL    HW2 4506   6.956   5.061   6.577
 1203SOL     OW 4507   4.754   5.945   5.611
 1203SOL    HW1 4508   4.681   5.989   5.663
 1203SOL    HW2 4509   4.721   5.860   5.572
 1204SOL     OW 4510   1.851   0.453   2.159
 1204SOL    HW1 4511   1.832   0.540   2.205
 1204SOL    HW2 4512   1.913   0.399   2.215
 1205SOL     OW 4513   5.333   3.947   1.853
 1205SOL    HW1 4514   5.326   4.010   1.930
 1205SOL    HW2 4515   5.425   3.953   1.813
 1206SOL     OW 4516   3.124   3.006   5.057
 1206SOL    HW1 4517   3.056   2.971   5.121
 1206SOL    HW2 4518   3.086   3.008   4.965
 1207SOL     OW 4519   1.964   6.839   2.061
 1207SOL    HW1 4520   2.013   6.903   2.121
 1207SOL    HW2 4521   2.014   6.752   2.058
 1208SOL     OW 4522   3.425   3.612   6.412
 1208SOL    HW1 4523   3.357   3.606   6.339
 1208SOL    HW2 4524   3.491   3.537   6.402
 1209SOL     OW 4525   3.898   0.059   5.424
 1209SOL    HW1 4526   3.979   0.025   5.473
 1209SOL    HW2 4527   3.924   0.094   5.335
 1210SOL     OW 4528   3.198   1.223   2.856
 1210SOL    HW1 4529   3.289   1.226   2.815
 1210SOL    HW2 4530   3.205   1.191   2.951
 1211SOL     OW 4531   0.839   3.599   0.824
 1211SOL    HW1 4532   0.918   3.607   0.885
 1211SOL    HW2 4533   0.774   3.672   0.845
 1212SOL     OW 4534   0.786   7.002   6.822
 1212SOL    HW1 4535   0.725   6.998   6.902
 1212SOL    HW2 4536   0.866   6.943   6.838
 1213SOL     OW 4537   5.329   2.738   0.684
 1213SOL    HW1 4538   5.245   2.686   0.698
 1213SOL    HW2 4539   5.313   2.834   0.706
 1214SOL     OW 4540   0.326   2.186   1.466
 1214SOL    HW1 4541   0.280   2.147   1.386
 1214SOL    HW2 4542   0.290   2.278   1.482
 1215SOL     OW 4543   0.820   5.286   3.892
 1215SOL    HW1 4544   0.878   5.213   3.930
 1215SOL    HW2 4545   0.878   5.353   3.847
 1216SOL     OW 4546   4.537   6.986   6.447
 1216SOL    HW1 4547   4.513   6.915   6.513
 1216SOL    HW2 4548   4.454   0.007   6.415
 1217SOL     OW 4549   2.526   4.626   0.379
 1217SOL    HW1 4550   2.548   4.532   0.405
 1217SOL    HW2 4551   2.528   4.634   0.279
 1218SOL     OW 4552   1.498   3.986   3.830
 1218SOL    HW1 4553   1.450   3.990   3.918
 1218SOL    HW2 4554   1.470   4.064   3.774
 1219SOL     OW 4555   4.208   6.003   2.336
 1219SOL    HW1 4556   4.283   6.054   2.380
 1219SOL    HW2 4557   4.124   6.018   2.388
 1220SOL     OW 4558   1.079   4.784   2.484
 1220SOL    HW1 4559   1.038   4.702   2.445
 1220SOL    HW2 4560   1.007   4.843   2.520
 1221SOL     OW 4561   5.976   3.602   6.134
 1221SOL    HW1 4562   5.944   3.690   6.098
 1221SOL    HW2 4563   6.045   3.564   6.072
 1222SOL     OW 4564   6.961   6.084   0.018
 1222SOL    HW1 4565   6.960   6.182   0.033
 1222SOL    HW2 4566   7.022   6.040   0.083
 1223SOL     OW 4567   3.824   5.994   0.650
 1223SOL    HW1 4568   3.860   5.954   0.565
 1223SOL    HW2 4569   3.730   5.965   0.663
 1224SOL     OW 4570   2.830   6.930   1.714
 1224SOL    HW1 4571   2.796   7.022   1.733
 1224SOL    HW2 4572   2.785   6.864   1.774
 1225SOL     OW 4573   2.974   4.477   6.353
 1225SOL    HW1 4574   3.045   4.409   6.370
 1225SOL    HW2 4575   2.904   4.437   6.293
 1226SOL     OW 4576   1.999   4.864   0.998
 1226SOL    HW1 4577   1.955   4.939   1.046
 1226SOL    HW2 4578   1.931   4.814   0.945
 1227SOL     OW 4579   0.168   3.870   6.359
 1227SOL    HW1 4580   0.147   3.802   6.429
 1227SOL    HW2 4581   0.222   3.944   6.399
 1228SOL     OW 4582   4.035   2.185   6.201
 1228SOL    HW1 4583   4.003   2.272   6.164
 1228SOL    HW2 4584   4.132   2.192   6.226
 1229SOL     OW 4585   3.565   4.665   6.270
 1229SOL    HW1 4586   3.475   4.694   6.302
 1229SOL    HW2 4587   3.583   4.572   6.302
 1230SOL     OW 4588   4.312   6.874   3.407
 1230SOL    HW1 4589   4.368   6.801   3.446
 1230SOL    HW2 4590   4.361   6.961   3.412
 1231SOL     OW 4591   1.813   3.681   4.685
 1231SOL    HW1 4592   1.852   3.773   4.683
 1231SOL    HW2 4593   1.835   3.638   4.773
 1232SOL     OW 4594   1.400   2.352   4.549
 1232SOL    HW1 4595   1.399   2.264   4.502
 1232SOL    HW2 4596   1.486   2.362   4.599
 1233SOL     OW 4597   0.671   3.763   4.691
 1233SOL    HW1 4598   0.575   3.754   4.665
 1233SOL    HW2 4599   0.722   3.681   4.663
 1234SOL     OW 4600   6.192   4.111   4.606
 1234SOL    HW1 4601   6.204   4.185   4.541
 1234SOL    HW2 4602   6.281   4.080   4.639
 1235SOL     OW 4603   6.598   5.798   3.669
 1235SOL    HW1 4604   6.686   5.829   3.634
 1235SOL    HW2 4605   6.577   5.848   3.754
 1236SOL     OW 4606   5.379   0.451   0.114
 1236SOL    HW1 4607   5.367   0.550   0.117
 1236SOL    HW2 4608   5.470   0.429   0.080
 1237SOL     OW 4609   3.632   5.155   6.471
 1237SOL    HW1 4610   3.679   5.123   6.389
 1237SOL    HW2 4611   3.614   5.077   6.531
 1238SOL     OW 4612   1.544   1.643   1.065
 1238SOL    HW1 4613   1.445   1.631   1.070
 1238SOL    HW2 4614   1.588   1.590   1.138
 1239SOL     OW 4615   6.763   5.930   6.923
 1239SOL    HW1 4616   6.804   5.857   6.868
 1239SOL    HW2 4617   6.836   5.985   6.964
 1240SOL     OW 4618   4.804   6.186   1.832
 1240SOL    HW1 4619   4.799   6.090   1.805
 1240SOL    HW2 4620   4.788   6.244   1.753
 1241SOL     OW 4621   6.719   3.772   3.863
 1241SOL    HW1 4622   6.813   3.754   3.836
 1241SOL    HW2 4623   6.657   3.728   3.798
 1242SOL     OW 4624   2.160   3.936   0.200
 1242SOL    HW1 4625   2.071   3.968   0.234
 1242SOL    HW2 4626   2.190   3.858   0.256
 1243SOL     OW 4627   2.459   5.167   5.318
 1243SOL    HW1 4628   2.516   5.215   5.384
 1243SOL    HW2 4629   2.511   5.092   5.277
 1244SOL     OW 4630   0.699   1.165   3.973
 1244SOL    HW1 4631   0.681   1.178   3.876
 1244SOL    HW2 4632   0.770   1.095   3.984
 1245SOL     OW 4633   3.218   3.549   0.260
 1245SOL    HW1 4634   3.303   3.531   0.210
 1245SOL    HW2 4635   3.162   3.612   0.206
 1246SOL     OW 4636   1.554   6.184   2.436
 1246SOL    HW1 4637   1.559   6.092   2.398
 1246SOL    HW2 4638   1.473   6.192   2.493
 1247SOL     OW 4639   1.660   6.340   6.511
 1247SOL    HW1 4640   1.652   6.365   6.414
 1247SOL    HW2 4641   1.577   6.367   6.559
 1248SOL     OW 4642   2.024   5.554   3.970
 1248SOL    HW1 4643   1.944   5.608   3.946
 1248SOL    HW2 4644   2.007   5.503   4.054
 1249SOL     OW 4645   6.104   3.334   3.205
 1249SOL    HW1 4646   6.200   3.359   3.218
 1249SOL    HW2 4647   6.046   3.415   3.221
 1250SOL     OW 4648   1.114   4.845   4.523
 1250SOL    HW1 4649   1.085   4.931   4.566
 1250SOL    HW2 4650   1.046   4.774   4.541
 1251SOL     OW 4651   3.772   0.480   4.895
 1251SOL    HW1 4652   3.868   0.505   4.901
 1251SOL    HW2 4653   3.741   0.488   4.800
 1252SOL     OW 4654   3.622   4.037   5.770
 1252SOL    HW1 4655   3.677   3.960   5.801
 1252SOL    HW2 4656   3.564   4.008   5.693
 1253SOL     OW 4657   4.005   5.803   3.113
 1253SOL    HW1 4658   3.910   5.828   3.129
 1253SOL    HW2 4659   4.029   5.823   3.018
 1254SOL     OW 4660   6.451   1.908   2.915
 1254SOL    HW1 4661   6.483   1.999   2.888
 1254SOL    HW2 4662   6.370   1.883   2.861
 1255SOL     OW 4663   6.576   6.860   6.712
 1255SOL    HW1 4664   6.653   6.839   6.652
 1255SOL    HW2 4665   6.536   6.948   6.686
 1256SOL     OW 4666   4.235   0.995   3.375
 1256SOL    HW1 4667   4.197   0.990   3.282
 1256SOL    HW2 4668   4.331   1.023   3.370
 1257SOL     OW 4669   6.529   1.274   4.011
 1257SOL    HW1 4670   6.576   1.187   4.028
 1257SOL    HW2 4671   6.432   1.257   3.995
 1258SOL     OW 4672   0.402   6.644   3.425
 1258SOL    HW1 4673   0.343   6.725   3.426
 1258SOL    HW2 4674   0.349   6.564   3.399
 1259SOL     OW 4675   4.372   1.902   4.518
 1259SOL    HW1 4676   4.427   1.983   4.498
 1259SOL    HW2 4677   4.328   1.913   4.608
 1260SOL     OW 4678   1.363   0.842   6.988
 1260SOL    HW1 4679   1.311   0.877   6.911
 1260SOL    HW2 4680   1.461   0.847   6.967
 1261SOL     OW 4681   6.736   4.713   1.100
 1261SOL    HW1 4682   6.646   4.692   1.061
 1261SOL    HW2 4683   6.781   4.629   1.128
 1262SOL     OW 4684   5.188   5.925   1.144
 1262SOL    HW1 4685   5.190   5.855   1.072
 1262SOL    HW2 4686   5.195   5.882   1.234
 1263SOL     OW 4687   1.143   2.145   3.388
 1263SOL    HW1 4688   1.227   2.113   3.431
 1263SOL    HW2 4689   1.069   2.080   3.408
 1264SOL     OW 4690   0.677   2.663   5.317
 1264SOL    HW1 4691   0.720   2.573   5.313
 1264SOL    HW2 4692   0.739   2.731   5.276
 1265SOL     OW 4693   5.958   6.457   4.677
 1265SOL    HW1 4694   5.868   6.413   4.678
 1265SOL    HW2 4695   6.024   6.399   4.726
 1266SOL     OW 4696   1.890   0.715   4.838
 1266SOL    HW1 4697   1.940   0.632   4.813
 1266SOL    HW2 4698   1.931   0.794   4.792
 1267SOL     OW 4699   3.955   6.967   2.942
 1267SOL    HW1 4700   3.977   6.889   2.884
 1267SOL    HW2 4701   4.003   6.958   3.030
 1268SOL     OW 4702   4.156   2.516   5.484
 1268SOL    HW1 4703   4.231   2.581   5.501
 1268SOL    HW2 4704   4.115   2.534   5.395
 1269SOL     OW 4705   6.272   2.211   3.975
 1269SOL    HW1 4706   6.205   2.257   3.917
 1269SOL    HW2 4707   6.225   2.163   4.049
 1270SOL     OW 4708   6.667   5.949   2.658
 1270SOL    HW1 4709   6.605   5.915   2.588
 1270SOL    HW2 4710   6.762   5.928   2.633
 1271SOL     OW 4711   1.486   1.436   0.848
 1271SOL    HW1 4712   1.551   1.419   0.921
 1271SOL    HW2 4713   1.534   1.474   0.769
 1272SOL     OW 4714   6.372   3.963   7.020
 1272SOL    HW1 4715   6.369   3.915   0.084
 1272SOL    HW2 4716   6.294   3.935   6.964
 1273SOL     OW 4717   1.362   4.867   4.864
 1273SOL    HW1 4718   1.348   4.768   4.867
 1273SOL    HW2 4719   1.313   4.910   4.939
 1274SOL     OW 4720   0.419   5.510   2.943
 1274SOL    HW1 4721   0.344   5.548   2.998
 1274SOL    HW2 4722   0.382   5.452   2.872
 1275SOL     OW 4723   2.422   1.304   2.973
 1275SOL    HW1 4724   2.385   1.396   2.987
 1275SOL    HW2 4725   2.376   1.240   3.034
 1276SOL     OW 4726   5.227   4.786   3.908
 1276SOL    HW1 4727   5.262   4.698   3.938
 1276SOL    HW2 4728   5.151   4.772   3.844
 1277SOL     OW 4729   0.436   6.189   0.381
 1277SOL    HW1 4730   0.522   6.187   0.433
 1277SOL    HW2 4731   0.431   6.107   0.324
 1278SOL     OW 4732   1.122   5.705   2.621
 1278SOL    HW1 4733   1.204   5.706   2.678
 1278SOL    HW2 4734   1.094   5.799   2.601
 1279SOL     OW 4735   1.931   2.243   0.725
 1279SOL    HW1 4736   1.980   2.189   0.657
 1279SOL    HW2 4737   1.884   2.182   0.789
 1280SOL     OW 4738   1.976   2.184   3.740
 1280SOL    HW1 4739   1.893   2.231   3.770
 1280SOL    HW2 4740   1.975   2.175   3.641
 1281SOL     OW 4741   4.356   6.229   4.586
 1281SOL    HW1 4742   4.360   6.225   4.486
 1281SOL    HW2 4743   4.446   6.255   4.621
 1282SOL     OW 4744   6.604   2.206   1.259
 1282SOL    HW1 4745   6.522   2.229   1.309
 1282SOL    HW2 4746   6.679   2.186   1.323
 1283SOL     OW 4747   6.871   3.012   5.008
 1283SOL    HW1 4748   6.816   3.084   5.050
 1283SOL    HW2 4749   6.896   3.039   4.915
 1284SOL     OW 4750   4.167   1.725   1.986
 1284SOL    HW1 4751   4.208   1.800   2.039
 1284SOL    HW2 4752   4.113   1.667   2.047
 1285SOL     OW 4753   4.502   1.057   4.874
 1285SOL    HW1 4754   4.416   1.020   4.837
 1285SOL    HW2 4755   4.500   1.157   4.870
 1286SOL     OW 4756   5.332   2.060   1.761
 1286SOL    HW1 4757   5.318   2.082   1.857
 1286SOL    HW2 4758   5.267   2.111   1.705
 1287SOL     OW 4759   6.473   4.094   4.608
 1287SOL    HW1 4760   6.537   4.154   4.657
 1287SOL    HW2 4761   6.490   4.101   4.510
 1288SOL     OW 4762   4.224   3.906   0.056
 1288SOL    HW1 4763   4.143   3.912   0.114
 1288SOL    HW2 4764   4.263   3.998   0.045
 1289SOL     OW 4765   6.824   0.261   1.725
 1289SOL    HW1 4766   6.835   0.359   1.711
 1289SOL    HW2 4767   6.910   0.221   1.756
 1290SOL     OW 4768   1.894   6.835   6.134
 1290SOL    HW1 4769   1.918   6.890   6.053
 1290SOL    HW2 4770   1.813   6.873   6.177
 1291SOL     OW 4771   6.868   5.339   3.068
 1291SOL    HW1 4772   6.828   5.325   2.977
 1291SOL    HW2 4773   6.837   5.267   3.130
 1292SOL     OW 4774   1.003   6.976   2.072
 1292SOL    HW1 4775   1.083   6.917   2.085
 1292SOL    HW2 4776   0.951   6.981   2.157
 1293SOL     OW 4777   3.518   1.638   0.085
 1293SOL    HW1 4778   3.476   1.725   0.111
 1293SOL    HW2 4779   3.461   1.593   0.016
 1294SOL     OW 4780   2.349   3.493   5.388
 1294SOL    HW1 4781   2.440   3.461   5.360
 1294SOL    HW2 4782   2.329   3.579   5.341
 1295SOL     OW 4783   6.386   4.481   0.586
 1295SOL    HW1 4784   6.469   4.489   0.532
 1295SOL    HW2 4785   6.410   4.479   0.684
 1296SOL     OW 4786   5.595   0.085   5.655
 1296SOL    HW1 4787   5.517   0.107   5.713
 1296SOL    HW2 4788   5.581   0.124   5.564
 1297SOL     OW 4789   0.561   0.356   2.381
 1297SOL    HW1 4790   0.559   0.325   2.476
 1297SOL    HW2 4791   0.532   0.452   2.376
 1298SOL     OW 4792   5.284   6.513   2.444
 1298SOL    HW1 4793   5.342   6.453   2.498
 1298SOL    HW2 4794   5.188   6.487   2.456
 1299SOL     OW 4795   1.215   3.322   5.140
 1299SOL    HW1 4796   1.253   3.231   5.122
 1299SOL    HW2 4797   1.287   3.381   5.177
 1300SOL     OW 4798   0.863   4.561   1.961
 1300SOL    HW1 4799   0.836   4.473   1.922
 1300SOL    HW2 4800   0.823   4.569   2.053
 1301SOL     OW 4801   0.883   0.500   0.773
 1301SOL    HW1 4802   0.923   0.442   0.845
 1301SOL    HW2 4803   0.937   0.490   0.690
 1302SOL     OW 4804   5.479   6.956   4.470
 1302SOL    HW1 4805   5.425   6.872   4.466
 1302SOL    HW2 4806   5.431   7.023   4.527
 1303SOL     OW 4807   3.777   6.318   2.041
 1303SOL    HW1 4808   3.812   6.277   1.957
 1303SOL    HW2 4809   3.851   6.327   2.108
 1304SOL     OW 4810   0.535   1.344   0.762
 1304SOL    HW1 4811   0.588   1.288   0.698
 1304SOL    HW2 4812   0.528   1.296   0.849
 1305SOL     OW 4813   5.400   3.508   6.325
 1305SOL    HW1 4814   5.338   3.586   6.327
 1305SOL    HW2 4815   5.425   3.482   6.419
 1306SOL     OW 4816   2.569   5.261   4.307
 1306SOL    HW1 4817   2.521   5.181   4.345
 1306SOL    HW2 4818   2.545   5.271   4.210
 1307SOL     OW 4819   2.661   2.125   3.373
 1307SOL    HW1 4820   2.740   2.185   3.363
 1307SOL    HW2 4821   2.683   2.048   3.434
 1308SOL     OW 4822   0.761   4.475   5.974
 1308SOL    HW1 4823   0.793   4.517   5.889
 1308SOL    HW2 4824   0.663   4.494   5.986
 1309SOL     OW 4825   5.364   4.468   6.869
 1309SOL    HW1 4826   5.295   4.426   6.811
 1309SOL    HW2 4827   5.453   4.464   6.824
 1310SOL     OW 4828   1.256   3.821   3.460
 1310SOL    HW1 4829   1.344   3.861   3.486
 1310SOL    HW2 4830   1.218   3.872   3.383
 1311SOL     OW 4831   0.016   5.578   0.604
 1311SOL    HW1 4832   0.066   5.620   0.679
 1311SOL    HW2 4833   7.008   5.487   0.632
 1312SOL     OW 4834   2.217   1.057   6.183
 1312SOL    HW1 4835   2.223   1.102   6.094
 1312SOL    HW2 4836   2.195   0.960   6.169
 1313SOL     OW 4837   6.491   6.293   2.830
 1313SOL    HW1 4838   6.566   6.254   2.778
 1313SOL    HW2 4839   6.435   6.350   2.770
 1314SOL     OW 4840   2.189   1.717   5.259
 1314SOL    HW1 4841   2.116   1.663   5.300
 1314SOL    HW2 4842   2.276   1.695   5.303
 1315SOL     OW 4843   6.124   1.248   3.357
 1315SOL    HW1 4844   6.112   1.348   3.363
 1315SOL    HW2 4845   6.173   1.216   3.438
 1316SOL     OW 4846   4.208   0.713   5.154
 1316SOL    HW1 4847   4.305   0.723   5.176
 1316SOL    HW2 4848   4.153   0.727   5.236
 1317SOL     OW 4849   2.989   3.365   5.894
 1317SOL    HW1 4850   2.935   3.353   5.811
 1317SOL    HW2 4851   3.072   3.417   5.873
 1318SOL     OW 4852   2.035   2.330   6.315
 1318SOL    HW1 4853   1.938   2.308   6.303
 1318SOL    HW2 4854   2.047   2.383   6.399
 1319SOL     OW 4855   6.663   6.411   0.923
 1319SOL    HW1 4856   6.633   6.381   1.013
 1319SOL    HW2 4857   6.753   6.453   0.930
 1320SOL     OW 4858   3.627   3.112   5.972
 1320SOL    HW1 4859   3.622   3.038   5.904
 1320SOL    HW2 4860   3.574   3.087   6.053
 1321SOL     OW 4861   5.092   2.773   0.035
 1321SOL    HW1 4862   5.176   2.728   0.005
 1321SOL    HW2 4863   5.064   2.840   6.991
 1322SOL     OW 4864   3.387   1.664   0.458
 1322SOL    HW1 4865   3.439   1.746   0.482
 1322SOL    HW2 4866   3.368   1.612   0.541
 1323SOL     OW 4867   3.981   6.920   0.622
 1323SOL    HW1 4868   3.996   6.823   0.602
 1323SOL    HW2 4869   4.067   6.963   0.648
 1324SOL     OW 4870   1.580   3.559   0.012
 1324SOL    HW1 4871   1.677   3.571   7.014
 1324SOL    HW2 4872   1.564   3.589   0.106
 1325SOL     OW 4873   2.651   5.189   5.773
 1325SOL    HW1 4874   2.580   5.219   5.837
 1325SOL    HW2 4875   2.738   5.232   5.797
 1326SOL     OW 4876   4.801   3.002   3.514
 1326SOL    HW1 4877   4.819   3.095   3.545
 1326SOL    HW2 4878   4.774   2.945   3.592
 1327SOL     OW 4879   6.127   5.560   1.424
 1327SOL    HW1 4880   6.134   5.470   1.466
 1327SOL    HW2 4881   6.214   5.584   1.380
 1328SOL     OW 4882   1.949   3.379   5.374
 1328SOL    HW1 4883   1.945   3.475   5.402
 1328SOL    HW2 4884   2.043   3.354   5.353
 1329SOL     OW 4885   0.841   2.937   2.932
 1329SOL    HW1 4886   0.799   2.878   2.863
 1329SOL    HW2 4887   0.938   2.913   2.941
 1330SOL     OW 4888   6.201   3.203   1.400
 1330SOL    HW1 4889   6.283   3.145   1.395
 1330SOL    HW2 4890   6.133   3.171   1.334
 1331SOL     OW 4891   4.564   1.847   3.350
 1331SOL    HW1 4892   4.513   1.761   3.341
 1331SOL    HW2 4893   4.559   1.879   3.444
 1332SOL     OW 4894   1.658   6.096   0.233
 1332SOL    HW1 4895   1.585   6.033   0.206
 1332SOL    HW2 4896   1.665   6.097   0.333
 1333SOL     OW 4897   3.922   3.925   3.004
 1333SOL    HW1 4898   3.822   3.928   2.994
 1333SOL    HW2 4899   3.962   4.005   2.959
 1334SOL     OW 4900   6.982   3.453   2.133
 1334SOL    HW1 4901   6.922   3.485   2.060
 1334SOL    HW2 4902   0.050   3.489   2.120
 1335SOL     OW 4903   1.369   3.391   2.134
 1335SOL    HW1 4904   1.425   3.312   2.161
 1335SOL    HW2 4905   1.412   3.438   2.058
 1336SOL     OW 4906   3.176   0.759   5.314
 1336SOL    HW1 4907   3.205   0.667   5.340
 1336SOL    HW2 4908   3.154   0.760   5.216
 1337SOL     OW 4909   6.918   1.238   4.075
 1337SOL    HW1 4910   6.901   1.316   4.135
 1337SOL    HW2 4911   7.005   1.196   4.100
 1338SOL     OW 4912   6.681   3.952   4.941
 1338SOL    HW1 4913   6.592   3.976   4.981
 1338SOL    HW2 4914   6.754   3.989   4.998
 1339SOL     OW 4915   0.210   0.527   0.127
 1339SOL    HW1 4916   0.195   0.433   0.156
 1339SOL    HW2 4917   0.290   0.532   0.068
 1340SOL     OW 4918   4.273   2.477   1.686
 1340SOL    HW1 4919   4.302   2.406   1.749
 1340SOL    HW2 4920   4.175   2.494   1.698
 1341SOL     OW 4921   4.778   7.001   0.054
 1341SOL    HW1 4922   4.743   6.940   0.126
 1341SOL    HW2 4923   4.787   0.069   0.091
 1342SOL     OW 4924   2.557   6.346   1.335
 1342SOL    HW1 4925   2.521   6.439   1.332
 1342SOL    HW2 4926   2.496   6.288   1.389
 1343SOL     OW 4927   5.638   6.330   3.130
 1343SOL    HW1 4928   5.605   6.381   3.209
 1343SOL    HW2 4929   5.626   6.232   3.146
 1344SOL     OW 4930   0.080   0.662   5.214
 1344SOL    HW1 4931   0.001   0.614   5.176
 1344SOL    HW2 4932   0.151   0.597   5.239
 1345SOL     OW 4933   0.266   6.197   0.591
 1345SOL    HW1 4934   0.288   6.226   0.498
 1345SOL    HW2 4935   0.171   6.164   0.593
 1346SOL     OW 4936   3.224   5.231   5.570
 1346SOL    HW1 4937   3.209   5.265   5.477
 1346SOL    HW2 4938   3.163   5.153   5.587
 1347SOL     OW 4939   1.254   7.015   6.260
 1347SOL    HW1 4940   1.221   6.985   6.171
 1347SOL    HW2 4941   1.217   6.955   6.331
 1348SOL     OW 4942   0.833   6.135   5.317
 1348SOL    HW1 4943   0.819   6.203   5.245
 1348SOL    HW2 4944   0.767   6.150   5.391
 1349SOL     OW 4945   4.874   3.043   3.840
 1349SOL    HW1 4946   4.813   2.988   3.782
 1349SOL    HW2 4947   4.893   3.130   3.795
 1350SOL     OW 4948   3.898   3.676   0.170
 1350SOL    HW1 4949   3.948   3.589   0.174
 1350SOL    HW2 4950   3.836   3.676   0.092
 1351SOL     OW 4951   6.655   2.609   5.598
 1351SOL    HW1 4952   6.602   2.612   5.682
 1351SOL    HW2 4953   6.657   2.700   5.557
 1352SOL     OW 4954   6.934   0.872   2.405
 1352SOL    HW1 4955   6.908   0.881   2.501
 1352SOL    HW2 4956   7.008   0.937   2.385
 1353SOL     OW 4957   0.547   0.850   0.584
 1353SOL    HW1 4958   0.620   0.875   0.520
 1353SOL    HW2 4959   0.561   0.757   0.615
 1354SOL     OW 4960   5.266   5.121   2.258
 1354SOL    HW1 4961   5.305   5.186   2.323
 1354SOL    HW2 4962   5.169   5.107   2.280
 1355SOL     OW 4963   6.346   3.703   5.757
 1355SOL    HW1 4964   6.406   3.730   5.681
 1355SOL    HW2 4965   6.373   3.614   5.792
 1356SOL     OW 4966   3.422   3.221   1.035
 1356SOL    HW1 4967   3.354   3.222   1.108
 1356SOL    HW2 4968   3.480   3.140   1.044
 1357SOL     OW 4969   0.026   3.342   5.332
 1357SOL    HW1 4970   7.007   3.417   5.282
 1357SOL    HW2 4971   0.009   3.353   5.430
 1358SOL     OW 4972   1.377   6.549   6.898
 1358SOL    HW1 4973   1.393   6.469   6.840
 1358SOL    HW2 4974   1.279   6.558   6.916
 1359SOL     OW 4975   6.884   4.474   1.587
 1359SOL    HW1 4976   6.917   4.534   1.660
 1359SOL    HW2 4977   6.817   4.410   1.625
 1360SOL     OW 4978   2.254   2.235   0.131
 1360SOL    HW1 4979   2.214   2.155   0.086
 1360SOL    HW2 4980   2.216   2.244   0.223
 1361SOL     OW 4981   0.046   4.769   4.827
 1361SOL    HW1 4982   0.060   4.865   4.803
 1361SOL    HW2 4983   0.006   4.763   4.919
 1362SOL     OW 4984   3.163   3.053   2.852
 1362SOL    HW1 4985   3.262   3.052   2.863
 1362SOL    HW2 4986   3.140   3.036   2.756
 1363SOL     OW 4987   1.128   5.612   5.108
 1363SOL    HW1 4988   1.109   5.542   5.177
 1363SOL    HW2 4989   1.225   5.610   5.084
 1364SOL     OW 4990   3.416   3.998   1.010
 1364SOL    HW1 4991   3.328   3.956   0.986
 1364SOL    HW2 4992   3.426   4.085   0.961
 1365SOL     OW 4993   0.273   3.878   6.824
 1365SOL    HW1 4994   0.188   3.838   6.789
 1365SOL    HW2 4995   0.350   3.838   6.774
 1366SOL     OW 4996   2.900   0.421   5.331
 1366SOL    HW1 4997   2.911   0.442   5.429
 1366SOL    HW2 4998   2.821   0.361   5.319
 1367SOL     OW 4999   2.009   0.926   2.703
 1367SOL    HW1 5000   1.953   0.867   2.761
 1367SOL    HW2 5001   2.094   0.949   2.751
 1368SOL     OW 5002   5.561   6.881   3.962
 1368SOL    HW1 5003   5.513   6.947   4.020
 1368SOL    HW2 5004   5.571   6.794   4.011
 1369SOL     OW 5005   0.808   0.566   3.096
 1369SOL    HW1 5006   0.709   0.565   3.107
 1369SOL    HW2 5007   0.837   0.655   3.060
 1370SOL     OW 5008   2.796   0.500   1.686
 1370SOL    HW1 5009   2.700   0.479   1.669
 1370SOL    HW2 5010   2.814   0.497   1.784
 1371SOL     OW 5011   4.355   0.575   6.699
 1371SOL    HW1 5012   4.272   0.569   6.754
 1371SOL    HW2 5013   4.362   0.496   6.639
 1372SOL     OW 5014   3.175   1.937   1.973
 1372SOL    HW1 5015   3.108   2.011   1.966
 1372SOL    HW2 5016   3.259   1.973   2.013
 1373SOL     OW 5017   1.397   6.118   1.064
 1373SOL    HW1 5018   1.319   6.109   1.002
 1373SOL    HW2 5019   1.435   6.027   1.084
 1374SOL     OW 5020   4.947   2.917   0.469
 1374SOL    HW1 5021   4.929   2.890   0.374
 1374SOL    HW2 5022   4.880   2.874   0.529
 1375SOL     OW 5023   0.462   4.081   5.731
 1375SOL    HW1 5024   0.492   4.172   5.700
 1375SOL    HW2 5025   0.375   4.058   5.687
 1376SOL     OW 5026   4.782   1.862   2.002
 1376SOL    HW1 5027   4.708   1.845   2.067
 1376SOL    HW2 5028   4.835   1.941   2.031
 1377SOL     OW 5029   0.409   5.152   5.017
 1377SOL    HW1 5030   0.311   5.161   5.035
 1377SOL    HW2 5031   0.460   5.217   5.073
 1378SOL     OW 5032   1.494   2.436   0.079
 1378SOL    HW1 5033   1.475   2.485   7.019
 1378SOL    HW2 5034   1.511   2.501   0.153
 1379SOL     OW 5035   4.024   6.229   1.437
 1379SOL    HW1 5036   4.020   6.267   1.529
 1379SOL    HW2 5037   3.988   6.295   1.371
 1380SOL     OW 5038   6.269   6.621   2.876
 1380SOL    HW1 5039   6.301   6.672   2.956
 1380SOL    HW2 5040   6.213   6.544   2.905
 1381SOL     OW 5041   6.498   0.895   1.439
 1381SOL    HW1 5042   6.467   0.880   1.345
 1381SOL    HW2 5043   6.420   0.919   1.496
 1382SOL     OW 5044   6.236   4.700   6.659
 1382SOL    HW1 5045   6.259   4.707   6.756
 1382SOL    HW2 5046   6.275   4.778   6.610
 1383SOL     OW 5047   2.894   0.070   0.858
 1383SOL    HW1 5048   2.969   0.074   0.792
 1383SOL    HW2 5049   2.912   7.022   0.924
 1384SOL     OW 5050   2.980   1.887   2.257
 1384SOL    HW1 5051   3.039   1.965   2.278
 1384SOL    HW2 5052   2.903   1.885   2.320
 1385SOL     OW 5053   5.725   3.132   2.635
 1385SOL    HW1 5054   5.638   3.136   2.586
 1385SOL    HW2 5055   5.725   3.197   2.710
 1386SOL     OW 5056   2.276   2.414   4.090
 1386SOL    HW1 5057   2.249   2.388   3.997
 1386SOL    HW2 5058   2.375   2.399   4.101
 1387SOL     OW 5059   2.411   0.870   5.187
 1387SOL    HW1 5060   2.452   0.904   5.103
 1387SOL    HW2 5061   2.387   0.774   5.176
 1388SOL     OW 5062   6.282   0.686   5.410
 1388SOL    HW1 5063   6.372   0.654   5.441
 1388SOL    HW2 5064   6.224   0.701   5.490
 1389SOL     OW 5065   6.561   0.830   5.120
 1389SOL    HW1 5066   6.589   0.734   5.123
 1389SOL    HW2 5067   6.639   0.887   5.094
 1390SOL     OW 5068   4.947   2.582   2.276
 1390SOL    HW1 5069   4.887   2.661   2.285
 1390SOL    HW2 5070   4.976   2.552   2.366
 1391SOL     OW 5071   5.979   1.578   4.719
 1391SOL    HW1 5072   6.002   1.674   4.701
 1391SOL    HW2 5073   6.013   1.552   4.810
 1392SOL     OW 5074   4.624   5.741   6.262
 1392SOL    HW1 5075   4.586   5.732   6.170
 1392SOL    HW2 5076   4.558   5.787   6.322
 1393SOL     OW 5077   5.955   0.538   6.354
 1393SOL    HW1 5078   5.858   0.516   6.367
 1393SOL    HW2 5079   5.993   0.478   6.283
 1394SOL     OW 5080   4.241   0.405   3.922
 1394SOL    HW1 5081   4.306   0.446   3.857
 1394SOL    HW2 5082   4.209   0.475   3.985
 1395SOL     OW 5083   1.054   5.286   2.207
 1395SOL    HW1 5084   1.126   5.232   2.164
 1395SOL    HW2 5085   1.086   5.380   2.219
 1396SOL     OW 5086   1.904   1.444   3.675
 1396SOL    HW1 5087   1.853   1.422   3.592
 1396SOL    HW2 5088   1.868   1.528   3.715
 1397SOL     OW 5089   1.043   5.509   4.844
 1397SOL    HW1 5090   1.053   5.563   4.927
 1397SOL    HW2 5091   1.025   5.570   4.766
 1398SOL     OW 5092   1.372   6.228   0.555
 1398SOL    HW1 5093   1.353   6.309   0.500
 1398SOL    HW2 5094   1.408   6.156   0.496
 1399SOL     OW 5095   4.022   0.179   0.360
 1399SOL    HW1 5096   3.931   0.139   0.349
 1399SOL    HW2 5097   4.018   0.277   0.344
 1400SOL     OW 5098   0.244   0.674   4.983
 1400SOL    HW1 5099   0.280   0.589   4.943
 1400SOL    HW2 5100   0.193   0.652   5.067
 1401SOL     OW 5101   5.201   0.342   2.562
 1401SOL    HW1 5102   5.158   0.418   2.612
 1401SOL    HW2 5103   5.181   0.256   2.609
 1402SOL     OW 5104   7.001   4.639   2.673
 1402SOL    HW1 5105   0.030   4.568   2.626
 1402SOL    HW2 5106   0.039   4.703   2.718
 1403SOL     OW 5107   3.260   3.247   6.225
 1403SOL    HW1 5108   3.234   3.238   6.321
 1403SOL    HW2 5109   3.286   3.341   6.206
 1404SOL     OW 5110   3.828   6.502   0.518
 1404SOL    HW1 5111   3.877   6.589   0.519
 1404SOL    HW2 5112   3.865   6.443   0.590
 1405SOL     OW 5113   0.715   4.076   1.050
 1405SOL    HW1 5114   0.749   4.142   0.983
 1405SOL    HW2 5115   0.621   4.099   1.074
 1406SOL     OW 5116   1.900   2.954   0.455
 1406SOL    HW1 5117   1.942   2.885   0.396
 1406SOL    HW2 5118   1.967   3.025   0.477
 1407SOL     OW 5119   0.015   3.053   1.357
 1407SOL    HW1 5120   7.003   3.029   1.447
 1407SOL    HW2 5121   0.044   3.149   1.357
 1408SOL     OW 5122   5.852   6.538   0.987
 1408SOL    HW1 5123   5.762   6.581   0.980
 1408SOL    HW2 5124   5.841   6.442   1.013
 1409SOL     OW 5125   6.462   1.204   5.928
 1409SOL    HW1 5126   6.539   1.195   5.865
 1409SOL    HW2 5127   6.430   1.299   5.929
 1410SOL     OW 5128   3.273   0.431   6.501
 1410SOL    HW1 5129   3.199   0.371   6.469
 1410SOL    HW2 5130   3.293   0.500   6.431
 1411SOL     OW 5131   3.680   4.801   0.004
 1411SOL    HW1 5132   3.624   4.878   6.997
 1411SOL    HW2 5133   3.760   4.837   0.052
 1412SOL     OW 5134   2.623   2.526   6.746
 1412SOL    HW1 5135   2.709   2.558   6.705
 1412SOL    HW2 5136   2.641   2.493   6.839
 1413SOL     OW 5137   1.568   2.053   5.103
 1413SOL    HW1 5138   1.565   1.957   5.072
 1413SOL    HW2 5139   1.663   2.078   5.123
 1414SOL     OW 5140   0.752   4.662   2.738
 1414SOL    HW1 5141   0.745   4.651   2.837
 1414SOL    HW2 5142   0.782   4.576   2.697
 1415SOL     OW 5143   2.564   1.363   4.963
 1415SOL    HW1 5144   2.488   1.419   4.931
 1415SOL    HW2 5145   2.537   1.313   5.045
 1416SOL     OW 5146   4.700   0.798   4.593
 1416SOL    HW1 5147   4.620   0.742   4.612
 1416SOL    HW2 5148   4.709   0.811   4.494
 1417SOL     OW 5149   3.550   3.583   5.476
 1417SOL    HW1 5150   3.494   3.645   5.422
 1417SOL    HW2 5151   3.518   3.489   5.464
 1418SOL     OW 5152   3.931   4.118   5.697
 1418SOL    HW1 5153   3.860   4.049   5.680
 1418SOL    HW2 5154   3.911   4.201   5.645
 1419SOL     OW 5155   1.432   5.696   1.964
 1419SOL    HW1 5156   1.454   5.691   1.867
 1419SOL    HW2 5157   1.365   5.769   1.980
 1420SOL     OW 5158   2.661   6.263   2.756
 1420SOL    HW1 5159   2.591   6.333   2.753
 1420SOL    HW2 5160   2.644   6.202   2.834
 1421SOL     OW 5161   1.495   4.864   6.363
 1421SOL    HW1 5162   1.546   4.808   6.429
 1421SOL    HW2 5163   1.402   4.829   6.355
 1422SOL     OW 5164   2.237   3.085   6.631
 1422SOL    HW1 5165   2.299   3.147   6.583
 1422SOL    HW2 5166   2.204   3.130   6.714
 1423SOL     OW 5167   4.196   1.087   4.796
 1423SOL    HW1 5168   4.194   1.187   4.800
 1423SOL    HW2 5169   4.156   1.050   4.880
 1424SOL     OW 5170   6.271   2.943   0.810
 1424SOL    HW1 5171   6.357   2.915   0.851
 1424SOL    HW2 5172   6.251   3.038   0.836
 1425SOL     OW 5173   5.426   0.428   3.698
 1425SOL    HW1 5174   5.492   0.394   3.631
 1425SOL    HW2 5175   5.347   0.468   3.650
 1426SOL     OW 5176   4.000   1.204   0.253
 1426SOL    HW1 5177   4.083   1.186   0.306
 1426SOL    HW2 5178   3.931   1.245   0.312
 1427SOL     OW 5179   1.958   0.260   3.737
 1427SOL    HW1 5180   1.932   0.306   3.822
 1427SOL    HW2 5181   2.038   0.306   3.697
 1428SOL     OW 5182   0.725   2.977   3.843
 1428SOL    HW1 5183   0.681   3.003   3.757
 1428SOL    HW2 5184   0.820   2.950   3.825
 1429SOL     OW 5185   6.301   0.906   1.971
 1429SOL    HW1 5186   6.346   0.848   1.903
 1429SOL    HW2 5187   6.274   0.850   2.050
 1430SOL     OW 5188   2.111   3.669   4.401
 1430SOL    HW1 5189   2.171   3.727   4.455
 1430SOL    HW2 5190   2.077   3.594   4.457
 1431SOL     OW 5191   3.126   1.265   0.312
 1431SOL    HW1 5192   3.218   1.232   0.336
 1431SOL    HW2 5193   3.123   1.364   0.322
 1432SOL     OW 5194   3.233   6.999   2.384
 1432SOL    HW1 5195   3.137   7.001   2.355
 1432SOL    HW2 5196   3.289   0.020   2.314
 1433SOL     OW 5197   2.672   0.629   3.846
 1433SOL    HW1 5198   2.675   0.643   3.945
 1433SOL    HW2 5199   2.718   0.706   3.801
 1434SOL     OW 5200   5.999   3.912   0.231
 1434SOL    HW1 5201   5.964   4.000   0.262
 1434SOL    HW2 5202   6.084   3.891   0.279
 1435SOL     OW 5203   1.399   0.182   3.859
 1435SOL    HW1 5204   1.416   0.108   3.794
 1435SOL    HW2 5205   1.342   0.252   3.816
 1436SOL     OW 5206   5.395   1.133   0.527
 1436SOL    HW1 5207   5.332   1.194   0.575
 1436SOL    HW2 5208   5.467   1.187   0.483
 1437SOL     OW 5209   3.736   0.693   0.246
 1437SOL    HW1 5210   3.655   0.665   0.297
 1437SOL    HW2 5211   3.753   0.791   0.261
 1438SOL     OW 5212   2.419   0.342   2.777
 1438SOL    HW1 5213   2.481   0.420   2.762
 1438SOL    HW2 5214   2.384   0.345   2.871
 1439SOL     OW 5215   6.943   4.687   6.899
 1439SOL    HW1 5216   6.946   4.673   6.800
 1439SOL    HW2 5217   6.851   4.667   6.932
 1440SOL     OW 5218   3.326   2.956   3.187
 1440SOL    HW1 5219   3.298   2.883   3.125
 1440SOL    HW2 5220   3.247   3.014   3.209
 1441SOL     OW 5221   6.385   2.768   4.129
 1441SOL    HW1 5222   6.357   2.739   4.220
 1441SOL    HW2 5223   6.402   2.688   4.072
 1442SOL     OW 5224   5.460   6.855   6.799
 1442SOL    HW1 5225   5.367   6.853   6.836
 1442SOL    HW2 5226   5.457   6.878   6.702
 1443SOL     OW 5227   0.802   2.430   3.118
 1443SOL    HW1 5228   0.809   2.490   3.039
 1443SOL    HW2 5229   0.854   2.346   3.101
 1444SOL     OW 5230   5.625   0.365   5.400
 1444SOL    HW1 5231   5.601   0.434   5.332
 1444SOL    HW2 5232   5.629   0.407   5.490
 1445SOL     OW 5233   6.622   2.028   0.709
 1445SOL    HW1 5234   6.697   2.004   0.648
 1445SOL    HW2 5235   6.599   1.950   0.767
 1446SOL     OW 5236   3.923   6.954   1.228
 1446SOL    HW1 5237   3.997   7.018   1.247
 1446SOL    HW2 5238   3.896   6.908   1.313
 1447SOL     OW 5239   5.616   1.626   4.964
 1447SOL    HW1 5240   5.657   1.573   5.038
 1447SOL    HW2 5241   5.520   1.601   4.954
 1448SOL     OW 5242   5.617   0.329   0.004
 1448SOL    HW1 5243   5.668   0.309   6.945
 1448SOL    HW2 5244   5.652   0.272   0.079
 1449SOL     OW 5245   4.854   5.757   0.970
 1449SOL    HW1 5246   4.899   5.748   0.882
 1449SOL    HW2 5247   4.771   5.811   0.960
 1450SOL     OW 5248   6.061   2.302   3.802
 1450SOL    HW1 5249   5.996   2.228   3.823
 1450SOL    HW2 5250   6.070   2.311   3.703
 1451SOL     OW 5251   1.770   0.049   2.338
 1451SOL    HW1 5252   1.869   0.036   2.339
 1451SOL    HW2 5253   1.741   0.078   2.247
 1452SOL     OW 5254   4.641   0.562   4.879
 1452SOL    HW1 5255   4.577   0.485   4.882
 1452SOL    HW2 5256   4.658   0.587   4.783
 1453SOL     OW 5257   4.562   4.403   4.240
 1453SOL    HW1 5258   4.587   4.467   4.313
 1453SOL    HW2 5259   4.567   4.309   4.274
 1454SOL     OW 5260   5.038   4.565   1.125
 1454SOL    HW1 5261   5.000   4.556   1.218
 1454SOL    HW2 5262   5.080   4.478   1.098
 1455SOL     OW 5263   2.416   1.862   1.327
 1455SOL    HW1 5264   2.395   1.897   1.418
 1455SOL    HW2 5265   2.429   1.938   1.263
 1456SOL     OW 5266   6.195   5.623   3.851
 1456SOL    HW1 5267   6.247   5.651   3.770
 1456SOL    HW2 5268   6.252   5.634   3.932
 1457SOL     OW 5269   1.777   6.905   3.487
 1457SOL    HW1 5270   1.810   6.830   3.545
 1457SOL    HW2 5271   1.756   6.984   3.544
 1458SOL     OW 5272   6.948   5.430   0.299
 1458SOL    HW1 5273   6.863   5.457   0.344
 1458SOL    HW2 5274   6.994   5.511   0.264
 1459SOL     OW 5275   2.826   0.027   1.304
 1459SOL    HW1 5276   2.810   0.077   1.219
 1459SOL    HW2 5277   2.818   0.089   1.382
 1460SOL     OW 5278   0.923   6.412   0.337
 1460SOL    HW1 5279   0.840   6.406   0.281
 1460SOL    HW2 5280   0.898   6.397   0.433
 1461SOL     OW 5281   4.354   4.957   1.523
 1461SOL    HW1 5282   4.359   4.865   1.562
 1461SOL    HW2 5283   4.363   5.024   1.596
 1462SOL     OW 5284   5.320   0.536   5.311
 1462SOL    HW1 5285   5.265   0.610   5.347
 1462SOL    HW2 5286   5.416   0.564   5.306
 1463SOL     OW 5287   0.448   1.100   5.133
 1463SOL    HW1 5288   0.445   1.002   5.114
 1463SOL    HW2 5289   0.372   1.124   5.192
 1464SOL     OW 5290   0.082   6.875   1.350
 1464SOL    HW1 5291   0.140   6.943   1.396
 1464SOL    HW2 5292   7.018   6.871   1.396
 1465SOL     OW 5293   0.238   0.097   4.677
 1465SOL    HW1 5294   0.210   0.190   4.703
 1465SOL    HW2 5295   0.183   0.030   4.727
 1466SOL     OW 5296   5.552   4.781   4.385
 1466SOL    HW1 5297   5.514   4.733   4.464
 1466SOL    HW2 5298   5.477   4.815   4.327
 1467SOL     OW 5299   6.218   4.014   2.746
 1467SOL    HW1 5300   6.123   4.003   2.776
 1467SOL    HW2 5301   6.224   4.001   2.647
 1468SOL     OW 5302   5.476   6.595   3.063
 1468SOL    HW1 5303   5.402   6.613   3.128
 1468SOL    HW2 5304   5.520   6.509   3.086
 1469SOL     OW 5305   0.368   1.217   2.890
 1469SOL    HW1 5306   0.380   1.183   2.797
 1469SOL    HW2 5307   0.380   1.141   2.955
 1470SOL     OW 5308   0.104   0.944   3.305
 1470SOL    HW1 5309   0.098   1.022   3.243
 1470SOL    HW2 5310   0.012   0.916   3.331
 1471SOL     OW 5311   6.541   0.804   0.610
 1471SOL    HW1 5312   6.579   0.896   0.624
 1471SOL    HW2 5313   6.615   0.741   0.585
 1472SOL     OW 5314   4.436   5.556   5.294
 1472SOL    HW1 5315   4.466   5.470   5.335
 1472SOL    HW2 5316   4.423   5.624   5.367
 1473SOL     OW 5317   6.240   4.375   3.169
 1473SOL    HW1 5318   6.166   4.436   3.142
 1473SOL    HW2 5319   6.323   4.397   3.117
 1474SOL     OW 5320   4.405   5.170   4.019
 1474SOL    HW1 5321   4.408   5.161   3.919
 1474SOL    HW2 5322   4.351   5.096   4.058
 1475SOL     OW 5323   6.769   1.108   3.397
 1475SOL    HW1 5324   6.709   1.110   3.477
 1475SOL    HW2 5325   6.759   1.195   3.347
 1476SOL     OW 5326   6.060   2.218   1.475
 1476SOL    HW1 5327   6.056   2.317   1.492
 1476SOL    HW2 5328   6.007   2.170   1.544
 1477SOL     OW 5329   3.267   6.146   3.540
 1477SOL    HW1 5330   3.305   6.103   3.458
 1477SOL    HW2 5331   3.341   6.171   3.602
 1478SOL     OW 5332   6.980   4.837   1.898
 1478SOL    HW1 5333   6.962   4.929   1.933
 1478SOL    HW2 5334   0.055   4.821   1.895
 1479SOL     OW 5335   0.848   4.978   0.818
 1479SOL    HW1 5336   0.834   5.052   0.882
 1479SOL    HW2 5337   0.829   5.010   0.725
 1480SOL     OW 5338   3.344   0.856   0.249
 1480SOL    HW1 5339   3.337   0.833   0.152
 1480SOL    HW2 5340   3.390   0.783   0.298
 1481SOL     OW 5341   0.030   2.191   6.335
 1481SOL    HW1 5342   0.112   2.134   6.348
 1481SOL    HW2 5343   6.975   2.132   6.326
 1482SOL     OW 5344   5.489   1.444   6.672
 1482SOL    HW1 5345   5.517   1.539   6.658
 1482SOL    HW2 5346   5.562   1.394   6.719
 1483SOL     OW 5347   6.188   2.296   6.785
 1483SOL    HW1 5348   6.248   2.253   6.718
 1483SOL    HW2 5349   6.239   2.365   6.837
 1484SOL     OW 5350   0.102   6.794   3.102
 1484SOL    HW1 5351   0.004   6.782   3.087
 1484SOL    HW2 5352   0.132   6.881   3.064
 1485SOL     OW 5353   5.864   2.745   3.663
 1485SOL    HW1 5354   5.843   2.828   3.714
 1485SOL    HW2 5355   5.931   2.691   3.714
 1486SOL     OW 5356   5.206   2.323   1.708
 1486SOL    HW1 5357   5.145   2.318   1.628
 1486SOL    HW2 5358   5.301   2.312   1.679
 1487SOL     OW 5359   6.311   1.043   5.774
 1487SOL    HW1 5360   6.346   1.027   5.682
 1487SOL    HW2 5361   6.351   1.127   5.811
 1488SOL     OW 5362   4.758   1.997   2.667
 1488SOL    HW1 5363   4.812   1.929   2.616
 1488SOL    HW2 5364   4.710   1.951   2.742
 1489SOL     OW 5365   3.941   4.879   4.776
 1489SOL    HW1 5366   3.848   4.907   4.750
 1489SOL    HW2 5367   4.007   4.939   4.731
 1490SOL     OW 5368   2.395   2.098   1.177
 1490SOL    HW1 5369   2.394   2.184   1.228
 1490SOL    HW2 5370   2.424   2.116   1.083
 1491SOL     OW 5371   6.722   2.025   5.720
 1491SOL    HW1 5372   6.690   2.088   5.791
 1491SOL    HW2 5373   6.746   2.077   5.638
 1492SOL     OW 5374   5.614   2.843   1.674
 1492SOL    HW1 5375   5.649   2.763   1.625
 1492SOL    HW2 5376   5.599   2.918   1.610
 1493SOL     OW 5377   5.697   1.102   5.440
 1493SOL    HW1 5378   5.625   1.134   5.501
 1493SOL    HW2 5379   5.784   1.146   5.464
 1494SOL     OW 5380   5.382   2.277   3.892
 1494SOL    HW1 5381   5.423   2.369   3.888
 1494SOL    HW2 5382   5.298   2.276   3.838
 1495SOL     OW 5383   1.669   2.147   2.817
 1495SOL    HW1 5384   1.589   2.206   2.813
 1495SOL    HW2 5385   1.667   2.083   2.739
 1496SOL     OW 5386   1.040   0.995   3.255
 1496SOL    HW1 5387   1.111   1.057   3.222
 1496SOL    HW2 5388   0.992   0.955   3.177
 1497SOL     OW 5389   5.174   4.074   6.004
 1497SOL    HW1 5390   5.273   4.072   6.022
 1497SOL    HW2 5391   5.133   3.988   6.035
 1498SOL     OW 5392   2.265   5.681   0.047
 1498SOL    HW1 5393   2.265   5.778   0.071
 1498SOL    HW2 5394   2.286   5.671   6.974
 1499SOL     OW 5395   0.666   4.492   5.098
 1499SOL    HW1 5396   0.708   4.454   5.016
 1499SOL    HW2 5397   0.727   4.560   5.139
 1500SOL     OW 5398   4.068   6.845   5.191
 1500SOL    HW1 5399   4.120   6.910   5.136
 1500SOL    HW2 5400   4.009   6.895   5.254
 1501SOL     OW 5401   4.318   0.133   6.403
 1501SOL    HW1 5402   4.245   0.153   6.338
 1501SOL    HW2 5403   4.278   0.096   6.487
 1502SOL     OW 5404   0.207   6.224   0.136
 1502SOL    HW1 5405   0.286   6.175   0.173
 1502SOL    HW2 5406   0.123   6.180   0.166
 1503SOL     OW 5407   3.290   3.994   5.123
 1503SOL    HW1 5408   3.343   4.024   5.202
 1503SOL    HW2 5409   3.202   3.957   5.154
 1504SOL     OW 5410   2.836   6.497   4.531
 1504SOL    HW1 5411   2.883   6.562   4.472
 1504SOL    HW2 5412   2.891   6.482   4.614
 1505SOL     OW 5413   4.729   5.361   2.119
 1505SOL    HW1 5414   4.661   5.410   2.064
 1505SOL    HW2 5415   4.723   5.263   2.100
 1506SOL     OW 5416   0.458   6.459   2.890
 1506SOL    HW1 5417   0.444   6.361   2.907
 1506SOL    HW2 5418   0.401   6.512   2.953
 1507SOL     OW 5419   2.356   1.445   6.335
 1507SOL    HW1 5420   2.348   1.475   6.430
 1507SOL    HW2 5421   2.389   1.351   6.332
 1508SOL     OW 5422   4.195   0.093   0.589
 1508SOL    HW1 5423   4.130   0.147   0.535
 1508SOL    HW2 5424   4.243   0.154   0.653
 1509SOL     OW 5425   5.171   1.450   0.343
 1509SOL    HW1 5426   5.131   1.520   0.284
 1509SOL    HW2 5427   5.269   1.444   0.326
 1510SOL     OW 5428   6.914   2.446   3.477
 1510SOL    HW1 5429   7.013   2.439   3.462
 1510SOL    HW2 5430   6.866   2.412   3.397
 1511SOL     OW 5431   1.471   2.563   0.615
 1511SOL    HW1 5432   1.421   2.513   0.545
 1511SOL    HW2 5433   1.525   2.498   0.670
 1512SOL     OW 5434   5.656   0.476   2.493
 1512SOL    HW1 5435   5.607   0.397   2.456
 1512SOL    HW2 5436   5.749   0.447   2.519
 1513SOL     OW 5437   3.944   1.197   2.154
 1513SOL    HW1 5438   3.919   1.224   2.247
 1513SOL    HW2 5439   4.035   1.155   2.155
 1514SOL     OW 5440   5.380   1.211   6.120
 1514SOL    HW1 5441   5.326   1.221   6.204
 1514SOL    HW2 5442   5.477   1.200   6.144
 1515SOL     OW 5443   6.484   5.302   4.741
 1515SOL    HW1 5444   6.392   5.331   4.768
 1515SOL    HW2 5445   6.478   5.223   4.680
 1516SOL     OW 5446   0.505   1.150   0.964
 1516SOL    HW1 5447   0.553   1.214   1.025
 1516SOL    HW2 5448   0.408   1.151   0.985
 1517SOL     OW 5449   3.968   5.041   3.670
 1517SOL    HW1 5450   3.894   5.016   3.733
 1517SOL    HW2 5451   4.006   4.959   3.628
 1518SOL     OW 5452   1.155   4.731   1.075
 1518SOL    HW1 5453   1.213   4.692   1.004
 1518SOL    HW2 5454   1.064   4.690   1.070
 1519SOL     OW 5455   6.674   4.196   1.137
 1519SOL    HW1 5456   6.740   4.121   1.129
 1519SOL    HW2 5457   6.608   4.175   1.210
 1520SOL     OW 5458   1.734   2.720   2.518
 1520SOL    HW1 5459   1.676   2.758   2.446
 1520SOL    HW2 5460   1.772   2.794   2.573
 1521SOL     OW 5461   2.552   4.011   6.043
 1521SOL    HW1 5462   2.629   3.991   6.103
 1521SOL    HW2 5463   2.575   3.987   5.949
 1522SOL     OW 5464   0.816   2.784   6.544
 1522SOL    HW1 5465   0.875   2.707   6.568
 1522SOL    HW2 5466   0.858   2.837   6.471
 1523SOL     OW 5467   6.826   1.295   0.400
 1523SOL    HW1 5468   6.893   1.294   0.474
 1523SOL    HW2 5469   6.743   1.249   0.428
 1524SOL     OW 5470   6.199   1.172   3.120
 1524SOL    HW1 5471   6.154   1.192   3.207
 1524SOL    HW2 5472   6.142   1.204   3.045
 1525SOL     OW 5473   4.427   1.841   5.869
 1525SOL    HW1 5474   4.460   1.806   5.781
 1525SOL    HW2 5475   4.387   1.766   5.922
 1526SOL     OW 5476   6.822   1.682   0.410
 1526SOL    HW1 5477   6.827   1.585   0.383
 1526SOL    HW2 5478   6.795   1.737   0.331
 1527SOL     OW 5479   2.952   2.088   5.817
 1527SOL    HW1 5480   2.966   2.149   5.739
 1527SOL    HW2 5481   3.031   2.026   5.825
 1528SOL     OW 5482   5.090   5.838   3.817
 1528SOL    HW1 5483   5.077   5.748   3.777
 1528SOL    HW2 5484   5.036   5.905   3.767
 1529SOL     OW 5485   3.357   0.993   5.381
 1529SOL    HW1 5486   3.315   0.905   5.403
 1529SOL    HW2 5487   3.394   0.990   5.288
 1530SOL     OW 5488   3.098   6.977   2.006
 1530SOL    HW1 5489   3.076   6.961   1.910
 1530SOL    HW2 5490   3.024   0.005   2.048
 1531SOL     OW 5491   6.615   0.272   6.008
 1531SOL    HW1 5492   6.563   0.186   6.002
 1531SOL    HW2 5493   6.690   0.261   6.072
 1532SOL     OW 5494   3.264   2.247   5.353
 1532SOL    HW1 5495   3.243   2.319   5.287
 1532SOL    HW2 5496   3.214   2.164   5.328
 1533SOL     OW 5497   5.867   2.534   0.235
 1533SOL    HW1 5498   5.965   2.519   0.231
 1533SOL    HW2 5499   5.830   2.543   0.143
 1534SOL     OW 5500   6.854   6.862   1.445
 1534SOL    HW1 5501   6.808   6.933   1.498
 1534SOL    HW2 5502   6.796   6.780   1.442
 1535SOL     OW 5503   4.625   5.337   3.682
 1535SOL    HW1 5504   4.602   5.417   3.737
 1535SOL    HW2 5505   4.541   5.288   3.658
 1536SOL     OW 5506   2.821   5.314   3.259
 1536SOL    HW1 5507   2.813   5.244   3.188
 1536SOL    HW2 5508   2.913   5.310   3.299
 1537SOL     OW 5509   2.344   5.488   4.619
 1537SOL    HW1 5510   2.297   5.568   4.656
 1537SOL    HW2 5511   2.443   5.503   4.623
 1538SOL     OW 5512   3.445   5.442   6.874
 1538SOL    HW1 5513   3.367   5.505   6.869
 1538SOL    HW2 5514   3.502   5.466   6.952
 1539SOL     OW 5515   3.488   5.257   1.962
 1539SOL    HW1 5516   3.419   5.307   1.910
 1539SOL    HW2 5517   3.575   5.305   1.957
 1540SOL     OW 5518   6.374   6.898   5.620
 1540SOL    HW1 5519   6.330   6.959   5.686
 1540SOL    HW2 5520   6.382   6.807   5.659
 1541SOL     OW 5521   4.701   2.014   0.594
 1541SOL    HW1 5522   4.781   2.057   0.551
 1541SOL    HW2 5523   4.729   1.930   0.639
 1542SOL     OW 5524   0.708   6.258   1.045
 1542SOL    HW1 5525   0.659   6.196   0.983
 1542SOL    HW2 5526   0.702   6.351   1.010
 1543SOL     OW 5527   3.063   3.987   3.962
 1543SOL    HW1 5528   3.067   3.926   4.041
 1543SOL    HW2 5529   3.004   4.066   3.984
 1544SOL     OW 5530   3.558   3.926   2.637
 1544SOL    HW1 5531   3.623   3.863   2.681
 1544SOL    HW2 5532   3.544   4.006   2.695
 1545SOL     OW 5533   6.783   0.628   4.436
 1545SOL    HW1 5534   6.864   0.685   4.444
 1545SOL    HW2 5535   6.810   0.535   4.412
 1546SOL     OW 5536   0.348   6.694   6.166
 1546SOL    HW1 5537   0.307   6.692   6.257
 1546SOL    HW2 5538   0.431   6.749   6.167
 1547SOL     OW 5539   3.701   6.389   6.900
 1547SOL    HW1 5540   3.731   6.399   6.994
 1547SOL    HW2 5541   3.758   6.445   6.840
 1548SOL     OW 5542   6.041   4.650   3.807
 1548SOL    HW1 5543   5.986   4.706   3.868
 1548SOL    HW2 5544   6.094   4.709   3.746
 1549SOL     OW 5545   6.449   1.634   1.488
 1549SOL    HW1 5546   6.384   1.601   1.556
 1549SOL    HW2 5547   6.432   1.731   1.469
 1550SOL     OW 5548   2.550   5.798   2.869
 1550SOL    HW1 5549   2.505   5.771   2.954
 1550SOL    HW2 5550   2.514   5.743   2.793
 1551SOL     OW 5551   0.426   3.616   1.209
 1551SOL    HW1 5552   0.515   3.601   1.167
 1551SOL    HW2 5553   0.414   3.713   1.229
 1552SOL     OW 5554   1.272   6.802   0.793
 1552SOL    HW1 5555   1.365   6.813   0.826
 1552SOL    HW2 5556   1.237   6.713   0.822
 1553SOL     OW 5557   5.540   1.854   5.685
 1553SOL    HW1 5558   5.577   1.820   5.598
 1553SOL    HW2 5559   5.587   1.809   5.761
 1554SOL     OW 5560   2.861   1.800   1.435
 1554SOL    HW1 5561   2.769   1.779   1.466
 1554SOL    HW2 5562   2.927   1.762   1.499
 1555SOL     OW 5563   4.024   0.857   6.162
 1555SOL    HW1 5564   3.980   0.935   6.208
 1555SOL    HW2 5565   3.973   0.836   6.078
 1556SOL     OW 5566   3.746   2.221   6.883
 1556SOL    HW1 5567   3.778   2.295   6.942
 1556SOL    HW2 5568   3.766   2.243   6.788
 1557SOL     OW 5569   1.498   2.904   0.173
 1557SOL    HW1 5570   1.596   2.923   0.167
 1557SOL    HW2 5571   1.468   2.913   0.268
 1558SOL     OW 5572   5.005   3.166   6.001
 1558SOL    HW1 5573   5.062   3.174   6.083
 1558SOL    HW2 5574   5.062   3.136   5.924
 1559SOL     OW 5575   2.987   5.304   2.931
 1559SOL    HW1 5576   3.038   5.387   2.950
 1559SOL    HW2 5577   2.905   5.326   2.878
 1560SOL     OW 5578   3.976   1.872   0.707
 1560SOL    HW1 5579   3.920   1.945   0.668
 1560SOL    HW2 5580   3.999   1.893   0.802
 1561SOL     OW 5581   6.028   6.044   1.118
 1561SOL    HW1 5582   6.112   6.011   1.162
 1561SOL    HW2 5583   6.052   6.103   1.041
 1562SOL     OW 5584   3.093   6.940   2.649
 1562SOL    HW1 5585   3.125   6.970   2.559
 1562SOL    HW2 5586   3.144   6.858   2.676
 1563SOL     OW 5587   2.551   2.248   3.981
 1563SOL    HW1 5588   2.563   2.210   4.073
 1563SOL    HW2 5589   2.542   2.173   3.915
 1564SOL     OW 5590   0.412   1.002   3.013
 1564SOL    HW1 5591   0.380   0.922   3.064
 1564SOL    HW2 5592   0.479   0.972   2.944
 1565SOL     OW 5593   3.936   1.302   4.741
 1565SOL    HW1 5594   4.014   1.355   4.709
 1565SOL    HW2 5595   3.912   1.330   4.834
 1566SOL     OW 5596   5.852   4.208   3.307
 1566SOL    HW1 5597   5.900   4.239   3.389
 1566SOL    HW2 5598   5.861   4.278   3.235
 1567SOL     OW 5599   5.591   0.742   5.021
 1567SOL    HW1 5600   5.665   0.770   4.960
 1567SOL    HW2 5601   5.505   0.744   4.971
 1568SOL     OW 5602   3.061   4.813   1.164
 1568SOL    HW1 5603   3.080   4.808   1.262
 1568SOL    HW2 5604   3.096   4.899   1.127
 1569SOL     OW 5605   2.907   1.073   2.715
 1569SOL    HW1 5606   2.880   1.010   2.642
 1569SOL    HW2 5607   2.892   1.167   2.685
 1570SOL     OW 5608   3.102   5.860   6.190
 1570SOL    HW1 5609   3.143   5.783   6.140
 1570SOL    HW2 5610   3.063   5.925   6.124
 1571SOL     OW 5611   0.410   3.390   3.508
 1571SOL    HW1 5612   0.316   3.422   3.498
 1571SOL    HW2 5613   0.439   3.403   3.603
 1572SOL     OW 5614   3.131   5.633   2.367
 1572SOL    HW1 5615   3.108   5.658   2.273
 1572SOL    HW2 5616   3.100   5.540   2.385
 1573SOL     OW 5617   5.293   5.909   0.181
 1573SOL    HW1 5618   5.219   5.976   0.180
 1573SOL    HW2 5619   5.261   5.824   0.138
 1574SOL     OW 5620   0.551   4.277   2.804
 1574SOL    HW1 5621   0.640   4.255   2.844
 1574SOL    HW2 5622   0.484   4.209   2.832
 1575SOL     OW 5623   6.721   2.516   6.994
 1575SOL    HW1 5624   6.650   2.493   6.926
 1575SOL    HW2 5625   6.677   2.543   0.055
 1576SOL     OW 5626   1.314   6.820   1.385
 1576SOL    HW1 5627   1.299   6.838   1.483
 1576SOL    HW2 5628   1.333   6.723   1.373
 1577SOL     OW 5629   3.925   5.762   5.249
 1577SOL    HW1 5630   3.831   5.769   5.283
 1577SOL    HW2 5631   3.943   5.839   5.187
 1578SOL     OW 5632   4.987   1.251   1.513
 1578SOL    HW1 5633   4.933   1.308   1.451
 1578SOL    HW2 5634   5.016   1.306   1.592
 1579SOL     OW 5635   1.710   2.582   1.760
 1579SOL    HW1 5636   1.759   2.496   1.778
 1579SOL    HW2 5637   1.776   2.656   1.747
 1580SOL     OW 5638   2.903   3.249   2.814
 1580SOL    HW1 5639   2.955   3.164   2.804
 1580SOL    HW2 5640   2.946   3.306   2.884
 1581SOL     OW 5641   6.275   4.217   5.793
 1581SOL    HW1 5642   6.294   4.255   5.884
 1581SOL    HW2 5643   6.191   4.163   5.797
 1582SOL     OW 5644   4.606   6.082   5.096
 1582SOL    HW1 5645   4.558   6.047   5.015
 1582SOL    HW2 5646   4.539   6.116   5.163
 1583SOL     OW 5647   1.169   4.972   5.027
 1583SOL    HW1 5648   1.185   5.054   5.082
 1583SOL    HW2 5649   1.099   4.991   4.959
 1584SOL     OW 5650   0.073   4.113   0.363
 1584SOL    HW1 5651   0.148   4.143   0.422
 1584SOL    HW2 5652   0.011   4.054   0.414
 1585SOL     OW 5653   4.060   6.802   3.421
 1585SOL    HW1 5654   4.053   6.712   3.377
 1585SOL    HW2 5655   4.154   6.835   3.415
 1586SOL     OW 5656   3.634   6.078   3.794
 1586SOL    HW1 5657   3.713   6.064   3.853
 1586SOL    HW2 5658   3.569   6.003   3.806
 1587SOL     OW 5659   2.759   6.696   6.882
 1587SOL    HW1 5660   2.807   6.649   6.807
 1587SOL    HW2 5661   2.819   6.703   6.961
 1588SOL     OW 5662   6.507   1.527   4.117
 1588SOL    HW1 5663   6.590   1.580   4.132
 1588SOL    HW2 5664   6.529   1.444   4.066
 1589SOL     OW 5665   6.547   4.398   3.571
 1589SOL    HW1 5666   6.463   4.430   3.527
 1589SOL    HW2 5667   6.536   4.302   3.597
 1590SOL     OW 5668   6.684   2.389   4.044
 1590SOL    HW1 5669   6.744   2.309   4.053
 1590SOL    HW2 5670   6.731   2.460   3.992
 1591SOL     OW 5671   1.148   5.962   1.312
 1591SOL    HW1 5672   1.127   6.006   1.225
 1591SOL    HW2 5673   1.214   6.018   1.362
 1592SOL     OW 5674   0.274   4.203   6.062
 1592SOL    HW1 5675   0.265   4.118   6.009
 1592SOL    HW2 5676   0.190   4.218   6.115
 1593SOL     OW 5677   3.430   6.829   0.068
 1593SOL    HW1 5678   3.484   6.898   0.116
 1593SOL    HW2 5679   3.366   6.874   0.006
 1594SOL     OW 5680   5.935   0.427   2.577
 1594SOL    HW1 5681   5.959   0.382   2.663
 1594SOL    HW2 5682   6.019   0.450   2.527
 1595SOL     OW 5683   0.316   3.700   0.564
 1595SOL    HW1 5684   0.246   3.717   0.494
 1595SOL    HW2 5685   0.317   3.603   0.588
 1596SOL     OW 5686   4.480   4.906   3.812
 1596SOL    HW1 5687   4.542   4.896   3.889
 1596SOL    HW2 5688   4.408   4.837   3.817
 1597SOL     OW 5689   4.060   6.085   6.811
 1597SOL    HW1 5690   4.079   6.166   6.755
 1597SOL    HW2 5691   4.102   6.098   6.901
 1598SOL     OW 5692   1.399   4.619   6.769
 1598SOL    HW1 5693   1.341   4.690   6.810
 1598SOL    HW2 5694   1.361   4.529   6.787
 1599SOL     OW 5695   4.280   5.532   3.225
 1599SOL    HW1 5696   4.186   5.542   3.258
 1599SOL    HW2 5697   4.290   5.579   3.137
 1600SOL     OW 5698   3.824   0.302   2.169
 1600SOL    HW1 5699   3.799   0.252   2.086
 1600SOL    HW2 5700   3.740   0.322   2.221
 1601SOL     OW 5701   6.380   0.399   5.460
 1601SOL    HW1 5702   6.312   0.361   5.523
 1601SOL    HW2 5703   6.403   0.492   5.489
 1602SOL     OW 5704   4.139   6.111   4.011
 1602SOL    HW1 5705   4.181   6.159   3.934
 1602SOL    HW2 5706   4.186   6.024   4.027
 1603SOL     OW 5707   3.565   5.350   3.214
 1603SOL    HW1 5708   3.621   5.374   3.294
 1603SOL    HW2 5709   3.471   5.331   3.244
 1604SOL     OW 5710   4.362   5.270   2.016
 1604SOL    HW1 5711   4.352   5.354   1.961
 1604SOL    HW2 5712   4.314   5.281   2.103
 1605SOL     OW 5713   4.663   5.442   0.343
 1605SOL    HW1 5714   4.594   5.371   0.327
 1605SOL    HW2 5715   4.664   5.466   0.441
 1606SOL     OW 5716   3.532   5.921   4.666
 1606SOL    HW1 5717   3.509   5.885   4.576
 1606SOL    HW2 5718   3.629   5.904   4.685
 1607SOL     OW 5719   4.706   5.324   3.108
 1607SOL    HW1 5720   4.803   5.321   3.130
 1607SOL    HW2 5721   4.673   5.231   3.090
 1608SOL     OW 5722   5.135   1.541   3.479
 1608SOL    HW1 5723   5.064   1.472   3.482
 1608SOL    HW2 5724   5.198   1.528   3.556
 1609SOL     OW 5725   2.719   6.625   0.740
 1609SOL    HW1 5726   2.796   6.650   0.681
 1609SOL    HW2 5727   2.675   6.708   0.775
 1610SOL     OW 5728   5.594   6.942   1.226
 1610SOL    HW1 5729   5.539   6.883   1.286
 1610SOL    HW2 5730   5.674   6.974   1.276
 1611SOL     OW 5731   1.304   4.508   0.425
 1611SOL    HW1 5732   1.282   4.532   0.330
 1611SOL    HW2 5733   1.404   4.504   0.435
 1612SOL     OW 5734   4.082   0.454   2.115
 1612SOL    HW1 5735   4.112   0.448   2.020
 1612SOL    HW2 5736   4.014   0.383   2.133
 1613SOL     OW 5737   6.342   5.986   2.348
 1613SOL    HW1 5738   6.324   5.952   2.256
 1613SOL    HW2 5739   6.284   6.066   2.366
 1614SOL     OW 5740   6.231   1.151   6.320
 1614SOL    HW1 5741   6.237   1.120   6.415
 1614SOL    HW2 5742   6.310   1.116   6.269
 1615SOL     OW 5743   0.706   4.277   6.487
 1615SOL    HW1 5744   0.790   4.268   6.434
 1615SOL    HW2 5745   0.633   4.310   6.427
 1616SOL     OW 5746   1.202   1.091   4.243
 1616SOL    HW1 5747   1.110   1.053   4.253
 1616SOL    HW2 5748   1.198   1.191   4.253
 1617SOL     OW 5749   6.246   6.568   3.302
 1617SOL    HW1 5750   6.238   6.471   3.279
 1617SOL    HW2 5751   6.214   6.584   3.395
 1618SOL     OW 5752   3.539   5.748   3.531
 1618SOL    HW1 5753   3.501   5.785   3.446
 1618SOL    HW2 5754   3.620   5.693   3.510
 1619SOL     OW 5755   1.436   4.235   0.271
 1619SOL    HW1 5756   1.519   4.268   0.316
 1619SOL    HW2 5757   1.456   4.214   0.176
 1620SOL     OW 5758   3.590   5.605   5.125
 1620SOL    HW1 5759   3.505   5.658   5.125
 1620SOL    HW2 5760   3.625   5.599   5.031
 1621SOL     OW 5761   5.217   6.410   0.632
 1621SOL    HW1 5762   5.170   6.341   0.688
 1621SOL    HW2 5763   5.256   6.366   0.551
 1622SOL     OW 5764   6.544   4.449   4.313
 1622SOL    HW1 5765   6.541   4.352   4.338
 1622SOL    HW2 5766   6.471   4.498   4.361
 1623SOL     OW 5767   6.630   2.174   3.065
 1623SOL    HW1 5768   6.643   2.162   2.967
 1623SOL    HW2 5769   6.573   2.255   3.081
 1624SOL     OW 5770   3.850   2.911   1.108
 1624SOL    HW1 5771   3.800   2.832   1.073
 1624SOL    HW2 5772   3.932   2.879   1.157
 1625SOL     OW 5773   0.355   6.259   0.964
 1625SOL    HW1 5774   0.364   6.160   0.949
 1625SOL    HW2 5775   0.261   6.280   0.991
 1626SOL     OW 5776   2.447   2.004   1.591
 1626SOL    HW1 5777   2.514   1.931   1.609
 1626SOL    HW2 5778   2.495   2.091   1.581
 1627SOL     OW 5779   3.809   1.994   5.362
 1627SOL    HW1 5780   3.870   2.023   5.435
 1627SOL    HW2 5781   3.747   1.924   5.397
 1628SOL     OW 5782   5.714   6.795   1.024
 1628SOL    HW1 5783   5.663   6.807   0.938
 1628SOL    HW2 5784   5.671   6.851   1.095
 1629SOL     OW 5785   1.801   0.608   3.641
 1629SOL    HW1 5786   1.799   0.607   3.541
 1629SOL    HW2 5787   1.841   0.523   3.675
 1630SOL     OW 5788   0.458   3.827   6.587
 1630SOL    HW1 5789   0.489   3.800   6.496
 1630SOL    HW2 5790   0.480   3.923   6.602
 1631SOL     OW 5791   6.796   3.767   0.071
 1631SOL    HW1 5792   6.880   3.713   0.078
 1631SOL    HW2 5793   6.762   3.764   7.002
 1632SOL     OW 5794   6.625   5.956   2.022
 1632SOL    HW1 5795   6.654   6.015   2.097
 1632SOL    HW2 5796   6.650   5.861   2.043
 1633SOL     OW 5797   5.809   3.676   4.645
 1633SOL    HW1 5798   5.852   3.724   4.722
 1633SOL    HW2 5799   5.775   3.742   4.579
 1634SOL     OW 5800   6.618   1.774   5.298
 1634SOL    HW1 5801   6.622   1.677   5.275
 1634SOL    HW2 5802   6.689   1.795   5.365
 1635SOL     OW 5803   4.029   6.138   3.064
 1635SOL    HW1 5804   4.026   6.092   2.975
 1635SOL    HW2 5805   3.936   6.155   3.096
 1636SOL     OW 5806   6.174   5.929   1.396
 1636SOL    HW1 5807   6.265   5.887   1.394
 1636SOL    HW2 5808   6.159   5.972   1.485
 1637SOL     OW 5809   0.888   0.482   2.626
 1637SOL    HW1 5810   0.961   0.473   2.559
 1637SOL    HW2 5811   0.919   0.449   2.715
 1638SOL     OW 5812   6.043   2.147   2.048
 1638SOL    HW1 5813   6.122   2.160   1.989
 1638SOL    HW2 5814   5.980   2.082   2.006
 1639SOL     OW 5815   5.213   2.756   2.418
 1639SOL    HW1 5816   5.146   2.700   2.467
 1639SOL    HW2 5817   5.246   2.705   2.338
 1640SOL     OW 5818   6.754   0.127   6.743
 1640SOL    HW1 5819   6.660   0.128   6.710
 1640SOL    HW2 5820   6.756   0.159   6.838
 1641SOL     OW 5821   6.027   2.417   3.063
 1641SOL    HW1 5822   5.965   2.357   3.115
 1641SOL    HW2 5823   6.103   2.363   3.028
 1642SOL     OW 5824   6.813   2.676   6.206
 1642SOL    HW1 5825   6.866   2.650   6.287
 1642SOL    HW2 5826   6.747   2.605   6.185
 1643SOL     OW 5827   2.140   5.981   3.955
 1643SOL    HW1 5828   2.151   5.898   4.010
 1643SOL    HW2 5829   2.227   6.005   3.913
 1644SOL     OW 5830   5.910   2.858   1.429
 1644SOL    HW1 5831   5.929   2.763   1.404
 1644SOL    HW2 5832   5.966   2.883   1.509
 1645SOL     OW 5833   1.879   0.636   5.633
 1645SOL    HW1 5834   1.891   0.560   5.569
 1645SOL    HW2 5835   1.956   0.699   5.623
 1646SOL     OW 5836   1.423   4.775   0.819
 1646SOL    HW1 5837   1.447   4.827   0.737
 1646SOL    HW2 5838   1.357   4.827   0.873
 1647SOL     OW 5839   5.605   2.954   4.150
 1647SOL    HW1 5840   5.661   2.925   4.072
 1647SOL    HW2 5841   5.660   2.955   4.233
 1648SOL     OW 5842   5.398   6.100   1.089
 1648SOL    HW1 5843   5.332   6.025   1.075
 1648SOL    HW2 5844   5.350   6.187   1.083
 1649SOL     OW 5845   3.610   0.539   2.898
 1649SOL    HW1 5846   3.608   0.568   2.994
 1649SOL    HW2 5847   3.527   0.571   2.852
 1650SOL     OW 5848   2.617   4.047   6.355
 1650SOL    HW1 5849   2.710   4.047   6.393
 1650SOL    HW2 5850   2.575   3.958   6.371
 1651SOL     OW 5851   0.904   2.781   3.277
 1651SOL    HW1 5852   0.921   2.717   3.352
 1651SOL    HW2 5853   0.959   2.755   3.198
 1652SOL     OW 5854   0.043   3.325   1.370
 1652SOL    HW1 5855   7.004   3.353   1.443
 1652SOL    HW2 5856   0.115   3.393   1.362
 1653SOL     OW 5857   0.471   4.643   2.678
 1653SOL    HW1 5858   0.562   4.648   2.718
 1653SOL    HW2 5859   0.450   4.730   2.632
 1654SOL     OW 5860   0.140   2.967   2.473
 1654SOL    HW1 5861   0.097   2.952   2.384
 1654SOL    HW2 5862   0.071   2.965   2.545
 1655SOL     OW 5863   6.512   0.442   5.117
 1655SOL    HW1 5864   6.418   0.447   5.083
 1655SOL    HW2 5865   6.527   0.352   5.159
 1656SOL     OW 5866   2.163   4.390   3.512
 1656SOL    HW1 5867   2.249   4.442   3.516
 1656SOL    HW2 5868   2.111   4.418   3.431
 1657SOL     OW 5869   0.490   6.683   5.293
 1657SOL    HW1 5870   0.402   6.729   5.285
 1657SOL    HW2 5871   0.515   6.674   5.389
 1658SOL     OW 5872   5.718   6.814   5.920
 1658SOL    HW1 5873   5.746   6.718   5.914
 1658SOL    HW2 5874   5.800   6.873   5.919
 1659SOL     OW 5875   4.182   0.105   6.102
 1659SOL    HW1 5876   4.231   0.192   6.101
 1659SOL    HW2 5877   4.091   0.118   6.065
 1660SOL     OW 5878   2.535   0.990   2.639
 1660SOL    HW1 5879   2.458   1.042   2.677
 1660SOL    HW2 5880   2.570   1.036   2.558
 1661SOL     OW 5881   4.858   4.600   2.609
 1661SOL    HW1 5882   4.905   4.662   2.546
 1661SOL    HW2 5883   4.920   4.574   2.683
 1662SOL     OW 5884   0.530   1.929   4.252
 1662SOL    HW1 5885   0.519   1.846   4.307
 1662SOL    HW2 5886   0.591   1.992   4.300
 1663SOL     OW 5887   4.868   4.940   0.084
 1663SOL    HW1 5888   4.937   4.895   0.028
 1663SOL    HW2 5889   4.903   5.029   0.115
 1664SOL     OW 5890   1.207   6.931   5.527
 1664SOL    HW1 5891   1.178   0.002   5.534
 1664SOL    HW2 5892   1.211   6.904   5.431
 1665SOL     OW 5893   3.019   4.319   0.220
 1665SOL    HW1 5894   3.118   4.304   0.226
 1665SOL    HW2 5895   3.002   4.417   0.208
 1666SOL     OW 5896   5.780   6.555   5.863
 1666SOL    HW1 5897   5.856   6.570   5.799
 1666SOL    HW2 5898   5.813   6.507   5.944
 1667SOL     OW 5899   0.303   6.195   1.419
 1667SOL    HW1 5900   0.235   6.137   1.463
 1667SOL    HW2 5901   0.364   6.139   1.363
 1668SOL     OW 5902   6.010   4.615   2.635
 1668SOL    HW1 5903   6.101   4.608   2.676
 1668SOL    HW2 5904   5.944   4.565   2.691
 1669SOL     OW 5905   6.067   4.028   5.810
 1669SOL    HW1 5906   6.097   3.933   5.824
 1669SOL    HW2 5907   6.034   4.039   5.717
 1670SOL     OW 5908   2.304   4.650   6.560
 1670SOL    HW1 5909   2.396   4.625   6.591
 1670SOL    HW2 5910   2.308   4.676   6.463
 1671SOL     OW 5911   6.233   2.163   1.141
 1671SOL    HW1 5912   6.290   2.190   1.063
 1671SOL    HW2 5913   6.168   2.236   1.162
 1672SOL     OW 5914   0.570   3.285   0.211
 1672SOL    HW1 5915   0.487   3.317   0.257
 1672SOL    HW2 5916   0.551   3.199   0.165
 1673SOL     OW 5917   1.656   0.339   4.555
 1673SOL    HW1 5918   1.559   0.327   4.575
 1673SOL    HW2 5919   1.676   0.437   4.546
 1674SOL     OW 5920   4.558   1.857   2.159
 1674SOL    HW1 5921   4.525   1.763   2.170
 1674SOL    HW2 5922   4.480   1.919   2.157
 1675SOL     OW 5923   5.618   0.418   1.186
 1675SOL    HW1 5924   5.601   0.443   1.281
 1675SOL    HW2 5925   5.619   0.500   1.129
 1676SOL     OW 5926   1.165   2.275   2.482
 1676SOL    HW1 5927   1.240   2.285   2.416
 1676SOL    HW2 5928   1.141   2.178   2.491
 1677SOL     OW 5929   3.983   3.225   3.410
 1677SOL    HW1 5930   3.973   3.179   3.498
 1677SOL    HW2 5931   4.036   3.309   3.422
 1678SOL     OW 5932   0.975   0.025   1.446
 1678SOL    HW1 5933   0.877   0.006   1.436
 1678SOL    HW2 5934   0.988   0.123   1.462
 1679SOL     OW 5935   0.758   1.741   6.743
 1679SOL    HW1 5936   0.671   1.789   6.734
 1679SOL    HW2 5937   0.795   1.723   6.651
 1680SOL     OW 5938   5.315   2.486   3.528
 1680SOL    HW1 5939   5.243   2.553   3.511
 1680SOL    HW2 5940   5.280   2.414   3.588
 1681SOL     OW 5941   2.585   6.390   4.496
 1681SOL    HW1 5942   2.660   6.455   4.504
 1681SOL    HW2 5943   2.583   6.331   4.577
 1682SOL     OW 5944   3.588   0.283   4.159
 1682SOL    HW1 5945   3.662   0.217   4.173
 1682SOL    HW2 5946   3.512   0.260   4.221
 1683SOL     OW 5947   6.341   4.953   2.863
 1683SOL    HW1 5948   6.440   4.965   2.863
 1683SOL    HW2 5949   6.297   5.033   2.905
 1684SOL     OW 5950   2.506   4.577   2.030
 1684SOL    HW1 5951   2.595   4.578   1.985
 1684SOL    HW2 5952   2.456   4.660   2.005
 1685SOL     OW 5953   0.153   1.393   5.470
 1685SOL    HW1 5954   0.149   1.364   5.566
 1685SOL    HW2 5955   0.094   1.473   5.457
 1686SOL     OW 5956   4.535   5.468   2.967
 1686SOL    HW1 5957   4.601   5.400   3.002
 1686SOL    HW2 5958   4.480   5.426   2.895
 1687SOL     OW 5959   4.837   3.978   1.399
 1687SOL    HW1 5960   4.802   4.034   1.474
 1687SOL    HW2 5961   4.843   4.033   1.316
 1688SOL     OW 5962   1.324   0.900   2.430
 1688SOL    HW1 5963   1.418   0.921   2.459
 1688SOL    HW2 5964   1.310   0.801   2.433
 1689SOL     OW 5965   4.561   0.695   1.265
 1689SOL    HW1 5966   4.538   0.650   1.351
 1689SOL    HW2 5967   4.606   0.782   1.284
 1690SOL     OW 5968   0.609   4.395   3.764
 1690SOL    HW1 5969   0.546   4.372   3.691
 1690SOL    HW2 5970   0.622   4.495   3.767
 1691SOL     OW 5971   4.399   2.481   5.261
 1691SOL    HW1 5972   4.411   2.389   5.223
 1691SOL    HW2 5973   4.315   2.521   5.225
 1692SOL     OW 5974   4.696   4.808   1.757
 1692SOL    HW1 5975   4.651   4.897   1.744
 1692SOL    HW2 5976   4.653   4.760   1.833
 1693SOL     OW 5977   5.317   0.079   5.199
 1693SOL    HW1 5978   5.410   0.107   5.221
 1693SOL    HW2 5979   5.273   0.149   5.143
 1694SOL     OW 5980   4.709   1.639   5.699
 1694SOL    HW1 5981   4.693   1.548   5.737
 1694SOL    HW2 5982   4.778   1.686   5.754
 1695SOL     OW 5983   3.896   0.823   6.927
 1695SOL    HW1 5984   3.809   0.862   6.959
 1695SOL    HW2 5985   3.943   0.779   7.004
 1696SOL     OW 5986   5.413   6.622   0.593
 1696SOL    HW1 5987   5.460   6.591   0.510
 1696SOL    HW2 5988   5.370   6.543   0.637
 1697SOL     OW 5989   4.896   2.399   2.042
 1697SOL    HW1 5990   4.833   2.433   1.972
 1697SOL    HW2 5991   4.881   2.447   2.128
 1698SOL     OW 5992   4.277   0.881   1.603
 1698SOL    HW1 5993   4.359   0.938   1.605
 1698SOL    HW2 5994   4.282   0.815   1.678
 1699SOL     OW 5995   2.435   6.890   0.152
 1699SOL    HW1 5996   2.426   6.973   0.207
 1699SOL    HW2 5997   2.485   6.911   0.068
 1700SOL     OW 5998   5.685   2.433   2.953
 1700SOL    HW1 5999   5.648   2.485   2.875
 1700SOL    HW2 6000   5.780   2.461   2.969
 1701SOL     OW 6001   0.096   6.055   4.853
 1701SOL    HW1 6002   0.084   6.056   4.754
 1701SOL    HW2 6003   0.181   6.009   4.876
 1702SOL     OW 6004   1.810   2.055   6.401
 1702SOL    HW1 6005   1.878   1.982   6.390
 1702SOL    HW2 6006   1.808   2.085   6.497
 1703SOL     OW 6007   2.030   1.653   1.456
 1703SOL    HW1 6008   2.031   1.750   1.481
 1703SOL    HW2 6009   1.995   1.643   1.363
 1704SOL     OW 6010   3.132   1.894   1.020
 1704SOL    HW1 6011   3.108   1.825   1.088
 1704SOL    HW2 6012   3.211   1.947   1.053
 1705SOL     OW 6013   4.252   2.479   0.750
 1705SOL    HW1 6014   4.339   2.445   0.786
 1705SOL    HW2 6015   4.269   2.536   0.670
 1706SOL     OW 6016   5.719   2.360   6.680
 1706SOL    HW1 6017   5.712   2.291   6.752
 1706SOL    HW2 6018   5.768   2.439   6.715
 1707SOL     OW 6019   4.448   1.582   2.227
 1707SOL    HW1 6020   4.533   1.559   2.273
 1707SOL    HW2 6021   4.402   1.498   2.198
 1708SOL     OW 6022   3.494   5.023   2.089
 1708SOL    HW1 6023   3.512   5.111   2.045
 1708SOL    HW2 6024   3.541   4.950   2.039
 1709SOL     OW 6025   4.597   5.178   0.754
 1709SOL    HW1 6026   4.498   5.173   0.758
 1709SOL    HW2 6027   4.632   5.208   0.843
 1710SOL     OW 6028   5.317   5.106   3.264
 1710SOL    HW1 6029   5.335   5.031   3.201
 1710SOL    HW2 6030   5.337   5.193   3.219
 1711SOL     OW 6031   4.263   5.088   6.908
 1711SOL    HW1 6032   4.192   5.039   6.857
 1711SOL    HW2 6033   4.220   5.140   6.982
 1712SOL     OW 6034   0.553   1.555   2.224
 1712SOL    HW1 6035   0.572   1.578   2.128
 1712SOL    HW2 6036   0.521   1.637   2.272
 1713SOL     OW 6037   3.940   0.854   2.677
 1713SOL    HW1 6038   4.030   0.884   2.710
 1713SOL    HW2 6039   3.874   0.860   2.752
 1714SOL     OW 6040   3.353   3.819   0.440
 1714SOL    HW1 6041   3.265   3.854   0.410
 1714SOL    HW2 6042   3.405   3.787   0.361
 1715SOL     OW 6043   2.268   6.649   2.654
 1715SOL    HW1 6044   2.311   6.739   2.648
 1715SOL    HW2 6045   2.170   6.659   2.673
 1716SOL     OW 6046   4.694   1.210   3.619
 1716SOL    HW1 6047   4.760   1.185   3.547
 1716SOL    HW2 6048   4.616   1.257   3.578
 1717SOL     OW 6049   3.325   6.450   5.195
 1717SOL    HW1 6050   3.263   6.400   5.256
 1717SOL    HW2 6051   3.413   6.402   5.190
 1718SOL     OW 6052   0.958   3.211   1.487
 1718SOL    HW1 6053   0.989   3.229   1.581
 1718SOL    HW2 6054   1.027   3.158   1.439
 1719SOL     OW 6055   1.108   5.335   2.690
 1719SOL    HW1 6056   1.031   5.272   2.703
 1719SOL    HW2 6057   1.115   5.362   2.594
 1720SOL     OW 6058   0.558   3.238   5.718
 1720SOL    HW1 6059   0.653   3.221   5.692
 1720SOL    HW2 6060   0.498   3.216   5.642
 1721SOL     OW 6061   1.226   2.410   0.785
 1721SOL    HW1 6062   1.169   2.360   0.719
 1721SOL    HW2 6063   1.301   2.455   0.737
 1722SOL     OW 6064   2.383   2.633   3.767
 1722SOL    HW1 6065   2.466   2.592   3.804
 1722SOL    HW2 6066   2.391   2.643   3.668
 1723SOL     OW 6067   5.789   4.310   0.793
 1723SOL    HW1 6068   5.785   4.299   0.693
 1723SOL    HW2 6069   5.859   4.377   0.817
 1724SOL     OW 6070   5.949   2.740   1.015
 1724SOL    HW1 6071   5.967   2.838   1.025
 1724SOL    HW2 6072   6.036   2.691   1.005
 1725SOL     OW 6073   1.657   5.986   6.705
 1725SOL    HW1 6074   1.663   6.073   6.754
 1725SOL    HW2 6075   1.612   6.001   6.617
 1726SOL     OW 6076   5.593   4.455   2.575
 1726SOL    HW1 6077   5.535   4.537   2.580
 1726SOL    HW2 6078   5.663   4.459   2.646
 1727SOL     OW 6079   3.051   3.754   3.131
 1727SOL    HW1 6080   3.007   3.773   3.218
 1727SOL    HW2 6081   3.031   3.827   3.066
 1728SOL     OW 6082   5.266   2.516   4.113
 1728SOL    HW1 6083   5.318   2.534   4.029
 1728SOL    HW2 6084   5.326   2.531   4.192
 1729SOL     OW 6085   1.232   2.806   2.482
 1729SOL    HW1 6086   1.300   2.734   2.497
 1729SOL    HW2 6087   1.265   2.892   2.522
 1730SOL     OW 6088   2.037   5.441   4.216
 1730SOL    HW1 6089   1.999   5.393   4.295
 1730SOL    HW2 6090   2.113   5.499   4.245
 1731SOL     OW 6091   6.169   5.216   3.381
 1731SOL    HW1 6092   6.157   5.271   3.298
 1731SOL    HW2 6093   6.090   5.156   3.393
 1732SOL     OW 6094   2.546   3.282   5.759
 1732SOL    HW1 6095   2.456   3.324   5.741
 1732SOL    HW2 6096   2.564   3.212   5.691
 1733SOL     OW 6097   2.022   3.305   6.258
 1733SOL    HW1 6098   2.081   3.384   6.273
 1733SOL    HW2 6099   2.027   3.244   6.338
 1734SOL     OW 6100   6.502   3.263   0.807
 1734SOL    HW1 6101   6.424   3.227   0.857
 1734SOL    HW2 6102   6.507   3.221   0.717
 1735SOL     OW 6103   3.980   5.354   6.120
 1735SOL    HW1 6104   3.946   5.361   6.213
 1735SOL    HW2 6105   3.935   5.277   6.074
 1736SOL     OW 6106   4.955   2.457   0.548
 1736SOL    HW1 6107   4.941   2.444   0.450
 1736SOL    HW2 6108   4.924   2.548   0.575
 1737SOL     OW 6109   4.295   1.792   5.419
 1737SOL    HW1 6110   4.261   1.866   5.360
 1737SOL    HW2 6111   4.379   1.822   5.465
 1738SOL     OW 6112   1.764   3.358   4.197
 1738SOL    HW1 6113   1.734   3.369   4.103
 1738SOL    HW2 6114   1.825   3.279   4.204
 1739SOL     OW 6115   6.005   0.598   3.564
 1739SOL    HW1 6116   6.070   0.638   3.628
 1739SOL    HW2 6117   5.914   0.597   3.605
 1740SOL     OW 6118   6.182   3.320   5.049
 1740SOL    HW1 6119   6.251   3.346   5.116
 1740SOL    HW2 6120   6.165   3.221   5.056
 1741SOL     OW 6121   0.113   1.934   4.793
 1741SOL    HW1 6122   0.205   1.918   4.757
 1741SOL    HW2 6123   0.060   1.987   4.728
 1742SOL     OW 6124   6.500   5.879   6.317
 1742SOL    HW1 6125   6.405   5.909   6.315
 1742SOL    HW2 6126   6.532   5.863   6.224
 1743SOL     OW 6127   1.595   1.629   2.349
 1743SOL    HW1 6128   1.501   1.600   2.363
 1743SOL    HW2 6129   1.652   1.599   2.426
 1744SOL     OW 6130   3.446   2.095   4.740
 1744SOL    HW1 6131   3.401   2.181   4.717
 1744SOL    HW2 6132   3.433   2.075   4.837
 1745SOL     OW 6133   6.204   6.325   1.504
 1745SOL    HW1 6134   6.232   6.338   1.599
 1745SOL    HW2 6135   6.209   6.412   1.455
 1746SOL     OW 6136   2.700   4.601   3.353
 1746SOL    HW1 6137   2.772   4.670   3.354
 1746SOL    HW2 6138   2.638   4.619   3.277
 1747SOL     OW 6139   4.162   0.389   2.675
 1747SOL    HW1 6140   4.093   0.376   2.747
 1747SOL    HW2 6141   4.133   0.462   2.614
 1748SOL     OW 6142   6.632   2.836   4.961
 1748SOL    HW1 6143   6.574   2.827   4.880
 1748SOL    HW2 6144   6.699   2.909   4.945
 1749SOL     OW 6145   0.900   5.096   1.260
 1749SOL    HW1 6146   0.892   5.192   1.235
 1749SOL    HW2 6147   0.868   5.039   1.184
 1750SOL     OW 6148   3.933   0.117   6.372
 1750SOL    HW1 6149   3.948   0.021   6.396
 1750SOL    HW2 6150   3.943   0.128   6.273
 1751SOL     OW 6151   6.089   3.063   5.098
 1751SOL    HW1 6152   6.060   3.079   5.192
 1751SOL    HW2 6153   6.091   2.964   5.080
 1752SOL     OW 6154   6.910   0.681   2.064
 1752SOL    HW1 6155   6.827   0.721   2.103
 1752SOL    HW2 6156   6.980   0.752   2.055
 1753SOL     OW 6157   6.145   1.115   1.899
 1753SOL    HW1 6158   6.076   1.057   1.855
 1753SOL    HW2 6159   6.225   1.059   1.921
 1754SOL     OW 6160   2.969   5.492   3.933
 1754SOL    HW1 6161   2.951   5.468   3.838
 1754SOL    HW2 6162   3.048   5.439   3.966
 1755SOL     OW 6163   6.182   6.564   4.530
 1755SOL    HW1 6164   6.102   6.539   4.585
 1755SOL    HW2 6165   6.220   6.481   4.488
 1756SOL     OW 6166   4.813   6.169   0.008
 1756SOL    HW1 6167   4.812   6.113   0.091
 1756SOL    HW2 6168   4.897   6.152   6.982
 1757SOL     OW 6169   2.603   4.984   5.208
 1757SOL    HW1 6170   2.670   5.042   5.160
 1757SOL    HW2 6171   2.581   4.905   5.151
 1758SOL     OW 6172   1.714   5.926   4.543
 1758SOL    HW1 6173   1.667   5.918   4.455
 1758SOL    HW2 6174   1.730   6.023   4.563
 1759SOL     OW 6175   1.309   6.238   0.096
 1759SOL    HW1 6176   1.323   6.184   0.014
 1759SOL    HW2 6177   1.326   6.182   0.177
 1760SOL     OW 6178   0.001   0.927   4.852
 1760SOL    HW1 6179   6.980   1.000   4.800
 1760SOL    HW2 6180   0.099   0.946   4.857
 1761SOL     OW 6181   5.745   1.326   2.715
 1761SOL    HW1 6182   5.738   1.341   2.616
 1761SOL    HW2 6183   5.737   1.413   2.762
 1762SOL     OW 6184   0.981   1.154   5.505
 1762SOL    HW1 6185   1.076   1.159   5.534
 1762SOL    HW2 6186   0.937   1.243   5.519
 1763SOL     OW 6187   0.909   3.976   3.727
 1763SOL    HW1 6188   0.852   4.056   3.746
 1763SOL    HW2 6189   0.879   3.899   3.784
 1764SOL     OW 6190   1.442   5.506   3.457
 1764SOL    HW1 6191   1.360   5.462   3.419
 1764SOL    HW2 6192   1.496   5.437   3.506
 1765SOL     OW 6193   5.794   3.522   2.543
 1765SOL    HW1 6194   5.833   3.481   2.626
 1765SOL    HW2 6195   5.717   3.581   2.569
 1766SOL     OW 6196   4.279   4.739   3.818
 1766SOL    HW1 6197   4.224   4.812   3.777
 1766SOL    HW2 6198   4.245   4.722   3.911
 1767SOL     OW 6199   0.288   5.091   2.058
 1767SOL    HW1 6200   0.309   5.181   2.096
 1767SOL    HW2 6201   0.210   5.052   2.106
 1768SOL     OW 6202   4.996   5.143   1.983
 1768SOL    HW1 6203   4.954   5.064   2.029
 1768SOL    HW2 6204   4.973   5.226   2.033
 1769SOL     OW 6205   5.613   0.450   0.468
 1769SOL    HW1 6206   5.548   0.445   0.544
 1769SOL    HW2 6207   5.700   0.408   0.497
 1770SOL     OW 6208   1.674   4.975   0.825
 1770SOL    HW1 6209   1.709   5.006   0.737
 1770SOL    HW2 6210   1.622   4.891   0.812
 1771SOL     OW 6211   2.173   2.770   5.823
 1771SOL    HW1 6212   2.089   2.814   5.791
 1771SOL    HW2 6213   2.183   2.680   5.779
 1772SOL     OW 6214   2.151   4.029   2.671
 1772SOL    HW1 6215   2.062   4.067   2.696
 1772SOL    HW2 6216   2.139   3.937   2.634
 1773SOL     OW 6217   2.061   6.194   6.336
 1773SOL    HW1 6218   2.021   6.197   6.244
 1773SOL    HW2 6219   2.131   6.123   6.340
 1774SOL     OW 6220   5.371   5.981   0.796
 1774SOL    HW1 6221   5.377   5.906   0.731
 1774SOL    HW2 6222   5.461   5.997   0.837
 1775SOL     OW 6223   2.236   5.262   0.502
 1775SOL    HW1 6224   2.333   5.241   0.500
 1775SOL    HW2 6225   2.200   5.247   0.594
 1776SOL     OW 6226   4.708   2.571   5.269
 1776SOL    HW1 6227   4.724   2.652   5.213
 1776SOL    HW2 6228   4.611   2.546   5.265
 1777SOL     OW 6229   4.924   6.599   6.866
 1777SOL    HW1 6230   4.860   6.571   6.938
 1777SOL    HW2 6231   5.012   6.623   6.907
 1778SOL     OW 6232   6.017   6.988   4.150
 1778SOL    HW1 6233   6.059   0.036   4.096
 1778SOL    HW2 6234   6.081   6.956   4.219
 1779SOL     OW 6235   5.538   0.585   4.087
 1779SOL    HW1 6236   5.559   0.680   4.063
 1779SOL    HW2 6237   5.439   0.575   4.099
 1780SOL     OW 6238   2.235   5.129   5.550
 1780SOL    HW1 6239   2.184   5.046   5.530
 1780SOL    HW2 6240   2.307   5.142   5.482
 1781SOL     OW 6241   4.095   0.832   5.378
 1781SOL    HW1 6242   4.168   0.892   5.347
 1781SOL    HW2 6243   4.108   0.810   5.475
 1782SOL     OW 6244   5.986   1.536   2.178
 1782SOL    HW1 6245   6.019   1.547   2.272
 1782SOL    HW2 6246   6.028   1.455   2.137
 1783SOL     OW 6247   2.046   4.194   6.721
 1783SOL    HW1 6248   2.115   4.264   6.700
 1783SOL    HW2 6249   2.042   4.179   6.820
 1784SOL     OW 6250   2.762   6.528   1.650
 1784SOL    HW1 6251   2.668   6.539   1.682
 1784SOL    HW2 6252   2.773   6.436   1.612
 1785SOL     OW 6253   1.185   6.631   4.894
 1785SOL    HW1 6254   1.162   6.543   4.851
 1785SOL    HW2 6255   1.116   6.699   4.870
 1786SOL     OW 6256   1.012   6.232   1.084
 1786SOL    HW1 6257   1.007   6.319   1.133
 1786SOL    HW2 6258   0.925   6.215   1.037
 1787SOL     OW 6259   2.070   3.126   6.032
 1787SOL    HW1 6260   2.039   3.181   6.110
 1787SOL    HW2 6261   2.095   3.035   6.064
 1788SOL     OW 6262   4.431   3.650   0.963
 1788SOL    HW1 6263   4.492   3.594   0.906
 1788SOL    HW2 6264   4.482   3.684   1.042
 1789SOL     OW 6265   6.202   3.993   2.466
 1789SOL    HW1 6266   6.121   3.939   2.491
 1789SOL    HW2 6267   6.187   4.037   2.378
 1790SOL     OW 6268   1.580   2.093   4.660
 1790SOL    HW1 6269   1.587   2.063   4.755
 1790SOL    HW2 6270   1.632   2.177   4.647
 1791SOL     OW 6271   5.210   0.292   3.533
 1791SOL    HW1 6272   5.179   0.386   3.549
 1791SOL    HW2 6273   5.130   0.233   3.522
 1792SOL     OW 6274   0.600   2.034   6.401
 1792SOL    HW1 6275   0.603   2.086   6.315
 1792SOL    HW2 6276   0.684   2.051   6.453
 1793SOL     OW 6277   6.953   0.731   5.874
 1793SOL    HW1 6278   0.018   0.702   5.908
 1793SOL    HW2 6279   6.959   0.825   5.839
 1794SOL     OW 6280   0.972   0.497   5.910
 1794SOL    HW1 6281   1.018   0.498   5.998
 1794SOL    HW2 6282   0.943   0.589   5.886
 1795SOL     OW 6283   5.369   4.179   1.029
 1795SOL    HW1 6284   5.438   4.216   1.092
 1795SOL    HW2 6285   5.382   4.081   1.019
 1796SOL     OW 6286   0.188   0.233   0.177
 1796SOL    HW1 6287   0.260   0.163   0.171
 1796SOL    HW2 6288   0.099   0.188   0.176
 1797SOL     OW 6289   2.410   4.896   5.912
 1797SOL    HW1 6290   2.374   4.811   5.872
 1797SOL    HW2 6291   2.355   4.973   5.881
 1798SOL     OW 6292   2.359   3.774   5.338
 1798SOL    HW1 6293   2.371   3.867   5.303
 1798SOL    HW2 6294   2.282   3.772   5.401
 1799SOL     OW 6295   3.020   1.530   1.023
 1799SOL    HW1 6296   3.022   1.584   1.107
 1799SOL    HW2 6297   3.013   1.433   1.046
 1800SOL     OW 6298   5.760   3.103   5.209
 1800SOL    HW1 6299   5.844   3.151   5.184
 1800SOL    HW2 6300   5.698   3.166   5.255
 1801SOL     OW 6301   0.993   0.238   3.491
 1801SOL    HW1 6302   1.090   0.227   3.473
 1801SOL    HW2 6303   0.960   0.323   3.449
 1802SOL     OW 6304   7.003   5.239   3.897
 1802SOL    HW1 6305   6.913   5.205   3.923
 1802SOL    HW2 6306   0.023   5.173   3.837
 1803SOL     OW 6307   0.590   6.868   3.356
 1803SOL    HW1 6308   0.548   6.780   3.377
 1803SOL    HW2 6309   0.675   6.878   3.409
 1804SOL     OW 6310   2.263   3.019   5.848
 1804SOL    HW1 6311   2.230   2.926   5.860
 1804SOL    HW2 6312   2.212   3.081   5.907
 1805SOL     OW 6313   6.761   4.913   0.859
 1805SOL    HW1 6314   6.763   4.847   0.934
 1805SOL    HW2 6315   6.666   4.934   0.836
 1806SOL     OW 6316   0.041   1.580   1.058
 1806SOL    HW1 6317   0.008   1.510   0.994
 1806SOL    HW2 6318   0.128   1.617   1.024
 1807SOL     OW 6319   6.978   2.198   2.256
 1807SOL    HW1 6320   6.965   2.205   2.158
 1807SOL    HW2 6321   6.900   2.240   2.304
 1808SOL     OW 6322   5.192   1.790   6.483
 1808SOL    HW1 6323   5.139   1.875   6.476
 1808SOL    HW2 6324   5.206   1.768   6.579
 1809SOL     OW 6325   4.928   0.392   5.266
 1809SOL    HW1 6326   4.957   0.430   5.354
 1809SOL    HW2 6327   4.835   0.356   5.275
 1810SOL     OW 6328   0.675   0.261   4.240
 1810SOL    HW1 6329   0.675   0.331   4.169
 1810SOL    HW2 6330   0.591   0.268   4.294
 1811SOL     OW 6331   3.750   5.861   1.866
 1811SOL    HW1 6332   3.704   5.927   1.806
 1811SOL    HW2 6333   3.698   5.776   1.867
 1812SOL     OW 6334   4.766   6.421   6.425
 1812SOL    HW1 6335   4.736   6.334   6.385
 1812SOL    HW2 6336   4.835   6.463   6.366
 1813SOL     OW 6337   4.787   4.143   2.162
 1813SOL    HW1 6338   4.700   4.188   2.143
 1813SOL    HW2 6339   4.813   4.085   2.085
 1814SOL     OW 6340   6.376   6.028   0.451
 1814SOL    HW1 6341   6.328   6.064   0.371
 1814SOL    HW2 6342   6.473   6.016   0.429
 1815SOL     OW 6343   5.617   6.189   1.209
 1815SOL    HW1 6344   5.625   6.279   1.166
 1815SOL    HW2 6345   5.540   6.140   1.169
 1816SOL     OW 6346   4.334   4.777   5.171
 1816SOL    HW1 6347   4.321   4.851   5.236
 1816SOL    HW2 6348   4.261   4.780   5.102
 1817SOL     OW 6349   0.202   2.623   3.768
 1817SOL    HW1 6350   0.232   2.528   3.779
 1817SOL    HW2 6351   0.278   2.677   3.731
 1818SOL     OW 6352   2.776   0.865   0.399
 1818SOL    HW1 6353   2.708   0.853   0.327
 1818SOL    HW2 6354   2.867   0.871   0.358
 1819SOL     OW 6355   1.922   4.184   2.749
 1819SOL    HW1 6356   1.824   4.195   2.732
 1819SOL    HW2 6357   1.974   4.231   2.677
 1820SOL     OW 6358   3.272   0.493   5.349
 1820SOL    HW1 6359   3.371   0.507   5.351
 1820SOL    HW2 6360   3.251   0.413   5.292
 1821SOL     OW 6361   3.634   1.840   2.393
 1821SOL    HW1 6362   3.713   1.861   2.450
 1821SOL    HW2 6363   3.651   1.756   2.342
 1822SOL     OW 6364   0.063   3.460   2.924
 1822SOL    HW1 6365   0.109   3.419   3.003
 1822SOL    HW2 6366   7.018   3.525   2.956
 1823SOL     OW 6367   4.448   6.567   2.085
 1823SOL    HW1 6368   4.351   6.571   2.106
 1823SOL    HW2 6369   4.462   6.531   1.993
 1824SOL     OW 6370   4.409   3.128   1.654
 1824SOL    HW1 6371   4.463   3.099   1.734
 1824SOL    HW2 6372   4.398   3.228   1.657
 1825SOL     OW 6373   1.046   2.597   5.339
 1825SOL    HW1 6374   0.976   2.531   5.311
 1825SOL    HW2 6375   1.129   2.582   5.286
 1826SOL     OW 6376   3.246   1.956   1.452
 1826SOL    HW1 6377   3.235   2.014   1.371
 1826SOL    HW2 6378   3.320   1.990   1.509
 1827SOL     OW 6379   5.462   5.291   0.509
 1827SOL    HW1 6380   5.458   5.191   0.510
 1827SOL    HW2 6381   5.558   5.321   0.508
 1828SOL     OW 6382   1.794   3.712   5.137
 1828SOL    HW1 6383   1.715   3.765   5.169
 1828SOL    HW2 6384   1.870   3.723   5.201
 1829SOL     OW 6385   3.959   0.134   1.868
 1829SOL    HW1 6386   3.984   0.051   1.918
 1829SOL    HW2 6387   3.874   0.170   1.904
 1830SOL     OW 6388   5.106   1.095   6.059
 1830SOL    HW1 6389   5.067   1.103   6.151
 1830SOL    HW2 6390   5.206   1.100   6.065
 1831SOL     OW 6391   3.218   4.964   0.319
 1831SOL    HW1 6392   3.232   5.016   0.403
 1831SOL    HW2 6393   3.121   4.967   0.294
 1832SOL     OW 6394   2.837   2.856   6.652
 1832SOL    HW1 6395   2.752   2.824   6.609
 1832SOL    HW2 6396   2.815   2.924   6.721
 1833SOL     OW 6397   5.352   1.276   0.023
 1833SOL    HW1 6398   5.434   1.219   0.030
 1833SOL    HW2 6399   5.275   1.221   7.016
 1834SOL     OW 6400   0.506   2.890   5.176
 1834SOL    HW1 6401   0.431   2.953   5.155
 1834SOL    HW2 6402   0.472   2.815   5.232
 1835SOL     OW 6403   6.711   6.175   1.271
 1835SOL    HW1 6404   6.719   6.093   1.327
 1835SOL    HW2 6405   6.722   6.256   1.329
 1836SOL     OW 6406   5.599   2.448   2.365
 1836SOL    HW1 6407   5.544   2.454   2.448
 1836SOL    HW2 6408   5.540   2.455   2.285
 1837SOL     OW 6409   3.250   1.883   6.528
 1837SOL    HW1 6410   3.293   1.917   6.612
 1837SOL    HW2 6411   3.241   1.784   6.533
 1838SOL     OW 6412   5.207   0.907   0.818
 1838SOL    HW1 6413   5.247   0.958   0.743
 1838SOL    HW2 6414   5.223   0.955   0.904
 1839SOL     OW 6415   0.079   0.173   0.496
 1839SOL    HW1 6416   0.130   0.251   0.460
 1839SOL    HW2 6417   0.136   0.091   0.492
 1840SOL     OW 6418   4.530   6.256   4.239
 1840SOL    HW1 6419   4.597   6.199   4.286
 1840SOL    HW2 6420   4.506   6.214   4.151
 1841SOL     OW 6421   1.088   1.345   1.842
 1841SOL    HW1 6422   1.136   1.432   1.857
 1841SOL    HW2 6423   0.994   1.352   1.877
 1842SOL     OW 6424   1.133   5.620   1.294
 1842SOL    HW1 6425   1.083   5.539   1.262
 1842SOL    HW2 6426   1.103   5.700   1.242
 1843SOL     OW 6427   2.621   0.888   6.601
 1843SOL    HW1 6428   2.680   0.946   6.545
 1843SOL    HW2 6429   2.598   0.937   6.686
 1844SOL     OW 6430   6.006   2.756   6.568
 1844SOL    HW1 6431   6.016   2.853   6.542
 1844SOL    HW2 6432   6.084   2.729   6.625
 1845SOL     OW 6433   0.940   2.049   2.910
 1845SOL    HW1 6434   0.961   2.142   2.940
 1845SOL    HW2 6435   0.865   2.051   2.844
 1846SOL     OW 6436   3.066   1.694   1.234
 1846SOL    HW1 6437   3.009   1.737   1.303
 1846SOL    HW2 6438   3.135   1.637   1.279
 1847SOL     OW 6439   1.643   5.582   5.942
 1847SOL    HW1 6440   1.549   5.601   5.913
 1847SOL    HW2 6441   1.651   5.593   6.041
 1848SOL     OW 6442   3.825   6.464   3.185
 1848SOL    HW1 6443   3.815   6.365   3.194
 1848SOL    HW2 6444   3.736   6.508   3.200
 1849SOL     OW 6445   4.767   2.777   2.067
 1849SOL    HW1 6446   4.753   2.865   2.023
 1849SOL    HW2 6447   4.786   2.791   2.165
 1850SOL     OW 6448   4.159   1.926   0.305
 1850SOL    HW1 6449   4.205   1.951   0.391
 1850SOL    HW2 6450   4.112   2.006   0.267
 1851SOL     OW 6451   0.075   4.641   4.589
 1851SOL    HW1 6452   0.013   4.661   4.513
 1851SOL    HW2 6453   0.041   4.684   4.672
 1852SOL     OW 6454   0.883   0.369   2.884
 1852SOL    HW1 6455   0.840   0.445   2.932
 1852SOL    HW2 6456   0.872   0.285   2.938
 1853SOL     OW 6457   0.616   2.412   6.105
 1853SOL    HW1 6458   0.642   2.469   6.027
 1853SOL    HW2 6459   0.518   2.394   6.102
 1854SOL     OW 6460   0.868   6.515   3.630
 1854SOL    HW1 6461   0.831   6.483   3.718
 1854SOL    HW2 6462   0.792   6.532   3.567
 1855SOL     OW 6463   5.618   2.752   4.907
 1855SOL    HW1 6464   5.652   2.707   4.990
 1855SOL    HW2 6465   5.562   2.687   4.855
 1856SOL     OW 6466   4.117   3.171   0.024
 1856SOL    HW1 6467   4.085   3.129   0.109
 1856SOL    HW2 6468   4.205   3.216   0.041
 1857SOL     OW 6469   3.941   1.231   6.777
 1857SOL    HW1 6470   4.039   1.219   6.765
 1857SOL    HW2 6471   3.912   1.183   6.861
 1858SOL     OW 6472   4.763   2.546   4.098
 1858SOL    HW1 6473   4.769   2.523   4.001
 1858SOL    HW2 6474   4.844   2.598   4.125
 1859SOL     OW 6475   6.333   0.764   3.994
 1859SOL    HW1 6476   6.324   0.721   4.084
 1859SOL    HW2 6477   6.285   0.852   3.993
 1860SOL     OW 6478   2.177   1.152   5.914
 1860SOL    HW1 6479   2.078   1.142   5.928
 1860SOL    HW2 6480   2.194   1.222   5.844
 1861SOL     OW 6481   6.523   6.331   4.625
 1861SOL    HW1 6482   6.440   6.351   4.573
 1861SOL    HW2 6483   6.565   6.416   4.656
 1862SOL     OW 6484   2.864   5.306   5.355
 1862SOL    HW1 6485   2.858   5.304   5.256
 1862SOL    HW2 6486   2.958   5.286   5.383
 1863SOL     OW 6487   0.468   2.451   1.326
 1863SOL    HW1 6488   0.433   2.504   1.249
 1863SOL    HW2 6489   0.398   2.445   1.397
 1864SOL     OW 6490   3.385   5.913   1.983
 1864SOL    HW1 6491   3.315   5.985   1.979
 1864SOL    HW2 6492   3.368   5.855   2.063
 1865SOL     OW 6493   6.337   2.559   5.960
 1865SOL    HW1 6494   6.314   2.650   5.925
 1865SOL    HW2 6495   6.286   2.542   6.045
 1866SOL     OW 6496   0.672   5.319   3.238
 1866SOL    HW1 6497   0.674   5.419   3.251
 1866SOL    HW2 6498   0.633   5.276   3.320
 1867SOL     OW 6499   0.527   2.547   1.817
 1867SOL    HW1 6500   0.535   2.623   1.753
 1867SOL    HW2 6501   0.580   2.469   1.783
 1868SOL     OW 6502   5.864   3.569   6.757
 1868SOL    HW1 6503   5.952   3.560   6.802
 1868SOL    HW2 6504   5.796   3.601   6.824
 1869SOL     OW 6505   5.036   1.090   4.530
 1869SOL    HW1 6506   5.022   1.000   4.571
 1869SOL    HW2 6507   5.125   1.125   4.559
 1870SOL     OW 6508   6.562   6.428   5.728
 1870SOL    HW1 6509   6.593   6.481   5.807
 1870SOL    HW2 6510   6.469   6.395   5.744
 1871SOL     OW 6511   0.536   6.397   6.866
 1871SOL    HW1 6512   0.557   6.493   6.886
 1871SOL    HW2 6513   0.591   6.367   6.788
 1872SOL     OW 6514   2.831   3.171   1.441
 1872SOL    HW1 6515   2.908   3.126   1.487
 1872SOL    HW2 6516   2.747   3.153   1.493
 1873SOL     OW 6517   6.636   1.050   1.082
 1873SOL    HW1 6518   6.681   1.111   1.147
 1873SOL    HW2 6519   6.579   0.985   1.132
 1874SOL     OW 6520   1.078   5.387   0.719
 1874SOL    HW1 6521   1.089   5.290   0.740
 1874SOL    HW2 6522   1.112   5.442   0.796
 1875SOL     OW 6523   0.413   5.651   1.606
 1875SOL    HW1 6524   0.331   5.595   1.620
 1875SOL    HW2 6525   0.472   5.643   1.686
 1876SOL     OW 6526   0.547   4.997   0.900
 1876SOL    HW1 6527   0.546   5.083   0.952
 1876SOL    HW2 6528   0.637   4.954   0.909
 1877SOL     OW 6529   1.100   1.800   2.017
 1877SOL    HW1 6530   1.031   1.840   2.077
 1877SOL    HW2 6531   1.114   1.861   1.938
 1878SOL     OW 6532   5.273   3.776   4.002
 1878SOL    HW1 6533   5.249   3.695   3.948
 1878SOL    HW2 6534   5.372   3.778   4.016
 1879SOL     OW 6535   4.940   6.276   4.453
 1879SOL    HW1 6536   4.944   6.204   4.523
 1879SOL    HW2 6537   5.018   6.338   4.465
 1880SOL     OW 6538   0.261   1.365   4.372
 1880SOL    HW1 6539   0.335   1.316   4.325
 1880SOL    HW2 6540   0.225   1.309   4.446
 1881SOL     OW 6541   2.043   1.694   3.833
 1881SOL    HW1 6542   2.124   1.675   3.778
 1881SOL    HW2 6543   1.975   1.622   3.820
 1882SOL     OW 6544   1.764   5.373   0.593
 1882SOL    HW1 6545   1.728   5.389   0.501
 1882SOL    HW2 6546   1.688   5.369   0.659
 1883SOL     OW 6547   2.257   2.441   3.013
 1883SOL    HW1 6548   2.245   2.348   2.981
 1883SOL    HW2 6549   2.353   2.468   3.002
 1884SOL     OW 6550   4.277   1.174   0.396
 1884SOL    HW1 6551   4.299   1.226   0.313
 1884SOL    HW2 6552   4.299   1.077   0.381
 1885SOL     OW 6553   0.105   1.570   0.428
 1885SOL    HW1 6554   0.195   1.607   0.451
 1885SOL    HW2 6555   0.036   1.611   0.488
 1886SOL     OW 6556   3.335   2.484   6.348
 1886SOL    HW1 6557   3.276   2.542   6.403
 1886SOL    HW2 6558   3.337   2.517   6.254
 1887SOL     OW 6559   0.927   6.296   4.958
 1887SOL    HW1 6560   0.871   6.336   5.030
 1887SOL    HW2 6561   0.983   6.223   4.997
 1888SOL     OW 6562   1.737   1.602   5.261
 1888SOL    HW1 6563   1.638   1.599   5.276
 1888SOL    HW2 6564   1.756   1.656   5.180
 1889SOL     OW 6565   3.047   2.810   0.058
 1889SOL    HW1 6566   3.002   2.754   7.013
 1889SOL    HW2 6567   3.018   2.781   0.149
 1890SOL     OW 6568   6.096   6.316   0.062
 1890SOL    HW1 6569   6.141   6.315   6.997
 1890SOL    HW2 6570   6.003   6.352   0.052
 1891SOL     OW 6571   5.249   3.511   6.711
 1891SOL    HW1 6572   5.314   3.578   6.675
 1891SOL    HW2 6573   5.158   3.553   6.720
 1892SOL     OW 6574   4.305   6.947   1.963
 1892SOL    HW1 6575   4.389   6.903   1.994
 1892SOL    HW2 6576   4.265   6.895   1.888
 1893SOL     OW 6577   2.986   1.545   5.324
 1893SOL    HW1 6578   2.988   1.602   5.242
 1893SOL    HW2 6579   2.916   1.475   5.314
 1894SOL     OW 6580   4.895   3.708   1.413
 1894SOL    HW1 6581   4.871   3.802   1.390
 1894SOL    HW2 6582   4.906   3.654   1.329
 1895SOL     OW 6583   4.435   0.109   3.550
 1895SOL    HW1 6584   4.436   0.209   3.558
 1895SOL    HW2 6585   4.343   0.075   3.570
 1896SOL     OW 6586   6.275   2.036   5.974
 1896SOL    HW1 6587   6.284   2.123   5.925
 1896SOL    HW2 6588   6.201   2.043   6.040
 1897SOL     OW 6589   5.530   5.157   3.508
 1897SOL    HW1 6590   5.581   5.166   3.593
 1897SOL    HW2 6591   5.457   5.225   3.505
 1898SOL     OW 6592   6.149   6.613   6.761
 1898SOL    HW1 6593   6.068   6.561   6.789
 1898SOL    HW2 6594   6.124   6.677   6.689
 1899SOL     OW 6595   1.298   2.414   2.988
 1899SOL    HW1 6596   1.261   2.440   2.898
 1899SOL    HW2 6597   1.396   2.395   2.979
 1900SOL     OW 6598   2.325   6.582   2.270
 1900SOL    HW1 6599   2.398   6.559   2.335
 1900SOL    HW2 6600   2.287   6.671   2.293
 1901SOL     OW 6601   1.594   1.228   6.358
 1901SOL    HW1 6602   1.518   1.229   6.423
 1901SOL    HW2 6603   1.568   1.277   6.275
 1902SOL     OW 6604   2.032   2.052   5.539
 1902SOL    HW1 6605   2.037   2.152   5.528
 1902SOL    HW2 6606   1.985   2.030   5.624
 1903SOL     OW 6607   6.901   4.287   3.795
 1903SOL    HW1 6608   6.857   4.199   3.778
 1903SOL    HW2 6609   6.988   4.272   3.843
 1904SOL     OW 6610   0.221   0.486   4.335
 1904SOL    HW1 6611   0.265   0.508   4.422
 1904SOL    HW2 6612   0.126   0.460   4.352
 1905SOL     OW 6613   6.493   2.892   4.607
 1905SOL    HW1 6614   6.442   2.963   4.656
 1905SOL    HW2 6615   6.529   2.930   4.522
 1906SOL     OW 6616   2.733   5.916   6.544
 1906SOL    HW1 6617   2.820   5.908   6.496
 1906SOL    HW2 6618   2.704   6.012   6.545
 1907SOL     OW 6619   4.248   6.218   3.780
 1907SOL    HW1 6620   4.246   6.142   3.714
 1907SOL    HW2 6621   4.234   6.304   3.731
 1908SOL     OW 6622   4.958   0.197   6.473
 1908SOL    HW1 6623   4.925   0.244   6.391
 1908SOL    HW2 6624   4.888   0.132   6.503
 1909SOL     OW 6625   4.324   5.170   4.731
 1909SOL    HW1 6626   4.356   5.098   4.670
 1909SOL    HW2 6627   4.306   5.253   4.678
 1910SOL     OW 6628   4.990   2.996   4.430
 1910SOL    HW1 6629   5.055   3.060   4.389
 1910SOL    HW2 6630   4.969   3.025   4.523
 1911SOL     OW 6631   0.125   3.213   5.687
 1911SOL    HW1 6632   0.212   3.217   5.737
 1911SOL    HW2 6633   0.135   3.157   5.605
 1912SOL     OW 6634   2.702   5.706   3.261
 1912SOL    HW1 6635   2.725   5.621   3.213
 1912SOL    HW2 6636   2.780   5.736   3.315
 1913SOL     OW 6637   1.382   4.090   5.337
 1913SOL    HW1 6638   1.435   4.049   5.411
 1913SOL    HW2 6639   1.439   4.099   5.256
 1914SOL     OW 6640   4.509   1.188   5.717
 1914SOL    HW1 6641   4.449   1.149   5.787
 1914SOL    HW2 6642   4.476   1.163   5.626
 1915SOL     OW 6643   3.602   0.793   5.354
 1915SOL    HW1 6644   3.570   0.698   5.350
 1915SOL    HW2 6645   3.568   0.843   5.275
 1916SOL     OW 6646   4.167   6.598   1.821
 1916SOL    HW1 6647   4.234   6.657   1.776
 1916SOL    HW2 6648   4.188   6.592   1.918
 1917SOL     OW 6649   3.567   2.868   4.480
 1917SOL    HW1 6650   3.584   2.849   4.383
 1917SOL    HW2 6651   3.654   2.891   4.525
 1918SOL     OW 6652   6.371   6.479   4.962
 1918SOL    HW1 6653   6.323   6.452   5.045
 1918SOL    HW2 6654   6.453   6.421   4.950
 1919SOL     OW 6655   6.726   0.085   1.541
 1919SOL    HW1 6656   6.627   0.091   1.525
 1919SOL    HW2 6657   6.754   0.158   1.604
 1920SOL     OW 6658   6.910   6.124   4.388
 1920SOL    HW1 6659   6.820   6.113   4.428
 1920SOL    HW2 6660   6.901   6.159   4.294
 1921SOL     OW 6661   1.224   6.844   6.556
 1921SOL    HW1 6662   1.127   6.863   6.540
 1921SOL    HW2 6663   1.274   6.930   6.561
 1922SOL     OW 6664   3.698   4.305   1.275
 1922SOL    HW1 6665   3.788   4.263   1.264
 1922SOL    HW2 6666   3.661   4.281   1.364
 1923SOL     OW 6667   1.928   3.018   0.992
 1923SOL    HW1 6668   1.868   3.053   1.064
 1923SOL    HW2 6669   1.974   3.094   0.947
 1924SOL     OW 6670   1.095   3.430   2.200
 1924SOL    HW1 6671   1.064   3.511   2.249
 1924SOL    HW2 6672   1.195   3.425   2.202
 1925SOL     OW 6673   3.805   4.043   0.473
 1925SOL    HW1 6674   3.719   3.998   0.496
 1925SOL    HW2 6675   3.804   4.138   0.506
 1926SOL     OW 6676   1.097   6.938   3.604
 1926SOL    HW1 6677   1.089   6.958   3.701
 1926SOL    HW2 6678   1.151   6.854   3.592
 1927SOL     OW 6679   4.233   3.766   0.458
 1927SOL    HW1 6680   4.163   3.833   0.481
 1927SOL    HW2 6681   4.287   3.743   0.539
 1928SOL     OW 6682   0.133   5.498   5.746
 1928SOL    HW1 6683   0.101   5.460   5.659
 1928SOL    HW2 6684   0.058   5.547   5.790
 1929SOL     OW 6685   1.934   6.576   3.496
 1929SOL    HW1 6686   1.982   6.530   3.421
 1929SOL    HW2 6687   1.836   6.572   3.480
 1930SOL     OW 6688   6.567   5.026   0.028
 1930SOL    HW1 6689   6.484   5.029   6.997
 1930SOL    HW2 6690   6.623   5.106   0.009
 1931SOL     OW 6691   0.592   2.093   5.362
 1931SOL    HW1 6692   0.502   2.087   5.318
 1931SOL    HW2 6693   0.588   2.160   5.436
 1932SOL     OW 6694   5.866   3.114   2.273
 1932SOL    HW1 6695   5.796   3.183   2.290
 1932SOL    HW2 6696   5.822   3.026   2.255
 1933SOL     OW 6697   2.364   4.510   0.919
 1933SOL    HW1 6698   2.379   4.584   0.985
 1933SOL    HW2 6699   2.296   4.446   0.955
 1934SOL     OW 6700   0.317   5.833   4.755
 1934SOL    HW1 6701   0.334   5.906   4.822
 1934SOL    HW2 6702   0.400   5.777   4.745
 1935SOL     OW 6703   2.498   1.161   3.555
 1935SOL    HW1 6704   2.466   1.227   3.487
 1935SOL    HW2 6705   2.420   1.129   3.609
 1936SOL     OW 6706   6.734   6.096   5.510
 1936SOL    HW1 6707   6.823   6.069   5.548
 1936SOL    HW2 6708   6.742   6.109   5.412
 1937SOL     OW 6709   4.551   0.882   2.954
 1937SOL    HW1 6710   4.532   0.946   2.880
 1937SOL    HW2 6711   4.509   0.793   2.934
 1938SOL     OW 6712   5.094   0.702   3.798
 1938SOL    HW1 6713   5.049   0.667   3.880
 1938SOL    HW2 6714   5.031   0.759   3.746
 1939SOL     OW 6715   2.709   0.290   3.110
 1939SOL    HW1 6716   2.711   0.203   3.060
 1939SOL    HW2 6717   2.702   0.272   3.208
 1940SOL     OW 6718   6.453   5.527   6.777
 1940SOL    HW1 6719   6.489   5.445   6.734
 1940SOL    HW2 6720   6.363   5.547   6.741
 1941SOL     OW 6721   5.396   4.941   2.857
 1941SOL    HW1 6722   5.448   4.942   2.772
 1941SOL    HW2 6723   5.312   4.888   2.844
 1942SOL     OW 6724   6.392   5.063   3.171
 1942SOL    HW1 6725   6.331   5.128   3.126
 1942SOL    HW2 6726   6.478   5.057   3.120
 1943SOL     OW 6727   3.201   5.866   2.492
 1943SOL    HW1 6728   3.182   5.785   2.436
 1943SOL    HW2 6729   3.293   5.899   2.472
 1944SOL     OW 6730   6.800   0.126   2.167
 1944SOL    HW1 6731   6.777   0.123   2.070
 1944SOL    HW2 6732   6.787   0.219   2.201
 1945SOL     OW 6733   3.491   4.885   3.853
 1945SOL    HW1 6734   3.424   4.920   3.787
 1945SOL    HW2 6735   3.453   4.891   3.945
 1946SOL     OW 6736   2.092   0.287   0.227
 1946SOL    HW1 6737   2.123   0.353   0.159
 1946SOL    HW2 6738   2.016   0.234   0.190
 1947SOL     OW 6739   5.259   7.024   3.833
 1947SOL    HW1 6740   5.166   0.034   3.841
 1947SOL    HW2 6741   5.309   0.014   3.918
 1948SOL     OW 6742   6.291   4.150   6.115
 1948SOL    HW1 6743   6.364   4.210   6.082
 1948SOL    HW2 6744   6.278   4.074   6.052
 1949SOL     OW 6745   5.265   4.063   6.733
 1949SOL    HW1 6746   5.283   4.161   6.724
 1949SOL    HW2 6747   5.266   4.039   6.830
 1950SOL     OW 6748   2.865   4.610   1.064
 1950SOL    HW1 6749   2.947   4.653   1.102
 1950SOL    HW2 6750   2.873   4.511   1.070
 1951SOL     OW 6751   6.933   2.354   0.029
 1951SOL    HW1 6752   6.921   2.263   7.015
 1951SOL    HW2 6753   6.849   2.408   0.016
 1952SOL     OW 6754   3.910   2.436   5.574
 1952SOL    HW1 6755   3.931   2.398   5.664
 1952SOL    HW2 6756   3.996   2.459   5.528
 1953SOL     OW 6757   0.474   3.107   4.858
 1953SOL    HW1 6758   0.430   3.066   4.937
 1953SOL    HW2 6759   0.497   3.202   4.878
 1954SOL     OW 6760   2.518   2.002   3.849
 1954SOL    HW1 6761   2.434   2.005   3.796
 1954SOL    HW2 6762   2.537   1.908   3.877
 1955SOL     OW 6763   6.346   5.880   2.086
 1955SOL    HW1 6764   6.422   5.941   2.065
 1955SOL    HW2 6765   6.377   5.785   2.086
 1956SOL     OW 6766   5.900   6.615   2.674
 1956SOL    HW1 6767   5.923   6.645   2.767
 1956SOL    HW2 6768   5.951   6.670   2.608
 1957SOL     OW 6769   0.577   6.373   5.636
 1957SOL    HW1 6770   0.671   6.385   5.669
 1957SOL    HW2 6771   0.519   6.446   5.671
 1958SOL     OW 6772   4.820   3.319   5.839
 1958SOL    HW1 6773   4.846   3.242   5.896
 1958SOL    HW2 6774   4.842   3.299   5.744
 1959SOL     OW 6775   1.967   2.370   6.842
 1959SOL    HW1 6776   2.065   2.352   6.855
 1959SOL    HW2 6777   1.934   2.316   6.764
 1960SOL     OW 6778   5.150   6.765   2.092
 1960SOL    HW1 6779   5.121   6.792   2.000
 1960SOL    HW2 6780   5.074   6.719   2.139
 1961SOL     OW 6781   5.700   5.155   4.651
 1961SOL    HW1 6782   5.619   5.105   4.681
 1961SOL    HW2 6783   5.679   5.253   4.644
 1962SOL     OW 6784   6.837   6.614   3.226
 1962SOL    HW1 6785   6.829   6.697   3.172
 1962SOL    HW2 6786   6.748   6.570   3.234
 1963SOL     OW 6787   1.880   6.888   2.890
 1963SOL    HW1 6788   1.853   6.841   2.806
 1963SOL    HW2 6789   1.887   6.986   2.873
 1964SOL     OW 6790   5.388   4.435   2.235
 1964SOL    HW1 6791   5.420   4.524   2.203
 1964SOL    HW2 6792   5.351   4.383   2.158
 1965SOL     OW 6793   2.330   5.265   3.733
 1965SOL    HW1 6794   2.395   5.202   3.690
 1965SOL    HW2 6795   2.376   5.350   3.757
 1966SOL     OW 6796   6.582   5.609   5.769
 1966SOL    HW1 6797   6.643   5.546   5.815
 1966SOL    HW2 6798   6.630   5.695   5.751
 1967SOL     OW 6799   5.152   3.263   4.387
 1967SOL    HW1 6800   5.194   3.329   4.325
 1967SOL    HW2 6801   5.069   3.302   4.427
 1968SOL     OW 6802   3.487   5.294   5.612
 1968SOL    HW1 6803   3.535   5.322   5.528
 1968SOL    HW2 6804   3.390   5.280   5.591
 1969SOL     OW 6805   6.461   2.106   1.841
 1969SOL    HW1 6806   6.529   2.128   1.912
 1969SOL    HW2 6807   6.506   2.059   1.765
 1970SOL     OW 6808   1.908   6.738   3.738
 1970SOL    HW1 6809   1.982   6.804   3.750
 1970SOL    HW2 6810   1.927   6.681   3.658
 1971SOL     OW 6811   0.371   0.080   6.258
 1971SOL    HW1 6812   0.271   0.080   6.250
 1971SOL    HW2 6813   0.409   0.150   6.196
 1972SOL     OW 6814   1.189   4.908   4.062
 1972SOL    HW1 6815   1.232   4.907   4.152
 1972SOL    HW2 6816   1.234   4.975   4.004
 1973SOL     OW 6817   2.688   2.895   0.252
 1973SOL    HW1 6818   2.759   2.945   0.301
 1973SOL    HW2 6819   2.619   2.960   0.218
 1974SOL     OW 6820   6.225   0.773   4.539
 1974SOL    HW1 6821   6.163   0.851   4.550
 1974SOL    HW2 6822   6.173   0.688   4.544
 1975SOL     OW 6823   3.191   0.929   3.548
 1975SOL    HW1 6824   3.216   0.959   3.640
 1975SOL    HW2 6825   3.103   0.970   3.523
 1976SOL     OW 6826   6.891   4.770   0.204
 1976SOL    HW1 6827   6.913   4.678   0.235
 1976SOL    HW2 6828   6.825   4.765   0.129
 1977SOL     OW 6829   2.225   2.515   4.700
 1977SOL    HW1 6830   2.235   2.599   4.753
 1977SOL    HW2 6831   2.176   2.536   4.615
 1978SOL     OW 6832   6.662   1.503   5.234
 1978SOL    HW1 6833   6.755   1.478   5.207
 1978SOL    HW2 6834   6.600   1.427   5.213
 1979SOL     OW 6835   6.031   4.835   3.352
 1979SOL    HW1 6836   5.969   4.758   3.361
 1979SOL    HW2 6837   5.989   4.918   3.389
 1980SOL     OW 6838   4.108   0.432   1.522
 1980SOL    HW1 6839   4.162   0.349   1.510
 1980SOL    HW2 6840   4.081   0.467   1.432
 1981SOL     OW 6841   4.722   3.182   1.677
 1981SOL    HW1 6842   4.690   3.114   1.743
 1981SOL    HW2 6843   4.802   3.229   1.713
 1982SOL     OW 6844   5.941   6.811   5.092
 1982SOL    HW1 6845   5.894   6.799   5.180
 1982SOL    HW2 6846   6.007   6.736   5.080
 1983SOL     OW 6847   1.018   3.936   2.573
 1983SOL    HW1 6848   1.112   3.930   2.607
 1983SOL    HW2 6849   0.965   3.858   2.606
 1984SOL     OW 6850   4.127   0.848   5.651
 1984SOL    HW1 6851   4.102   0.918   5.718
 1984SOL    HW2 6852   4.158   0.765   5.697
 1985SOL     OW 6853   1.539   0.004   1.524
 1985SOL    HW1 6854   1.555   0.004   1.425
 1985SOL    HW2 6855   1.528   0.099   1.556
 1986SOL     OW 6856   1.013   1.862   6.165
 1986SOL    HW1 6857   1.085   1.798   6.136
 1986SOL    HW2 6858   0.925   1.829   6.133
 1987SOL     OW 6859   2.451   3.273   6.985
 1987SOL    HW1 6860   2.477   3.209   6.913
 1987SOL    HW2 6861   2.526   3.337   7.000
 1988SOL     OW 6862   4.916   3.232   0.036
 1988SOL    HW1 6863   4.871   3.286   6.989
 1988SOL    HW2 6864   4.922   3.286   0.120
 1989SOL     OW 6865   2.671   0.612   4.113
 1989SOL    HW1 6866   2.762   0.598   4.152
 1989SOL    HW2 6867   2.658   0.709   4.095
 1990SOL     OW 6868   2.329   1.165   2.749
 1990SOL    HW1 6869   2.255   1.215   2.704
 1990SOL    HW2 6870   2.379   1.228   2.808
 1991SOL     OW 6871   4.067   5.376   4.505
 1991SOL    HW1 6872   4.103   5.291   4.465
 1991SOL    HW2 6873   4.063   5.366   4.604
 1992SOL     OW 6874   1.950   6.991   5.538
 1992SOL    HW1 6875   1.900   0.052   5.538
 1992SOL    HW2 6876   2.044   7.007   5.570
 1993SOL     OW 6877   3.870   2.999   4.713
 1993SOL    HW1 6878   3.895   2.964   4.803
 1993SOL    HW2 6879   3.848   3.097   4.721
 1994SOL     OW 6880   6.077   2.702   2.192
 1994SOL    HW1 6881   6.045   2.664   2.279
 1994SOL    HW2 6882   6.023   2.783   2.170
 1995SOL     OW 6883   5.152   2.431   1.238
 1995SOL    HW1 6884   5.248   2.435   1.266
 1995SOL    HW2 6885   5.140   2.478   1.151
 1996SOL     OW 6886   2.858   3.978   6.479
 1996SOL    HW1 6887   2.930   4.015   6.537
 1996SOL    HW2 6888   2.877   3.883   6.457
 1997SOL     OW 6889   5.384   0.686   3.807
 1997SOL    HW1 6890   5.285   0.690   3.824
 1997SOL    HW2 6891   5.412   0.590   3.799
 1998SOL     OW 6892   2.995   4.873   5.054
 1998SOL    HW1 6893   2.934   4.797   5.031
 1998SOL    HW2 6894   2.991   4.891   5.152
 1999SOL     OW 6895   1.854   1.118   2.556
 1999SOL    HW1 6896   1.906   1.079   2.631
 1999SOL    HW2 6897   1.916   1.146   2.483
 2000SOL     OW 6898   3.990   2.150   4.770
 2000SOL    HW1 6899   3.890   2.158   4.769
 2000SOL    HW2 6900   4.020   2.132   4.864
 2001SOL     OW 6901   2.668   2.877   0.529
 2001SOL    HW1 6902   2.670   2.867   0.430
 2001SOL    HW2 6903   2.724   2.956   0.556
 2002SOL     OW 6904   1.934   4.893   5.072
 2002SOL    HW1 6905   2.007   4.957   5.097
 2002SOL    HW2 6906   1.975   4.806   5.044
 2003SOL     OW 6907   6.208   5.484   3.499
 2003SOL    HW1 6908   6.261   5.541   3.561
 2003SOL    HW2 6909   6.231   5.388   3.513
 2004SOL     OW 6910   3.095   0.672   6.192
 2004SOL    HW1 6911   3.002   0.651   6.160
 2004SOL    HW2 6912   3.097   0.764   6.232
 2005SOL     OW 6913   2.872   6.436   5.646
 2005SOL    HW1 6914   2.914   6.509   5.593
 2005SOL    HW2 6915   2.943   6.381   5.690
 2006SOL     OW 6916   3.872   5.445   3.738
 2006SOL    HW1 6917   3.876   5.477   3.833
 2006SOL    HW2 6918   3.957   5.397   3.715
 2007SOL     OW 6919   6.154   5.119   0.445
 2007SOL    HW1 6920   6.107   5.178   0.511
 2007SOL    HW2 6921   6.178   5.033   0.489
 2008SOL     OW 6922   0.189   5.991   4.160
 2008SOL    HW1 6923   0.259   5.921   4.148
 2008SOL    HW2 6924   0.191   6.054   4.081
 2009SOL     OW 6925   0.611   0.203   1.534
 2009SOL    HW1 6926   0.667   0.283   1.515
 2009SOL    HW2 6927   0.569   0.171   1.449
 2010SOL     OW 6928   1.681   0.137   0.826
 2010SOL    HW1 6929   1.666   0.216   0.767
 2010SOL    HW2 6930   1.762   0.087   0.793
 2011SOL     OW 6931   6.880   2.920   5.372
 2011SOL    HW1 6932   6.793   2.936   5.325
 2011SOL    HW2 6933   6.902   2.822   5.369
 2012SOL     OW 6934   0.772   3.927   1.528
 2012SOL    HW1 6935   0.785   3.892   1.435
 2012SOL    HW2 6936   0.790   3.854   1.594
 2013SOL     OW 6937   4.328   1.285   2.321
 2013SOL    HW1 6938   4.384   1.264   2.241
 2013SOL    HW2 6939   4.326   1.205   2.382
 2014SOL     OW 6940   2.628   5.436   3.458
 2014SOL    HW1 6941   2.702   5.404   3.399
 2014SOL    HW2 6942   2.643   5.533   3.480
 2015SOL     OW 6943   3.201   6.865   6.960
 2015SOL    HW1 6944   3.128   6.930   6.937
 2015SOL    HW2 6945   3.199   6.789   6.895
 2016SOL     OW 6946   6.327   5.091   3.610
 2016SOL    HW1 6947   6.360   5.087   3.515
 2016SOL    HW2 6948   6.231   5.063   3.613
 2017SOL     OW 6949   2.743   5.817   2.235
 2017SOL    HW1 6950   2.824   5.759   2.241
 2017SOL    HW2 6951   2.664   5.767   2.269
 2018SOL     OW 6952   0.882   4.863   6.094
 2018SOL    HW1 6953   0.915   4.783   6.145
 2018SOL    HW2 6954   0.805   4.835   6.035
 2019SOL     OW 6955   5.741   1.755   2.255
 2019SOL    HW1 6956   5.828   1.752   2.304
 2019SOL    HW2 6957   5.681   1.682   2.289
 2020SOL     OW 6958   2.018   5.795   3.299
 2020SOL    HW1 6959   1.957   5.873   3.306
 2020SOL    HW2 6960   1.964   5.711   3.290
 2021SOL     OW 6961   0.931   6.813   1.661
 2021SOL    HW1 6962   0.940   6.884   1.591
 2021SOL    HW2 6963   0.981   6.732   1.632
 2022SOL     OW 6964   2.475   4.158   0.753
 2022SOL    HW1 6965   2.399   4.110   0.796
 2022SOL    HW2 6966   2.513   4.224   0.817
 2023SOL     OW 6967   6.461   1.090   6.182
 2023SOL    HW1 6968   6.449   1.135   6.093
 2023SOL    HW2 6969   6.474   0.992   6.167
 2024SOL     OW 6970   5.993   0.949   3.436
 2024SOL    HW1 6971   5.952   1.023   3.384
 2024SOL    HW2 6972   5.979   0.964   3.534
 2025SOL     OW 6973   0.105   1.178   1.292
 2025SOL    HW1 6974   0.079   1.192   1.387
 2025SOL    HW2 6975   0.151   1.090   1.283
 2026SOL     OW 6976   1.458   1.472   5.053
 2026SOL    HW1 6977   1.398   1.540   5.011
 2026SOL    HW2 6978   1.458   1.484   5.152
 2027SOL     OW 6979   0.024   1.582   2.739
 2027SOL    HW1 6980   0.036   1.564   2.837
 2027SOL    HW2 6981   6.960   1.545   2.709
 2028SOL     OW 6982   4.256   3.211   6.472
 2028SOL    HW1 6983   4.319   3.203   6.395
 2028SOL    HW2 6984   4.264   3.129   6.530
 2029SOL     OW 6985   1.777   0.404   0.213
 2029SOL    HW1 6986   1.786   0.351   0.128
 2029SOL    HW2 6987   1.680   0.414   0.235
 2030SOL     OW 6988   1.124   0.713   3.075
 2030SOL    HW1 6989   1.037   0.762   3.069
 2030SOL    HW2 6990   1.161   0.699   2.983
 2031SOL     OW 6991   5.058   6.908   2.598
 2031SOL    HW1 6992   5.133   6.849   2.627
 2031SOL    HW2 6993   5.001   6.930   2.677
 2032SOL     OW 6994   5.121   6.706   1.323
 2032SOL    HW1 6995   5.102   6.608   1.310
 2032SOL    HW2 6996   5.040   6.751   1.361
 2033SOL     OW 6997   5.893   5.108   6.918
 2033SOL    HW1 6998   5.986   5.133   6.945
 2033SOL    HW2 6999   5.895   5.062   6.830
 2034SOL     OW 7000   2.385   6.795   2.910
 2034SOL    HW1 7001   2.391   6.808   3.009
 2034SOL    HW2 7002   2.343   6.706   2.890
 2035SOL     OW 7003   1.071   3.191   2.017
 2035SOL    HW1 7004   1.048   3.267   2.078
 2035SOL    HW2 7005   1.081   3.108   2.072
 2036SOL     OW 7006   1.811   4.766   0.631
 2036SOL    HW1 7007   1.807   4.744   0.729
 2036SOL    HW2 7008   1.728   4.814   0.604
 2037SOL     OW 7009   0.049   1.183   6.234
 2037SOL    HW1 7010   0.101   1.237   6.168
 2037SOL    HW2 7011   0.108   1.158   6.311
 2038SOL     OW 7012   0.764   0.748   4.662
 2038SOL    HW1 7013   0.837   0.816   4.654
 2038SOL    HW2 7014   0.785   0.670   4.602
 2039SOL     OW 7015   0.955   6.073   2.309
 2039SOL    HW1 7016   1.050   6.077   2.338
 2039SOL    HW2 7017   0.922   5.979   2.311
 2040SOL     OW 7018   3.847   3.642   4.439
 2040SOL    HW1 7019   3.919   3.574   4.452
 2040SOL    HW2 7020   3.879   3.732   4.468
 2041SOL     OW 7021   5.951   4.322   6.345
 2041SOL    HW1 7022   5.994   4.232   6.354
 2041SOL    HW2 7023   6.020   4.389   6.318
 2042SOL     OW 7024   3.790   5.776   6.885
 2042SOL    HW1 7025   3.881   5.761   6.925
 2042SOL    HW2 7026   3.799   5.831   6.802
 2043SOL     OW 7027   4.690   4.511   2.372
 2043SOL    HW1 7028   4.703   4.481   2.466
 2043SOL    HW2 7029   4.748   4.458   2.311
 2044SOL     OW 7030   6.547   0.360   1.869
 2044SOL    HW1 7031   6.642   0.360   1.901
 2044SOL    HW2 7032   6.494   0.426   1.921
 2045SOL     OW 7033   1.734   5.228   6.062
 2045SOL    HW1 7034   1.693   5.142   6.090
 2045SOL    HW2 7035   1.817   5.244   6.116
 2046SOL     OW 7036   6.293   0.455   4.807
 2046SOL    HW1 7037   6.210   0.504   4.778
 2046SOL    HW2 7038   6.271   0.358   4.820
 2047SOL     OW 7039   5.679   2.289   0.160
 2047SOL    HW1 7040   5.757   2.351   0.155
 2047SOL    HW2 7041   5.595   2.341   0.177
 2048SOL     OW 7042   4.266   0.142   5.433
 2048SOL    HW1 7043   4.234   0.222   5.381
 2048SOL    HW2 7044   4.354   0.164   5.476
 2049SOL     OW 7045   5.026   0.194   0.309
 2049SOL    HW1 7046   5.094   0.121   0.304
 2049SOL    HW2 7047   4.962   0.176   0.384
 2050SOL     OW 7048   5.846   2.107   3.822
 2050SOL    HW1 7049   5.765   2.083   3.767
 2050SOL    HW2 7050   5.880   2.024   3.868
 2051SOL     OW 7051   1.961   5.152   0.660
 2051SOL    HW1 7052   2.016   5.207   0.724
 2051SOL    HW2 7053   1.886   5.209   0.625
 2052SOL     OW 7054   1.098   3.272   0.636
 2052SOL    HW1 7055   1.139   3.329   0.708
 2052SOL    HW2 7056   1.052   3.331   0.569
 2053SOL     OW 7057   5.303   0.213   0.605
 2053SOL    HW1 7058   5.344   0.215   0.696
 2053SOL    HW2 7059   5.243   0.292   0.593
 2054SOL     OW 7060   6.545   2.956   0.917
 2054SOL    HW1 7061   6.590   2.999   0.839
 2054SOL    HW2 7062   6.579   2.997   1.002
 2055SOL     OW 7063   6.237   2.977   3.990
 2055SOL    HW1 7064   6.180   3.029   4.053
 2055SOL    HW2 7065   6.277   2.899   4.038
 2056SOL     OW 7066   1.474   0.970   3.252
 2056SOL    HW1 7067   1.539   1.035   3.213
 2056SOL    HW2 7068   1.484   0.968   3.351
 2057SOL     OW 7069   0.028   2.894   4.114
 2057SOL    HW1 7070   0.017   2.867   4.018
 2057SOL    HW2 7071   0.053   2.991   4.119
 2058SOL     OW 7072   6.853   2.585   1.997
 2058SOL    HW1 7073   6.801   2.518   2.052
 2058SOL    HW2 7074   6.860   2.671   2.047
 2059SOL     OW 7075   1.592   1.671   6.600
 2059SOL    HW1 7076   1.624   1.617   6.522
 2059SOL    HW2 7077   1.638   1.760   6.599
 2060SOL     OW 7078   0.632   5.589   2.615
 2060SOL    HW1 7079   0.585   5.661   2.665
 2060SOL    HW2 7080   0.667   5.625   2.529
 2061SOL     OW 7081   6.605   1.351   1.921
 2061SOL    HW1 7082   6.526   1.316   1.970
 2061SOL    HW2 7083   6.586   1.444   1.888
 2062SOL     OW 7084   4.099   0.992   3.141
 2062SOL    HW1 7085   4.080   1.086   3.167
 2062SOL    HW2 7086   4.013   0.940   3.139
 2063SOL     OW 7087   2.330   2.246   6.874
 2063SOL    HW1 7088   2.329   2.336   6.832
 2063SOL    HW2 7089   2.310   2.254   6.972
 2064SOL     OW 7090   0.892   2.217   0.272
 2064SOL    HW1 7091   0.807   2.180   0.308
 2064SOL    HW2 7092   0.892   2.316   0.281
 2065SOL     OW 7093   6.509   3.110   2.040
 2065SOL    HW1 7094   6.451   3.189   2.063
 2065SOL    HW2 7095   6.599   3.142   2.012
 2066SOL     OW 7096   1.662   6.320   4.563
 2066SOL    HW1 7097   1.605   6.289   4.487
 2066SOL    HW2 7098   1.607   6.377   4.624
 2067SOL     OW 7099   0.058   0.051   0.962
 2067SOL    HW1 7100   0.066   6.985   1.004
 2067SOL    HW2 7101   0.066   0.121   1.033
 2068SOL     OW 7102   1.876   1.642   4.892
 2068SOL    HW1 7103   1.832   1.562   4.852
 2068SOL    HW2 7104   1.889   1.711   4.822
 2069SOL     OW 7105   0.183   1.700   1.995
 2069SOL    HW1 7106   0.175   1.781   2.053
 2069SOL    HW2 7107   0.279   1.685   1.971
 2070SOL     OW 7108   0.785   1.085   2.868
 2070SOL    HW1 7109   0.768   1.156   2.936
 2070SOL    HW2 7110   0.700   1.035   2.849
 2071SOL     OW 7111   1.301   6.664   4.600
 2071SOL    HW1 7112   1.244   6.656   4.681
 2071SOL    HW2 7113   1.255   6.623   4.522
 2072SOL     OW 7114   5.007   5.410   1.757
 2072SOL    HW1 7115   5.092   5.364   1.729
 2072SOL    HW2 7116   4.997   5.405   1.856
 2073SOL     OW 7117   2.483   6.893   5.941
 2073SOL    HW1 7118   2.467   6.889   6.040
 2073SOL    HW2 7119   2.405   6.852   5.893
 2074SOL     OW 7120   5.515   1.363   2.110
 2074SOL    HW1 7121   5.436   1.423   2.101
 2074SOL    HW2 7122   5.514   1.320   2.201
 2075SOL     OW 7123   4.573   3.621   6.114
 2075SOL    HW1 7124   4.586   3.657   6.021
 2075SOL    HW2 7125   4.476   3.628   6.138
 2076SOL     OW 7126   4.612   0.242   1.293
 2076SOL    HW1 7127   4.591   0.327   1.244
 2076SOL    HW2 7128   4.665   0.263   1.376
 2077SOL     OW 7129   5.539   0.848   2.944
 2077SOL    HW1 7130   5.485   0.927   2.970
 2077SOL    HW2 7131   5.597   0.871   2.866
 2078SOL     OW 7132   3.628   5.321   5.382
 2078SOL    HW1 7133   3.724   5.313   5.353
 2078SOL    HW2 7134   3.568   5.313   5.303
 2079SOL     OW 7135   5.594   1.500   4.271
 2079SOL    HW1 7136   5.538   1.433   4.321
 2079SOL    HW2 7137   5.578   1.489   4.173
 2080SOL     OW 7138   2.930   2.274   4.248
 2080SOL    HW1 7139   2.961   2.257   4.155
 2080SOL    HW2 7140   3.002   2.249   4.313
 2081SOL     OW 7141   0.554   6.503   5.092
 2081SOL    HW1 7142   0.583   6.540   5.004
 2081SOL    HW2 7143   0.512   6.575   5.147
 2082SOL     OW 7144   5.169   0.603   1.131
 2082SOL    HW1 7145   5.078   0.561   1.136
 2082SOL    HW2 7146   5.206   0.591   1.039
 2083SOL     OW 7147   3.044   5.678   5.635
 2083SOL    HW1 7148   3.101   5.598   5.655
 2083SOL    HW2 7149   2.950   5.648   5.617
 2084SOL     OW 7150   0.169   3.112   2.936
 2084SOL    HW1 7151   0.261   3.139   2.962
 2084SOL    HW2 7152   0.107   3.122   3.014
 2085SOL     OW 7153   5.539   6.938   6.074
 2085SOL    HW1 7154   5.594   6.883   6.011
 2085SOL    HW2 7155   5.520   0.003   6.033
 2086SOL     OW 7156   2.946   5.139   0.670
 2086SOL    HW1 7157   2.881   5.148   0.746
 2086SOL    HW2 7158   2.938   5.048   0.630
 2087SOL     OW 7159   5.148   6.832   3.658
 2087SOL    HW1 7160   5.180   6.875   3.743
 2087SOL    HW2 7161   5.080   6.891   3.615
 2088SOL     OW 7162   3.157   0.053   0.303
 2088SOL    HW1 7163   3.195   0.016   0.387
 2088SOL    HW2 7164   3.079   7.023   0.274
 2089SOL     OW 7165   3.458   0.100   6.889
 2089SOL    HW1 7166   3.359   0.087   6.890
 2089SOL    HW2 7167   3.485   0.148   6.806
 2090SOL     OW 7168   3.232   3.251   4.244
 2090SOL    HW1 7169   3.297   3.234   4.169
 2090SOL    HW2 7170   3.236   3.348   4.270
 2091SOL     OW 7171   2.241   4.845   0.588
 2091SOL    HW1 7172   2.267   4.751   0.613
 2091SOL    HW2 7173   2.143   4.849   0.569
 2092SOL     OW 7174   6.428   5.863   0.819
 2092SOL    HW1 7175   6.430   5.962   0.832
 2092SOL    HW2 7176   6.439   5.818   0.907
 2093SOL     OW 7177   1.120   2.678   1.748
 2093SOL    HW1 7178   1.129   2.635   1.658
 2093SOL    HW2 7179   1.025   2.669   1.779
 2094SOL     OW 7180   5.926   6.830   2.264
 2094SOL    HW1 7181   5.973   6.808   2.349
 2094SOL    HW2 7182   5.838   6.783   2.262
 2095SOL     OW 7183   6.682   4.703   4.838
 2095SOL    HW1 7184   6.775   4.669   4.848
 2095SOL    HW2 7185   6.675   4.759   4.755
 2096SOL     OW 7186   4.751   4.266   2.916
 2096SOL    HW1 7187   4.729   4.213   2.834
 2096SOL    HW2 7188   4.849   4.265   2.931
 2097SOL     OW 7189   0.158   2.627   0.144
 2097SOL    HW1 7190   0.151   2.673   0.232
 2097SOL    HW2 7191   0.130   2.532   0.153
 2098SOL     OW 7192   4.330   0.732   4.287
 2098SOL    HW1 7193   4.265   0.799   4.250
 2098SOL    HW2 7194   4.302   0.640   4.260
 2099SOL     OW 7195   3.171   1.866   4.191
 2099SOL    HW1 7196   3.210   1.829   4.106
 2099SOL    HW2 7197   3.081   1.904   4.171
 2100SOL     OW 7198   4.320   4.024   6.699
 2100SOL    HW1 7199   4.267   4.042   6.782
 2100SOL    HW2 7200   4.283   4.078   6.624
 2101SOL     OW 7201   0.337   0.143   3.261
 2101SOL    HW1 7202   0.238   0.141   3.248
 2101SOL    HW2 7203   0.362   0.222   3.317
 2102SOL     OW 7204   0.141   4.979   2.257
 2102SOL    HW1 7205   0.128   4.896   2.312
 2102SOL    HW2 7206   0.079   5.050   2.289
 2103SOL     OW 7207   3.213   4.289   6.363
 2103SOL    HW1 7208   3.278   4.313   6.436
 2103SOL    HW2 7209   3.200   4.190   6.361
 2104SOL     OW 7210   1.259   3.767   5.337
 2104SOL    HW1 7211   1.292   3.696   5.276
 2104SOL    HW2 7212   1.336   3.807   5.386
 2105SOL     OW 7213   5.905   5.413   1.949
 2105SOL    HW1 7214   5.846   5.492   1.966
 2105SOL    HW2 7215   6.000   5.437   1.968
 2106SOL     OW 7216   5.055   5.352   6.863
 2106SOL    HW1 7217   5.086   5.263   6.829
 2106SOL    HW2 7218   4.986   5.339   6.934
 2107SOL     OW 7219   4.276   4.123   6.212
 2107SOL    HW1 7220   4.365   4.078   6.220
 2107SOL    HW2 7221   4.204   4.058   6.237
 2108SOL     OW 7222   5.250   5.078   5.798
 2108SOL    HW1 7223   5.169   5.118   5.756
 2108SOL    HW2 7224   5.253   4.980   5.777
 2109SOL     OW 7225   5.626   0.206   2.766
 2109SOL    HW1 7226   5.642   0.113   2.732
 2109SOL    HW2 7227   5.673   0.218   2.854
 2110SOL     OW 7228   2.425   4.706   6.309
 2110SOL    HW1 7229   2.482   4.625   6.315
 2110SOL    HW2 7230   2.372   4.703   6.224
 2111SOL     OW 7231   1.338   2.849   6.790
 2111SOL    HW1 7232   1.255   2.846   6.846
 2111SOL    HW2 7233   1.415   2.810   6.842
 2112SOL     OW 7234   4.687   3.164   1.418
 2112SOL    HW1 7235   4.709   3.189   1.512
 2112SOL    HW2 7236   4.611   3.099   1.418
 2113SOL     OW 7237   6.867   0.934   2.873
 2113SOL    HW1 7238   6.925   0.986   2.936
 2113SOL    HW2 7239   6.775   0.926   2.911
 2114SOL     OW 7240   2.191   3.939   6.938
 2114SOL    HW1 7241   2.278   3.987   6.942
 2114SOL    HW2 7242   2.159   3.920   0.006
 2115SOL     OW 7243   2.693   4.693   2.660
 2115SOL    HW1 7244   2.660   4.785   2.680
 2115SOL    HW2 7245   2.732   4.690   2.568
 2116SOL     OW 7246   0.075   4.195   3.500
 2116SOL    HW1 7247   7.004   4.219   3.484
 2116SOL    HW2 7248   0.085   4.154   3.591
 2117SOL     OW 7249   0.295   4.474   1.045
 2117SOL    HW1 7250   0.212   4.513   1.005
 2117SOL    HW2 7251   0.372   4.537   1.032
 2118SOL     OW 7252   6.586   3.769   2.362
 2118SOL    HW1 7253   6.672   3.819   2.372
 2118SOL    HW2 7254   6.583   3.723   2.274
 2119SOL     OW 7255   2.788   6.193   1.314
 2119SOL    HW1 7256   2.707   6.249   1.329
 2119SOL    HW2 7257   2.845   6.235   1.243
 2120SOL     OW 7258   7.005   5.204   2.287
 2120SOL    HW1 7259   0.014   5.275   2.349
 2120SOL    HW2 7260   6.948   5.245   2.216
 2121SOL     OW 7261   0.879   4.940   4.625
 2121SOL    HW1 7262   0.805   4.966   4.564
 2121SOL    HW2 7263   0.844   4.880   4.697
 2122SOL     OW 7264   4.713   4.153   5.050
 2122SOL    HW1 7265   4.692   4.103   5.134
 2122SOL    HW2 7266   4.672   4.245   5.055
 2123SOL     OW 7267   6.207   4.750   3.606
 2123SOL    HW1 7268   6.307   4.753   3.601
 2123SOL    HW2 7269   6.169   4.743   3.514
 2124SOL     OW 7270   2.457   1.737   0.691
 2124SOL    HW1 7271   2.496   1.804   0.628
 2124SOL    HW2 7272   2.530   1.687   0.737
 2125SOL     OW 7273   3.109   6.802   0.707
 2125SOL    HW1 7274   3.138   6.710   0.680
 2125SOL    HW2 7275   3.086   6.803   0.804
 2126SOL     OW 7276   3.066   0.692   1.133
 2126SOL    HW1 7277   3.159   0.653   1.135
 2126SOL    HW2 7278   3.016   0.662   1.214
 2127SOL     OW 7279   5.345   3.358   5.408
 2127SOL    HW1 7280   5.291   3.284   5.369
 2127SOL    HW2 7281   5.291   3.442   5.410
 2128SOL     OW 7282   0.540   5.019   4.118
 2128SOL    HW1 7283   0.483   5.080   4.172
 2128SOL    HW2 7284   0.635   5.029   4.146
 2129SOL     OW 7285   3.945   2.098   5.615
 2129SOL    HW1 7286   3.979   2.024   5.673
 2129SOL    HW2 7287   4.022   2.142   5.568
 2130SOL     OW 7288   4.212   6.270   2.826
 2130SOL    HW1 7289   4.130   6.327   2.821
 2130SOL    HW2 7290   4.289   6.319   2.785
 2131SOL     OW 7291   6.621   1.939   6.852
 2131SOL    HW1 7292   6.549   1.877   6.820
 2131SOL    HW2 7293   6.707   1.890   6.858
 2132SOL     OW 7294   2.108   3.109   0.595
 2132SOL    HW1 7295   2.123   3.028   0.652
 2132SOL    HW2 7296   2.105   3.190   0.654
 2133SOL     OW 7297   2.819   2.790   5.602
 2133SOL    HW1 7298   2.855   2.874   5.644
 2133SOL    HW2 7299   2.758   2.744   5.667
 2134SOL     OW 7300   1.062   6.969   0.896
 2134SOL    HW1 7301   1.028   0.016   0.835
 2134SOL    HW2 7302   1.126   6.910   0.846
 2135SOL     OW 7303   0.487   3.775   3.928
 2135SOL    HW1 7304   0.493   3.872   3.955
 2135SOL    HW2 7305   0.556   3.722   3.978
 2136SOL     OW 7306   2.386   5.283   1.518
 2136SOL    HW1 7307   2.313   5.252   1.579
 2136SOL    HW2 7308   2.415   5.375   1.545
 2137SOL     OW 7309   2.281   5.576   4.328
 2137SOL    HW1 7310   2.254   5.573   4.425
 2137SOL    HW2 7311   2.379   5.562   4.320
 2138SOL     OW 7312   4.989   1.435   1.709
 2138SOL    HW1 7313   5.073   1.488   1.715
 2138SOL    HW2 7314   4.910   1.496   1.722
 2139SOL     OW 7315   2.484   0.902   5.510
 2139SOL    HW1 7316   2.484   0.926   5.413
 2139SOL    HW2 7317   2.490   0.986   5.565
 2140SOL     OW 7318   2.259   1.054   5.308
 2140SOL    HW1 7319   2.345   1.104   5.319
 2140SOL    HW2 7320   2.276   0.966   5.265
 2141SOL     OW 7321   6.607   4.452   2.540
 2141SOL    HW1 7322   6.640   4.441   2.634
 2141SOL    HW2 7323   6.623   4.546   2.509
 2142SOL     OW 7324   1.366   1.725   3.115
 2142SOL    HW1 7325   1.415   1.773   3.042
 2142SOL    HW2 7326   1.329   1.640   3.079
 2143SOL     OW 7327   1.635   4.942   0.181
 2143SOL    HW1 7328   1.733   4.950   0.201
 2143SOL    HW2 7329   1.583   4.991   0.251
 2144SOL     OW 7330   5.809   5.511   4.427
 2144SOL    HW1 7331   5.890   5.559   4.394
 2144SOL    HW2 7332   5.790   5.433   4.367
 2145SOL     OW 7333   4.165   0.165   3.332
 2145SOL    HW1 7334   4.161   0.241   3.267
 2145SOL    HW2 7335   4.124   0.194   3.419
 2146SOL     OW 7336   1.939   2.643   0.424
 2146SOL    HW1 7337   1.896   2.627   0.513
 2146SOL    HW2 7338   2.032   2.606   0.425
 2147SOL     OW 7339   6.052   1.005   4.617
 2147SOL    HW1 7340   5.969   1.027   4.567
 2147SOL    HW2 7341   6.072   1.078   4.682
 2148SOL     OW 7342   0.430   3.571   6.653
 2148SOL    HW1 7343   0.369   3.556   6.731
 2148SOL    HW2 7344   0.433   3.668   6.631
 2149SOL     OW 7345   0.470   0.183   0.348
 2149SOL    HW1 7346   0.435   0.130   0.271
 2149SOL    HW2 7347   0.539   0.248   0.314
 2150SOL     OW 7348   1.889   3.277   1.378
 2150SOL    HW1 7349   1.919   3.292   1.472
 2150SOL    HW2 7350   1.966   3.291   1.316
 2151SOL     OW 7351   1.319   6.024   0.331
 2151SOL    HW1 7352   1.336   5.987   0.422
 2151SOL    HW2 7353   1.220   6.031   0.316
 2152SOL     OW 7354   4.257   5.904   4.290
 2152SOL    HW1 7355   4.293   5.907   4.197
 2152SOL    HW2 7356   4.244   5.997   4.325
 2153SOL     OW 7357   4.268   1.298   3.353
 2153SOL    HW1 7358   4.324   1.221   3.384
 2153SOL    HW2 7359   4.298   1.326   3.262
 2154SOL     OW 7360   3.038   0.073   3.302
 2154SOL    HW1 7361   3.078   0.098   3.390
 2154SOL    HW2 7362   3.093   0.110   3.227
 2155SOL     OW 7363   4.516   0.218   1.020
 2155SOL    HW1 7364   4.535   0.316   1.009
 2155SOL    HW2 7365   4.598   0.166   0.999
 2156SOL     OW 7366   5.751   1.558   4.515
 2156SOL    HW1 7367   5.656   1.571   4.488
 2156SOL    HW2 7368   5.767   1.600   4.605
 2157SOL     OW 7369   3.301   6.003   4.041
 2157SOL    HW1 7370   3.206   6.024   4.020
 2157SOL    HW2 7371   3.327   5.916   3.999
 2158SOL     OW 7372   3.570   0.291   0.316
 2158SOL    HW1 7373   3.514   0.244   0.248
 2158SOL    HW2 7374   3.539   0.265   0.408
 2159SOL     OW 7375   0.487   0.767   5.631
 2159SOL    HW1 7376   0.420   0.693   5.634
 2159SOL    HW2 7377   0.508   0.797   5.724
 2160SOL     OW 7378   5.909   6.702   0.045
 2160SOL    HW1 7379   5.899   6.768   6.995
 2160SOL    HW2 7380   6.006   6.690   0.065
 2161SOL     OW 7381   1.074   2.687   2.147
 2161SOL    HW1 7382   1.130   2.619   2.101
 2161SOL    HW2 7383   1.103   2.694   2.243
 2162SOL     OW 7384   1.050   0.233   1.773
 2162SOL    HW1 7385   0.997   0.304   1.727
 2162SOL    HW2 7386   1.133   0.213   1.720
 2163SOL     OW 7387   1.670   3.467   2.452
 2163SOL    HW1 7388   1.616   3.385   2.472
 2163SOL    HW2 7389   1.729   3.450   2.373
 2164SOL     OW 7390   1.892   2.888   2.673
 2164SOL    HW1 7391   1.926   2.941   2.751
 2164SOL    HW2 7392   1.929   2.795   2.678
 2165SOL     OW 7393   0.069   1.610   3.757
 2165SOL    HW1 7394   7.018   1.671   3.784
 2165SOL    HW2 7395   0.056   1.583   3.661
 2166SOL     OW 7396   6.986   4.017   2.933
 2166SOL    HW1 7397   6.962   3.956   3.008
 2166SOL    HW2 7398   0.024   4.087   2.966
 2167SOL     OW 7399   2.647   1.939   3.603
 2167SOL    HW1 7400   2.588   1.956   3.682
 2167SOL    HW2 7401   2.594   1.891   3.533
 2168SOL     OW 7402   1.387   2.174   3.090
 2168SOL    HW1 7403   1.383   2.129   3.001
 2168SOL    HW2 7404   1.342   2.263   3.085
 2169SOL     OW 7405   0.686   6.983   1.668
 2169SOL    HW1 7406   0.761   6.990   1.733
 2169SOL    HW2 7407   0.679   0.043   1.615
 2170SOL     OW 7408   0.943   3.484   5.667
 2170SOL    HW1 7409   0.936   3.584   5.656
 2170SOL    HW2 7410   0.900   3.440   5.589
 2171SOL     OW 7411   0.933   5.369   1.362
 2171SOL    HW1 7412   1.017   5.318   1.384
 2171SOL    HW2 7413   0.895   5.406   1.447
 2172SOL     OW 7414   1.170   1.483   4.581
 2172SOL    HW1 7415   1.196   1.425   4.504
 2172SOL    HW2 7416   1.242   1.481   4.650
 2173SOL     OW 7417   6.034   0.164   5.338
 2173SOL    HW1 7418   5.968   0.190   5.268
 2173SOL    HW2 7419   6.122   0.205   5.318
 2174SOL     OW 7420   6.861   6.744   5.819
 2174SOL    HW1 7421   6.869   6.740   5.719
 2174SOL    HW2 7422   6.904   6.828   5.852
 2175SOL     OW 7423   2.585   3.957   5.488
 2175SOL    HW1 7424   2.667   4.012   5.472
 2175SOL    HW2 7425   2.569   3.899   5.408
 2176SOL     OW 7426   5.743   2.447   1.332
 2176SOL    HW1 7427   5.694   2.363   1.358
 2176SOL    HW2 7428   5.705   2.483   1.247
 2177SOL     OW 7429   0.551   0.370   3.763
 2177SOL    HW1 7430   0.553   0.270   3.776
 2177SOL    HW2 7431   0.576   0.391   3.668
 2178SOL     OW 7432   0.733   2.001   2.683
 2178SOL    HW1 7433   0.687   1.982   2.770
 2178SOL    HW2 7434   0.694   1.943   2.612
 2179SOL     OW 7435   1.401   3.985   6.098
 2179SOL    HW1 7436   1.401   4.057   6.028
 2179SOL    HW2 7437   1.403   3.896   6.053
 2180SOL     OW 7438   0.765   6.590   2.247
 2180SOL    HW1 7439   0.846   6.548   2.205
 2180SOL    HW2 7440   0.734   6.534   2.323
 2181SOL     OW 7441   3.635   5.000   4.252
 2181SOL    HW1 7442   3.609   5.015   4.156
 2181SOL    HW2 7443   3.561   4.953   4.300
 2182SOL     OW 7444   0.245   5.537   2.360
 2182SOL    HW1 7445   0.274   5.633   2.366
 2182SOL    HW2 7446   0.201   5.521   2.272
 2183SOL     OW 7447   3.294   2.731   0.041
 2183SOL    HW1 7448   3.282   2.632   0.036
 2183SOL    HW2 7449   3.205   2.776   0.036
 2184SOL     OW 7450   6.302   1.469   6.713
 2184SOL    HW1 7451   6.352   1.460   6.800
 2184SOL    HW2 7452   6.367   1.484   6.639
 2185SOL     OW 7453   0.635   0.127   6.652
 2185SOL    HW1 7454   0.688   0.084   6.725
 2185SOL    HW2 7455   0.697   0.163   6.582
 2186SOL     OW 7456   6.803   4.410   5.480
 2186SOL    HW1 7457   6.826   4.332   5.423
 2186SOL    HW2 7458   6.877   4.478   5.474
 2187SOL     OW 7459   0.423   5.851   3.124
 2187SOL    HW1 7460   0.480   5.908   3.182
 2187SOL    HW2 7461   0.481   5.785   3.074
 2188SOL     OW 7462   2.489   0.106   1.065
 2188SOL    HW1 7463   2.403   0.065   1.096
 2188SOL    HW2 7464   2.470   0.168   0.988
 2189SOL     OW 7465   2.710   1.504   1.296
 2189SOL    HW1 7466   2.618   1.539   1.314
 2189SOL    HW2 7467   2.776   1.558   1.348
 2190SOL     OW 7468   6.464   4.021   2.487
 2190SOL    HW1 7469   6.510   3.948   2.435
 2190SOL    HW2 7470   6.365   4.010   2.479
 2191SOL     OW 7471   2.838   0.157   0.282
 2191SOL    HW1 7472   2.754   0.154   0.337
 2191SOL    HW2 7473   2.868   0.064   0.262
 2192SOL     OW 7474   4.793   1.394   1.081
 2192SOL    HW1 7475   4.701   1.374   1.048
 2192SOL    HW2 7476   4.858   1.388   1.006
 2193SOL     OW 7477   1.519   6.206   6.196
 2193SOL    HW1 7478   1.523   6.304   6.215
 2193SOL    HW2 7479   1.436   6.186   6.144
 2194SOL     OW 7480   0.980   3.560   6.137
 2194SOL    HW1 7481   0.892   3.603   6.117
 2194SOL    HW2 7482   1.008   3.505   6.058
 2195SOL     OW 7483   0.342   3.743   6.096
 2195SOL    HW1 7484   0.401   3.663   6.082
 2195SOL    HW2 7485   0.273   3.722   6.165
 2196SOL     OW 7486   2.679   6.747   5.765
 2196SOL    HW1 7487   2.746   6.721   5.835
 2196SOL    HW2 7488   2.648   6.841   5.781
 2197SOL     OW 7489   3.027   5.070   5.685
 2197SOL    HW1 7490   2.981   5.155   5.712
 2197SOL    HW2 7491   3.001   4.996   5.747
 2198SOL     OW 7492   0.485   0.378   6.966
 2198SOL    HW1 7493   0.450   0.289   6.936
 2198SOL    HW2 7494   0.439   0.450   6.914
 2199SOL     OW 7495   4.248   6.574   4.734
 2199SOL    HW1 7496   4.339   6.617   4.735
 2199SOL    HW2 7497   4.238   6.517   4.816
 2200SOL     OW 7498   2.907   1.909   4.116
 2200SOL    HW1 7499   2.868   1.960   4.193
 2200SOL    HW2 7500   2.835   1.855   4.072
 2201SOL     OW 7501   6.051   4.068   3.860
 2201SOL    HW1 7502   6.135   4.105   3.901
 2201SOL    HW2 7503   5.973   4.094   3.917
 2202SOL     OW 7504   3.758   6.108   2.408
 2202SOL    HW1 7505   3.786   6.201   2.385
 2202SOL    HW2 7506   3.756   6.052   2.324
 2203SOL     OW 7507   1.912   3.340   0.661
 2203SOL    HW1 7508   1.834   3.314   0.603
 2203SOL    HW2 7509   1.879   3.362   0.753
 2204SOL     OW 7510   5.474   3.275   1.041
 2204SOL    HW1 7511   5.511   3.197   0.991
 2204SOL    HW2 7512   5.416   3.243   1.116
 2205SOL     OW 7513   0.545   4.972   0.449
 2205SOL    HW1 7514   0.479   4.978   0.525
 2205SOL    HW2 7515   0.528   4.888   0.397
 2206SOL     OW 7516   2.920   2.421   6.285
 2206SOL    HW1 7517   2.884   2.329   6.269
 2206SOL    HW2 7518   2.997   2.438   6.225
 2207SOL     OW 7519   4.824   6.445   0.799
 2207SOL    HW1 7520   4.760   6.504   0.849
 2207SOL    HW2 7521   4.777   6.361   0.772
 2208SOL     OW 7522   0.348   5.865   4.491
 2208SOL    HW1 7523   0.309   5.856   4.582
 2208SOL    HW2 7524   0.305   5.943   4.444
 2209SOL     OW 7525   3.129   5.729   4.106
 2209SOL    HW1 7526   3.115   5.778   4.192
 2209SOL    HW2 7527   3.047   5.734   4.050
 2210SOL     OW 7528   4.535   6.986   1.187
 2210SOL    HW1 7529   4.564   0.054   1.164
 2210SOL    HW2 7530   4.601   6.920   1.151
 2211SOL     OW 7531   6.673   1.515   1.184
 2211SOL    HW1 7532   6.726   1.599   1.184
 2211SOL    HW2 7533   6.730   1.440   1.149
 2212SOL     OW 7534   2.508   5.999   6.759
 2212SOL    HW1 7535   2.522   5.971   6.664
 2212SOL    HW2 7536   2.410   6.005   6.777
 2213SOL     OW 7537   3.470   1.999   4.481
 2213SOL    HW1 7538   3.476   2.036   4.573
 2213SOL    HW2 7539   3.383   2.026   4.440
 2214SOL     OW 7540   4.125   3.728   6.831
 2214SOL    HW1 7541   4.217   3.705   6.799
 2214SOL    HW2 7542   4.131   3.795   6.905
 2215SOL     OW 7543   4.595   6.835   6.838
 2215SOL    HW1 7544   4.553   6.911   6.888
 2215SOL    HW2 7545   4.539   6.753   6.847
 2216SOL     OW 7546   0.803   6.748   6.388
 2216SOL    HW1 7547   0.725   6.789   6.341
 2216SOL    HW2 7548   0.781   6.736   6.485
 2217SOL     OW 7549   4.072   0.750   3.371
 2217SOL    HW1 7550   4.103   0.824   3.310
 2217SOL    HW2 7551   4.015   0.789   3.444
 2218SOL     OW 7552   0.607   5.652   5.685
 2218SOL    HW1 7553   0.513   5.684   5.684
 2218SOL    HW2 7554   0.613   5.566   5.736
 2219SOL     OW 7555   5.770   1.076   0.488
 2219SOL    HW1 7556   5.727   1.085   0.577
 2219SOL    HW2 7557   5.705   1.102   0.417
 2220SOL     OW 7558   0.917   5.861   5.496
 2220SOL    HW1 7559   0.971   5.903   5.422
 2220SOL    HW2 7560   0.914   5.762   5.482
 2221SOL     OW 7561   6.691   1.080   4.121
 2221SOL    HW1 7562   6.784   1.117   4.125
 2221SOL    HW2 7563   6.688   0.993   4.169
 2222SOL     OW 7564   4.552   6.136   1.973
 2222SOL    HW1 7565   4.478   6.159   1.909
 2222SOL    HW2 7566   4.638   6.175   1.940
 2223SOL     OW 7567   6.766   6.068   5.240
 2223SOL    HW1 7568   6.712   6.062   5.156
 2223SOL    HW2 7569   6.862   6.081   5.216
 2224SOL     OW 7570   5.516   3.905   0.684
 2224SOL    HW1 7571   5.441   3.863   0.735
 2224SOL    HW2 7572   5.532   3.998   0.717
 2225SOL     OW 7573   0.721   6.937   2.882
 2225SOL    HW1 7574   0.728   7.015   2.820
 2225SOL    HW2 7575   0.691   6.857   2.831
 2226SOL     OW 7576   2.475   5.191   0.893
 2226SOL    HW1 7577   2.450   5.128   0.819
 2226SOL    HW2 7578   2.398   5.200   0.957
 2227SOL     OW 7579   4.054   2.001   1.689
 2227SOL    HW1 7580   4.054   2.064   1.611
 2227SOL    HW2 7581   4.027   2.050   1.771
 2228SOL     OW 7582   5.431   4.729   6.870
 2228SOL    HW1 7583   5.396   4.635   6.879
 2228SOL    HW2 7584   5.464   4.760   6.959
 2229SOL     OW 7585   3.801   3.681   4.116
 2229SOL    HW1 7586   3.776   3.604   4.059
 2229SOL    HW2 7587   3.901   3.684   4.127
 2230SOL     OW 7588   5.701   0.196   0.907
 2230SOL    HW1 7589   5.787   0.192   0.959
 2230SOL    HW2 7590   5.703   0.128   0.834
 2231SOL     OW 7591   1.221   0.183   6.908
 2231SOL    HW1 7592   1.304   0.169   6.853
 2231SOL    HW2 7593   1.141   0.166   6.851
 2232SOL     OW 7594   1.318   0.804   5.687
 2232SOL    HW1 7595   1.378   0.724   5.674
 2232SOL    HW2 7596   1.240   0.778   5.744
 2233SOL     OW 7597   2.829   4.045   0.403
 2233SOL    HW1 7598   2.772   4.014   0.480
 2233SOL    HW2 7599   2.843   4.144   0.410
 2234SOL     OW 7600   4.606   1.614   1.022
 2234SOL    HW1 7601   4.640   1.550   0.953
 2234SOL    HW2 7602   4.536   1.672   0.981
 2235SOL     OW 7603   1.776   1.513   3.215
 2235SOL    HW1 7604   1.730   1.600   3.237
 2235SOL    HW2 7605   1.811   1.517   3.122
 2236SOL     OW 7606   1.827   4.211   5.236
 2236SOL    HW1 7607   1.883   4.281   5.193
 2236SOL    HW2 7608   1.734   4.216   5.201
 2237SOL     OW 7609   6.638   4.938   5.218
 2237SOL    HW1 7610   6.673   5.031   5.208
 2237SOL    HW2 7611   6.655   4.887   5.134
 2238SOL     OW 7612   5.279   4.326   1.992
 2238SOL    HW1 7613   5.307   4.276   1.910
 2238SOL    HW2 7614   5.186   4.361   1.979
 2239SOL     OW 7615   4.033   6.545   3.320
 2239SOL    HW1 7616   3.943   6.508   3.300
 2239SOL    HW2 7617   4.101   6.504   3.259
 2240SOL     OW 7618   4.828   4.899   3.426
 2240SOL    HW1 7619   4.743   4.859   3.462
 2240SOL    HW2 7620   4.840   4.991   3.464
 2241SOL     OW 7621   0.358   0.542   1.763
 2241SOL    HW1 7622   0.264   0.533   1.729
 2241SOL    HW2 7623   0.392   0.451   1.789
 2242SOL     OW 7624   4.950   3.239   3.158
 2242SOL    HW1 7625   4.930   3.324   3.109
 2242SOL    HW2 7626   5.014   3.184   3.104
 2243SOL     OW 7627   1.170   6.100   0.685
 2243SOL    HW1 7628   1.238   6.153   0.636
 2243SOL    HW2 7629   1.093   6.081   0.625
 2244SOL     OW 7630   2.618   0.204   0.448
 2244SOL    HW1 7631   2.614   0.237   0.543
 2244SOL    HW2 7632   2.571   0.116   0.442
 2245SOL     OW 7633   0.610   0.384   0.187
 2245SOL    HW1 7634   0.572   0.460   0.241
 2245SOL    HW2 7635   0.565   0.381   0.098
 2246SOL     OW 7636   2.025   0.958   5.479
 2246SOL    HW1 7637   2.106   1.004   5.443
 2246SOL    HW2 7638   1.951   1.024   5.490
 2247SOL     OW 7639   3.004   3.824   2.734
 2247SOL    HW1 7640   2.978   3.869   2.649
 2247SOL    HW2 7641   2.973   3.729   2.732
 2248SOL     OW 7642   5.251   4.235   5.354
 2248SOL    HW1 7643   5.221   4.154   5.304
 2248SOL    HW2 7644   5.292   4.300   5.290
 2249SOL     OW 7645   2.036   6.533   4.033
 2249SOL    HW1 7646   2.076   6.518   4.123
 2249SOL    HW2 7647   2.098   6.495   3.963
 2250SOL     OW 7648   4.545   4.257   6.568
 2250SOL    HW1 7649   4.562   4.340   6.515
 2250SOL    HW2 7650   4.460   4.215   6.537
 2251SOL     OW 7651   5.358   6.898   5.786
 2251SOL    HW1 7652   5.348   6.998   5.785
 2251SOL    HW2 7653   5.407   6.870   5.703
 2252SOL     OW 7654   4.323   1.677   2.719
 2252SOL    HW1 7655   4.371   1.701   2.804
 2252SOL    HW2 7656   4.225   1.670   2.738
 2253SOL     OW 7657   0.660   3.452   0.695
 2253SOL    HW1 7658   0.684   3.421   0.604
 2253SOL    HW2 7659   0.737   3.504   0.734
 2254SOL     OW 7660   3.735   3.473   2.941
 2254SOL    HW1 7661   3.766   3.425   2.859
 2254SOL    HW2 7662   3.774   3.428   3.022
 2255SOL     OW 7663   3.366   3.822   5.975
 2255SOL    HW1 7664   3.413   3.846   5.891
 2255SOL    HW2 7665   3.390   3.887   6.047
 2256SOL     OW 7666   4.955   6.944   1.869
 2256SOL    HW1 7667   4.910   6.901   1.790
 2256SOL    HW2 7668   4.885   6.979   1.931
 2257SOL     OW 7669   0.333   1.275   4.945
 2257SOL    HW1 7670   0.320   1.361   4.994
 2257SOL    HW2 7671   0.379   1.209   5.004
 2258SOL     OW 7672   2.698   6.223   4.029
 2258SOL    HW1 7673   2.731   6.257   3.942
 2258SOL    HW2 7674   2.616   6.274   4.056
 2259SOL     OW 7675   6.253   2.082   4.398
 2259SOL    HW1 7676   6.348   2.055   4.383
 2259SOL    HW2 7677   6.193   2.006   4.375
 2260SOL     OW 7678   1.274   3.709   1.567
 2260SOL    HW1 7679   1.263   3.686   1.664
 2260SOL    HW2 7680   1.196   3.763   1.536
 2261SOL     OW 7681   5.741   3.882   6.605
 2261SOL    HW1 7682   5.758   3.800   6.550
 2261SOL    HW2 7683   5.688   3.857   6.686
 2262SOL     OW 7684   6.488   0.069   4.343
 2262SOL    HW1 7685   6.501   6.995   4.333
 2262SOL    HW2 7686   6.459   0.090   4.436
 2263SOL     OW 7687   1.477   4.758   0.044
 2263SOL    HW1 7688   1.552   4.813   0.081
 2263SOL    HW2 7689   1.451   4.794   6.978
 2264SOL     OW 7690   1.711   7.000   5.816
 2264SOL    HW1 7691   1.646   6.950   5.759
 2264SOL    HW2 7692   1.714   0.072   5.788
 2265SOL     OW 7693   0.619   6.200   4.518
 2265SOL    HW1 7694   0.557   6.122   4.513
 2265SOL    HW2 7695   0.600   6.262   4.441
 2266SOL     OW 7696   4.554   1.936   6.602
 2266SOL    HW1 7697   4.480   1.903   6.660
 2266SOL    HW2 7698   4.516   1.980   6.520
 2267SOL     OW 7699   4.880   3.108   4.106
 2267SOL    HW1 7700   4.878   3.201   4.143
 2267SOL    HW2 7701   4.850   3.109   4.011
 2268SOL     OW 7702   0.097   4.941   5.817
 2268SOL    HW1 7703   0.053   5.031   5.810
 2268SOL    HW2 7704   0.089   4.908   5.911
 2269SOL     OW 7705   2.024   2.866   4.994
 2269SOL    HW1 7706   2.105   2.846   5.049
 2269SOL    HW2 7707   2.051   2.922   4.915
 2270SOL     OW 7708   4.781   1.626   6.116
 2270SOL    HW1 7709   4.755   1.708   6.065
 2270SOL    HW2 7710   4.736   1.627   6.205
 2271SOL     OW 7711   5.723   4.994   5.850
 2271SOL    HW1 7712   5.766   4.906   5.871
 2271SOL    HW2 7713   5.662   4.983   5.772
 2272SOL     OW 7714   5.662   0.988   5.954
 2272SOL    HW1 7715   5.624   1.042   6.028
 2272SOL    HW2 7716   5.744   0.939   5.986
 2273SOL     OW 7717   1.748   2.700   2.017
 2273SOL    HW1 7718   1.681   2.671   1.948
 2273SOL    HW2 7719   1.803   2.622   2.045
 2274SOL     OW 7720   0.693   0.788   6.728
 2274SOL    HW1 7721   0.635   0.852   6.778
 2274SOL    HW2 7722   0.789   0.808   6.748
 2275SOL     OW 7723   5.583   5.093   2.446
 2275SOL    HW1 7724   5.536   5.017   2.400
 2275SOL    HW2 7725   5.519   5.168   2.461
 2276SOL     OW 7726   1.224   1.484   1.143
 2276SOL    HW1 7727   1.244   1.479   1.046
 2276SOL    HW2 7728   1.226   1.392   1.182
 2277SOL     OW 7729   3.476   4.087   3.150
 2277SOL    HW1 7730   3.403   4.118   3.211
 2277SOL    HW2 7731   3.564   4.098   3.196
 2278SOL     OW 7732   0.926   2.073   4.168
 2278SOL    HW1 7733   0.827   2.081   4.171
 2278SOL    HW2 7734   0.955   2.047   4.075
 2279SOL     OW 7735   0.460   5.774   5.101
 2279SOL    HW1 7736   0.548   5.734   5.078
 2279SOL    HW2 7737   0.468   5.828   5.185
 2280SOL     OW 7738   5.067   1.583   4.822
 2280SOL    HW1 7739   5.054   1.577   4.920
 2280SOL    HW2 7740   5.041   1.496   4.779
 2281SOL     OW 7741   5.106   6.497   2.802
 2281SOL    HW1 7742   5.029   6.505   2.738
 2281SOL    HW2 7743   5.154   6.411   2.786
 2282SOL     OW 7744   4.132   5.688   5.812
 2282SOL    HW1 7745   4.197   5.633   5.759
 2282SOL    HW2 7746   4.107   5.638   5.895
 2283SOL     OW 7747   0.613   0.904   3.811
 2283SOL    HW1 7748   0.600   0.988   3.758
 2283SOL    HW2 7749   0.703   0.905   3.853
 2284SOL     OW 7750   1.347   3.396   6.677
 2284SOL    HW1 7751   1.415   3.442   6.619
 2284SOL    HW2 7752   1.269   3.369   6.622
 2285SOL     OW 7753   1.418   4.183   6.998
 2285SOL    HW1 7754   1.402   4.206   6.902
 2285SOL    HW2 7755   1.366   4.101   7.022
 2286SOL     OW 7756   4.790   5.999   4.040
 2286SOL    HW1 7757   4.852   6.053   4.097
 2286SOL    HW2 7758   4.700   5.994   4.083
 2287SOL     OW 7759   1.938   0.951   3.301
 2287SOL    HW1 7760   1.881   0.945   3.219
 2287SOL    HW2 7761   2.013   0.886   3.295
 2288SOL     OW 7762   0.250   6.346   3.459
 2288SOL    HW1 7763   0.326   6.311   3.513
 2288SOL    HW2 7764   0.234   6.285   3.381
 2289SOL     OW 7765   1.211   6.188   1.780
 2289SOL    HW1 7766   1.257   6.182   1.691
 2289SOL    HW2 7767   1.278   6.215   1.850
 2290SOL     OW 7768   1.043   5.253   1.060
 2290SOL    HW1 7769   1.107   5.221   1.129
 2290SOL    HW2 7770   1.084   5.327   1.007
 2291SOL     OW 7771   2.813   1.618   6.009
 2291SOL    HW1 7772   2.750   1.618   6.087
 2291SOL    HW2 7773   2.768   1.577   5.930
 2292SOL     OW 7774   1.264   0.816   4.558
 2292SOL    HW1 7775   1.336   0.813   4.489
 2292SOL    HW2 7776   1.292   0.875   4.634
 2293SOL     OW 7777   5.325   5.423   1.996
 2293SOL    HW1 7778   5.243   5.482   1.993
 2293SOL    HW2 7779   5.298   5.331   2.025
 2294SOL     OW 7780   4.420   6.469   6.518
 2294SOL    HW1 7781   4.364   6.550   6.534
 2294SOL    HW2 7782   4.485   6.487   6.444
 2295SOL     OW 7783   0.484   2.181   1.169
 2295SOL    HW1 7784   0.458   2.099   1.220
 2295SOL    HW2 7785   0.483   2.260   1.230
 2296SOL     OW 7786   3.012   6.684   0.030
 2296SOL    HW1 7787   3.082   6.749   0.000
 2296SOL    HW2 7788   3.056   6.599   0.059
 2297SOL     OW 7789   4.122   5.022   5.567
 2297SOL    HW1 7790   4.100   5.117   5.547
 2297SOL    HW2 7791   4.097   5.001   5.662
 2298SOL     OW 7792   3.743   2.399   1.286
 2298SOL    HW1 7793   3.747   2.311   1.238
 2298SOL    HW2 7794   3.765   2.384   1.383
 2299SOL     OW 7795   5.027   5.774   6.870
 2299SOL    HW1 7796   5.045   5.798   6.775
 2299SOL    HW2 7797   4.953   5.707   6.875
 2300SOL     OW 7798   1.838   5.088   1.288
 2300SOL    HW1 7799   1.832   5.094   1.188
 2300SOL    HW2 7800   1.901   5.014   1.313
 2301SOL     OW 7801   4.091   3.160   2.686
 2301SOL    HW1 7802   4.119   3.076   2.641
 2301SOL    HW2 7803   4.092   3.236   2.620
 2302SOL     OW 7804   3.050   5.777   2.750
 2302SOL    HW1 7805   2.960   5.816   2.769
 2302SOL    HW2 7806   3.088   5.820   2.668
 2303SOL     OW 7807   1.293   2.557   4.384
 2303SOL    HW1 7808   1.357   2.491   4.424
 2303SOL    HW2 7809   1.336   2.647   4.379
 2304SOL     OW 7810   2.160   1.123   3.595
 2304SOL    HW1 7811   2.232   1.069   3.639
 2304SOL    HW2 7812   2.078   1.122   3.651
 2305SOL     OW 7813   3.396   5.488   2.437
 2305SOL    HW1 7814   3.315   5.544   2.418
 2305SOL    HW2 7815   3.369   5.392   2.444
 2306SOL     OW 7816   1.697   4.155   1.498
 2306SOL    HW1 7817   1.739   4.066   1.520
 2306SOL    HW2 7818   1.598   4.146   1.502
 2307SOL     OW 7819   0.564   2.258   3.131
 2307SOL    HW1 7820   0.604   2.328   3.190
 2307SOL    HW2 7821   0.568   2.288   3.036
 2308SOL     OW 7822   0.447   0.104   6.847
 2308SOL    HW1 7823   0.373   0.046   6.814
 2308SOL    HW2 7824   0.507   0.128   6.771
 2309SOL     OW 7825   3.733   5.687   6.454
 2309SOL    HW1 7826   3.745   5.602   6.504
 2309SOL    HW2 7827   3.759   5.674   6.359
 2310SOL     OW 7828   5.375   1.013   1.554
 2310SOL    HW1 7829   5.468   0.987   1.581
 2310SOL    HW2 7830   5.374   1.110   1.529
 2311SOL     OW 7831   2.904   0.105   2.915
 2311SOL    HW1 7832   2.896   0.204   2.914
 2311SOL    HW2 7833   3.000   0.079   2.904
 2312SOL     OW 7834   4.034   0.231   2.895
 2312SOL    HW1 7835   3.943   0.270   2.906
 2312SOL    HW2 7836   4.031   0.133   2.914
 2313SOL     OW 7837   4.982   3.958   2.281
 2313SOL    HW1 7838   5.075   3.991   2.295
 2313SOL    HW2 7839   4.924   4.032   2.247
 2314SOL     OW 7840   6.358   0.255   3.504
 2314SOL    HW1 7841   6.452   0.265   3.537
 2314SOL    HW2 7842   6.327   0.341   3.465
 2315SOL     OW 7843   4.384   4.177   5.799
 2315SOL    HW1 7844   4.446   4.148   5.871
 2315SOL    HW2 7845   4.293   4.193   5.837
 2316SOL     OW 7846   2.798   1.125   6.158
 2316SOL    HW1 7847   2.873   1.066   6.130
 2316SOL    HW2 7848   2.803   1.212   6.109
 2317SOL     OW 7849   6.346   6.437   4.310
 2317SOL    HW1 7850   6.302   6.523   4.282
 2317SOL    HW2 7851   6.298   6.360   4.269
 2318SOL     OW 7852   2.313   4.384   4.756
 2318SOL    HW1 7853   2.347   4.366   4.849
 2318SOL    HW2 7854   2.217   4.410   4.760
 2319SOL     OW 7855   2.215   5.397   4.844
 2319SOL    HW1 7856   2.257   5.331   4.906
 2319SOL    HW2 7857   2.283   5.430   4.779
 2320SOL     OW 7858   1.466   3.151   5.349
 2320SOL    HW1 7859   1.471   3.093   5.430
 2320SOL    HW2 7860   1.530   3.227   5.359
 2321SOL     OW 7861   2.986   5.201   6.131
 2321SOL    HW1 7862   2.925   5.191   6.210
 2321SOL    HW2 7863   3.061   5.135   6.138
 2322SOL     OW 7864   2.107   3.447   2.582
 2322SOL    HW1 7865   2.127   3.464   2.486
 2322SOL    HW2 7866   2.085   3.350   2.595
 2323SOL     OW 7867   2.546   4.644   1.454
 2323SOL    HW1 7868   2.638   4.650   1.492
 2323SOL    HW2 7869   2.542   4.691   1.366
 2324SOL     OW 7870   0.705   5.549   2.087
 2324SOL    HW1 7871   0.759   5.634   2.085
 2324SOL    HW2 7872   0.639   5.553   2.161
 2325SOL     OW 7873   6.877   5.113   1.811
 2325SOL    HW1 7874   6.869   5.027   1.762
 2325SOL    HW2 7875   6.873   5.189   1.745
 2326SOL     OW 7876   1.015   0.126   0.128
 2326SOL    HW1 7877   0.957   0.204   0.150
 2326SOL    HW2 7878   1.108   0.158   0.108
 2327SOL     OW 7879   6.862   0.611   2.671
 2327SOL    HW1 7880   6.902   0.593   2.581
 2327SOL    HW2 7881   6.792   0.682   2.662
 2328SOL     OW 7882   1.399   1.979   2.089
 2328SOL    HW1 7883   1.387   1.884   2.117
 2328SOL    HW2 7884   1.497   1.998   2.075
 2329SOL     OW 7885   1.124   4.736   3.862
 2329SOL    HW1 7886   1.144   4.803   3.933
 2329SOL    HW2 7887   1.083   4.655   3.903
 2330SOL     OW 7888   6.933   3.029   0.372
 2330SOL    HW1 7889   6.992   3.002   0.448
 2330SOL    HW2 7890   6.863   3.092   0.405
 2331SOL     OW 7891   3.570   6.117   6.874
 2331SOL    HW1 7892   3.619   6.057   6.811
 2331SOL    HW2 7893   3.608   6.210   6.868
 2332SOL     OW 7894   6.055   0.022   6.101
 2332SOL    HW1 7895   6.122   0.091   6.074
 2332SOL    HW2 7896   6.029   0.037   6.196
 2333SOL     OW 7897   0.143   4.812   2.787
 2333SOL    HW1 7898   0.184   4.806   2.878
 2333SOL    HW2 7899   0.142   4.908   2.758
 2334SOL     OW 7900   2.057   1.200   6.357
 2334SOL    HW1 7901   2.074   1.299   6.355
 2334SOL    HW2 7902   2.124   1.154   6.299
 2335SOL     OW 7903   6.410   1.712   4.557
 2335SOL    HW1 7904   6.455   1.794   4.592
 2335SOL    HW2 7905   6.444   1.692   4.465
 2336SOL     OW 7906   2.597   1.746   3.932
 2336SOL    HW1 7907   2.553   1.656   3.928
 2336SOL    HW2 7908   2.693   1.737   3.907
 2337SOL     OW 7909   3.927   1.874   1.035
 2337SOL    HW1 7910   3.932   1.973   1.041
 2337SOL    HW2 7911   4.019   1.835   1.043
 2338SOL     OW 7912   0.896   3.614   4.238
 2338SOL    HW1 7913   0.937   3.683   4.298
 2338SOL    HW2 7914   0.890   3.527   4.287
 2339SOL     OW 7915   3.123   3.389   2.906
 2339SOL    HW1 7916   3.178   3.445   2.844
 2339SOL    HW2 7917   3.181   3.319   2.948
 2340SOL     OW 7918   0.729   5.155   6.366
 2340SOL    HW1 7919   0.740   5.198   6.277
 2340SOL    HW2 7920   0.807   5.096   6.385
 2341SOL     OW 7921   2.380   4.395   3.127
 2341SOL    HW1 7922   2.361   4.368   3.033
 2341SOL    HW2 7923   2.336   4.330   3.189
 2342SOL     OW 7924   3.009   6.676   4.424
 2342SOL    HW1 7925   3.010   6.684   4.324
 2342SOL    HW2 7926   2.974   6.762   4.463
 2343SOL     OW 7927   2.463   6.310   3.103
 2343SOL    HW1 7928   2.371   6.270   3.102
 2343SOL    HW2 7929   2.527   6.247   3.059
 2344SOL     OW 7930   6.937   5.113   0.887
 2344SOL    HW1 7931   7.023   5.067   0.909
 2344SOL    HW2 7932   6.871   5.045   0.852
 2345SOL     OW 7933   2.533   5.639   4.900
 2345SOL    HW1 7934   2.462   5.705   4.923
 2345SOL    HW2 7935   2.621   5.670   4.936
 2346SOL     OW 7936   4.166   3.355   6.031
 2346SOL    HW1 7937   4.147   3.259   6.010
 2346SOL    HW2 7938   4.246   3.385   5.979
 2347SOL     OW 7939   1.523   2.239   1.363
 2347SOL    HW1 7940   1.433   2.272   1.392
 2347SOL    HW2 7941   1.594   2.300   1.398
 2348SOL     OW 7942   1.667   6.525   3.445
 2348SOL    HW1 7943   1.660   6.427   3.425
 2348SOL    HW2 7944   1.620   6.544   3.531
 2349SOL     OW 7945   1.181   3.960   6.769
 2349SOL    HW1 7946   1.197   3.940   6.866
 2349SOL    HW2 7947   1.083   3.963   6.751
 2350SOL     OW 7948   5.651   3.838   5.634
 2350SOL    HW1 7949   5.672   3.936   5.632
 2350SOL    HW2 7950   5.685   3.795   5.551
 2351SOL     OW 7951   3.212   4.898   2.905
 2351SOL    HW1 7952   3.312   4.891   2.911
 2351SOL    HW2 7953   3.182   4.876   2.813
 2352SOL     OW 7954   6.661   3.012   3.788
 2352SOL    HW1 7955   6.668   2.948   3.864
 2352SOL    HW2 7956   6.574   3.060   3.793
 2353SOL     OW 7957   4.306   4.968   5.353
 2353SOL    HW1 7958   4.231   4.941   5.414
 2353SOL    HW2 7959   4.287   5.058   5.314
 2354SOL     OW 7960   2.720   2.369   4.379
 2354SOL    HW1 7961   2.722   2.335   4.473
 2354SOL    HW2 7962   2.805   2.342   4.332
 2355SOL     OW 7963   2.500   6.173   4.955
 2355SOL    HW1 7964   2.403   6.150   4.957
 2355SOL    HW2 7965   2.530   6.198   5.047
 2356SOL     OW 7966   0.798   3.079   6.975
 2356SOL    HW1 7967   0.883   3.093   6.924
 2356SOL    HW2 7968   0.812   3.106   0.046
 2357SOL     OW 7969   3.503   1.102   1.623
 2357SOL    HW1 7970   3.527   1.064   1.534
 2357SOL    HW2 7971   3.561   1.061   1.694
 2358SOL     OW 7972   2.662   4.864   6.006
 2358SOL    HW1 7973   2.660   4.778   6.056
 2358SOL    HW2 7974   2.571   4.886   5.973
 2359SOL     OW 7975   1.220   6.833   5.235
 2359SOL    HW1 7976   1.157   6.756   5.232
 2359SOL    HW2 7977   1.295   6.818   5.171
 2360SOL     OW 7978   6.724   3.625   0.624
 2360SOL    HW1 7979   6.758   3.580   0.706
 2360SOL    HW2 7980   6.700   3.556   0.555
 2361SOL     OW 7981   2.673   1.102   6.435
 2361SOL    HW1 7982   2.744   1.115   6.504
 2361SOL    HW2 7983   2.701   1.147   6.350
 2362SOL     OW 7984   3.574   5.007   3.516
 2362SOL    HW1 7985   3.666   4.985   3.485
 2362SOL    HW2 7986   3.579   5.050   3.606
 2363SOL     OW 7987   3.607   2.092   3.417
 2363SOL    HW1 7988   3.690   2.142   3.444
 2363SOL    HW2 7989   3.598   2.096   3.317
 2364SOL     OW 7990   1.311   2.648   1.953
 2364SOL    HW1 7991   1.329   2.726   2.013
 2364SOL    HW2 7992   1.251   2.676   1.878
 2365SOL     OW 7993   6.666   1.820   6.563
 2365SOL    HW1 7994   6.569   1.814   6.541
 2365SOL    HW2 7995   6.693   1.740   6.618
 2366SOL     OW 7996   3.544   5.174   0.791
 2366SOL    HW1 7997   3.505   5.092   0.833
 2366SOL    HW2 7998   3.574   5.237   0.863
 2367SOL     OW 7999   2.191   3.008   0.165
 2367SOL    HW1 8000   2.270   3.005   0.226
 2367SOL    HW2 8001   2.177   3.102   0.134
 2368SOL     OW 8002   5.786   0.456   4.124
 2368SOL    HW1 8003   5.690   0.484   4.128
 2368SOL    HW2 8004   5.806   0.398   4.203
 2369SOL     OW 8005   2.159   6.790   4.045
 2369SOL    HW1 8006   2.251   6.758   4.067
 2369SOL    HW2 8007   2.099   6.711   4.028
 2370SOL     OW 8008   5.753   2.816   0.088
 2370SOL    HW1 8009   5.736   2.731   0.038
 2370SOL    HW2 8010   5.720   2.894   0.034
 2371SOL     OW 8011   2.294   6.826   1.961
 2371SOL    HW1 8012   2.360   6.843   2.034
 2371SOL    HW2 8013   2.252   6.913   1.933
 2372SOL     OW 8014   6.920   2.711   2.277
 2372SOL    HW1 8015   6.935   2.806   2.306
 2372SOL    HW2 8016   6.994   2.653   2.312
 2373SOL     OW 8017   1.754   3.615   5.553
 2373SOL    HW1 8018   1.712   3.560   5.624
 2373SOL    HW2 8019   1.739   3.712   5.572
 2374SOL     OW 8020   6.451   2.000   5.205
 2374SOL    HW1 8021   6.368   1.964   5.164
 2374SOL    HW2 8022   6.516   1.925   5.221
 2375SOL     OW 8023   3.198   5.440   5.737
 2375SOL    HW1 8024   3.202   5.398   5.828
 2375SOL    HW2 8025   3.221   5.371   5.668
 2376SOL     OW 8026   5.845   3.779   3.880
 2376SOL    HW1 8027   5.797   3.866   3.886
 2376SOL    HW2 8028   5.847   3.748   3.784
 2377SOL     OW 8029   3.183   3.985   3.543
 2377SOL    HW1 8030   3.262   3.989   3.605
 2377SOL    HW2 8031   3.103   3.951   3.593
 2378SOL     OW 8032   4.886   2.147   6.934
 2378SOL    HW1 8033   4.941   2.213   6.883
 2378SOL    HW2 8034   4.815   2.110   6.874
 2379SOL     OW 8035   6.562   1.272   0.467
 2379SOL    HW1 8036   6.532   1.337   0.398
 2379SOL    HW2 8037   6.492   1.265   0.538
 2380SOL     OW 8038   6.886   2.623   0.333
 2380SOL    HW1 8039   6.912   2.701   0.276
 2380SOL    HW2 8040   6.917   2.539   0.289
 2381SOL     OW 8041   2.078   5.829   3.644
 2381SOL    HW1 8042   2.053   5.748   3.591
 2381SOL    HW2 8043   2.162   5.810   3.696
 2382SOL     OW 8044   1.563   3.298   4.362
 2382SOL    HW1 8045   1.642   3.321   4.305
 2382SOL    HW2 8046   1.584   3.217   4.418
 2383SOL     OW 8047   6.493   6.204   1.105
 2383SOL    HW1 8048   6.416   6.242   1.156
 2383SOL    HW2 8049   6.579   6.229   1.149
 2384SOL     OW 8050   4.916   2.106   2.012
 2384SOL    HW1 8051   5.003   2.094   2.060
 2384SOL    HW2 8052   4.912   2.197   1.970
 2385SOL     OW 8053   0.447   0.743   0.028
 2385SOL    HW1 8054   0.359   0.783   7.024
 2385SOL    HW2 8055   0.465   0.766   0.123
 2386SOL     OW 8056   4.942   5.779   4.589
 2386SOL    HW1 8057   4.942   5.679   4.600
 2386SOL    HW2 8058   5.018   5.807   4.530
 2387SOL     OW 8059   1.666   1.051   4.319
 2387SOL    HW1 8060   1.569   1.064   4.340
 2387SOL    HW2 8061   1.721   1.115   4.371
 2388SOL     OW 8062   6.430   3.142   3.845
 2388SOL    HW1 8063   6.373   3.205   3.791
 2388SOL    HW2 8064   6.371   3.087   3.904
 2389SOL     OW 8065   4.453   4.572   3.629
 2389SOL    HW1 8066   4.523   4.503   3.651
 2389SOL    HW2 8067   4.411   4.605   3.713
 2390SOL     OW 8068   4.125   3.625   3.020
 2390SOL    HW1 8069   4.041   3.657   2.976
 2390SOL    HW2 8070   4.147   3.683   3.098
 2391SOL     OW 8071   4.833   4.504   6.185
 2391SOL    HW1 8072   4.783   4.482   6.269
 2391SOL    HW2 8073   4.917   4.554   6.209
 2392SOL     OW 8074   2.361   6.880   6.516
 2392SOL    HW1 8075   2.337   6.831   6.599
 2392SOL    HW2 8076   2.281   6.882   6.455
 2393SOL     OW 8077   4.634   4.471   6.433
 2393SOL    HW1 8078   4.684   4.529   6.498
 2393SOL    HW2 8079   4.569   4.528   6.383
 2394SOL     OW 8080   0.068   3.928   4.908
 2394SOL    HW1 8081   0.090   3.985   4.829
 2394SOL    HW2 8082   0.004   3.977   4.967
 2395SOL     OW 8083   4.521   6.613   5.833
 2395SOL    HW1 8084   4.538   6.514   5.831
 2395SOL    HW2 8085   4.607   6.662   5.843
 2396SOL     OW 8086   3.933   5.619   1.054
 2396SOL    HW1 8087   3.953   5.670   1.138
 2396SOL    HW2 8088   3.969   5.526   1.063
 2397SOL     OW 8089   0.218   4.272   4.412
 2397SOL    HW1 8090   0.314   4.247   4.405
 2397SOL    HW2 8091   0.209   4.371   4.411
 2398SOL     OW 8092   5.232   4.024   7.017
 2398SOL    HW1 8093   5.290   3.953   0.034
 2398SOL    HW2 8094   5.179   4.069   0.065
 2399SOL     OW 8095   4.118   1.161   1.226
 2399SOL    HW1 8096   4.179   1.093   1.185
 2399SOL    HW2 8097   4.094   1.132   1.318
 2400SOL     OW 8098   2.406   4.295   0.522
 2400SOL    HW1 8099   2.319   4.294   0.473
 2400SOL    HW2 8100   2.403   4.230   0.598
 2401SOL     OW 8101   5.926   5.898   6.580
 2401SOL    HW1 8102   6.012   5.877   6.627
 2401SOL    HW2 8103   5.913   5.997   6.577
 2402SOL     OW 8104   0.996   6.963   4.126
 2402SOL    HW1 8105   1.021   6.867   4.139
 2402SOL    HW2 8106   1.055   7.004   4.056
 2403SOL     OW 8107   1.006   2.635   5.610
 2403SOL    HW1 8108   1.055   2.596   5.532
 2403SOL    HW2 8109   1.053   2.718   5.640
 2404SOL     OW 8110   2.430   0.841   1.184
 2404SOL    HW1 8111   2.395   0.860   1.093
 2404SOL    HW2 8112   2.521   0.881   1.195
 2405SOL     OW 8113   3.206   4.106   2.562
 2405SOL    HW1 8114   3.276   4.138   2.497
 2405SOL    HW2 8115   3.146   4.041   2.515
 2406SOL     OW 8116   4.050   1.482   0.964
 2406SOL    HW1 8117   4.016   1.394   0.997
 2406SOL    HW2 8118   3.996   1.512   0.886
 2407SOL     OW 8119   5.515   1.907   3.450
 2407SOL    HW1 8120   5.473   1.998   3.451
 2407SOL    HW2 8121   5.473   1.852   3.378
 2408SOL     OW 8122   4.483   4.532   2.190
 2408SOL    HW1 8123   4.539   4.538   2.272
 2408SOL    HW2 8124   4.492   4.441   2.150
 2409SOL     OW 8125   2.363   3.832   1.280
 2409SOL    HW1 8126   2.408   3.919   1.259
 2409SOL    HW2 8127   2.432   3.760   1.290
 2410SOL     OW 8128   4.059   3.222   3.919
 2410SOL    HW1 8129   4.079   3.313   3.882
 2410SOL    HW2 8130   4.035   3.229   4.016
 2411SOL     OW 8131   5.045   6.776   5.031
 2411SOL    HW1 8132   5.007   6.686   5.054
 2411SOL    HW2 8133   5.141   6.779   5.060
 2412SOL     OW 8134   5.302   3.753   1.272
 2412SOL    HW1 8135   5.345   3.695   1.203
 2412SOL    HW2 8136   5.265   3.835   1.228
 2413SOL     OW 8137   5.416   0.460   1.586
 2413SOL    HW1 8138   5.345   0.437   1.519
 2413SOL    HW2 8139   5.495   0.500   1.539
 2414SOL     OW 8140   4.956   3.866   3.570
 2414SOL    HW1 8141   4.964   3.880   3.472
 2414SOL    HW2 8142   4.903   3.942   3.610
 2415SOL     OW 8143   5.845   1.643   2.567
 2415SOL    HW1 8144   5.929   1.653   2.514
 2415SOL    HW2 8145   5.816   1.547   2.565
 2416SOL     OW 8146   5.133   1.807   5.857
 2416SOL    HW1 8147   5.190   1.889   5.847
 2416SOL    HW2 8148   5.167   1.735   5.797
 2417SOL     OW 8149   3.077   3.090   4.780
 2417SOL    HW1 8150   3.016   3.159   4.740
 2417SOL    HW2 8151   3.172   3.119   4.770
 2418SOL     OW 8152   3.651   3.515   3.952
 2418SOL    HW1 8153   3.590   3.483   3.879
 2418SOL    HW2 8154   3.598   3.534   4.034
 2419SOL     OW 8155   0.663   6.523   3.444
 2419SOL    HW1 8156   0.575   6.559   3.415
 2419SOL    HW2 8157   0.690   6.449   3.383
 2420SOL     OW 8158   2.704   0.156   1.768
 2420SOL    HW1 8159   2.676   0.176   1.674
 2420SOL    HW2 8160   2.629   0.176   1.830
 2421SOL     OW 8161   1.610   2.660   4.706
 2421SOL    HW1 8162   1.634   2.714   4.786
 2421SOL    HW2 8163   1.545   2.588   4.732
 2422SOL     OW 8164   5.014   2.271   0.951
 2422SOL    HW1 8165   5.068   2.217   1.016
 2422SOL    HW2 8166   4.974   2.210   0.883
 2423SOL     OW 8167   2.592   5.981   2.420
 2423SOL    HW1 8168   2.625   5.899   2.374
 2423SOL    HW2 8169   2.669   6.027   2.466
 2424SOL     OW 8170   5.902   1.243   0.141
 2424SOL    HW1 8171   5.823   1.303   0.129
 2424SOL    HW2 8172   5.983   1.297   0.162
 2425SOL     OW 8173   6.189   6.985   4.364
 2425SOL    HW1 8174   6.118   6.992   4.433
 2425SOL    HW2 8175   6.271   0.010   4.395
 2426SOL     OW 8176   2.648   4.951   4.529
 2426SOL    HW1 8177   2.672   4.860   4.495
 2426SOL    HW2 8178   2.641   4.948   4.629
 2427SOL     OW 8179   5.943   6.364   5.242
 2427SOL    HW1 8180   5.879   6.430   5.280
 2427SOL    HW2 8181   5.917   6.272   5.271
 2428SOL     OW 8182   0.761   0.629   1.417
 2428SOL    HW1 8183   0.696   0.605   1.489
 2428SOL    HW2 8184   0.810   0.712   1.444
 2429SOL     OW 8185   5.249   5.794   1.382
 2429SOL    HW1 8186   5.348   5.782   1.379
 2429SOL    HW2 8187   5.206   5.708   1.412
 2430SOL     OW 8188   5.828   0.882   2.527
 2430SOL    HW1 8189   5.919   0.909   2.557
 2430SOL    HW2 8190   5.793   0.810   2.587
 2431SOL     OW 8191   4.097   0.668   2.296
 2431SOL    HW1 8192   4.097   0.591   2.233
 2431SOL    HW2 8193   4.072   0.752   2.247
 2432SOL     OW 8194   4.013   6.173   2.509
 2432SOL    HW1 8195   3.919   6.196   2.480
 2432SOL    HW2 8196   4.038   6.230   2.587
 2433SOL     OW 8197   4.369   0.260   6.745
 2433SOL    HW1 8198   4.465   0.270   6.719
 2433SOL    HW2 8199   4.349   0.321   6.822
 2434SOL     OW 8200   3.517   1.423   6.251
 2434SOL    HW1 8201   3.541   1.476   6.170
 2434SOL    HW2 8202   3.594   1.424   6.315
 2435SOL     OW 8203   6.434   5.644   4.835
 2435SOL    HW1 8204   6.343   5.605   4.816
 2435SOL    HW2 8205   6.426   5.743   4.843
 2436SOL     OW 8206   2.910   5.645   6.880
 2436SOL    HW1 8207   2.944   5.623   6.789
 2436SOL    HW2 8208   2.921   5.566   6.940
 2437SOL     OW 8209   6.924   6.559   6.012
 2437SOL    HW1 8210   6.901   6.630   5.945
 2437SOL    HW2 8211   6.889   6.471   5.981
 2438SOL     OW 8212   3.137   2.333   0.704
 2438SOL    HW1 8213   3.058   2.355   0.761
 2438SOL    HW2 8214   3.206   2.404   0.714
 2439SOL     OW 8215   5.837   4.045   5.233
 2439SOL    HW1 8216   5.829   4.091   5.145
 2439SOL    HW2 8217   5.889   4.102   5.296
 2440SOL     OW 8218   5.606   5.197   6.000
 2440SOL    HW1 8219   5.676   5.255   6.042
 2440SOL    HW2 8220   5.646   5.109   5.974
 2441SOL     OW 8221   6.098   2.292   0.777
 2441SOL    HW1 8222   6.174   2.355   0.791
 2441SOL    HW2 8223   6.021   2.320   0.835
 2442SOL     OW 8224   0.835   3.546   4.690
 2442SOL    HW1 8225   0.922   3.521   4.647
 2442SOL    HW2 8226   0.780   3.464   4.704
 2443SOL     OW 8227   2.439   4.437   5.963
 2443SOL    HW1 8228   2.346   4.415   5.991
 2443SOL    HW2 8229   2.502   4.369   6.000
 2444SOL     OW 8230   2.720   3.594   5.941
 2444SOL    HW1 8231   2.743   3.642   5.856
 2444SOL    HW2 8232   2.623   3.567   5.938
 2445SOL     OW 8233   0.641   0.589   0.961
 2445SOL    HW1 8234   0.602   0.676   0.931
 2445SOL    HW2 8235   0.721   0.568   0.905
 2446SOL     OW 8236   6.205   4.353   5.556
 2446SOL    HW1 8237   6.231   4.317   5.646
 2446SOL    HW2 8238   6.258   4.435   5.536
 2447SOL     OW 8239   0.802   1.446   6.795
 2447SOL    HW1 8240   0.720   1.453   6.738
 2447SOL    HW2 8241   0.824   1.536   6.833
 2448SOL     OW 8242   1.281   6.853   4.348
 2448SOL    HW1 8243   1.356   6.865   4.282
 2448SOL    HW2 8244   1.263   6.756   4.361
 2449SOL     OW 8245   0.551   3.334   5.215
 2449SOL    HW1 8246   0.626   3.284   5.172
 2449SOL    HW2 8247   0.581   3.369   5.303
 2450SOL     OW 8248   2.169   3.798   3.099
 2450SOL    HW1 8249   2.111   3.753   3.031
 2450SOL    HW2 8250   2.161   3.752   3.187
 2451SOL     OW 8251   2.265   6.187   4.081
 2451SOL    HW1 8252   2.189   6.124   4.064
 2451SOL    HW2 8253   2.277   6.199   4.180
 2452SOL     OW 8254   1.042   2.251   4.329
 2452SOL    HW1 8255   1.010   2.168   4.283
 2452SOL    HW2 8256   1.122   2.286   4.280
 2453SOL     OW 8257   0.171   4.057   2.062
 2453SOL    HW1 8258   0.085   4.068   2.011
 2453SOL    HW2 8259   0.211   3.968   2.043
 2454SOL     OW 8260   2.654   0.731   2.277
 2454SOL    HW1 8261   2.741   0.685   2.259
 2454SOL    HW2 8262   2.619   0.771   2.193
 2455SOL     OW 8263   5.383   6.066   0.387
 2455SOL    HW1 8264   5.386   6.016   0.301
 2455SOL    HW2 8265   5.374   6.002   0.463
 2456SOL     OW 8266   4.178   6.910   1.507
 2456SOL    HW1 8267   4.150   7.005   1.521
 2456SOL    HW2 8268   4.098   6.851   1.512
 2457SOL     OW 8269   5.398   6.466   1.363
 2457SOL    HW1 8270   5.358   6.511   1.283
 2457SOL    HW2 8271   5.466   6.399   1.332
 2458SOL     OW 8272   0.461   5.394   3.698
 2458SOL    HW1 8273   0.462   5.396   3.797
 2458SOL    HW2 8274   0.444   5.486   3.663
 2459SOL     OW 8275   2.461   0.177   0.721
 2459SOL    HW1 8276   2.485   0.261   0.771
 2459SOL    HW2 8277   2.542   0.119   0.715
 2460SOL     OW 8278   3.192   5.461   1.609
 2460SOL    HW1 8279   3.211   5.418   1.521
 2460SOL    HW2 8280   3.154   5.552   1.595
 2461SOL     OW 8281   5.559   1.167   2.900
 2461SOL    HW1 8282   5.548   1.240   2.967
 2461SOL    HW2 8283   5.625   1.195   2.830
 2462SOL     OW 8284   1.827   4.561   6.187
 2462SOL    HW1 8285   1.882   4.549   6.104
 2462SOL    HW2 8286   1.854   4.492   6.254
 2463SOL     OW 8287   6.738   1.657   4.141
 2463SOL    HW1 8288   6.751   1.703   4.053
 2463SOL    HW2 8289   6.825   1.620   4.172
 2464SOL     OW 8290   1.557   3.185   1.400
 2464SOL    HW1 8291   1.466   3.177   1.442
 2464SOL    HW2 8292   1.569   3.113   1.332
 2465SOL     OW 8293   6.317   5.662   3.286
 2465SOL    HW1 8294   6.354   5.741   3.335
 2465SOL    HW2 8295   6.333   5.579   3.338
 2466SOL     OW 8296   3.633   1.462   2.408
 2466SOL    HW1 8297   3.704   1.414   2.459
 2466SOL    HW2 8298   3.670   1.493   2.320
 2467SOL     OW 8299   6.677   1.139   5.773
 2467SOL    HW1 8300   6.651   1.052   5.730
 2467SOL    HW2 8301   6.738   1.189   5.712
 2468SOL     OW 8302   0.101   4.018   0.712
 2468SOL    HW1 8303   0.071   3.924   0.698
 2468SOL    HW2 8304   0.197   4.019   0.739
 2469SOL     OW 8305   2.614   3.058   5.589
 2469SOL    HW1 8306   2.623   3.081   5.492
 2469SOL    HW2 8307   2.704   3.038   5.627
 2470SOL     OW 8308   5.275   2.890   0.238
 2470SOL    HW1 8309   5.186   2.871   0.196
 2470SOL    HW2 8310   5.342   2.911   0.167
 2471SOL     OW 8311   0.794   0.678   3.398
 2471SOL    HW1 8312   0.818   0.663   3.303
 2471SOL    HW2 8313   0.826   0.768   3.428
 2472SOL     OW 8314   5.685   1.535   2.864
 2472SOL    HW1 8315   5.681   1.498   2.957
 2472SOL    HW2 8316   5.700   1.634   2.869
 2473SOL     OW 8317   0.636   6.865   5.143
 2473SOL    HW1 8318   0.576   6.815   5.205
 2473SOL    HW2 8319   0.654   6.808   5.062
 2474SOL     OW 8320   5.714   5.760   4.921
 2474SOL    HW1 8321   5.669   5.683   4.966
 2474SOL    HW2 8322   5.669   5.845   4.948
 2475SOL     OW 8323   4.166   2.584   6.432
 2475SOL    HW1 8324   4.171   2.510   6.365
 2475SOL    HW2 8325   4.109   2.658   6.396
 2476SOL     OW 8326   0.271   2.354   3.892
 2476SOL    HW1 8327   0.348   2.291   3.902
 2476SOL    HW2 8328   0.188   2.312   3.930
 2477SOL     OW 8329   4.333   4.917   1.848
 2477SOL    HW1 8330   4.412   4.869   1.886
 2477SOL    HW2 8331   4.276   4.852   1.798
 2478SOL     OW 8332   6.442   0.153   3.274
 2478SOL    HW1 8333   6.538   0.183   3.275
 2478SOL    HW2 8334   6.398   0.180   3.359
 2479SOL     OW 8335   0.759   3.622   0.332
 2479SOL    HW1 8336   0.741   3.607   0.234
 2479SOL    HW2 8337   0.705   3.700   0.364
 2480SOL     OW 8338   1.019   3.924   1.759
 2480SOL    HW1 8339   0.958   3.970   1.824
 2480SOL    HW2 8340   0.988   3.829   1.747
 2481SOL     OW 8341   4.400   5.337   2.793
 2481SOL    HW1 8342   4.435   5.253   2.751
 2481SOL    HW2 8343   4.325   5.374   2.738
 2482SOL     OW 8344   4.611   2.700   4.313
 2482SOL    HW1 8345   4.659   2.788   4.302
 2482SOL    HW2 8346   4.646   2.635   4.245
 2483SOL     OW 8347   0.758   1.667   6.465
 2483SOL    HW1 8348   0.782   1.613   6.384
 2483SOL    HW2 8349   0.659   1.675   6.471
 2484SOL     OW 8350   2.999   1.884   6.226
 2484SOL    HW1 8351   2.950   1.934   6.154
 2484SOL    HW2 8352   3.094   1.915   6.229
 2485SOL     OW 8353   0.933   6.243   1.799
 2485SOL    HW1 8354   0.908   6.334   1.833
 2485SOL    HW2 8355   1.028   6.244   1.768
 2486SOL     OW 8356   1.028   4.798   3.263
 2486SOL    HW1 8357   1.071   4.879   3.304
 2486SOL    HW2 8358   1.063   4.716   3.308
 2487SOL     OW 8359   2.961   0.950   1.180
 2487SOL    HW1 8360   2.864   0.960   1.158
 2487SOL    HW2 8361   2.978   0.858   1.217
 2488SOL     OW 8362   3.375   6.399   6.384
 2488SOL    HW1 8363   3.442   6.463   6.347
 2488SOL    HW2 8364   3.363   6.415   6.482
 2489SOL     OW 8365   6.946   5.604   4.288
 2489SOL    HW1 8366   6.866   5.586   4.230
 2489SOL    HW2 8367   6.971   5.700   4.281
 2490SOL     OW 8368   5.228   3.514   1.403
 2490SOL    HW1 8369   5.248   3.601   1.357
 2490SOL    HW2 8370   5.152   3.528   1.467
 2491SOL     OW 8371   0.982   4.586   3.081
 2491SOL    HW1 8372   0.929   4.507   3.112
 2491SOL    HW2 8373   1.054   4.606   3.148
 2492SOL     OW 8374   4.482   2.591   5.817
 2492SOL    HW1 8375   4.535   2.675   5.830
 2492SOL    HW2 8376   4.487   2.562   5.721
 2493SOL     OW 8377   6.332   1.697   3.945
 2493SOL    HW1 8378   6.390   1.760   3.893
 2493SOL    HW2 8379   6.390   1.630   3.992
 2494SOL     OW 8380   4.622   4.305   1.141
 2494SOL    HW1 8381   4.653   4.279   1.049
 2494SOL    HW2 8382   4.527   4.275   1.153
 2495SOL     OW 8383   6.192   0.998   4.041
 2495SOL    HW1 8384   6.100   0.996   4.002
 2495SOL    HW2 8385   6.186   1.008   4.141
 2496SOL     OW 8386   1.355   5.661   6.716
 2496SOL    HW1 8387   1.276   5.720   6.736
 2496SOL    HW2 8388   1.371   5.661   6.617
 2497SOL     OW 8389   5.364   1.858   6.286
 2497SOL    HW1 8390   5.399   1.789   6.223
 2497SOL    HW2 8391   5.303   1.814   6.353
 2498SOL     OW 8392   1.101   3.838   4.834
 2498SOL    HW1 8393   1.173   3.783   4.791
 2498SOL    HW2 8394   1.144   3.907   4.893
 2499SOL     OW 8395   6.177   0.238   6.002
 2499SOL    HW1 8396   6.267   0.197   6.013
 2499SOL    HW2 8397   6.184   0.318   5.943
 2500SOL     OW 8398   4.645   3.573   6.388
 2500SOL    HW1 8399   4.613   3.602   6.298
 2500SOL    HW2 8400   4.566   3.547   6.445
 2501SOL     OW 8401   6.195   4.670   0.542
 2501SOL    HW1 8402   6.264   4.602   0.567
 2501SOL    HW2 8403   6.236   4.761   0.541
 2502SOL     OW 8404   1.976   6.409   3.008
 2502SOL    HW1 8405   1.986   6.488   2.948
 2502SOL    HW2 8406   1.880   6.400   3.036
 2503SOL     OW 8407   4.816   6.425   4.699
 2503SOL    HW1 8408   4.814   6.400   4.603
 2503SOL    HW2 8409   4.803   6.524   4.709
 2504SOL     OW 8410   2.003   4.370   3.284
 2504SOL    HW1 8411   1.949   4.288   3.306
 2504SOL    HW2 8412   1.966   4.414   3.203
 2505SOL     OW 8413   4.669   4.624   3.852
 2505SOL    HW1 8414   4.740   4.583   3.795
 2505SOL    HW2 8415   4.602   4.553   3.878
 2506SOL     OW 8416   0.165   2.081   0.968
 2506SOL    HW1 8417   0.182   2.171   0.930
 2506SOL    HW2 8418   0.076   2.048   0.937
 2507SOL     OW 8419   6.192   5.714   1.034
 2507SOL    HW1 8420   6.151   5.738   0.947
 2507SOL    HW2 8421   6.209   5.797   1.087
 2508SOL     OW 8422   2.425   2.667   2.082
 2508SOL    HW1 8423   2.475   2.601   2.137
 2508SOL    HW2 8424   2.488   2.738   2.050
 2509SOL     OW 8425   5.097   1.668   3.166
 2509SOL    HW1 8426   5.123   1.717   3.249
 2509SOL    HW2 8427   5.163   1.594   3.150
 2510SOL     OW 8428   4.074   5.826   0.863
 2510SOL    HW1 8429   4.007   5.775   0.917
 2510SOL    HW2 8430   4.064   5.803   0.766
 2511SOL     OW 8431   0.880   6.286   4.255
 2511SOL    HW1 8432   0.807   6.330   4.308
 2511SOL    HW2 8433   0.927   6.220   4.313
 2512SOL     OW 8434   5.332   3.010   4.057
 2512SOL    HW1 8435   5.317   3.109   4.056
 2512SOL    HW2 8436   5.428   2.991   4.074
 2513SOL     OW 8437   0.319   4.850   1.572
 2513SOL    HW1 8438   0.389   4.887   1.511
 2513SOL    HW2 8439   0.285   4.922   1.633
 2514SOL     OW 8440   1.059   1.459   4.122
 2514SOL    HW1 8441   1.096   1.549   4.101
 2514SOL    HW2 8442   1.024   1.417   4.038
 2515SOL     OW 8443   0.912   5.021   0.358
 2515SOL    HW1 8444   0.894   5.015   0.456
 2515SOL    HW2 8445   0.844   5.080   0.316
 2516SOL     OW 8446   5.300   6.187   4.417
 2516SOL    HW1 8447   5.223   6.212   4.475
 2516SOL    HW2 8448   5.371   6.257   4.423
 2517SOL     OW 8449   2.567   5.345   0.619
 2517SOL    HW1 8450   2.657   5.301   0.620
 2517SOL    HW2 8451   2.514   5.314   0.698
 2518SOL     OW 8452   2.426   2.367   6.003
 2518SOL    HW1 8453   2.371   2.358   6.086
 2518SOL    HW2 8454   2.456   2.276   5.973
 2519SOL     OW 8455   5.024   4.215   4.704
 2519SOL    HW1 8456   4.966   4.160   4.764
 2519SOL    HW2 8457   4.994   4.311   4.708
 2520SOL     OW 8458   2.848   5.052   1.908
 2520SOL    HW1 8459   2.754   5.053   1.875
 2520SOL    HW2 8460   2.859   4.982   1.978
 2521SOL     OW 8461   6.000   6.810   6.009
 2521SOL    HW1 8462   6.061   6.740   5.972
 2521SOL    HW2 8463   6.054   6.878   6.058
 2522SOL     OW 8464   1.060   2.903   5.037
 2522SOL    HW1 8465   0.993   2.953   4.982
 2522SOL    HW2 8466   1.149   2.947   5.028
 2523SOL     OW 8467   6.827   2.969   6.181
 2523SOL    HW1 8468   6.780   2.968   6.093
 2523SOL    HW2 8469   6.845   2.875   6.210
 2524SOL     OW 8470   0.821   0.115   4.976
 2524SOL    HW1 8471   0.799   0.154   4.887
 2524SOL    HW2 8472   0.750   0.139   5.042
 2525SOL     OW 8473   1.719   4.590   3.240
 2525SOL    HW1 8474   1.801   4.642   3.264
 2525SOL    HW2 8475   1.740   4.529   3.164
 2526SOL     OW 8476   0.560   2.299   5.568
 2526SOL    HW1 8477   0.481   2.360   5.571
 2526SOL    HW2 8478   0.640   2.343   5.608
 2527SOL     OW 8479   5.662   0.114   3.636
 2527SOL    HW1 8480   5.734   0.158   3.583
 2527SOL    HW2 8481   5.573   0.131   3.593
 2528SOL     OW 8482   6.052   5.320   0.647
 2528SOL    HW1 8483   6.094   5.409   0.632
 2528SOL    HW2 8484   5.954   5.332   0.665
 2529SOL     OW 8485   5.198   3.997   5.236
 2529SOL    HW1 8486   5.196   3.934   5.314
 2529SOL    HW2 8487   5.201   3.944   5.151
 2530SOL     OW 8488   1.384   6.451   3.881
 2530SOL    HW1 8489   1.450   6.463   3.806
 2530SOL    HW2 8490   1.328   6.533   3.889
 2531SOL     OW 8491   5.198   1.264   0.709
 2531SOL    HW1 8492   5.143   1.213   0.643
 2531SOL    HW2 8493   5.174   1.361   0.703
 2532SOL     OW 8494   1.380   4.204   5.937
 2532SOL    HW1 8495   1.449   4.249   5.881
 2532SOL    HW2 8496   1.304   4.266   5.953
 2533SOL     OW 8497   5.756   6.533   5.318
 2533SOL    HW1 8498   5.803   6.600   5.375
 2533SOL    HW2 8499   5.739   6.571   5.227
 2534SOL     OW 8500   6.811   2.091   3.497
 2534SOL    HW1 8501   6.909   2.084   3.518
 2534SOL    HW2 8502   6.794   2.054   3.406
 2535SOL     OW 8503   2.006   1.139   3.020
 2535SOL    HW1 8504   1.931   1.079   2.992
 2535SOL    HW2 8505   1.994   1.166   3.115
 2536SOL     OW 8506   6.591   0.865   3.893
 2536SOL    HW1 8507   6.657   0.890   3.964
 2536SOL    HW2 8508   6.501   0.851   3.935
 2537SOL     OW 8509   4.379   5.196   1.683
 2537SOL    HW1 8510   4.300   5.185   1.743
 2537SOL    HW2 8511   4.381   5.289   1.647
 2538SOL     OW 8512   1.553   4.379   5.163
 2538SOL    HW1 8513   1.557   4.457   5.226
 2538SOL    HW2 8514   1.555   4.412   5.069
 2539SOL     OW 8515   2.237   0.623   5.895
 2539SOL    HW1 8516   2.281   0.543   5.854
 2539SOL    HW2 8517   2.181   0.669   5.827
 2540SOL     OW 8518   5.560   1.974   2.285
 2540SOL    HW1 8519   5.567   2.015   2.376
 2540SOL    HW2 8520   5.603   1.884   2.286
 2541SOL     OW 8521   0.454   6.890   5.572
 2541SOL    HW1 8522   0.479   6.981   5.539
 2541SOL    HW2 8523   0.438   6.893   5.671
 2542SOL     OW 8524   3.580   1.588   3.850
 2542SOL    HW1 8525   3.579   1.488   3.862
 2542SOL    HW2 8526   3.617   1.631   3.932
 2543SOL     OW 8527   0.297   2.262   4.227
 2543SOL    HW1 8528   0.393   2.275   4.200
 2543SOL    HW2 8529   0.275   2.324   4.301
 2544SOL     OW 8530   6.428   6.356   2.298
 2544SOL    HW1 8531   6.415   6.394   2.207
 2544SOL    HW2 8532   6.439   6.430   2.364
 2545SOL     OW 8533   6.854   1.780   6.950
 2545SOL    HW1 8534   6.891   1.689   6.964
 2545SOL    HW2 8535   6.920   1.836   6.900
 2546SOL     OW 8536   6.662   4.172   2.568
 2546SOL    HW1 8537   6.651   4.271   2.581
 2546SOL    HW2 8538   6.573   4.132   2.545
 2547SOL     OW 8539   5.434   3.908   1.020
 2547SOL    HW1 8540   5.529   3.931   1.040
 2547SOL    HW2 8541   5.413   3.818   1.059
 2548SOL     OW 8542   6.594   6.377   5.469
 2548SOL    HW1 8543   6.571   6.396   5.564
 2548SOL    HW2 8544   6.631   6.284   5.461
 2549SOL     OW 8545   2.851   3.355   0.461
 2549SOL    HW1 8546   2.907   3.405   0.527
 2549SOL    HW2 8547   2.817   3.270   0.503
 2550SOL     OW 8548   4.159   6.145   0.028
 2550SOL    HW1 8549   4.211   6.210   6.998
 2550SOL    HW2 8550   4.092   6.193   0.084
 2551SOL     OW 8551   3.459   4.975   0.968
 2551SOL    HW1 8552   3.527   4.903   0.959
 2551SOL    HW2 8553   3.476   5.028   1.052
 2552SOL     OW 8554   2.458   5.120   1.907
 2552SOL    HW1 8555   2.361   5.136   1.925
 2552SOL    HW2 8556   2.487   5.174   1.828
 2553SOL     OW 8557   4.327   1.570   0.085
 2553SOL    HW1 8558   4.273   1.589   0.166
 2553SOL    HW2 8559   4.391   1.646   0.069
 2554SOL     OW 8560   1.463   5.629   1.690
 2554SOL    HW1 8561   1.407   5.615   1.609
 2554SOL    HW2 8562   1.550   5.581   1.680
 2555SOL     OW 8563   5.858   0.120   4.683
 2555SOL    HW1 8564   5.887   0.077   4.768
 2555SOL    HW2 8565   5.829   0.048   4.619
 2556SOL     OW 8566   3.614   6.662   0.340
 2556SOL    HW1 8567   3.558   6.717   0.278
 2556SOL    HW2 8568   3.711   6.672   0.315
 2557SOL     OW 8569   2.868   0.484   6.985
 2557SOL    HW1 8570   2.832   0.429   6.910
 2557SOL    HW2 8571   2.934   0.430   0.014
 2558SOL     OW 8572   5.204   2.955   1.725
 2558SOL    HW1 8573   5.270   2.902   1.779
 2558SOL    HW2 8574   5.186   2.907   1.639
 2559SOL     OW 8575   0.830   4.773   3.567
 2559SOL    HW1 8576   0.861   4.815   3.482
 2559SOL    HW2 8577   0.818   4.675   3.553
 2560SOL     OW 8578   4.559   2.333   3.162
 2560SOL    HW1 8579   4.622   2.259   3.138
 2560SOL    HW2 8580   4.466   2.298   3.164
 2561SOL     OW 8581   4.106   0.155   4.459
 2561SOL    HW1 8582   4.029   0.217   4.444
 2561SOL    HW2 8583   4.102   0.080   4.393
 2562SOL     OW 8584   2.101   6.875   4.555
 2562SOL    HW1 8585   2.055   6.897   4.469
 2562SOL    HW2 8586   2.197   6.904   4.550
 2563SOL     OW 8587   3.494   2.702   6.404
 2563SOL    HW1 8588   3.422   2.633   6.404
 2563SOL    HW2 8589   3.526   2.718   6.497
 2564SOL     OW 8590   1.338   1.733   0.030
 2564SOL    HW1 8591   1.338   1.693   6.963
 2564SOL    HW2 8592   1.285   1.818   0.030
 2565SOL     OW 8593   1.246   1.469   0.507
 2565SOL    HW1 8594   1.192   1.438   0.429
 2565SOL    HW2 8595   1.337   1.427   0.503
 2566SOL     OW 8596   2.905   0.665   1.357
 2566SOL    HW1 8597   2.846   0.584   1.366
 2566SOL    HW2 8598   2.983   0.656   1.419
 2567SOL     OW 8599   1.922   1.071   6.956
 2567SOL    HW1 8600   1.985   1.026   6.893
 2567SOL    HW2 8601   1.828   1.045   6.933
 2568SOL     OW 8602   2.512   5.948   0.478
 2568SOL    HW1 8603   2.418   5.943   0.446
 2568SOL    HW2 8604   2.573   5.907   0.410
 2569SOL     OW 8605   2.155   0.300   1.154
 2569SOL    HW1 8606   2.148   0.397   1.131
 2569SOL    HW2 8607   2.068   0.269   1.191
 2570SOL     OW 8608   0.343   5.998   4.965
 2570SOL    HW1 8609   0.409   6.070   4.985
 2570SOL    HW2 8610   0.358   5.921   5.026
 2571SOL     OW 8611   3.261   3.712   4.187
 2571SOL    HW1 8612   3.215   3.635   4.231
 2571SOL    HW2 8613   3.231   3.798   4.230
 2572SOL     OW 8614   1.659   5.016   2.463
 2572SOL    HW1 8615   1.675   5.103   2.418
 2572SOL    HW2 8616   1.688   4.941   2.403
 2573SOL     OW 8617   0.224   2.000   4.177
 2573SOL    HW1 8618   0.218   2.094   4.211
 2573SOL    HW2 8619   0.293   1.950   4.229
 2574SOL     OW 8620   0.699   3.881   2.051
 2574SOL    HW1 8621   0.608   3.922   2.040
 2574SOL    HW2 8622   0.720   3.871   2.148
 2575SOL     OW 8623   5.616   3.268   6.355
 2575SOL    HW1 8624   5.661   3.224   6.278
 2575SOL    HW2 8625   5.683   3.322   6.407
 2576SOL     OW 8626   1.759   0.131   3.593
 2576SOL    HW1 8627   1.840   0.155   3.648
 2576SOL    HW2 8628   1.704   0.213   3.578
 2577SOL     OW 8629   2.328   5.949   1.820
 2577SOL    HW1 8630   2.283   5.866   1.853
 2577SOL    HW2 8631   2.270   5.992   1.751
 2578SOL     OW 8632   4.673   2.207   3.912
 2578SOL    HW1 8633   4.754   2.254   3.878
 2578SOL    HW2 8634   4.673   2.112   3.879
 2579SOL     OW 8635   6.639   1.437   6.145
 2579SOL    HW1 8636   6.606   1.394   6.229
 2579SOL    HW2 8637   6.569   1.500   6.110
 2580SOL     OW 8638   1.483   1.501   5.946
 2580SOL    HW1 8639   1.439   1.444   5.877
 2580SOL    HW2 8640   1.570   1.460   5.973
 2581SOL     OW 8641   6.333   0.077   4.601
 2581SOL    HW1 8642   6.366   0.120   4.685
 2581SOL    HW2 8643   6.355   7.004   4.603
 2582SOL     OW 8644   0.451   5.076   2.778
 2582SOL    HW1 8645   0.483   4.997   2.831
 2582SOL    HW2 8646   0.526   5.141   2.766
 2583SOL     OW 8647   1.986   1.180   6.636
 2583SOL    HW1 8648   1.906   1.135   6.676
 2583SOL    HW2 8649   1.968   1.202   6.540
 2584SOL     OW 8650   5.217   7.011   2.178
 2584SOL    HW1 8651   5.279   7.015   2.256
 2584SOL    HW2 8652   5.214   6.917   2.142
 2585SOL     OW 8653   4.313   1.364   1.466
 2585SOL    HW1 8654   4.262   1.421   1.531
 2585SOL    HW2 8655   4.402   1.405   1.449
 2586SOL     OW 8656   6.957   2.028   4.616
 2586SOL    HW1 8657   6.917   1.947   4.572
 2586SOL    HW2 8658   6.958   2.104   4.551
 2587SOL     OW 8659   6.613   6.561   2.529
 2587SOL    HW1 8660   6.639   6.491   2.595
 2587SOL    HW2 8661   6.650   6.537   2.439
 2588SOL     OW 8662   5.097   0.667   1.707
 2588SOL    HW1 8663   5.075   0.575   1.741
 2588SOL    HW2 8664   5.068   0.674   1.612
 2589SOL     OW 8665   5.612   6.237   0.519
 2589SOL    HW1 8666   5.585   6.169   0.451
 2589SOL    HW2 8667   5.607   6.196   0.610
 2590SOL     OW 8668   4.040   6.743   2.789
 2590SOL    HW1 8669   4.138   6.738   2.772
 2590SOL    HW2 8670   4.016   6.688   2.868
 2591SOL     OW 8671   5.588   0.347   1.787
 2591SOL    HW1 8672   5.528   0.367   1.709
 2591SOL    HW2 8673   5.537   0.360   1.872
 2592SOL     OW 8674   3.333   5.074   1.642
 2592SOL    HW1 8675   3.346   4.987   1.690
 2592SOL    HW2 8676   3.327   5.148   1.708
 2593SOL     OW 8677   3.176   6.685   2.723
 2593SOL    HW1 8678   3.275   6.680   2.708
 2593SOL    HW2 8679   3.143   6.597   2.757
 2594SOL     OW 8680   1.254   6.320   5.975
 2594SOL    HW1 8681   1.197   6.319   6.057
 2594SOL    HW2 8682   1.280   6.227   5.951
 2595SOL     OW 8683   6.053   3.429   4.075
 2595SOL    HW1 8684   6.021   3.466   4.162
 2595SOL    HW2 8685   6.149   3.457   4.061
 2596SOL     OW 8686   4.291   1.868   1.757
 2596SOL    HW1 8687   4.234   1.910   1.686
 2596SOL    HW2 8688   4.243   1.791   1.798
 2597SOL     OW 8689   1.972   2.632   6.790
 2597SOL    HW1 8690   1.964   2.534   6.804
 2597SOL    HW2 8691   1.897   2.679   6.838
 2598SOL     OW 8692   5.662   2.609   2.705
 2598SOL    HW1 8693   5.746   2.608   2.651
 2598SOL    HW2 8694   5.586   2.575   2.650
 2599SOL     OW 8695   4.555   3.953   6.791
 2599SOL    HW1 8696   4.612   3.932   6.711
 2599SOL    HW2 8697   4.463   3.977   6.760
 2600SOL     OW 8698   6.727   3.498   3.490
 2600SOL    HW1 8699   6.799   3.439   3.453
 2600SOL    HW2 8700   6.657   3.442   3.534
 2601SOL     OW 8701   3.383   3.299   5.601
 2601SOL    HW1 8702   3.372   3.326   5.696
 2601SOL    HW2 8703   3.480   3.303   5.576
 2602SOL     OW 8704   5.846   5.891   5.668
 2602SOL    HW1 8705   5.778   5.922   5.602
 2602SOL    HW2 8706   5.928   5.861   5.620
 2603SOL     OW 8707   2.408   2.547   6.994
 2603SOL    HW1 8708   2.440   2.637   6.963
 2603SOL    HW2 8709   2.313   2.553   7.023
 2604SOL     OW 8710   5.761   1.351   1.254
 2604SOL    HW1 8711   5.781   1.302   1.339
 2604SOL    HW2 8712   5.846   1.384   1.214
 2605SOL     OW 8713   5.024   4.238   3.813
 2605SOL    HW1 8714   4.953   4.305   3.834
 2605SOL    HW2 8715   5.054   4.192   3.897
 2606SOL     OW 8716   0.314   4.566   1.544
 2606SOL    HW1 8717   0.359   4.653   1.524
 2606SOL    HW2 8718   0.220   4.569   1.513
 2607SOL     OW 8719   0.617   2.030   4.911
 2607SOL    HW1 8720   0.537   2.018   4.970
 2607SOL    HW2 8721   0.648   2.125   4.915
 2608SOL     OW 8722   4.820   0.378   0.580
 2608SOL    HW1 8723   4.805   0.283   0.554
 2608SOL    HW2 8724   4.911   0.407   0.551
 2609SOL     OW 8725   0.428   2.601   4.215
 2609SOL    HW1 8726   0.367   2.667   4.259
 2609SOL    HW2 8727   0.410   2.599   4.116
 2610SOL     OW 8728   5.826   6.058   4.899
 2610SOL    HW1 8729   5.745   6.100   4.858
 2610SOL    HW2 8730   5.804   6.029   4.993
 2611SOL     OW 8731   2.924   6.394   1.908
 2611SOL    HW1 8732   2.994   6.464   1.926
 2611SOL    HW2 8733   2.877   6.416   1.822
 2612SOL     OW 8734   6.293   6.825   4.626
 2612SOL    HW1 8735   6.235   6.837   4.707
 2612SOL    HW2 8736   6.266   6.742   4.578
 2613SOL     OW 8737   3.872   1.230   1.149
 2613SOL    HW1 8738   3.962   1.201   1.180
 2613SOL    HW2 8739   3.801   1.185   1.204
 2614SOL     OW 8740   0.098   6.061   6.338
 2614SOL    HW1 8741   0.090   6.015   6.426
 2614SOL    HW2 8742   0.015   6.113   6.320
 2615SOL     OW 8743   5.468   5.112   1.806
 2615SOL    HW1 8744   5.390   5.152   1.855
 2615SOL    HW2 8745   5.492   5.025   1.849
 2616SOL     OW 8746   3.805   3.369   2.701
 2616SOL    HW1 8747   3.781   3.422   2.620
 2616SOL    HW2 8748   3.886   3.314   2.683
 2617SOL     OW 8749   3.472   0.301   1.529
 2617SOL    HW1 8750   3.535   0.246   1.473
 2617SOL    HW2 8751   3.426   0.242   1.595
 2618SOL     OW 8752   0.997   0.448   0.528
 2618SOL    HW1 8753   1.067   0.478   0.462
 2618SOL    HW2 8754   0.968   0.355   0.504
 2619SOL     OW 8755   5.600   1.551   1.223
 2619SOL    HW1 8756   5.595   1.559   1.123
 2619SOL    HW2 8757   5.671   1.485   1.248
 2620SOL     OW 8758   1.862   4.704   4.709
 2620SOL    HW1 8759   1.935   4.731   4.647
 2620SOL    HW2 8760   1.774   4.709   4.662
 2621SOL     OW 8761   1.570   4.415   4.014
 2621SOL    HW1 8762   1.482   4.411   4.060
 2621SOL    HW2 8763   1.568   4.486   3.943
 2622SOL     OW 8764   2.793   3.185   6.252
 2622SOL    HW1 8765   2.868   3.175   6.186
 2622SOL    HW2 8766   2.709   3.149   6.212
 2623SOL     OW 8767   3.031   0.944   6.221
 2623SOL    HW1 8768   2.986   0.916   6.306
 2623SOL    HW2 8769   3.111   1.000   6.242
 2624SOL     OW 8770   6.557   2.373   4.311
 2624SOL    HW1 8771   6.590   2.415   4.227
 2624SOL    HW2 8772   6.572   2.274   4.308
 2625SOL     OW 8773   4.957   0.671   5.150
 2625SOL    HW1 8774   4.862   0.641   5.162
 2625SOL    HW2 8775   5.017   0.591   5.143
 2626SOL     OW 8776   2.419   6.981   2.176
 2626SOL    HW1 8777   2.330   6.958   2.215
 2626SOL    HW2 8778   2.491   6.952   2.240
 2627SOL     OW 8779   0.142   0.344   4.692
 2627SOL    HW1 8780   0.211   0.406   4.729
 2627SOL    HW2 8781   0.052   0.373   4.724
 2628SOL     OW 8782   3.191   5.788   5.413
 2628SOL    HW1 8783   3.123   5.791   5.339
 2628SOL    HW2 8784   3.145   5.769   5.499
 2629SOL     OW 8785   3.101   4.222   1.263
 2629SOL    HW1 8786   3.019   4.242   1.317
 2629SOL    HW2 8787   3.177   4.204   1.325
 2630SOL     OW 8788   2.743   2.256   2.412
 2630SOL    HW1 8789   2.822   2.271   2.352
 2630SOL    HW2 8790   2.774   2.249   2.507
 2631SOL     OW 8791   4.501   6.837   4.547
 2631SOL    HW1 8792   4.556   6.755   4.560
 2631SOL    HW2 8793   4.460   6.836   4.456
 2632SOL     OW 8794   5.709   1.639   0.656
 2632SOL    HW1 8795   5.628   1.609   0.606
 2632SOL    HW2 8796   5.761   1.704   0.600
 2633SOL     OW 8797   6.892   2.997   6.447
 2633SOL    HW1 8798   6.988   3.020   6.434
 2633SOL    HW2 8799   6.843   3.008   6.360
 2634SOL     OW 8800   2.851   5.455   1.280
 2634SOL    HW1 8801   2.796   5.507   1.214
 2634SOL    HW2 8802   2.863   5.361   1.247
 2635SOL     OW 8803   5.424   4.641   3.351
 2635SOL    HW1 8804   5.432   4.739   3.369
 2635SOL    HW2 8805   5.383   4.596   3.431
 2636SOL     OW 8806   5.945   0.516   5.074
 2636SOL    HW1 8807   6.044   0.523   5.065
 2636SOL    HW2 8808   5.908   0.606   5.099
 2637SOL     OW 8809   4.896   6.685   2.501
 2637SOL    HW1 8810   4.958   6.758   2.531
 2637SOL    HW2 8811   4.808   6.694   2.549
 2638SOL     OW 8812   5.908   5.542   1.242
 2638SOL    HW1 8813   5.852   5.546   1.325
 2638SOL    HW2 8814   6.001   5.572   1.263
 2639SOL     OW 8815   6.726   6.651   0.370
 2639SOL    HW1 8816   6.691   6.740   0.339
 2639SOL    HW2 8817   6.725   6.586   0.294
 2640SOL     OW 8818   6.544   7.024   6.428
 2640SOL    HW1 8819   6.447   0.020   6.417
 2640SOL    HW2 8820   6.599   0.068   6.381
 2641SOL     OW 8821   5.767   5.181   0.567
 2641SOL    HW1 8822   5.821   5.099   0.545
 2641SOL    HW2 8823   5.733   5.173   0.661
 2642SOL     OW 8824   6.700   0.027   3.843
 2642SOL    HW1 8825   6.702   0.005   3.745
 2642SOL    HW2 8826   6.766   6.994   3.891
 2643SOL     OW 8827   1.131   0.381   2.801
 2643SOL    HW1 8828   1.042   0.387   2.846
 2643SOL    HW2 8829   1.144   0.288   2.767
 2644SOL     OW 8830   0.470   5.326   6.207
 2644SOL    HW1 8831   0.442   5.241   6.252
 2644SOL    HW2 8832   0.401   5.351   6.139
 2645SOL     OW 8833   6.027   5.376   5.617
 2645SOL    HW1 8834   6.064   5.376   5.524
 2645SOL    HW2 8835   5.978   5.290   5.633
 2646SOL     OW 8836   6.603   6.142   6.902
 2646SOL    HW1 8837   6.654   6.059   6.880
 2646SOL    HW2 8838   6.506   6.127   6.888
 2647SOL     OW 8839   3.585   2.567   0.698
 2647SOL    HW1 8840   3.646   2.645   0.714
 2647SOL    HW2 8841   3.605   2.495   0.764
 2648SOL     OW 8842   3.069   0.635   2.568
 2648SOL    HW1 8843   3.019   0.719   2.588
 2648SOL    HW2 8844   3.069   0.576   2.649
 2649SOL     OW 8845   3.643   2.468   5.733
 2649SOL    HW1 8846   3.579   2.541   5.757
 2649SOL    HW2 8847   3.650   2.403   5.809
 2650SOL     OW 8848   0.253   6.302   1.824
 2650SOL    HW1 8849   0.283   6.245   1.747
 2650SOL    HW2 8850   0.333   6.331   1.877
 2651SOL     OW 8851   0.925   0.146   3.756
 2651SOL    HW1 8852   0.915   0.239   3.793
 2651SOL    HW2 8853   0.946   0.152   3.658
 2652SOL     OW 8854   3.149   3.455   2.534
 2652SOL    HW1 8855   3.217   3.413   2.474
 2652SOL    HW2 8856   3.195   3.490   2.616
 2653SOL     OW 8857   6.746   5.691   6.164
 2653SOL    HW1 8858   6.727   5.597   6.195
 2653SOL    HW2 8859   6.817   5.731   6.222
 2654SOL     OW 8860   5.479   2.245   6.018
 2654SOL    HW1 8861   5.408   2.211   6.079
 2654SOL    HW2 8862   5.529   2.168   5.978
 2655SOL     OW 8863   5.231   5.940   4.804
 2655SOL    HW1 8864   5.301   5.954   4.734
 2655SOL    HW2 8865   5.142   5.970   4.768
 2656SOL     OW 8866   5.595   3.626   3.898
 2656SOL    HW1 8867   5.687   3.618   3.859
 2656SOL    HW2 8868   5.595   3.695   3.970
 2657SOL     OW 8869   2.340   2.341   5.690
 2657SOL    HW1 8870   2.402   2.391   5.750
 2657SOL    HW2 8871   2.335   2.386   5.601
 2658SOL     OW 8872   5.948   4.468   5.588
 2658SOL    HW1 8873   5.904   4.407   5.655
 2658SOL    HW2 8874   6.035   4.429   5.560
 2659SOL     OW 8875   6.617   2.632   3.156
 2659SOL    HW1 8876   6.545   2.568   3.129
 2659SOL    HW2 8877   6.706   2.597   3.128
 2660SOL     OW 8878   6.602   1.983   3.236
 2660SOL    HW1 8879   6.635   2.048   3.168
 2660SOL    HW2 8880   6.530   2.026   3.291
 2661SOL     OW 8881   4.642   6.044   1.290
 2661SOL    HW1 8882   4.664   6.065   1.195
 2661SOL    HW2 8883   4.643   6.128   1.344
 2662SOL     OW 8884   3.515   6.929   3.792
 2662SOL    HW1 8885   3.493   7.008   3.848
 2662SOL    HW2 8886   3.588   6.876   3.835
 2663SOL     OW 8887   0.877   4.432   2.640
 2663SOL    HW1 8888   0.933   4.452   2.559
 2663SOL    HW2 8889   0.937   4.410   2.717
 2664SOL     OW 8890   4.208   3.588   1.852
 2664SOL    HW1 8891   4.189   3.633   1.940
 2664SOL    HW2 8892   4.186   3.651   1.777
 2665SOL     OW 8893   3.858   0.966   4.317
 2665SOL    HW1 8894   3.787   0.950   4.248
 2665SOL    HW2 8895   3.829   0.925   4.404
 2666SOL     OW 8896   5.476   6.145   1.493
 2666SOL    HW1 8897   5.504   6.134   1.398
 2666SOL    HW2 8898   5.556   6.149   1.552
 2667SOL     OW 8899   1.498   5.025   3.765
 2667SOL    HW1 8900   1.537   5.014   3.673
 2667SOL    HW2 8901   1.547   5.098   3.813
 2668SOL     OW 8902   0.361   2.390   6.007
 2668SOL    HW1 8903   0.324   2.437   6.087
 2668SOL    HW2 8904   0.357   2.451   5.928
 2669SOL     OW 8905   4.381   4.876   5.754
 2669SOL    HW1 8906   4.369   4.778   5.771
 2669SOL    HW2 8907   4.423   4.889   5.664
 2670SOL     OW 8908   1.492   0.453   6.432
 2670SOL    HW1 8909   1.461   0.390   6.361
 2670SOL    HW2 8910   1.582   0.425   6.464
 2671SOL     OW 8911   2.854   3.740   5.716
 2671SOL    HW1 8912   2.939   3.697   5.747
 2671SOL    HW2 8913   2.876   3.825   5.667
 2672SOL     OW 8914   0.419   4.439   0.627
 2672SOL    HW1 8915   0.492   4.374   0.648
 2672SOL    HW2 8916   0.446   4.530   0.658
 2673SOL     OW 8917   4.801   1.947   3.242
 2673SOL    HW1 8918   4.775   2.022   3.181
 2673SOL    HW2 8919   4.721   1.889   3.258
 2674SOL     OW 8920   5.076   5.425   5.532
 2674SOL    HW1 8921   5.006   5.481   5.488
 2674SOL    HW2 8922   5.130   5.482   5.594
 2675SOL     OW 8923   0.340   3.693   5.750
 2675SOL    HW1 8924   0.261   3.753   5.738
 2675SOL    HW2 8925   0.424   3.747   5.749
 2676SOL     OW 8926   4.285   0.230   2.002
 2676SOL    HW1 8927   4.221   0.266   1.934
 2676SOL    HW2 8928   4.273   0.131   2.010
 2677SOL     OW 8929   2.453   4.767   2.276
 2677SOL    HW1 8930   2.458   4.827   2.356
 2677SOL    HW2 8931   2.466   4.822   2.193
 2678SOL     OW 8932   0.367   5.157   6.398
 2678SOL    HW1 8933   0.404   5.065   6.383
 2678SOL    HW2 8934   0.325   5.161   6.489
 2679SOL     OW 8935   2.537   4.273   1.019
 2679SOL    HW1 8936   2.483   4.233   1.093
 2679SOL    HW2 8937   2.501   4.364   0.998
 2680SOL     OW 8938   0.880   2.125   1.680
 2680SOL    HW1 8939   0.925   2.069   1.750
 2680SOL    HW2 8940   0.842   2.065   1.610
 2681SOL     OW 8941   1.270   1.558   2.745
 2681SOL    HW1 8942   1.297   1.491   2.676
 2681SOL    HW2 8943   1.295   1.650   2.714
 2682SOL     OW 8944   6.294   2.545   3.531
 2682SOL    HW1 8945   6.393   2.556   3.518
 2682SOL    HW2 8946   6.246   2.621   3.487
 2683SOL     OW 8947   1.238   0.134   1.600
 2683SOL    HW1 8948   1.235   0.041   1.565
 2683SOL    HW2 8949   1.185   0.194   1.540
 2684SOL     OW 8950   2.745   6.003   3.233
 2684SOL    HW1 8951   2.757   6.030   3.328
 2684SOL    HW2 8952   2.730   5.904   3.227
 2685SOL     OW 8953   5.386   5.829   5.314
 2685SOL    HW1 8954   5.298   5.832   5.360
 2685SOL    HW2 8955   5.372   5.837   5.215
 2686SOL     OW 8956   1.619   2.798   4.172
 2686SOL    HW1 8957   1.681   2.829   4.100
 2686SOL    HW2 8958   1.574   2.714   4.144
 2687SOL     OW 8959   5.066   5.519   3.053
 2687SOL    HW1 8960   5.068   5.424   3.085
 2687SOL    HW2 8961   4.981   5.536   3.004
 2688SOL     OW 8962   3.804   5.080   6.253
 2688SOL    HW1 8963   3.770   4.993   6.287
 2688SOL    HW2 8964   3.904   5.079   6.253
 2689SOL     OW 8965   6.508   2.982   4.274
 2689SOL    HW1 8966   6.588   3.018   4.226
 2689SOL    HW2 8967   6.463   2.912   4.219
 2690SOL     OW 8968   3.211   3.639   3.640
 2690SOL    HW1 8969   3.143   3.566   3.631
 2690SOL    HW2 8970   3.247   3.639   3.733
 2691SOL     OW 8971   1.022   5.937   1.614
 2691SOL    HW1 8972   1.015   5.944   1.514
 2691SOL    HW2 8973   1.045   6.027   1.651
 2692SOL     OW 8974   7.005   6.126   3.287
 2692SOL    HW1 8975   6.951   6.080   3.217
 2692SOL    HW2 8976   7.010   6.224   3.266
 2693SOL     OW 8977   1.812   3.896   3.261
 2693SOL    HW1 8978   1.820   3.797   3.252
 2693SOL    HW2 8979   1.847   3.940   3.179
 2694SOL     OW 8980   2.513   6.894   3.547
 2694SOL    HW1 8981   2.554   6.952   3.618
 2694SOL    HW2 8982   2.585   6.852   3.493
 2695SOL     OW 8983   3.812   2.114   2.904
 2695SOL    HW1 8984   3.753   2.108   2.823
 2695SOL    HW2 8985   3.889   2.175   2.885
 2696SOL     OW 8986   3.798   3.878   5.476
 2696SOL    HW1 8987   3.813   3.953   5.412
 2696SOL    HW2 8988   3.716   3.826   5.449
 2697SOL     OW 8989   2.436   2.329   4.747
 2697SOL    HW1 8990   2.351   2.374   4.719
 2697SOL    HW2 8991   2.449   2.342   4.845
 2698SOL     OW 8992   2.106   3.597   0.015
 2698SOL    HW1 8993   2.150   3.554   6.960
 2698SOL    HW2 8994   2.147   3.561   0.099
 2699SOL     OW 8995   3.889   5.848   1.622
 2699SOL    HW1 8996   3.854   5.783   1.555
 2699SOL    HW2 8997   3.833   5.845   1.705
 2700SOL     OW 8998   1.979   3.690   2.917
 2700SOL    HW1 8999   2.009   3.596   2.902
 2700SOL    HW2 9000   1.880   3.692   2.933
 2701SOL     OW 9001   2.933   6.863   6.233
 2701SOL    HW1 9002   2.975   6.795   6.293
 2701SOL    HW2 9003   2.900   6.819   6.150
 2702SOL     OW 9004   0.168   0.118   2.815
 2702SOL    HW1 9005   0.091   0.164   2.860
 2702SOL    HW2 9006   0.227   0.077   2.884
 2703SOL     OW 9007   1.914   1.330   2.867
 2703SOL    HW1 9008   1.977   1.274   2.920
 2703SOL    HW2 9009   1.823   1.288   2.868
 2704SOL     OW 9010   1.934   5.573   0.529
 2704SOL    HW1 9011   1.870   5.505   0.565
 2704SOL    HW2 9012   1.900   5.608   0.442
 2705SOL     OW 9013   0.527   4.866   2.939
 2705SOL    HW1 9014   0.564   4.915   3.018
 2705SOL    HW2 9015   0.585   4.786   2.919
 2706SOL     OW 9016   0.195   2.131   1.959
 2706SOL    HW1 9017   0.277   2.144   1.903
 2706SOL    HW2 9018   0.133   2.068   1.912
 2707SOL     OW 9019   2.046   1.403   5.702
 2707SOL    HW1 9020   2.123   1.341   5.687
 2707SOL    HW2 9021   2.074   1.478   5.761
 2708SOL     OW 9022   1.934   2.413   1.048
 2708SOL    HW1 9023   1.916   2.323   1.007
 2708SOL    HW2 9024   2.023   2.446   1.018
 2709SOL     OW 9025   4.610   6.649   1.241
 2709SOL    HW1 9026   4.527   6.617   1.287
 2709SOL    HW2 9027   4.600   6.635   1.142
 2710SOL     OW 9028   5.479   3.994   2.500
 2710SOL    HW1 9029   5.381   3.995   2.520
 2710SOL    HW2 9030   5.500   3.920   2.436
 2711SOL     OW 9031   1.315   0.423   1.957
 2711SOL    HW1 9032   1.396   0.376   1.992
 2711SOL    HW2 9033   1.233   0.381   1.995
 2712SOL     OW 9034   3.125   4.777   0.667
 2712SOL    HW1 9035   3.159   4.856   0.718
 2712SOL    HW2 9036   3.089   4.709   0.731
 2713SOL     OW 9037   2.167   3.089   4.881
 2713SOL    HW1 9038   2.224   3.034   4.942
 2713SOL    HW2 9039   2.200   3.079   4.787
 2714SOL     OW 9040   5.103   0.100   5.417
 2714SOL    HW1 9041   5.034   0.039   5.379
 2714SOL    HW2 9042   5.178   0.111   5.351
 2715SOL     OW 9043   6.912   0.823   7.020
 2715SOL    HW1 9044   6.830   0.841   0.049
 2715SOL    HW2 9045   6.919   0.726   6.999
 2716SOL     OW 9046   0.158   6.794   2.402
 2716SOL    HW1 9047   0.093   6.767   2.474
 2716SOL    HW2 9048   0.164   6.893   2.398
 2717SOL     OW 9049   1.376   0.513   2.946
 2717SOL    HW1 9050   1.298   0.453   2.928
 2717SOL    HW2 9051   1.447   0.462   2.993
 2718SOL     OW 9052   1.634   4.579   3.516
 2718SOL    HW1 9053   1.703   4.570   3.587
 2718SOL    HW2 9054   1.673   4.550   3.428
 2719SOL     OW 9055   4.101   5.154   1.786
 2719SOL    HW1 9056   4.009   5.190   1.799
 2719SOL    HW2 9057   4.099   5.078   1.722
 2720SOL     OW 9058   1.113   5.930   4.355
 2720SOL    HW1 9059   1.069   5.845   4.326
 2720SOL    HW2 9060   1.062   5.971   4.431
 2721SOL     OW 9061   4.600   0.453   4.250
 2721SOL    HW1 9062   4.680   0.435   4.192
 2721SOL    HW2 9063   4.601   0.391   4.328
 2722SOL     OW 9064   1.659   5.836   1.778
 2722SOL    HW1 9065   1.661   5.839   1.878
 2722SOL    HW2 9066   1.569   5.802   1.748
 2723SOL     OW 9067   1.080   1.328   5.024
 2723SOL    HW1 9068   1.088   1.230   5.043
 2723SOL    HW2 9069   0.985   1.356   5.035
 2724SOL     OW 9070   3.680   5.530   6.202
 2724SOL    HW1 9071   3.594   5.536   6.252
 2724SOL    HW2 9072   3.748   5.482   6.257
 2725SOL     OW 9073   3.279   5.251   3.063
 2725SOL    HW1 9074   3.184   5.270   3.089
 2725SOL    HW2 9075   3.314   5.175   3.117
 2726SOL     OW 9076   5.093   5.702   1.956
 2726SOL    HW1 9077   5.010   5.696   1.901
 2726SOL    HW2 9078   5.137   5.791   1.941
 2727SOL     OW 9079   2.253   5.186   3.090
 2727SOL    HW1 9080   2.201   5.267   3.061
 2727SOL    HW2 9081   2.211   5.147   3.172
 2728SOL     OW 9082   3.366   0.254   5.909
 2728SOL    HW1 9083   3.299   0.245   5.835
 2728SOL    HW2 9084   3.437   0.185   5.897
 2729SOL     OW 9085   6.155   5.172   2.933
 2729SOL    HW1 9086   6.132   5.259   2.977
 2729SOL    HW2 9087   6.145   5.181   2.834
 2730SOL     OW 9088   2.001   4.633   1.376
 2730SOL    HW1 9089   1.959   4.571   1.309
 2730SOL    HW2 9090   2.029   4.581   1.457
 2731SOL     OW 9091   3.041   3.810   1.649
 2731SOL    HW1 9092   3.068   3.723   1.690
 2731SOL    HW2 9093   3.031   3.879   1.720
 2732SOL     OW 9094   5.794   1.990   3.076
 2732SOL    HW1 9095   5.762   1.992   3.171
 2732SOL    HW2 9096   5.894   1.986   3.075
 2733SOL     OW 9097   1.424   0.528   5.581
 2733SOL    HW1 9098   1.509   0.497   5.538
 2733SOL    HW2 9099   1.418   0.490   5.673
 2734SOL     OW 9100   2.515   5.980   4.203
 2734SOL    HW1 9101   2.475   5.909   4.144
 2734SOL    HW2 9102   2.613   5.984   4.189
 2735SOL     OW 9103   1.822   4.298   2.106
 2735SOL    HW1 9104   1.919   4.290   2.130
 2735SOL    HW2 9105   1.793   4.219   2.053
 2736SOL     OW 9106   4.150   0.318   5.658
 2736SOL    HW1 9107   4.173   0.247   5.592
 2736SOL    HW2 9108   4.219   0.390   5.655
 2737SOL     OW 9109   4.440   3.328   5.947
 2737SOL    HW1 9110   4.431   3.240   5.900
 2737SOL    HW2 9111   4.504   3.387   5.897
 2738SOL     OW 9112   5.478   4.973   3.973
 2738SOL    HW1 9113   5.476   4.946   3.877
 2738SOL    HW2 9114   5.385   4.979   4.008
 2739SOL     OW 9115   6.138   3.514   1.192
 2739SOL    HW1 9116   6.067   3.547   1.130
 2739SOL    HW2 9117   6.120   3.550   1.284
 2740SOL     OW 9118   6.128   2.186   2.854
 2740SOL    HW1 9119   6.100   2.117   2.787
 2740SOL    HW2 9120   6.227   2.181   2.867
 2741SOL     OW 9121   0.910   2.435   6.188
 2741SOL    HW1 9122   0.850   2.396   6.118
 2741SOL    HW2 9123   0.856   2.459   6.268
 2742SOL     OW 9124   1.911   6.559   6.153
 2742SOL    HW1 9125   2.004   6.524   6.163
 2742SOL    HW2 9126   1.914   6.657   6.134
 2743SOL     OW 9127   5.173   4.833   0.819
 2743SOL    HW1 9128   5.252   4.880   0.859
 2743SOL    HW2 9129   5.204   4.774   0.744
 2744SOL     OW 9130   3.817   1.202   6.531
 2744SOL    HW1 9131   3.726   1.235   6.558
 2744SOL    HW2 9132   3.878   1.204   6.610
 2745SOL     OW 9133   2.190   5.868   0.682
 2745SOL    HW1 9134   2.270   5.817   0.715
 2745SOL    HW2 9135   2.176   5.949   0.740
 2746SOL     OW 9136   1.506   1.906   6.314
 2746SOL    HW1 9137   1.420   1.953   6.298
 2746SOL    HW2 9138   1.577   1.973   6.336
 2747SOL     OW 9139   5.116   5.784   4.105
 2747SOL    HW1 9140   5.192   5.844   4.129
 2747SOL    HW2 9141   5.085   5.804   4.012
 2748SOL     OW 9142   4.204   1.624   4.141
 2748SOL    HW1 9143   4.204   1.524   4.153
 2748SOL    HW2 9144   4.176   1.668   4.226
 2749SOL     OW 9145   4.441   5.311   4.257
 2749SOL    HW1 9146   4.443   5.408   4.235
 2749SOL    HW2 9147   4.448   5.258   4.172
 2750SOL     OW 9148   0.894   6.000   1.951
 2750SOL    HW1 9149   0.839   5.927   1.910
 2750SOL    HW2 9150   0.918   6.067   1.881
 2751SOL     OW 9151   0.993   6.869   6.839
 2751SOL    HW1 9152   1.034   6.779   6.856
 2751SOL    HW2 9153   1.041   6.938   6.894
 2752SOL     OW 9154   6.247   6.193   5.547
 2752SOL    HW1 9155   6.258   6.107   5.597
 2752SOL    HW2 9156   6.267   6.270   5.608
 2753SOL     OW 9157   2.757   5.703   5.067
 2753SOL    HW1 9158   2.783   5.788   5.022
 2753SOL    HW2 9159   2.695   5.723   5.142
 2754SOL     OW 9160   1.026   6.185   4.499
 2754SOL    HW1 9161   0.952   6.234   4.544
 2754SOL    HW2 9162   1.103   6.176   4.563
 2755SOL     OW 9163   4.006   6.256   2.194
 2755SOL    HW1 9164   3.971   6.288   2.281
 2755SOL    HW2 9165   4.006   6.156   2.192
 2756SOL     OW 9166   0.405   2.711   5.361
 2756SOL    HW1 9167   0.342   2.644   5.400
 2756SOL    HW2 9168   0.494   2.667   5.346
 2757SOL     OW 9169   3.925   3.194   6.713
 2757SOL    HW1 9170   3.938   3.287   6.748
 2757SOL    HW2 9171   4.002   3.137   6.741
 2758SOL     OW 9172   0.047   6.460   1.738
 2758SOL    HW1 9173   0.107   6.387   1.772
 2758SOL    HW2 9174   0.075   6.547   1.778
 2759SOL     OW 9175   3.768   3.516   6.207
 2759SOL    HW1 9176   3.781   3.425   6.166
 2759SOL    HW2 9177   3.856   3.550   6.241
 2760SOL     OW 9178   5.752   6.206   2.889
 2760SOL    HW1 9179   5.755   6.254   2.977
 2760SOL    HW2 9180   5.795   6.263   2.819
 2761SOL     OW 9181   0.895   2.597   3.493
 2761SOL    HW1 9182   0.867   2.501   3.490
 2761SOL    HW2 9183   0.987   2.604   3.530
 2762SOL     OW 9184   2.850   2.562   0.570
 2762SOL    HW1 9185   2.827   2.488   0.632
 2762SOL    HW2 9186   2.783   2.567   0.497
 2763SOL     OW 9187   6.668   1.967   4.163
 2763SOL    HW1 9188   6.701   1.879   4.198
 2763SOL    HW2 9189   6.745   2.028   4.148
 2764SOL     OW 9190   0.570   2.877   2.598
 2764SOL    HW1 9191   0.657   2.909   2.563
 2764SOL    HW2 9192   0.523   2.823   2.528
 2765SOL     OW 9193   6.295   6.772   6.482
 2765SOL    HW1 9194   6.348   6.690   6.503
 2765SOL    HW2 9195   6.198   6.753   6.495
 2766SOL     OW 9196   4.543   0.163   0.319
 2766SOL    HW1 9197   4.601   0.126   0.392
 2766SOL    HW2 9198   4.514   0.256   0.343
 2767SOL     OW 9199   0.311   5.140   6.652
 2767SOL    HW1 9200   0.294   5.217   6.713
 2767SOL    HW2 9201   0.276   5.056   6.695
 2768SOL     OW 9202   3.744   6.559   1.637
 2768SOL    HW1 9203   3.711   6.653   1.624
 2768SOL    HW2 9204   3.768   6.520   1.548
 2769SOL     OW 9205   0.745   4.569   5.711
 2769SOL    HW1 9206   0.770   4.536   5.620
 2769SOL    HW2 9207   0.671   4.636   5.703
 2770SOL     OW 9208   2.629   6.148   0.932
 2770SOL    HW1 9209   2.602   6.139   0.837
 2770SOL    HW2 9210   2.583   6.078   0.987
 2771SOL     OW 9211   4.685   0.076   4.835
 2771SOL    HW1 9212   4.784   0.087   4.845
 2771SOL    HW2 9213   4.663   0.054   4.740
 2772SOL     OW 9214   4.491   0.891   3.688
 2772SOL    HW1 9215   4.541   0.849   3.764
 2772SOL    HW2 9216   4.549   0.890   3.606
 2773SOL     OW 9217   5.730   2.537   5.069
 2773SOL    HW1 9218   5.674   2.459   5.041
 2773SOL    HW2 9219   5.778   2.515   5.154
 2774SOL     OW 9220   5.864   2.073   4.196
 2774SOL    HW1 9221   5.947   2.020   4.210
 2774SOL    HW2 9222   5.807   2.029   4.126
 2775SOL     OW 9223   0.129   3.443   3.979
 2775SOL    HW1 9224   0.164   3.416   4.069
 2775SOL    HW2 9225   0.201   3.492   3.929
 2776SOL     OW 9226   4.884   5.246   5.941
 2776SOL    HW1 9227   4.980   5.272   5.957
 2776SOL    HW2 9228   4.868   5.155   5.978
 2777SOL     OW 9229   2.356   2.222   6.508
 2777SOL    HW1 9230   2.353   2.283   6.587
 2777SOL    HW2 9231   2.266   2.179   6.496
 2778SOL     OW 9232   2.469   0.632   6.070
 2778SOL    HW1 9233   2.391   0.651   6.010
 2778SOL    HW2 9234   2.476   0.703   6.139
 2779SOL     OW 9235   4.725   0.916   1.289
 2779SOL    HW1 9236   4.672   0.999   1.306
 2779SOL    HW2 9237   4.797   0.936   1.222
 2780SOL     OW 9238   6.930   1.419   5.167
 2780SOL    HW1 9239   6.959   1.443   5.260
 2780SOL    HW2 9240   6.955   1.491   5.104
 2781SOL     OW 9241   5.246   1.119   3.373
 2781SOL    HW1 9242   5.170   1.148   3.432
 2781SOL    HW2 9243   5.312   1.067   3.428
 2782SOL     OW 9244   5.258   1.026   6.438
 2782SOL    HW1 9245   5.236   1.122   6.421
 2782SOL    HW2 9246   5.356   1.011   6.423
 2783SOL     OW 9247   5.642   3.761   1.920
 2783SOL    HW1 9248   5.587   3.681   1.899
 2783SOL    HW2 9249   5.735   3.733   1.946
 2784SOL     OW 9250   1.180   2.883   1.126
 2784SOL    HW1 9251   1.225   2.931   1.050
 2784SOL    HW2 9252   1.177   2.785   1.107
 2785SOL     OW 9253   6.142   3.353   2.487
 2785SOL    HW1 9254   6.241   3.344   2.498
 2785SOL    HW2 9255   6.096   3.304   2.560
 2786SOL     OW 9256   0.531   5.914   6.153
 2786SOL    HW1 9257   0.534   6.007   6.191
 2786SOL    HW2 9258   0.539   5.920   6.053
 2787SOL     OW 9259   6.957   5.340   6.942
 2787SOL    HW1 9260   6.898   5.281   6.997
 2787SOL    HW2 9261   6.928   5.337   6.846
 2788SOL     OW 9262   2.808   0.075   6.311
 2788SOL    HW1 9263   2.709   0.063   6.304
 2788SOL    HW2 9264   2.854   7.014   6.290
 2789SOL     OW 9265   0.838   1.877   4.889
 2789SOL    HW1 9266   0.765   1.932   4.929
 2789SOL    HW2 9267   0.876   1.925   4.810
 2790SOL     OW 9268   1.347   5.393   2.409
 2790SOL    HW1 9269   1.266   5.451   2.418
 2790SOL    HW2 9270   1.322   5.297   2.423
 2791SOL     OW 9271   0.828   3.215   3.335
 2791SOL    HW1 9272   0.796   3.170   3.252
 2791SOL    HW2 9273   0.774   3.182   3.413
 2792SOL     OW 9274   3.493   1.703   5.763
 2792SOL    HW1 9275   3.568   1.771   5.761
 2792SOL    HW2 9276   3.445   1.706   5.675
 2793SOL     OW 9277   3.657   3.727   0.756
 2793SOL    HW1 9278   3.586   3.675   0.804
 2793SOL    HW2 9279   3.699   3.669   0.687
 2794SOL     OW 9280   0.870   2.313   6.784
 2794SOL    HW1 9281   0.872   2.402   6.831
 2794SOL    HW2 9282   0.962   2.292   6.749
 2795SOL     OW 9283   1.063   6.267   1.413
 2795SOL    HW1 9284   1.095   6.361   1.399
 2795SOL    HW2 9285   0.969   6.258   1.381
 2796SOL     OW 9286   2.031   5.772   6.338
 2796SOL    HW1 9287   2.001   5.851   6.284
 2796SOL    HW2 9288   2.048   5.801   6.432
 2797SOL     OW 9289   5.104   4.980   3.384
 2797SOL    HW1 9290   5.153   5.056   3.341
 2797SOL    HW2 9291   5.075   5.007   3.476
 2798SOL     OW 9292   5.456   1.370   1.390
 2798SOL    HW1 9293   5.478   1.464   1.365
 2798SOL    HW2 9294   5.436   1.317   1.308
 2799SOL     OW 9295   3.723   6.546   4.426
 2799SOL    HW1 9296   3.668   6.462   4.434
 2799SOL    HW2 9297   3.705   6.604   4.506
 2800SOL     OW 9298   5.940   0.305   6.184
 2800SOL    HW1 9299   5.859   0.347   6.143
 2800SOL    HW2 9300   6.003   0.276   6.112
 2801SOL     OW 9301   7.012   4.528   4.126
 2801SOL    HW1 9302   0.069   4.584   4.138
 2801SOL    HW2 9303   6.934   4.587   4.105
 2802SOL     OW 9304   1.760   4.967   5.469
 2802SOL    HW1 9305   1.700   4.904   5.519
 2802SOL    HW2 9306   1.768   5.053   5.519
 2803SOL     OW 9307   3.636   2.212   6.265
 2803SOL    HW1 9308   3.664   2.306   6.285
 2803SOL    HW2 9309   3.693   2.148   6.318
 2804SOL     OW 9310   6.975   2.851   3.828
 2804SOL    HW1 9311   0.011   2.790   3.777
 2804SOL    HW2 9312   6.882   2.845   3.791
 2805SOL     OW 9313   3.310   3.162   0.788
 2805SOL    HW1 9314   3.349   3.195   0.875
 2805SOL    HW2 9315   3.212   3.148   0.799
 2806SOL     OW 9316   0.234   3.031   6.014
 2806SOL    HW1 9317   0.296   3.089   5.962
 2806SOL    HW2 9318   0.142   3.038   5.977
 2807SOL     OW 9319   4.090   1.410   3.706
 2807SOL    HW1 9320   4.083   1.496   3.756
 2807SOL    HW2 9321   4.104   1.334   3.770
 2808SOL     OW 9322   0.366   4.615   5.513
 2808SOL    HW1 9323   0.404   4.681   5.577
 2808SOL    HW2 9324   0.318   4.663   5.440
 2809SOL     OW 9325   0.360   5.343   2.100
 2809SOL    HW1 9326   0.312   5.428   2.080
 2809SOL    HW2 9327   0.437   5.361   2.161
 2810SOL     OW 9328   2.294   6.534   2.963
 2810SOL    HW1 9329   2.296   6.573   3.055
 2810SOL    HW2 9330   2.369   6.468   2.954
 2811SOL     OW 9331   0.987   1.142   0.920
 2811SOL    HW1 9332   0.943   1.179   0.838
 2811SOL    HW2 9333   1.043   1.063   0.893
 2812SOL     OW 9334   0.926   1.475   0.792
 2812SOL    HW1 9335   0.869   1.393   0.796
 2812SOL    HW2 9336   1.015   1.456   0.832
 2813SOL     OW 9337   0.617   3.473   2.030
 2813SOL    HW1 9338   0.672   3.466   1.946
 2813SOL    HW2 9339   0.539   3.411   2.025
 2814SOL     OW 9340   2.921   3.993   6.956
 2814SOL    HW1 9341   2.987   4.064   6.979
 2814SOL    HW2 9342   2.860   3.978   0.009
 2815SOL     OW 9343   0.335   4.785   4.628
 2815SOL    HW1 9344   0.360   4.855   4.695
 2815SOL    HW2 9345   0.245   4.806   4.590
 2816SOL     OW 9346   0.552   5.909   5.347
 2816SOL    HW1 9347   0.638   5.872   5.383
 2816SOL    HW2 9348   0.540   6.003   5.381
 2817SOL     OW 9349   3.244   0.757   2.128
 2817SOL    HW1 9350   3.260   0.843   2.177
 2817SOL    HW2 9351   3.183   0.699   2.181
 2818SOL     OW 9352   2.081   0.457   0.631
 2818SOL    HW1 9353   2.036   0.396   0.565
 2818SOL    HW2 9354   2.175   0.473   0.601
 2819SOL     OW 9355   0.809   0.318   6.475
 2819SOL    HW1 9356   0.872   0.391   6.447
 2819SOL    HW2 9357   0.824   0.237   6.420
 2820SOL     OW 9358   1.584   2.159   7.007
 2820SOL    HW1 9359   1.525   2.158   6.926
 2820SOL    HW2 9360   1.582   2.250   0.023
 2821SOL     OW 9361   3.429   3.548   6.121
 2821SOL    HW1 9362   3.411   3.613   6.047
 2821SOL    HW2 9363   3.521   3.563   6.157
 2822SOL     OW 9364   4.748   2.887   0.009
 2822SOL    HW1 9365   4.698   2.973   0.014
 2822SOL    HW2 9366   4.833   2.900   6.983
 2823SOL     OW 9367   4.753   2.777   1.387
 2823SOL    HW1 9368   4.828   2.819   1.438
 2823SOL    HW2 9369   4.752   2.678   1.404
 2824SOL     OW 9370   1.012   4.218   4.394
 2824SOL    HW1 9371   0.948   4.141   4.396
 2824SOL    HW2 9372   1.088   4.200   4.456
 2825SOL     OW 9373   5.333   1.480   6.463
 2825SOL    HW1 9374   5.277   1.554   6.501
 2825SOL    HW2 9375   5.387   1.438   6.537
 2826SOL     OW 9376   2.430   2.959   6.420
 2826SOL    HW1 9377   2.348   2.904   6.405
 2826SOL    HW2 9378   2.435   2.987   6.516
 2827SOL     OW 9379   6.145   1.600   6.534
 2827SOL    HW1 9380   6.194   1.557   6.609
 2827SOL    HW2 9381   6.096   1.530   6.481
 2828SOL     OW 9382   1.569   3.443   1.240
 2828SOL    HW1 9383   1.660   3.434   1.200
 2828SOL    HW2 9384   1.552   3.365   1.301
 2829SOL     OW 9385   3.279   3.570   2.105
 2829SOL    HW1 9386   3.371   3.558   2.067
 2829SOL    HW2 9387   3.287   3.604   2.199
 2830SOL     OW 9388   3.338   6.176   5.004
 2830SOL    HW1 9389   3.388   6.100   4.962
 2830SOL    HW2 9390   3.397   6.220   5.072
 2831SOL     OW 9391   5.821   1.743   1.587
 2831SOL    HW1 9392   5.830   1.666   1.650
 2831SOL    HW2 9393   5.737   1.733   1.534
 2832SOL     OW 9394   0.716   3.811   2.303
 2832SOL    HW1 9395   0.674   3.730   2.262
 2832SOL    HW2 9396   0.668   3.834   2.387
 2833SOL     OW 9397   1.348   2.341   2.291
 2833SOL    HW1 9398   1.442   2.309   2.295
 2833SOL    HW2 9399   1.343   2.435   2.324
 2834SOL     OW 9400   3.654   6.686   4.695
 2834SOL    HW1 9401   3.716   6.761   4.719
 2834SOL    HW2 9402   3.648   6.623   4.773
 2835SOL     OW 9403   6.320   0.554   6.742
 2835SOL    HW1 9404   6.276   0.644   6.748
 2835SOL    HW2 9405   6.326   0.513   6.833
 2836SOL     OW 9406   3.035   6.110   2.581
 2836SOL    HW1 9407   3.110   6.173   2.559
 2836SOL    HW2 9408   3.051   6.023   2.535
 2837SOL     OW 9409   4.886   4.440   1.391
 2837SOL    HW1 9410   4.985   4.429   1.381
 2837SOL    HW2 9411   4.840   4.356   1.359
 2838SOL     OW 9412   6.562   4.399   6.360
 2838SOL    HW1 9413   6.631   4.330   6.338
 2838SOL    HW2 9414   6.471   4.358   6.350
 2839SOL     OW 9415   6.020   3.513   5.198
 2839SOL    HW1 9416   6.070   3.430   5.172
 2839SOL    HW2 9417   5.977   3.553   5.118
 2840SOL     OW 9418   6.619   6.602   4.465
 2840SOL    HW1 9419   6.533   6.589   4.513
 2840SOL    HW2 9420   6.662   6.514   4.447
 2841SOL     OW 9421   5.651   4.208   2.458
 2841SOL    HW1 9422   5.582   4.137   2.470
 2841SOL    HW2 9423   5.620   4.292   2.502
 2842SOL     OW 9424   0.928   0.578   3.650
 2842SOL    HW1 9425   1.019   0.605   3.618
 2842SOL    HW2 9426   0.859   0.630   3.601
 2843SOL     OW 9427   2.241   2.535   3.368
 2843SOL    HW1 9428   2.176   2.597   3.324
 2843SOL    HW2 9429   2.204   2.442   3.367
 2844SOL     OW 9430   5.005   3.669   0.414
 2844SOL    HW1 9431   5.035   3.581   0.452
 2844SOL    HW2 9432   4.923   3.700   0.463
 2845SOL     OW 9433   3.030   1.618   2.244
 2845SOL    HW1 9434   3.019   1.711   2.209
 2845SOL    HW2 9435   2.979   1.607   2.329
 2846SOL     OW 9436   6.941   0.091   6.541
 2846SOL    HW1 9437   6.881   0.113   6.618
 2846SOL    HW2 9438   6.988   0.174   6.510
 2847SOL     OW 9439   4.757   5.016   1.281
 2847SOL    HW1 9440   4.798   5.011   1.372
 2847SOL    HW2 9441   4.829   5.019   1.212
 2848SOL     OW 9442   1.090   4.057   5.405
 2848SOL    HW1 9443   1.183   4.064   5.368
 2848SOL    HW2 9444   1.067   3.960   5.418
 2849SOL     OW 9445   5.362   0.664   1.820
 2849SOL    HW1 9446   5.269   0.701   1.823
 2849SOL    HW2 9447   5.387   0.643   1.725
 2850SOL     OW 9448   1.156   1.022   2.270
 2850SOL    HW1 9449   1.155   0.954   2.196
 2850SOL    HW2 9450   1.229   1.000   2.335
 2851SOL     OW 9451   3.336   3.353   1.501
 2851SOL    HW1 9452   3.318   3.397   1.413
 2851SOL    HW2 9453   3.365   3.421   1.567
 2852SOL     OW 9454   6.807   4.218   5.857
 2852SOL    HW1 9455   6.827   4.124   5.827
 2852SOL    HW2 9456   6.877   4.280   5.820
 2853SOL     OW 9457   0.202   4.050   5.650
 2853SOL    HW1 9458   0.205   4.010   5.559
 2853SOL    HW2 9459   0.117   4.024   5.696
 2854SOL     OW 9460   3.385   0.854   6.085
 2854SOL    HW1 9461   3.442   0.772   6.074
 2854SOL    HW2 9462   3.399   0.892   6.176
 2855SOL     OW 9463   2.344   1.520   4.824
 2855SOL    HW1 9464   2.257   1.532   4.872
 2855SOL    HW2 9465   2.384   1.609   4.804
 2856SOL     OW 9466   0.521   5.752   3.968
 2856SOL    HW1 9467   0.560   5.681   3.909
 2856SOL    HW2 9468   0.440   5.791   3.925
 2857SOL     OW 9469   6.965   4.197   0.821
 2857SOL    HW1 9470   7.017   4.129   0.769
 2857SOL    HW2 9471   6.906   4.151   0.887
 2858SOL     OW 9472   4.541   4.777   2.421
 2858SOL    HW1 9473   4.594   4.692   2.415
 2858SOL    HW2 9474   4.592   4.851   2.379
 2859SOL     OW 9475   5.236   4.643   1.414
 2859SOL    HW1 9476   5.147   4.690   1.419
 2859SOL    HW2 9477   5.239   4.570   1.483
 2860SOL     OW 9478   1.057   0.098   2.450
 2860SOL    HW1 9479   0.994   0.058   2.384
 2860SOL    HW2 9480   1.150   0.069   2.429
 2861SOL     OW 9481   4.525   4.046   5.605
 2861SOL    HW1 9482   4.491   4.059   5.513
 2861SOL    HW2 9483   4.486   4.115   5.666
 2862SOL     OW 9484   4.676   2.634   6.948
 2862SOL    HW1 9485   4.672   2.591   0.014
 2862SOL    HW2 9486   4.697   2.731   6.958
 2863SOL     OW 9487   5.986   1.616   4.997
 2863SOL    HW1 9488   6.034   1.530   5.015
 2863SOL    HW2 9489   5.969   1.664   5.083
 2864SOL     OW 9490   3.529   4.609   0.425
 2864SOL    HW1 9491   3.443   4.613   0.375
 2864SOL    HW2 9492   3.525   4.536   0.493
 2865SOL     OW 9493   5.581   4.950   4.884
 2865SOL    HW1 9494   5.668   4.999   4.895
 2865SOL    HW2 9495   5.578   4.875   4.950
 2866SOL     OW 9496   3.744   4.373   0.468
 2866SOL    HW1 9497   3.837   4.377   0.505
 2866SOL    HW2 9498   3.678   4.393   0.541
 2867SOL     OW 9499   5.707   6.267   2.465
 2867SOL    HW1 9500   5.625   6.284   2.520
 2867SOL    HW2 9501   5.687   6.284   2.369
 2868SOL     OW 9502   0.480   0.281   6.108
 2868SOL    HW1 9503   0.564   0.318   6.068
 2868SOL    HW2 9504   0.402   0.336   6.080
 2869SOL     OW 9505   5.851   5.242   4.275
 2869SOL    HW1 9506   5.878   5.211   4.367
 2869SOL    HW2 9507   5.926   5.292   4.233
 2870SOL     OW 9508   6.813   1.816   2.036
 2870SOL    HW1 9509   6.715   1.811   2.054
 2870SOL    HW2 9510   6.864   1.786   2.116
 2871SOL     OW 9511   4.754   1.620   2.705
 2871SOL    HW1 9512   4.715   1.635   2.614
 2871SOL    HW2 9513   4.725   1.531   2.739
 2872SOL     OW 9514   2.416   1.952   2.603
 2872SOL    HW1 9515   2.447   2.021   2.669
 2872SOL    HW2 9516   2.358   1.996   2.534
 2873SOL     OW 9517   0.729   6.968   1.350
 2873SOL    HW1 9518   0.712   6.873   1.379
 2873SOL    HW2 9519   0.642   7.015   1.336
 2874SOL     OW 9520   2.231   1.285   3.159
 2874SOL    HW1 9521   2.142   1.284   3.205
 2874SOL    HW2 9522   2.290   1.215   3.198
 2875SOL     OW 9523   2.263   6.578   3.220
 2875SOL    HW1 9524   2.349   6.552   3.265
 2875SOL    HW2 9525   2.187   6.526   3.260
 2876SOL     OW 9526   1.600   0.012   1.853
 2876SOL    HW1 9527   1.613   0.103   1.813
 2876SOL    HW2 9528   1.502   7.021   1.868
 2877SOL     OW 9529   1.635   2.465   6.472
 2877SOL    HW1 9530   1.546   2.458   6.428
 2877SOL    HW2 9531   1.685   2.543   6.433
 2878SOL     OW 9532   3.906   3.022   4.138
 2878SOL    HW1 9533   3.979   3.057   4.196
 2878SOL    HW2 9534   3.849   2.959   4.189
 2879SOL     OW 9535   5.375   4.458   0.313
 2879SOL    HW1 9536   5.414   4.549   0.324
 2879SOL    HW2 9537   5.425   4.393   0.371
 2880SOL     OW 9538   2.242   0.962   3.348
 2880SOL    HW1 9539   2.200   1.021   3.417
 2880SOL    HW2 9540   2.209   0.868   3.360
 2881SOL     OW 9541   5.523   6.622   0.334
 2881SOL    HW1 9542   5.425   6.632   0.316
 2881SOL    HW2 9543   5.574   6.691   0.282
 2882SOL     OW 9544   4.570   6.044   6.958
 2882SOL    HW1 9545   4.632   5.976   6.918
 2882SOL    HW2 9546   4.618   6.131   6.967
 2883SOL     OW 9547   5.879   6.689   3.733
 2883SOL    HW1 9548   5.900   6.729   3.822
 2883SOL    HW2 9549   5.806   6.743   3.690
 2884SOL     OW 9550   5.646   5.393   4.154
 2884SOL    HW1 9551   5.606   5.327   4.090
 2884SOL    HW2 9552   5.730   5.354   4.192
 2885SOL     OW 9553   1.237   2.626   3.281
 2885SOL    HW1 9554   1.254   2.587   3.371
 2885SOL    HW2 9555   1.287   2.573   3.212
 2886SOL     OW 9556   2.593   4.203   5.669
 2886SOL    HW1 9557   2.680   4.250   5.683
 2886SOL    HW2 9558   2.608   4.119   5.617
 2887SOL     OW 9559   0.232   5.885   2.935
 2887SOL    HW1 9560   0.252   5.813   2.867
 2887SOL    HW2 9561   0.300   5.882   3.008
 2888SOL     OW 9562   5.752   6.987   6.438
 2888SOL    HW1 9563   5.714   0.016   6.513
 2888SOL    HW2 9564   5.694   6.908   6.421
 2889SOL     OW 9565   3.818   6.221   3.273
 2889SOL    HW1 9566   3.751   6.158   3.313
 2889SOL    HW2 9567   3.882   6.251   3.343
 2890SOL     OW 9568   0.741   2.417   1.287
 2890SOL    HW1 9569   0.658   2.409   1.344
 2890SOL    HW2 9570   0.729   2.490   1.221
 2891SOL     OW 9571   7.009   1.631   5.003
 2891SOL    HW1 9572   0.077   1.669   5.004
 2891SOL    HW2 9573   6.946   1.696   4.961
 2892SOL     OW 9574   5.218   4.078   2.344
 2892SOL    HW1 9575   5.297   4.034   2.303
 2892SOL    HW2 9576   5.242   4.171   2.372
 2893SOL     OW 9577   6.662   5.493   5.173
 2893SOL    HW1 9578   6.639   5.500   5.076
 2893SOL    HW2 9579   6.602   5.553   5.227
 2894SOL     OW 9580   2.031   5.285   2.234
 2894SOL    HW1 9581   2.004   5.302   2.329
 2894SOL    HW2 9582   1.960   5.232   2.188
 2895SOL     OW 9583   4.485   6.981   5.731
 2895SOL    HW1 9584   4.417   6.920   5.772
 2895SOL    HW2 9585   4.479   0.046   5.774
 2896SOL     OW 9586   5.392   0.199   4.631
 2896SOL    HW1 9587   5.447   0.256   4.571
 2896SOL    HW2 9588   5.385   0.242   4.721
 2897SOL     OW 9589   4.000   5.120   2.902
 2897SOL    HW1 9590   4.001   5.108   2.802
 2897SOL    HW2 9591   3.940   5.051   2.943
 2898SOL     OW 9592   5.493   2.830   2.477
 2898SOL    HW1 9593   5.517   2.915   2.431
 2898SOL    HW2 9594   5.405   2.796   2.443
 2899SOL     OW 9595   6.808   3.590   0.888
 2899SOL    HW1 9596   6.709   3.595   0.902
 2899SOL    HW2 9597   6.855   3.613   0.972
 2900SOL     OW 9598   2.361   2.976   5.595
 2900SOL    HW1 9599   2.457   2.998   5.578
 2900SOL    HW2 9600   2.335   3.008   5.687
 2901SOL     OW 9601   0.999   3.626   3.169
 2901SOL    HW1 9602   0.949   3.617   3.083
 2901SOL    HW2 9603   0.938   3.663   3.239
 2902SOL     OW 9604   6.196   6.097   3.958
 2902SOL    HW1 9605   6.100   6.125   3.969
 2902SOL    HW2 9606   6.245   6.114   4.043
 2903SOL     OW 9607   5.209   4.874   0.354
 2903SOL    HW1 9608   5.163   4.949   0.403
 2903SOL    HW2 9609   5.197   4.886   0.256
 2904SOL     OW 9610   2.204   4.232   5.117
 2904SOL    HW1 9611   2.234   4.141   5.086
 2904SOL    HW2 9612   2.160   4.223   5.207
 2905SOL     OW 9613   1.647   5.960   1.319
 2905SOL    HW1 9614   1.635   6.050   1.276
 2905SOL    HW2 9615   1.562   5.933   1.364
 2906SOL     OW 9616   6.006   5.977   4.465
 2906SOL    HW1 9617   5.916   5.944   4.435
 2906SOL    HW2 9618   6.034   5.926   4.546
 2907SOL     OW 9619   0.306   0.886   4.829
 2907SOL    HW1 9620   0.250   0.808   4.858
 2907SOL    HW2 9621   0.399   0.875   4.864
 2908SOL     OW 9622   4.382   0.051   3.219
 2908SOL    HW1 9623   4.343   0.001   3.142
 2908SOL    HW2 9624   4.310   0.076   3.284
 2909SOL     OW 9625   0.087   6.455   1.466
 2909SOL    HW1 9626   0.117   6.361   1.448
 2909SOL    HW2 9627   0.062   6.463   1.563
 2910SOL     OW 9628   0.553   0.667   4.166
 2910SOL    HW1 9629   0.460   0.635   4.152
 2910SOL    HW2 9630   0.563   0.760   4.130
 2911SOL     OW 9631   0.339   4.189   5.313
 2911SOL    HW1 9632   0.439   4.185   5.318
 2911SOL    HW2 9633   0.301   4.099   5.337
 2912SOL     OW 9634   1.297   1.321   1.635
 2912SOL    HW1 9635   1.218   1.334   1.695
 2912SOL    HW2 9636   1.285   1.376   1.552
 2913SOL     OW 9637   3.067   6.462   2.850
 2913SOL    HW1 9638   3.079   6.363   2.842
 2913SOL    HW2 9639   3.088   6.490   2.944
 2914SOL     OW 9640   4.297   5.369   0.983
 2914SOL    HW1 9641   4.274   5.334   1.074
 2914SOL    HW2 9642   4.396   5.362   0.969
 2915SOL     OW 9643   2.781   0.043   3.269
 2915SOL    HW1 9644   2.761   0.001   3.181
 2915SOL    HW2 9645   2.880   0.048   3.283
 2916SOL     OW 9646   1.824   6.161   6.961
 2916SOL    HW1 9647   1.795   6.213   0.017
 2916SOL    HW2 9648   1.868   6.223   6.895
 2917SOL     OW 9649   2.784   6.783   3.706
 2917SOL    HW1 9650   2.844   6.847   3.755
 2917SOL    HW2 9651   2.795   6.797   3.607
 2918SOL     OW 9652   4.943   2.965   1.503
 2918SOL    HW1 9653   4.910   3.059   1.493
 2918SOL    HW2 9654   4.924   2.933   1.595
 2919SOL     OW 9655   0.686   5.709   4.958
 2919SOL    HW1 9656   0.713   5.613   4.960
 2919SOL    HW2 9657   0.763   5.766   4.987
 2920SOL     OW 9658   2.041   2.667   2.680
 2920SOL    HW1 9659   2.016   2.599   2.611
 2920SOL    HW2 9660   2.031   2.627   2.771
 2921SOL     OW 9661   1.059   6.164   3.703
 2921SOL    HW1 9662   1.071   6.247   3.756
 2921SOL    HW2 9663   1.076   6.084   3.762
 2922SOL     OW 9664   3.815   5.703   4.304
 2922SOL    HW1 9665   3.763   5.786   4.324
 2922SOL    HW2 9666   3.901   5.704   4.355
 2923SOL     OW 9667   6.706   5.220   5.212
 2923SOL    HW1 9668   6.767   5.204   5.289
 2923SOL    HW2 9669   6.699   5.319   5.194
 2924SOL     OW 9670   6.103   1.618   6.116
 2924SOL    HW1 9671   6.105   1.630   6.017
 2924SOL    HW2 9672   6.032   1.676   6.155
 2925SOL     OW 9673   5.699   6.568   4.991
 2925SOL    HW1 9674   5.641   6.488   5.001
 2925SOL    HW2 9675   5.647   6.641   4.947
 2926SOL     OW 9676   6.309   2.742   4.417
 2926SOL    HW1 9677   6.214   2.765   4.437
 2926SOL    HW2 9678   6.369   2.790   4.482
 2927SOL     OW 9679   1.174   1.906   1.782
 2927SOL    HW1 9680   1.208   1.882   1.691
 2927SOL    HW2 9681   1.240   1.967   1.827
 2928SOL     OW 9682   6.367   3.207   0.237
 2928SOL    HW1 9683   6.423   3.198   0.154
 2928SOL    HW2 9684   6.335   3.117   0.265
 2929SOL     OW 9685   2.288   1.990   4.069
 2929SOL    HW1 9686   2.259   1.955   4.158
 2929SOL    HW2 9687   2.386   2.013   4.074
 2930SOL     OW 9688   0.482   4.264   4.325
 2930SOL    HW1 9689   0.501   4.175   4.367
 2930SOL    HW2 9690   0.566   4.301   4.285
 2931SOL     OW 9691   5.067   4.205   5.734
 2931SOL    HW1 9692   5.054   4.305   5.738
 2931SOL    HW2 9693   5.125   4.177   5.811
 2932SOL     OW 9694   5.887   4.986   1.396
 2932SOL    HW1 9695   5.956   5.056   1.417
 2932SOL    HW2 9696   5.932   4.902   1.368
 2933SOL     OW 9697   1.144   6.420   7.009
 2933SOL    HW1 9698   1.209   6.363   0.034
 2933SOL    HW2 9699   1.058   6.371   6.998
 2934SOL     OW 9700   3.635   4.465   0.716
 2934SOL    HW1 9701   3.555   4.423   0.673
 2934SOL    HW2 9702   3.653   4.420   0.803
 2935SOL     OW 9703   0.394   2.462   6.590
 2935SOL    HW1 9704   0.474   2.405   6.570
 2935SOL    HW2 9705   0.411   2.555   6.556
 2936SOL     OW 9706   4.785   6.401   1.627
 2936SOL    HW1 9707   4.716   6.473   1.618
 2936SOL    HW2 9708   4.849   6.424   1.700
 2937SOL     OW 9709   5.272   4.394   2.482
 2937SOL    HW1 9710   5.339   4.360   2.548
 2937SOL    HW2 9711   5.319   4.416   2.396
 2938SOL     OW 9712   0.509   5.648   6.138
 2938SOL    HW1 9713   0.524   5.747   6.135
 2938SOL    HW2 9714   0.585   5.601   6.092
 2939SOL     OW 9715   0.191   5.998   1.717
 2939SOL    HW1 9716   0.288   6.008   1.739
 2939SOL    HW2 9717   0.165   5.901   1.722
 2940SOL     OW 9718   4.306   6.883   3.861
 2940SOL    HW1 9719   4.251   6.877   3.944
 2940SOL    HW2 9720   4.251   6.920   3.787
 2941SOL     OW 9721   1.999   4.696   3.184
 2941SOL    HW1 9722   2.084   4.735   3.147
 2941SOL    HW2 9723   2.013   4.673   3.280
 2942SOL     OW 9724   3.482   1.740   1.219
 2942SOL    HW1 9725   3.565   1.741   1.275
 2942SOL    HW2 9726   3.429   1.823   1.237
 2943SOL     OW 9727   5.946   3.981   2.781
 2943SOL    HW1 9728   5.898   4.066   2.758
 2943SOL    HW2 9729   5.957   3.925   2.698
 2944SOL     OW 9730   1.867   5.621   2.414
 2944SOL    HW1 9731   1.905   5.605   2.505
 2944SOL    HW2 9732   1.778   5.577   2.407
 2945SOL     OW 9733   4.636   4.346   0.735
 2945SOL    HW1 9734   4.711   4.412   0.747
 2945SOL    HW2 9735   4.559   4.391   0.691
 2946SOL     OW 9736   3.841   3.517   5.112
 2946SOL    HW1 9737   3.745   3.525   5.087
 2946SOL    HW2 9738   3.881   3.608   5.121
 2947SOL     OW 9739   6.518   5.782   1.088
 2947SOL    HW1 9740   6.479   5.697   1.123
 2947SOL    HW2 9741   6.568   5.829   1.161
 2948SOL     OW 9742   7.013   3.619   2.568
 2948SOL    HW1 9743   0.014   3.693   2.630
 2948SOL    HW2 9744   0.063   3.601   2.504
 2949SOL     OW 9745   1.721   6.401   0.669
 2949SOL    HW1 9746   1.769   6.467   0.726
 2949SOL    HW2 9747   1.661   6.449   0.606
 2950SOL     OW 9748   6.257   5.793   2.523
 2950SOL    HW1 9749   6.234   5.724   2.454
 2950SOL    HW2 9750   6.299   5.872   2.478
 2951SOL     OW 9751   0.044   1.331   1.891
 2951SOL    HW1 9752   0.083   1.280   1.814
 2951SOL    HW2 9753   0.019   1.423   1.861
 2952SOL     OW 9754   6.985   1.566   5.393
 2952SOL    HW1 9755   0.013   1.650   5.377
 2952SOL    HW2 9756   6.903   1.588   5.445
 2953SOL     OW 9757   1.496   4.827   3.492
 2953SOL    HW1 9758   1.556   4.748   3.478
 2953SOL    HW2 9759   1.548   4.902   3.533
 2954SOL     OW 9760   0.139   4.224   6.287
 2954SOL    HW1 9761   0.215   4.169   6.323
 2954SOL    HW2 9762   0.054   4.198   6.333
 2955SOL     OW 9763   1.594   4.691   6.126
 2955SOL    HW1 9764   1.540   4.708   6.207
 2955SOL    HW2 9765   1.679   4.645   6.151
 2956SOL     OW 9766   5.344   4.521   3.985
 2956SOL    HW1 9767   5.439   4.538   4.008
 2956SOL    HW2 9768   5.289   4.519   4.068
 2957SOL     OW 9769   2.483   5.236   1.259
 2957SOL    HW1 9770   2.458   5.262   1.352
 2957SOL    HW2 9771   2.485   5.136   1.252
 2958SOL     OW 9772   1.910   4.585   2.783
 2958SOL    HW1 9773   2.006   4.605   2.762
 2958SOL    HW2 9774   1.873   4.524   2.713
 2959SOL     OW 9775   0.210   3.993   3.295
 2959SOL    HW1 9776   0.223   3.896   3.280
 2959SOL    HW2 9777   0.225   4.014   3.392
 2960SOL     OW 9778   5.029   0.102   0.951
 2960SOL    HW1 9779   5.068   0.041   1.020
 2960SOL    HW2 9780   5.103   0.151   0.904
 2961SOL     OW 9781   5.891   3.363   1.981
 2961SOL    HW1 9782   5.946   3.301   2.036
 2961SOL    HW2 9783   5.944   3.445   1.958
 2962SOL     OW 9784   0.084   0.572   3.734
 2962SOL    HW1 9785   0.120   0.594   3.642
 2962SOL    HW2 9786   7.012   0.599   3.739
 2963SOL     OW 9787   1.665   0.646   4.988
 2963SOL    HW1 9788   1.669   0.707   4.909
 2963SOL    HW2 9789   1.751   0.597   4.997
 2964SOL     OW 9790   1.705   0.991   6.404
 2964SOL    HW1 9791   1.704   0.948   6.314
 2964SOL    HW2 9792   1.697   1.091   6.394
 2965SOL     OW 9793   6.831   6.774   5.525
 2965SOL    HW1 9794   6.749   6.831   5.519
 2965SOL    HW2 9795   6.819   6.693   5.467
 2966SOL     OW 9796   2.670   5.983   2.020
 2966SOL    HW1 9797   2.649   6.065   2.072
 2966SOL    HW2 9798   2.739   5.929   2.069
 2967SOL     OW 9799   5.448   0.363   4.842
 2967SOL    HW1 9800   5.500   0.435   4.796
 2967SOL    HW2 9801   5.398   0.402   4.919
 2968SOL     OW 9802   1.043   3.704   1.261
 2968SOL    HW1 9803   1.108   3.776   1.287
 2968SOL    HW2 9804   1.012   3.656   1.343
 2969SOL     OW 9805   4.785   3.104   5.239
 2969SOL    HW1 9806   4.725   3.071   5.312
 2969SOL    HW2 9807   4.805   3.201   5.255
 2970SOL     OW 9808   2.585   2.384   5.365
 2970SOL    HW1 9809   2.639   2.313   5.410
 2970SOL    HW2 9810   2.639   2.428   5.294
 2971SOL     OW 9811   5.236   2.858   5.942
 2971SOL    HW1 9812   5.270   2.764   5.936
 2971SOL    HW2 9813   5.178   2.877   5.863
 2972SOL     OW 9814   6.725   5.111   6.339
 2972SOL    HW1 9815   6.671   5.077   6.416
 2972SOL    HW2 9816   6.681   5.192   6.301
 2973SOL     OW 9817   4.772   1.248   3.920
 2973SOL    HW1 9818   4.692   1.281   3.970
 2973SOL    HW2 9819   4.745   1.224   3.826
 2974SOL     OW 9820   4.555   6.870   2.101
 2974SOL    HW1 9821   4.654   6.870   2.089
 2974SOL    HW2 9822   4.524   6.776   2.118
 2975SOL     OW 9823   5.031   3.496   4.589
 2975SOL    HW1 9824   5.045   3.523   4.685
 2975SOL    HW2 9825   5.006   3.576   4.535
 2976SOL     OW 9826   4.177   1.059   2.138
 2976SOL    HW1 9827   4.207   1.121   2.066
 2976SOL    HW2 9828   4.256   1.021   2.186
 2977SOL     OW 9829   0.837   0.473   1.776
 2977SOL    HW1 9830   0.834   0.452   1.873
 2977SOL    HW2 9831   0.750   0.514   1.747
 2978SOL     OW 9832   4.378   5.332   6.822
 2978SOL    HW1 9833   4.466   5.347   6.867
 2978SOL    HW2 9834   4.342   5.243   6.850
 2979SOL     OW 9835   2.879   1.036   4.804
 2979SOL    HW1 9836   2.786   1.071   4.814
 2979SOL    HW2 9837   2.923   1.031   4.894
 2980SOL     OW 9838   3.129   3.560   4.357
 2980SOL    HW1 9839   3.185   3.563   4.439
 2980SOL    HW2 9840   3.095   3.466   4.344
 2981SOL     OW 9841   2.640   0.553   1.355
 2981SOL    HW1 9842   2.639   0.650   1.379
 2981SOL    HW2 9843   2.547   0.524   1.331
 2982SOL     OW 9844   1.955   0.491   0.884
 2982SOL    HW1 9845   1.991   0.456   0.798
 2982SOL    HW2 9846   2.030   0.529   0.938
 2983SOL     OW 9847   6.206   3.268   5.713
 2983SOL    HW1 9848   6.155   3.353   5.702
 2983SOL    HW2 9849   6.268   3.256   5.636
 2984SOL     OW 9850   0.305   5.863   1.474
 2984SOL    HW1 9851   0.353   5.791   1.524
 2984SOL    HW2 9852   0.365   5.900   1.404
 2985SOL     OW 9853   6.395   0.455   5.901
 2985SOL    HW1 9854   6.355   0.544   5.877
 2985SOL    HW2 9855   6.471   0.468   5.964
 2986SOL     OW 9856   3.528   3.430   2.188
 2986SOL    HW1 9857   3.542   3.419   2.286
 2986SOL    HW2 9858   3.610   3.403   2.138
 2987SOL     OW 9859   2.433   5.944   5.211
 2987SOL    HW1 9860   2.373   6.022   5.230
 2987SOL    HW2 9861   2.484   5.921   5.294
 2988SOL     OW 9862   0.291   1.526   6.476
 2988SOL    HW1 9863   0.347   1.445   6.490
 2988SOL    HW2 9864   0.204   1.499   6.433
 2989SOL     OW 9865   5.396   3.022   4.751
 2989SOL    HW1 9866   5.461   3.056   4.818
 2989SOL    HW2 9867   5.348   3.098   4.708
 2990SOL     OW 9868   5.336   2.183   4.396
 2990SOL    HW1 9869   5.395   2.226   4.327
 2990SOL    HW2 9870   5.276   2.252   4.437
 2991SOL     OW 9871   0.114   3.238   0.283
 2991SOL    HW1 9872   0.157   3.197   0.203
 2991SOL    HW2 9873   0.027   3.191   0.301
 2992SOL     OW 9874   0.568   3.666   4.947
 2992SOL    HW1 9875   0.612   3.679   5.035
 2992SOL    HW2 9876   0.613   3.724   4.878
 2993SOL     OW 9877   2.174   4.049   0.515
 2993SOL    HW1 9878   2.257   4.003   0.483
 2993SOL    HW2 9879   2.131   3.994   0.586
 2994SOL     OW 9880   3.343   5.971   5.590
 2994SOL    HW1 9881   3.285   5.975   5.671
 2994SOL    HW2 9882   3.336   5.880   5.548
 2995SOL     OW 9883   4.354   0.462   1.290
 2995SOL    HW1 9884   4.338   0.367   1.320
 2995SOL    HW2 9885   4.375   0.518   1.370
 2996SOL     OW 9886   6.922   0.473   4.034
 2996SOL    HW1 9887   6.960   0.562   4.059
 2996SOL    HW2 9888   6.843   0.453   4.093
 2997SOL     OW 9889   5.415   6.577   4.402
 2997SOL    HW1 9890   5.439   6.627   4.319
 2997SOL    HW2 9891   5.496   6.566   4.459
 2998SOL     OW 9892   2.824   0.803   1.719
 2998SOL    HW1 9893   2.827   0.706   1.696
 2998SOL    HW2 9894   2.905   0.827   1.772
 2999SOL     OW 9895   2.707   4.878   0.832
 2999SOL    HW1 9896   2.654   4.828   0.764
 2999SOL    HW2 9897   2.801   4.844   0.832
 3000SOL     OW 9898   2.785   4.157   5.419
 3000SOL    HW1 9899   2.848   4.161   5.342
 3000SOL    HW2 9900   2.767   4.249   5.453
 3001SOL     OW 9901   5.496   0.916   6.482
 3001SOL    HW1 9902   5.471   0.936   6.577
 3001SOL    HW2 9903   5.498   0.817   6.469
 3002SOL     OW 9904   1.510   1.755   1.918
 3002SOL    HW1 9905   1.608   1.738   1.926
 3002SOL    HW2 9906   1.460   1.698   1.982
 3003SOL     OW 9907   1.933   6.754   0.283
 3003SOL    HW1 9908   1.871   6.686   0.323
 3003SOL    HW2 9909   2.020   6.752   0.332
 3004SOL     OW 9910   2.723   6.511   3.631
 3004SOL    HW1 9911   2.631   6.480   3.655
 3004SOL    HW2 9912   2.742   6.598   3.676
 3005SOL     OW 9913   1.336   2.365   0.465
 3005SOL    HW1 9914   1.343   2.333   0.371
 3005SOL    HW2 9915   1.251   2.332   0.506
 3006SOL     OW 9916   5.065   1.610   6.085
 3006SOL    HW1 9917   5.094   1.672   6.012
 3006SOL    HW2 9918   4.967   1.623   6.102
 3007SOL     OW 9919   6.222   5.595   6.645
 3007SOL    HW1 9920   6.130   5.571   6.676
 3007SOL    HW2 9921   6.232   5.570   6.549
 3008SOL     OW 9922   4.406   3.482   5.623
 3008SOL    HW1 9923   4.487   3.489   5.682
 3008SOL    HW2 9924   4.434   3.452   5.532
 3009SOL     OW 9925   6.560   3.344   2.314
 3009SOL    HW1 9926   6.562   3.251   2.351
 3009SOL    HW2 9927   6.650   3.387   2.325
 3010SOL     OW 9928   4.465   5.546   1.367
 3010SOL    HW1 9929   4.456   5.447   1.378
 3010SOL    HW2 9930   4.379   5.584   1.333
 3011SOL     OW 9931   6.785   0.577   0.574
 3011SOL    HW1 9932   6.884   0.575   0.556
 3011SOL    HW2 9933   6.737   0.604   0.491
 3012SOL     OW 9934   1.961   2.100   4.749
 3012SOL    HW1 9935   2.008   2.096   4.837
 3012SOL    HW2 9936   2.027   2.124   4.677
 3013SOL     OW 9937   6.797   4.583   5.236
 3013SOL    HW1 9938   6.760   4.615   5.323
 3013SOL    HW2 9939   6.749   4.500   5.208
 3014SOL     OW 9940   5.701   0.479   6.384
 3014SOL    HW1 9941   5.665   0.390   6.353
 3014SOL    HW2 9942   5.628   0.530   6.429
 3015SOL     OW 9943   1.358   0.950   6.489
 3015SOL    HW1 9944   1.418   1.029   6.494
 3015SOL    HW2 9945   1.408   0.872   6.452
 3016SOL     OW 9946   2.263   6.672   4.398
 3016SOL    HW1 9947   2.173   6.633   4.378
 3016SOL    HW2 9948   2.277   6.755   4.344
 3017SOL     OW 9949   1.508   5.355   7.014
 3017SOL    HW1 9950   1.457   5.373   6.929
 3017SOL    HW2 9951   1.560   5.270   7.004
 3018SOL     OW 9952   3.485   0.802   1.635
 3018SOL    HW1 9953   3.500   0.705   1.613
 3018SOL    HW2 9954   3.564   0.838   1.683
 3019SOL     OW 9955   1.804   0.445   5.820
 3019SOL    HW1 9956   1.823   0.532   5.774
 3019SOL    HW2 9957   1.734   0.459   5.891
 3020SOL     OW 9958   6.302   4.348   6.938
 3020SOL    HW1 9959   6.294   4.357   6.839
 3020SOL    HW2 9960   6.356   4.425   6.974
 3021SOL     OW 9961   3.957   0.501   4.499
 3021SOL    HW1 9962   3.873   0.508   4.554
 3021SOL    HW2 9963   4.036   0.520   4.558
 3022SOL     OW 9964   4.261   5.978   3.634
 3022SOL    HW1 9965   4.259   5.891   3.684
 3022SOL    HW2 9966   4.179   5.985   3.576
 3023SOL     OW 9967   5.660   4.774   4.136
 3023SOL    HW1 9968   5.630   4.863   4.102
 3023SOL    HW2 9969   5.644   4.769   4.234
 3024SOL     OW 9970   0.344   1.018   0.606
 3024SOL    HW1 9971   0.373   1.107   0.572
 3024SOL    HW2 9972   0.420   0.953   0.597
 3025SOL     OW 9973   4.232   5.724   0.097
 3025SOL    HW1 9974   4.295   5.800   0.084
 3025SOL    HW2 9975   4.278   5.651   0.147
 3026SOL     OW 9976   0.381   0.414   2.185
 3026SOL    HW1 9977   0.316   0.452   2.250
 3026SOL    HW2 9978   0.445   0.353   2.232
 3027SOL     OW 9979   4.066   0.520   0.617
 3027SOL    HW1 9980   4.024   0.530   0.526
 3027SOL    HW2 9981   4.029   0.438   0.661
 3028SOL     OW 9982   3.165   3.289   5.456
 3028SOL    HW1 9983   3.241   3.314   5.516
 3028SOL    HW2 9984   3.194   3.215   5.395
 3029SOL     OW 9985   6.708   3.525   4.704
 3029SOL    HW1 9986   6.723   3.604   4.763
 3029SOL    HW2 9987   6.767   3.450   4.732
 3030SOL     OW 9988   2.361   2.353   6.264
 3030SOL    HW1 9989   2.388   2.315   6.353
 3030SOL    HW2 9990   2.303   2.434   6.280
 3031SOL     OW 9991   1.212   5.469   0.941
 3031SOL    HW1 9992   1.199   5.565   0.965
 3031SOL    HW2 9993   1.304   5.440   0.968
 3032SOL     OW 9994   2.479   6.899   3.215
 3032SOL    HW1 9995   2.501   6.803   3.234
 3032SOL    HW2 9996   2.499   6.955   3.295
 3033SOL     OW 9997   0.960   1.661   5.323
 3033SOL    HW1 9998   0.873   1.623   5.355
 3033SOL    HW2 9999   0.964   1.655   5.223
 3034SOL     OW10000   6.132   4.158   3.268
 3034SOL    HW110001   6.194   4.080   3.267
 3034SOL    HW210002   6.172   4.234   3.216
 3035SOL     OW10003   0.721   3.355   0.441
 3035SOL    HW110004   0.763   3.443   0.422
 3035SOL    HW210005   0.656   3.333   0.367
 3036SOL     OW10006   3.074   1.963   5.418
 3036SOL    HW110007   3.148   1.934   5.357
 3036SOL    HW210008   3.022   2.037   5.375
 3037SOL     OW10009   0.623   5.832   6.410
 3037SOL    HW110010   0.704   5.891   6.406
 3037SOL    HW210011   0.558   5.860   6.339
 3038SOL     OW10012   5.894   4.833   5.999
 3038SOL    HW110013   5.848   4.784   6.072
 3038SOL    HW210014   5.945   4.911   6.038
 3039SOL     OW10015   6.761   3.717   6.308
 3039SOL    HW110016   6.675   3.719   6.360
 3039SOL    HW210017   6.785   3.810   6.280
 3040SOL     OW10018   5.645   5.263   6.666
 3040SOL    HW110019   5.586   5.286   6.743
 3040SOL    HW210020   5.666   5.346   6.614
 3041SOL     OW10021   1.436   4.539   5.801
 3041SOL    HW110022   1.470   4.631   5.819
 3041SOL    HW210023   1.358   4.544   5.738
 3042SOL     OW10024   0.592   4.840   4.393
 3042SOL    HW110025   0.575   4.915   4.457
 3042SOL    HW210026   0.520   4.840   4.323
 3043SOL     OW10027   2.495   5.771   1.232
 3043SOL    HW110028   2.407   5.773   1.279
 3043SOL    HW210029   2.520   5.677   1.211
 3044SOL     OW10030   4.043   3.857   4.748
 3044SOL    HW110031   4.000   3.923   4.809
 3044SOL    HW210032   4.104   3.797   4.801
 3045SOL     OW10033   4.512   2.033   1.821
 3045SOL    HW110034   4.435   1.969   1.814
 3045SOL    HW210035   4.578   1.998   1.887
 3046SOL     OW10036   5.325   6.732   0.876
 3046SOL    HW110037   5.258   6.796   0.838
 3046SOL    HW210038   5.401   6.723   0.812
 3047SOL     OW10039   6.047   1.456   4.484
 3047SOL    HW110040   6.000   1.486   4.402
 3047SOL    HW210041   6.018   1.512   4.562
 3048SOL     OW10042   3.800   4.889   1.296
 3048SOL    HW110043   3.722   4.925   1.348
 3048SOL    HW210044   3.790   4.913   1.199
 3049SOL     OW10045   0.907   1.721   2.370
 3049SOL    HW110046   0.912   1.773   2.285
 3049SOL    HW210047   0.823   1.743   2.419
 3050SOL     OW10048   3.352   2.287   6.567
 3050SOL    HW110049   3.264   2.326   6.592
 3050SOL    HW210050   3.355   2.270   6.469
 3051SOL     OW10051   2.626   5.277   5.518
 3051SOL    HW110052   2.714   5.285   5.471
 3051SOL    HW210053   2.641   5.261   5.616
 3052SOL     OW10054   7.000   6.931   2.776
 3052SOL    HW110055   0.009   6.853   2.724
 3052SOL    HW210056   0.037   7.009   2.764
 3053SOL     OW10057   0.893   4.140   0.529
 3053SOL    HW110058   0.910   4.091   0.444
 3053SOL    HW210059   0.884   4.238   0.510
 3054SOL     OW10060   5.111   0.792   2.819
 3054SOL    HW110061   5.195   0.771   2.869
 3054SOL    HW210062   5.075   0.880   2.849
 3055SOL     OW10063   5.827   6.428   0.062
 3055SOL    HW110064   5.730   6.437   0.086
 3055SOL    HW210065   5.867   6.519   0.051
 3056SOL     OW10066   3.868   1.578   6.187
 3056SOL    HW110067   3.904   1.628   6.108
 3056SOL    HW210068   3.932   1.506   6.213
 3057SOL     OW10069   5.093   4.006   2.846
 3057SOL    HW110070   5.015   3.957   2.885
 3057SOL    HW210071   5.075   4.025   2.750
 3058SOL     OW10072   0.449   4.434   6.003
 3058SOL    HW110073   0.377   4.380   6.047
 3058SOL    HW210074   0.410   4.481   5.923
 3059SOL     OW10075   1.269   1.960   2.758
 3059SOL    HW110076   1.175   1.937   2.782
 3059SOL    HW210077   1.285   1.940   2.661
 3060SOL     OW10078   5.634   4.192   4.124
 3060SOL    HW110079   5.681   4.269   4.079
 3060SOL    HW210080   5.661   4.189   4.220
 3061SOL     OW10081   5.810   0.460   3.850
 3061SOL    HW110082   5.799   0.475   3.948
 3061SOL    HW210083   5.889   0.400   3.834
 3062SOL     OW10084   4.359   4.262   0.898
 3062SOL    HW110085   4.402   4.269   0.807
 3062SOL    HW210086   4.309   4.346   0.917
 3063SOL     OW10087   0.319   4.835   2.542
 3063SOL    HW110088   0.227   4.836   2.583
 3063SOL    HW210089   0.312   4.809   2.446
 3064SOL     OW10090   5.019   2.335   6.782
 3064SOL    HW110091   4.944   2.391   6.747
 3064SOL    HW210092   5.066   2.290   6.705
 3065SOL     OW10093   5.650   1.664   6.517
 3065SOL    HW110094   5.623   1.602   6.443
 3065SOL    HW210095   5.720   1.619   6.573
 3066SOL     OW10096   5.608   0.193   5.010
 3066SOL    HW110097   5.670   0.138   4.954
 3066SOL    HW210098   5.558   0.257   4.951
 3067SOL     OW10099   1.239   2.395   5.570
 3067SOL    HW110100   1.317   2.406   5.508
 3067SOL    HW210101   1.245   2.463   5.643
 3068SOL     OW10102   0.129   0.454   0.651
 3068SOL    HW110103   0.167   0.453   0.559
 3068SOL    HW210104   0.084   0.367   0.669
 3069SOL     OW10105   4.913   6.227   4.168
 3069SOL    HW110106   4.900   6.258   4.262
 3069SOL    HW210107   4.909   6.306   4.106
 3070SOL     OW10108   2.314   0.711   0.754
 3070SOL    HW110109   2.401   0.741   0.716
 3070SOL    HW210110   2.269   0.649   0.690
 3071SOL     OW10111   5.801   4.868   5.354
 3071SOL    HW110112   5.712   4.823   5.340
 3071SOL    HW210113   5.809   4.945   5.291
 3072SOL     OW10114   2.013   6.649   6.581
 3072SOL    HW110115   1.998   6.556   6.548
 3072SOL    HW210116   1.936   6.678   6.638
 3073SOL     OW10117   0.884   5.467   1.644
 3073SOL    HW110118   0.930   5.406   1.709
 3073SOL    HW210119   0.913   5.561   1.660
 3074SOL     OW10120   3.128   2.852   1.693
 3074SOL    HW110121   3.225   2.829   1.690
 3074SOL    HW210122   3.077   2.777   1.736
 3075SOL     OW10123   3.282   4.641   1.150
 3075SOL    HW110124   3.331   4.655   1.236
 3075SOL    HW210125   3.197   4.693   1.152
 3076SOL     OW10126   0.905   0.482   4.902
 3076SOL    HW110127   0.865   0.535   4.977
 3076SOL    HW210128   0.959   0.543   4.843
 3077SOL     OW10129   0.038   4.155   2.302
 3077SOL    HW110130   0.049   4.255   2.303
 3077SOL    HW210131   0.064   4.120   2.212
 3078SOL     OW10132   0.078   3.572   1.724
 3078SOL    HW110133   0.004   3.508   1.707
 3078SOL    HW210134   0.165   3.523   1.725
 3079SOL     OW10135   2.137   3.752   5.151
 3079SOL    HW110136   2.099   3.739   5.243
 3079SOL    HW210137   2.232   3.781   5.159
 3080SOL     OW10138   3.644   4.685   1.090
 3080SOL    HW110139   3.638   4.617   1.162
 3080SOL    HW210140   3.575   4.666   1.020
 3081SOL     OW10141   1.667   3.978   0.281
 3081SOL    HW110142   1.628   3.946   0.194
 3081SOL    HW210143   1.595   3.979   0.350
 3082SOL     OW10144   5.445   5.312   4.904
 3082SOL    HW110145   5.358   5.272   4.930
 3082SOL    HW210146   5.429   5.394   4.848
 3083SOL     OW10147   4.018   5.665   1.940
 3083SOL    HW110148   3.957   5.745   1.939
 3083SOL    HW210149   3.967   5.585   1.908
 3084SOL     OW10150   6.931   4.712   3.910
 3084SOL    HW110151   7.023   4.673   3.908
 3084SOL    HW210152   6.885   4.694   3.824
 3085SOL     OW10153   5.933   5.569   0.388
 3085SOL    HW110154   5.873   5.493   0.412
 3085SOL    HW210155   6.015   5.567   0.446
 3086SOL     OW10156   6.546   6.324   6.183
 3086SOL    HW110157   6.462   6.270   6.184
 3086SOL    HW210158   6.586   6.325   6.275
 3087SOL     OW10159   3.877   0.153   2.414
 3087SOL    HW110160   3.955   0.091   2.422
 3087SOL    HW210161   3.874   0.190   2.321
 3088SOL     OW10162   2.090   3.278   5.766
 3088SOL    HW110163   2.078   3.231   5.853
 3088SOL    HW210164   2.099   3.210   5.693
 3089SOL     OW10165   4.644   4.796   6.065
 3089SOL    HW110166   4.599   4.884   6.076
 3089SOL    HW210167   4.623   4.737   6.143
 3090SOL     OW10168   0.234   2.674   2.185
 3090SOL    HW110169   0.245   2.576   2.205
 3090SOL    HW210170   0.302   2.701   2.117
 3091SOL     OW10171   0.416   3.141   0.944
 3091SOL    HW110172   0.420   3.077   0.867
 3091SOL    HW210173   0.443   3.095   1.028
 3092SOL     OW10174   5.851   1.232   1.978
 3092SOL    HW110175   5.837   1.133   1.979
 3092SOL    HW210176   5.945   1.252   2.003
 3093SOL     OW10177   6.472   5.599   0.021
 3093SOL    HW110178   6.523   5.681   0.046
 3093SOL    HW210179   6.472   5.589   6.946
 3094SOL     OW10180   2.290   1.416   6.944
 3094SOL    HW110181   2.341   1.487   6.993
 3094SOL    HW210182   2.201   1.452   6.917
 3095SOL     OW10183   1.685   4.058   5.890
 3095SOL    HW110184   1.602   4.051   5.946
 3095SOL    HW210185   1.703   4.154   5.869
 3096SOL     OW10186   0.683   2.901   4.091
 3096SOL    HW110187   0.609   2.951   4.135
 3096SOL    HW210188   0.687   2.925   3.994
 3097SOL     OW10189   5.419   3.108   5.070
 3097SOL    HW110190   5.418   3.008   5.077
 3097SOL    HW210191   5.356   3.147   5.138
 3098SOL     OW10192   2.117   3.231   3.128
 3098SOL    HW110193   2.079   3.145   3.161
 3098SOL    HW210194   2.131   3.293   3.206
 3099SOL     OW10195   0.493   6.356   4.800
 3099SOL    HW110196   0.455   6.313   4.718
 3099SOL    HW210197   0.549   6.435   4.773
 3100SOL     OW10198   5.581   4.829   1.613
 3100SOL    HW110199   5.628   4.771   1.546
 3100SOL    HW210200   5.572   4.921   1.576
 3101SOL     OW10201   4.629   6.935   5.023
 3101SOL    HW110202   4.579   6.861   4.978
 3101SOL    HW210203   4.654   7.005   4.956
 3102SOL     OW10204   6.604   4.914   2.013
 3102SOL    HW110205   6.564   4.904   1.921
 3102SOL    HW210206   6.622   5.011   2.030
 3103SOL     OW10207   2.864   1.527   1.665
 3103SOL    HW110208   2.835   1.590   1.737
 3103SOL    HW210209   2.963   1.529   1.657
 3104SOL     OW10210   5.515   1.945   4.600
 3104SOL    HW110211   5.518   2.033   4.551
 3104SOL    HW210212   5.430   1.938   4.651
 3105SOL     OW10213   6.063   3.690   0.021
 3105SOL    HW110214   6.053   3.741   0.107
 3105SOL    HW210215   6.075   3.593   0.041
 3106SOL     OW10216   5.193   1.616   5.682
 3106SOL    HW110217   5.124   1.546   5.697
 3106SOL    HW210218   5.263   1.581   5.619
 3107SOL     OW10219   2.863   1.701   5.010
 3107SOL    HW110220   2.850   1.607   4.977
 3107SOL    HW210221   2.909   1.755   4.939
 3108SOL     OW10222   2.446   4.419   3.454
 3108SOL    HW110223   2.493   4.479   3.389
 3108SOL    HW210224   2.440   4.327   3.416
 3109SOL     OW10225   6.536   6.380   3.947
 3109SOL    HW110226   6.528   6.371   4.046
 3109SOL    HW210227   6.631   6.362   3.920
 3110SOL     OW10228   1.020   5.430   2.932
 3110SOL    HW110229   1.027   5.348   2.989
 3110SOL    HW210230   1.072   5.417   2.848
 3111SOL     OW10231   5.789   4.150   3.638
 3111SOL    HW110232   5.773   4.083   3.710
 3111SOL    HW210233   5.829   4.232   3.677
 3112SOL     OW10234   3.312   1.334   6.450
 3112SOL    HW110235   3.223   1.378   6.450
 3112SOL    HW210236   3.383   1.403   6.433
 3113SOL     OW10237   1.807   6.167   3.173
 3113SOL    HW110238   1.763   6.255   3.160
 3113SOL    HW210239   1.859   6.169   3.259
 3114SOL     OW10240   4.166   1.246   6.241
 3114SOL    HW110241   4.138   1.161   6.196
 3114SOL    HW210242   4.087   1.287   6.286
 3115SOL     OW10243   4.720   5.393   5.508
 3115SOL    HW110244   4.751   5.362   5.418
 3115SOL    HW210245   4.668   5.478   5.497
 3116SOL     OW10246   1.060   0.552   0.088
 3116SOL    HW110247   1.104   0.630   0.131
 3116SOL    HW210248   1.046   0.572   7.015
 3117SOL     OW10249   4.604   0.328   6.659
 3117SOL    HW110250   4.632   0.370   6.572
 3117SOL    HW210251   4.639   0.382   6.735
 3118SOL     OW10252   1.500   1.696   3.614
 3118SOL    HW110253   1.432   1.767   3.597
 3118SOL    HW210254   1.565   1.693   3.538
 3119SOL     OW10255   4.747   5.843   5.004
 3119SOL    HW110256   4.707   5.930   5.033
 3119SOL    HW210257   4.689   5.768   5.035
 3120SOL     OW10258   2.541   5.964   6.276
 3120SOL    HW110259   2.559   6.000   6.368
 3120SOL    HW210260   2.505   5.871   6.283
 3121SOL     OW10261   3.823   1.793   4.273
 3121SOL    HW110262   3.832   1.738   4.356
 3121SOL    HW210263   3.797   1.886   4.297
 3122SOL     OW10264   5.526   5.162   5.152
 3122SOL    HW110265   5.506   5.162   5.054
 3122SOL    HW210266   5.517   5.255   5.188
 3123SOL     OW10267   1.420   1.209   3.046
 3123SOL    HW110268   1.425   1.228   2.948
 3123SOL    HW210269   1.512   1.211   3.085
 3124SOL     OW10270   4.847   0.527   4.547
 3124SOL    HW110271   4.869   0.502   4.641
 3124SOL    HW210272   4.748   0.534   4.536
 3125SOL     OW10273   1.706   1.188   5.207
 3125SOL    HW110274   1.791   1.145   5.237
 3125SOL    HW210275   1.679   1.259   5.271
 3126SOL     OW10276   5.455   5.032   5.380
 3126SOL    HW110277   5.474   5.079   5.293
 3126SOL    HW210278   5.363   5.054   5.410
 3127SOL     OW10279   0.097   0.935   5.331
 3127SOL    HW110280   0.112   0.843   5.293
 3127SOL    HW210281   0.134   0.939   5.424
 3128SOL     OW10282   3.368   0.878   0.685
 3128SOL    HW110283   3.360   0.834   0.775
 3128SOL    HW210284   3.286   0.933   0.668
 3129SOL     OW10285   4.291   3.576   0.253
 3129SOL    HW110286   4.300   3.499   0.315
 3129SOL    HW210287   4.266   3.658   0.304
 3130SOL     OW10288   6.769   5.528   1.733
 3130SOL    HW110289   6.702   5.551   1.662
 3130SOL    HW210290   6.725   5.473   1.804
 3131SOL     OW10291   6.597   4.705   2.931
 3131SOL    HW110292   6.667   4.727   2.863
 3131SOL    HW210293   6.511   4.750   2.905
 3132SOL     OW10294   4.482   4.010   0.472
 3132SOL    HW110295   4.532   3.960   0.401
 3132SOL    HW210296   4.492   3.962   0.560
 3133SOL     OW10297   4.778   0.103   4.282
 3133SOL    HW110298   4.680   0.102   4.262
 3133SOL    HW210299   4.819   0.187   4.246
 3134SOL     OW10300   6.125   5.220   2.660
 3134SOL    HW110301   6.060   5.145   2.649
 3134SOL    HW210302   6.127   5.275   2.577
 3135SOL     OW10303   3.990   5.585   7.016
 3135SOL    HW110304   4.066   5.638   0.029
 3135SOL    HW210305   4.022   5.529   6.940
 3136SOL     OW10306   6.398   1.379   3.603
 3136SOL    HW110307   6.355   1.377   3.693
 3136SOL    HW210308   6.401   1.473   3.569
 3137SOL     OW10309   5.907   6.482   6.791
 3137SOL    HW110310   5.842   6.453   6.720
 3137SOL    HW210311   5.860   6.538   6.859
 3138SOL     OW10312   5.919   6.314   4.962
 3138SOL    HW110313   5.890   6.221   4.943
 3138SOL    HW210314   5.901   6.336   5.058
 3139SOL     OW10315   2.948   4.865   1.628
 3139SOL    HW110316   2.944   4.875   1.727
 3139SOL    HW210317   2.946   4.955   1.585
 3140SOL     OW10318   0.190   6.407   6.945
 3140SOL    HW110319   0.165   6.361   0.005
 3140SOL    HW210320   0.276   6.369   6.910
 3141SOL     OW10321   6.378   1.806   6.478
 3141SOL    HW110322   6.303   1.747   6.504
 3141SOL    HW210323   6.342   1.894   6.445
 3142SOL     OW10324   4.564   0.364   3.612
 3142SOL    HW110325   4.541   0.422   3.691
 3142SOL    HW210326   4.557   0.418   3.528
 3143SOL     OW10327   6.415   1.293   0.717
 3143SOL    HW110328   6.401   1.387   0.686
 3143SOL    HW210329   6.407   1.288   0.816
 3144SOL     OW10330   4.062   3.993   0.529
 3144SOL    HW110331   4.106   4.032   0.448
 3144SOL    HW210332   3.967   3.970   0.508
 3145SOL     OW10333   0.459   5.987   0.183
 3145SOL    HW110334   0.481   5.890   0.169
 3145SOL    HW210335   0.493   6.040   0.105
 3146SOL     OW10336   6.459   1.232   4.859
 3146SOL    HW110337   6.495   1.281   4.779
 3146SOL    HW210338   6.383   1.173   4.830
 3147SOL     OW10339   3.664   5.777   0.135
 3147SOL    HW110340   3.650   5.875   0.144
 3147SOL    HW210341   3.723   5.758   0.057
 3148SOL     OW10342   6.541   5.223   1.651
 3148SOL    HW110343   6.461   5.166   1.634
 3148SOL    HW210344   6.616   5.194   1.591
 3149SOL     OW10345   3.224   2.088   0.085
 3149SOL    HW110346   3.128   2.070   0.107
 3149SOL    HW210347   3.229   2.154   0.011
 3150SOL     OW10348   6.349   5.742   5.829
 3150SOL    HW110349   6.415   5.672   5.801
 3150SOL    HW210350   6.256   5.706   5.823
 3151SOL     OW10351   0.247   0.502   5.498
 3151SOL    HW110352   0.328   0.445   5.515
 3151SOL    HW210353   0.224   0.498   5.400
 3152SOL     OW10354   1.326   3.178   5.747
 3152SOL    HW110355   1.276   3.216   5.669
 3152SOL    HW210356   1.338   3.249   5.816
 3153SOL     OW10357   6.305   5.062   1.657
 3153SOL    HW110358   6.266   5.025   1.573
 3153SOL    HW210359   6.266   5.152   1.675
 3154SOL     OW10360   4.342   0.972   6.860
 3154SOL    HW110361   4.319   1.020   6.776
 3154SOL    HW210362   4.283   1.004   6.934
 3155SOL     OW10363   0.983   4.738   0.309
 3155SOL    HW110364   0.961   4.835   0.296
 3155SOL    HW210365   0.912   4.682   0.267
 3156SOL     OW10366   3.675   4.193   1.787
 3156SOL    HW110367   3.747   4.154   1.845
 3156SOL    HW210368   3.594   4.135   1.791
 3157SOL     OW10369   1.098   1.091   5.140
 3157SOL    HW110370   1.185   1.045   5.154
 3157SOL    HW210371   1.024   1.037   5.182
 3158SOL     OW10372   1.553   1.135   5.929
 3158SOL    HW110373   1.597   1.201   5.990
 3158SOL    HW210374   1.599   1.046   5.937
 3159SOL     OW10375   5.679   0.425   6.700
 3159SOL    HW110376   5.775   0.440   6.675
 3159SOL    HW210377   5.637   0.365   6.632
 3160SOL     OW10378   1.629   0.474   6.039
 3160SOL    HW110379   1.640   0.394   6.098
 3160SOL    HW210380   1.544   0.465   5.987
 3161SOL     OW10381   1.956   2.537   2.030
 3161SOL    HW110382   2.052   2.563   2.018
 3161SOL    HW210383   1.933   2.462   1.968
 3162SOL     OW10384   1.885   5.827   1.318
 3162SOL    HW110385   1.942   5.876   1.252
 3162SOL    HW210386   1.792   5.863   1.315
 3163SOL     OW10387   4.028   4.377   0.497
 3163SOL    HW110388   4.125   4.397   0.503
 3163SOL    HW210389   3.992   4.354   0.587
 3164SOL     OW10390   2.515   6.243   3.520
 3164SOL    HW110391   2.528   6.293   3.606
 3164SOL    HW210392   2.463   6.159   3.538
 3165SOL     OW10393   0.698   6.728   6.645
 3165SOL    HW110394   0.743   6.649   6.685
 3165SOL    HW210395   0.722   6.810   6.696
 3166SOL     OW10396   5.365   1.158   4.923
 3166SOL    HW110397   5.395   1.200   4.838
 3166SOL    HW210398   5.428   1.181   4.996
 3167SOL     OW10399   5.392   3.023   0.639
 3167SOL    HW110400   5.425   3.075   0.560
 3167SOL    HW210401   5.427   3.064   0.723
 3168SOL     OW10402   4.493   2.018   0.433
 3168SOL    HW110403   4.410   2.008   0.488
 3168SOL    HW210404   4.572   1.998   0.489
 3169SOL     OW10405   2.387   4.321   1.910
 3169SOL    HW110406   2.471   4.365   1.877
 3169SOL    HW210407   2.382   4.329   2.009
 3170SOL     OW10408   2.166   3.438   3.636
 3170SOL    HW110409   2.185   3.478   3.726
 3170SOL    HW210410   2.094   3.491   3.591
 3171SOL     OW10411   5.605   2.098   3.664
 3171SOL    HW110412   5.567   2.190   3.661
 3171SOL    HW210413   5.535   2.032   3.635
 3172SOL     OW10414   5.783   3.633   1.520
 3172SOL    HW110415   5.685   3.645   1.506
 3172SOL    HW210416   5.813   3.684   1.600
 3173SOL     OW10417   4.356   3.177   0.216
 3173SOL    HW110418   4.440   3.213   0.177
 3173SOL    HW210419   4.329   3.232   0.295
 3174SOL     OW10420   3.177   3.252   6.607
 3174SOL    HW110421   3.159   3.189   6.532
 3174SOL    HW210422   3.224   3.204   6.681
 3175SOL     OW10423   5.328   0.898   5.162
 3175SOL    HW110424   5.266   0.961   5.115
 3175SOL    HW210425   5.370   0.836   5.096
 3176SOL     OW10426   0.826   4.726   4.340
 3176SOL    HW110427   0.732   4.757   4.360
 3176SOL    HW210428   0.845   4.642   4.390
 3177SOL     OW10429   5.352   3.910   3.749
 3177SOL    HW110430   5.377   3.942   3.840
 3177SOL    HW210431   5.372   3.982   3.682
 3178SOL     OW10432   6.610   0.987   2.032
 3178SOL    HW110433   6.578   0.925   1.961
 3178SOL    HW210434   6.702   1.019   2.009
 3179SOL     OW10435   1.345   2.380   1.855
 3179SOL    HW110436   1.268   2.318   1.868
 3179SOL    HW210437   1.323   2.469   1.895
 3180SOL     OW10438   0.238   5.892   0.421
 3180SOL    HW110439   0.248   5.793   0.419
 3180SOL    HW210440   0.292   5.929   0.496
 3181SOL     OW10441   1.726   6.574   5.198
 3181SOL    HW110442   1.712   6.669   5.169
 3181SOL    HW210443   1.823   6.551   5.191
 3182SOL     OW10444   2.191   1.313   0.815
 3182SOL    HW110445   2.127   1.236   0.802
 3182SOL    HW210446   2.176   1.380   0.742
 3183SOL     OW10447   3.711   3.903   0.984
 3183SOL    HW110448   3.620   3.923   1.022
 3183SOL    HW210449   3.701   3.852   0.899
 3184SOL     OW10450   0.186   2.235   4.712
 3184SOL    HW110451   0.242   2.152   4.708
 3184SOL    HW210452   0.189   2.282   4.624
 3185SOL     OW10453   0.714   5.521   6.466
 3185SOL    HW110454   0.702   5.620   6.455
 3185SOL    HW210455   0.625   5.476   6.464
 3186SOL     OW10456   0.262   1.826   6.551
 3186SOL    HW110457   0.232   1.905   6.497
 3186SOL    HW210458   0.293   1.753   6.489
 3187SOL     OW10459   4.954   5.959   2.747
 3187SOL    HW110460   4.984   5.900   2.672
 3187SOL    HW210461   4.948   5.905   2.831
 3188SOL     OW10462   2.332   5.758   6.777
 3188SOL    HW110463   2.325   5.803   6.688
 3188SOL    HW210464   2.426   5.725   6.790
 3189SOL     OW10465   3.345   1.732   5.534
 3189SOL    HW110466   3.332   1.780   5.447
 3189SOL    HW210467   3.278   1.765   5.600
 3190SOL     OW10468   5.975   6.359   4.206
 3190SOL    HW110469   5.972   6.458   4.224
 3190SOL    HW210470   5.901   6.335   4.143
 3191SOL     OW10471   3.477   5.526   1.195
 3191SOL    HW110472   3.386   5.554   1.165
 3191SOL    HW210473   3.525   5.603   1.235
 3192SOL     OW10474   5.353   1.918   2.663
 3192SOL    HW110475   5.314   1.916   2.755
 3192SOL    HW210476   5.414   1.840   2.651
 3193SOL     OW10477   3.421   0.158   4.895
 3193SOL    HW110478   3.375   0.227   4.950
 3193SOL    HW210479   3.421   0.186   4.799
 3194SOL     OW10480   1.486   7.021   6.613
 3194SOL    HW110481   1.565   0.025   6.667
 3194SOL    HW210482   1.432   0.077   6.589
 3195SOL     OW10483   0.294   1.512   1.384
 3195SOL    HW110484   0.299   1.480   1.289
 3195SOL    HW210485   0.369   1.471   1.436
 3196SOL     OW10486   6.067   0.212   3.595
 3196SOL    HW110487   6.160   0.207   3.559
 3196SOL    HW210488   6.062   0.281   3.667
 3197SOL     OW10489   1.951   0.628   6.526
 3197SOL    HW110490   1.994   0.561   6.586
 3197SOL    HW210491   1.863   0.594   6.495
 3198SOL     OW10492   5.363   2.804   3.788
 3198SOL    HW110493   5.320   2.817   3.699
 3198SOL    HW210494   5.427   2.879   3.806
 3199SOL     OW10495   5.366   4.227   2.792
 3199SOL    HW110496   5.433   4.178   2.846
 3199SOL    HW210497   5.319   4.163   2.731
 3200SOL     OW10498   5.313   3.964   3.363
 3200SOL    HW110499   5.296   4.049   3.312
 3200SOL    HW210500   5.345   3.987   3.455
 3201SOL     OW10501   6.195   4.618   2.223
 3201SOL    HW110502   6.219   4.627   2.320
 3201SOL    HW210503   6.230   4.698   2.173
 3202SOL     OW10504   2.229   3.356   0.120
 3202SOL    HW110505   2.261   3.429   0.181
 3202SOL    HW210506   2.308   3.307   0.084
 3203SOL     OW10507   3.549   6.580   1.254
 3203SOL    HW110508   3.468   6.601   1.309
 3203SOL    HW210509   3.538   6.618   1.162
 3204SOL     OW10510   3.262   1.467   3.168
 3204SOL    HW110511   3.222   1.381   3.134
 3204SOL    HW210512   3.190   1.522   3.210
 3205SOL     OW10513   4.623   3.503   5.797
 3205SOL    HW110514   4.652   3.599   5.792
 3205SOL    HW210515   4.702   3.443   5.791
 3206SOL     OW10516   3.244   3.520   1.043
 3206SOL    HW110517   3.308   3.503   1.118
 3206SOL    HW210518   3.166   3.573   1.077
 3207SOL     OW10519   1.567   5.334   5.818
 3207SOL    HW110520   1.565   5.422   5.771
 3207SOL    HW210521   1.613   5.343   5.906
 3208SOL     OW10522   6.519   4.903   6.304
 3208SOL    HW110523   6.576   4.824   6.331
 3208SOL    HW210524   6.575   4.968   6.252
 3209SOL     OW10525   5.158   5.767   6.619
 3209SOL    HW110526   5.165   5.667   6.628
 3209SOL    HW210527   5.240   5.802   6.575
 3210SOL     OW10528   5.672   5.874   1.947
 3210SOL    HW110529   5.752   5.836   1.994
 3210SOL    HW210530   5.690   5.879   1.849
 3211SOL     OW10531   1.282   5.667   6.210
 3211SOL    HW110532   1.284   5.569   6.192
 3211SOL    HW210533   1.197   5.691   6.258
 3212SOL     OW10534   2.094   0.564   2.944
 3212SOL    HW110535   2.107   0.465   2.943
 3212SOL    HW210536   2.148   0.604   3.018
 3213SOL     OW10537   1.373   0.284   6.065
 3213SOL    HW110538   1.352   0.201   6.014
 3213SOL    HW210539   1.419   0.260   6.150
 3214SOL     OW10540   3.146   1.008   2.584
 3214SOL    HW110541   3.065   1.062   2.609
 3214SOL    HW210542   3.180   0.961   2.665
 3215SOL     OW10543   2.088   3.368   1.559
 3215SOL    HW110544   2.087   3.431   1.637
 3215SOL    HW210545   2.130   3.413   1.481
 3216SOL     OW10546   6.085   4.773   0.968
 3216SOL    HW110547   6.053   4.683   0.940
 3216SOL    HW210548   6.031   4.844   0.921
 3217SOL     OW10549   6.765   5.971   2.293
 3217SOL    HW110550   6.858   5.937   2.304
 3217SOL    HW210551   6.754   6.055   2.346
 3218SOL     OW10552   5.028   1.266   2.892
 3218SOL    HW110553   4.949   1.326   2.908
 3218SOL    HW210554   5.071   1.243   2.979
 3219SOL     OW10555   5.925   1.322   5.429
 3219SOL    HW110556   5.957   1.336   5.523
 3219SOL    HW210557   5.911   1.410   5.385
 3220SOL     OW10558   6.999   4.495   6.066
 3220SOL    HW110559   7.002   4.504   5.966
 3220SOL    HW210560   6.928   4.430   6.091
 3221SOL     OW10561   3.465   1.036   1.141
 3221SOL    HW110562   3.487   1.043   1.238
 3221SOL    HW210563   3.368   1.012   1.130
 3222SOL     OW10564   3.444   1.606   2.954
 3222SOL    HW110565   3.407   1.519   2.987
 3222SOL    HW210566   3.373   1.676   2.956
 3223SOL     OW10567   1.647   5.831   0.434
 3223SOL    HW110568   1.653   5.920   0.479
 3223SOL    HW210569   1.731   5.815   0.382
 3224SOL     OW10570   3.225   2.070   3.440
 3224SOL    HW110571   3.303   2.071   3.503
 3224SOL    HW210572   3.140   2.077   3.492
 3225SOL     OW10573   3.812   1.154   3.895
 3225SOL    HW110574   3.873   1.207   3.954
 3225SOL    HW210575   3.864   1.119   3.817
 3226SOL     OW10576   6.284   0.178   0.318
 3226SOL    HW110577   6.289   0.127   0.232
 3226SOL    HW210578   6.376   0.203   0.348
 3227SOL     OW10579   5.284   4.950   4.896
 3227SOL    HW110580   5.267   5.035   4.946
 3227SOL    HW210581   5.381   4.928   4.900
 3228SOL     OW10582   2.572   4.122   0.096
 3228SOL    HW110583   2.568   4.037   0.148
 3228SOL    HW210584   2.667   4.149   0.081
 3229SOL     OW10585   1.460   1.532   0.137
 3229SOL    HW110586   1.387   1.594   0.105
 3229SOL    HW210587   1.547   1.581   0.136
 3230SOL     OW10588   2.964   6.065   5.553
 3230SOL    HW110589   2.929   5.997   5.618
 3230SOL    HW210590   3.001   6.143   5.603
 3231SOL     OW10591   1.938   1.851   2.422
 3231SOL    HW110592   2.032   1.828   2.449
 3231SOL    HW210593   1.885   1.767   2.411
 3232SOL     OW10594   3.612   5.253   4.461
 3232SOL    HW110595   3.612   5.201   4.375
 3232SOL    HW210596   3.613   5.351   4.441
 3233SOL     OW10597   0.745   1.683   0.745
 3233SOL    HW110598   0.798   1.602   0.768
 3233SOL    HW210599   0.803   1.750   0.699
 3234SOL     OW10600   2.323   2.510   0.629
 3234SOL    HW110601   2.366   2.594   0.597
 3234SOL    HW210602   2.267   2.530   0.710
 3235SOL     OW10603   0.950   6.899   3.060
 3235SOL    HW110604   0.982   6.989   3.090
 3235SOL    HW210605   0.871   6.910   3.000
 3236SOL     OW10606   3.803   2.002   0.035
 3236SOL    HW110607   3.798   1.903   0.022
 3236SOL    HW210608   3.766   2.048   6.979
 3237SOL     OW10609   6.190   1.998   5.437
 3237SOL    HW110610   6.262   1.929   5.435
 3237SOL    HW210611   6.147   2.004   5.346
 3238SOL     OW10612   6.755   4.881   1.718
 3238SOL    HW110613   6.655   4.873   1.724
 3238SOL    HW210614   6.797   4.824   1.789
 3239SOL     OW10615   6.812   7.022   4.433
 3239SOL    HW110616   6.769   6.996   4.346
 3239SOL    HW210617   6.895   0.049   4.415
 3240SOL     OW10618   0.498   0.564   0.363
 3240SOL    HW110619   0.433   0.636   0.340
 3240SOL    HW210620   0.524   0.571   0.459
 3241SOL     OW10621   6.008   2.259   5.844
 3241SOL    HW110622   6.102   2.291   5.856
 3241SOL    HW210623   6.007   2.183   5.780
 3242SOL     OW10624   5.956   4.149   4.356
 3242SOL    HW110625   5.879   4.180   4.412
 3242SOL    HW210626   6.041   4.167   4.404
 3243SOL     OW10627   6.156   4.860   4.462
 3243SOL    HW110628   6.212   4.901   4.534
 3243SOL    HW210629   6.075   4.818   4.504
 3244SOL     OW10630   5.257   0.401   6.791
 3244SOL    HW110631   5.319   0.338   6.837
 3244SOL    HW210632   5.264   0.388   6.692
 3245SOL     OW10633   4.269   1.038   5.281
 3245SOL    HW110634   4.337   1.067   5.214
 3245SOL    HW210635   4.186   1.093   5.269
 3246SOL     OW10636   6.945   0.181   2.973
 3246SOL    HW110637   6.898   0.245   3.034
 3246SOL    HW210638   6.880   0.147   2.904
 3247SOL     OW10639   0.265   4.325   3.378
 3247SOL    HW110640   0.242   4.405   3.322
 3247SOL    HW210641   0.181   4.280   3.408
 3248SOL     OW10642   5.363   2.116   3.478
 3248SOL    HW110643   5.271   2.085   3.501
 3248SOL    HW210644   5.361   2.167   3.392
 3249SOL     OW10645   3.009   3.896   3.724
 3249SOL    HW110646   3.038   3.923   3.816
 3249SOL    HW210647   3.028   3.799   3.710
 3250SOL     OW10648   4.937   5.353   2.743
 3250SOL    HW110649   4.899   5.260   2.741
 3250SOL    HW210650   4.914   5.396   2.830
 3251SOL     OW10651   2.206   1.949   3.027
 3251SOL    HW110652   2.228   2.037   2.984
 3251SOL    HW210653   2.200   1.878   2.956
 3252SOL     OW10654   1.687   1.042   3.419
 3252SOL    HW110655   1.673   1.066   3.515
 3252SOL    HW210656   1.771   0.987   3.410
 3253SOL     OW10657   6.691   3.801   0.318
 3253SOL    HW110658   6.722   3.857   0.394
 3253SOL    HW210659   6.742   3.826   0.235
 3254SOL     OW10660   6.456   0.051   0.912
 3254SOL    HW110661   6.363   0.081   0.932
 3254SOL    HW210662   6.455   6.978   0.887
 3255SOL     OW10663   4.892   5.746   1.254
 3255SOL    HW110664   4.895   5.827   1.312
 3255SOL    HW210665   4.866   5.772   1.161
 3256SOL     OW10666   4.890   2.162   1.190
 3256SOL    HW110667   4.932   2.242   1.147
 3256SOL    HW210668   4.798   2.149   1.154
 3257SOL     OW10669   2.676   2.239   3.049
 3257SOL    HW110670   2.614   2.162   3.058
 3257SOL    HW210671   2.726   2.253   3.134
 3258SOL     OW10672   2.413   5.446   3.206
 3258SOL    HW110673   2.481   5.394   3.257
 3258SOL    HW210674   2.324   5.438   3.251
 3259SOL     OW10675   5.287   4.337   3.783
 3259SOL    HW110676   5.194   4.316   3.812
 3259SOL    HW210677   5.331   4.396   3.851
 3260SOL     OW10678   1.080   3.985   3.279
 3260SOL    HW110679   1.066   4.083   3.265
 3260SOL    HW210680   1.002   3.947   3.328
 3261SOL     OW10681   5.386   0.095   3.576
 3261SOL    HW110682   5.355   0.049   3.659
 3261SOL    HW210683   5.335   0.180   3.564
 3262SOL     OW10684   2.877   2.268   3.235
 3262SOL    HW110685   2.893   2.367   3.243
 3262SOL    HW210686   2.961   2.223   3.205
 3263SOL     OW10687   0.176   1.255   2.496
 3263SOL    HW110688   0.115   1.334   2.490
 3263SOL    HW210689   0.252   1.266   2.433
 3264SOL     OW10690   1.808   4.858   6.666
 3264SOL    HW110691   1.744   4.788   6.632
 3264SOL    HW210692   1.766   4.948   6.657
 3265SOL     OW10693   5.964   5.277   6.347
 3265SOL    HW110694   6.000   5.297   6.438
 3265SOL    HW210695   5.901   5.350   6.320
 3266SOL     OW10696   3.043   5.717   6.633
 3266SOL    HW110697   3.127   5.730   6.579
 3266SOL    HW210698   3.040   5.786   6.706
 3267SOL     OW10699   3.596   6.981   0.236
 3267SOL    HW110700   3.523   7.018   0.293
 3267SOL    HW210701   3.678   6.968   0.291
 3268SOL     OW10702   6.346   5.511   1.691
 3268SOL    HW110703   6.280   5.441   1.666
 3268SOL    HW210704   6.301   5.601   1.690
 3269SOL     OW10705   1.886   4.809   1.678
 3269SOL    HW110706   1.970   4.853   1.647
 3269SOL    HW210707   1.809   4.872   1.669
 3270SOL     OW10708   0.930   2.841   5.261
 3270SOL    HW110709   0.979   2.895   5.192
 3270SOL    HW210710   0.965   2.747   5.260
 3271SOL     OW10711   0.619   2.533   2.412
 3271SOL    HW110712   0.651   2.487   2.329
 3271SOL    HW210713   0.562   2.611   2.388
 3272SOL     OW10714   4.432   6.389   0.736
 3272SOL    HW110715   4.361   6.332   0.776
 3272SOL    HW210716   4.422   6.483   0.768
 3273SOL     OW10717   4.804   2.524   6.101
 3273SOL    HW110718   4.889   2.527   6.048
 3273SOL    HW210719   4.797   2.607   6.157
 3274SOL     OW10720   5.925   0.130   1.077
 3274SOL    HW110721   5.874   0.159   1.158
 3274SOL    HW210722   6.004   0.190   1.064
 3275SOL     OW10723   4.763   0.529   1.730
 3275SOL    HW110724   4.697   0.603   1.715
 3275SOL    HW210725   4.752   0.495   1.824
 3276SOL     OW10726   5.130   0.412   0.479
 3276SOL    HW110727   5.206   0.477   0.479
 3276SOL    HW210728   5.109   0.385   0.385
 3277SOL     OW10729   3.437   2.012   2.046
 3277SOL    HW110730   3.518   2.069   2.040
 3277SOL    HW210731   3.459   1.919   2.017
 3278SOL     OW10732   6.251   0.518   0.002
 3278SOL    HW110733   6.242   0.495   0.099
 3278SOL    HW210734   6.165   0.559   6.995
 3279SOL     OW10735   3.272   0.168   1.776
 3279SOL    HW110736   3.178   0.200   1.766
 3279SOL    HW210737   3.274   0.068   1.774
 3280SOL     OW10738   6.050   4.274   3.498
 3280SOL    HW110739   6.092   4.220   3.425
 3280SOL    HW210740   6.030   4.215   3.576
 3281SOL     OW10741   6.081   3.673   1.421
 3281SOL    HW110742   6.008   3.689   1.487
 3281SOL    HW210743   6.170   3.678   1.466
 3282SOL     OW10744   0.215   4.957   4.411
 3282SOL    HW110745   0.141   5.001   4.359
 3282SOL    HW210746   0.301   4.964   4.359
 3283SOL     OW10747   3.650   2.151   0.864
 3283SOL    HW110748   3.602   2.089   0.802
 3283SOL    HW210749   3.719   2.203   0.812
 3284SOL     OW10750   1.987   6.060   4.385
 3284SOL    HW110751   2.078   6.024   4.406
 3284SOL    HW210752   1.927   5.985   4.358
 3285SOL     OW10753   3.720   2.119   4.733
 3285SOL    HW110754   3.647   2.186   4.743
 3285SOL    HW210755   3.681   2.027   4.734
 3286SOL     OW10756   2.449   1.762   1.845
 3286SOL    HW110757   2.368   1.706   1.867
 3286SOL    HW210758   2.483   1.804   1.929
 3287SOL     OW10759   2.531   0.219   6.930
 3287SOL    HW110760   2.512   0.123   6.950
 3287SOL    HW210761   2.582   0.259   7.007
 3288SOL     OW10762   2.426   6.332   1.717
 3288SOL    HW110763   2.393   6.272   1.790
 3288SOL    HW210764   2.351   6.390   1.685
 3289SOL     OW10765   4.268   1.203   6.494
 3289SOL    HW110766   4.243   1.107   6.511
 3289SOL    HW210767   4.251   1.224   6.397
 3290SOL     OW10768   0.210   5.601   0.404
 3290SOL    HW110769   0.141   5.596   0.477
 3290SOL    HW210770   0.255   5.512   0.395
 3291SOL     OW10771   4.796   6.820   5.180
 3291SOL    HW110772   4.717   6.861   5.133
 3291SOL    HW210773   4.878   6.833   5.125
 3292SOL     OW10774   6.959   1.974   0.780
 3292SOL    HW110775   6.884   1.982   0.715
 3292SOL    HW210776   6.928   1.927   0.862
 3293SOL     OW10777   5.950   5.875   3.448
 3293SOL    HW110778   5.878   5.934   3.412
 3293SOL    HW210779   5.916   5.827   3.529
 3294SOL     OW10780   5.288   2.782   4.830
 3294SOL    HW110781   5.346   2.729   4.891
 3294SOL    HW210782   5.336   2.865   4.800
 3295SOL     OW10783   1.035   2.715   2.653
 3295SOL    HW110784   0.950   2.704   2.602
 3295SOL    HW210785   1.107   2.745   2.591
 3296SOL     OW10786   1.432   0.614   6.175
 3296SOL    HW110787   1.515   0.596   6.123
 3296SOL    HW210788   1.455   0.635   6.269
 3297SOL     OW10789   3.065   1.335   4.961
 3297SOL    HW110790   2.972   1.359   4.935
 3297SOL    HW210791   3.068   1.241   4.995
 3298SOL     OW10792   5.217   3.788   5.874
 3298SOL    HW110793   5.196   3.768   5.969
 3298SOL    HW210794   5.284   3.862   5.869
 3299SOL     OW10795   2.830   4.752   4.091
 3299SOL    HW110796   2.888   4.781   4.015
 3299SOL    HW210797   2.763   4.685   4.059
 3300SOL     OW10798   2.002   6.822   4.267
 3300SOL    HW110799   1.919   6.846   4.217
 3300SOL    HW210800   2.079   6.818   4.204
 3301SOL     OW10801   0.726   1.284   3.038
 3301SOL    HW110802   0.811   1.328   3.068
 3301SOL    HW210803   0.650   1.316   3.096
 3302SOL     OW10804   2.076   4.578   5.659
 3302SOL    HW110805   2.044   4.570   5.565
 3302SOL    HW210806   2.007   4.626   5.714
 3303SOL     OW10807   3.736   2.695   0.352
 3303SOL    HW110808   3.745   2.784   0.307
 3303SOL    HW210809   3.649   2.654   0.327
 3304SOL     OW10810   3.235   5.631   6.893
 3304SOL    HW110811   3.137   5.650   6.907
 3304SOL    HW210812   3.285   5.717   6.883
 3305SOL     OW10813   3.221   2.900   0.597
 3305SOL    HW110814   3.160   2.827   0.629
 3305SOL    HW210815   3.309   2.862   0.573
 3306SOL     OW10816   2.191   0.859   0.102
 3306SOL    HW110817   2.260   0.811   0.156
 3306SOL    HW210818   2.224   0.871   0.008
 3307SOL     OW10819   1.705   6.626   5.624
 3307SOL    HW110820   1.642   6.667   5.690
 3307SOL    HW210821   1.666   6.541   5.589
 3308SOL     OW10822   3.934   4.638   1.145
 3308SOL    HW110823   3.854   4.666   1.092
 3308SOL    HW210824   4.006   4.707   1.134
 3309SOL     OW10825   5.683   3.408   3.726
 3309SOL    HW110826   5.740   3.365   3.795
 3309SOL    HW210827   5.614   3.343   3.694
 3310SOL     OW10828   6.472   4.769   5.825
 3310SOL    HW110829   6.387   4.819   5.809
 3310SOL    HW210830   6.466   4.679   5.783
 3311SOL     OW10831   2.833   3.574   0.294
 3311SOL    HW110832   2.845   3.475   0.306
 3311SOL    HW210833   2.855   3.599   0.199
 3312SOL     OW10834   4.840   2.547   5.667
 3312SOL    HW110835   4.785   2.619   5.626
 3312SOL    HW210836   4.785   2.498   5.734
 3313SOL     OW10837   0.689   1.175   3.458
 3313SOL    HW110838   0.750   1.097   3.463
 3313SOL    HW210839   0.653   1.183   3.365
 3314SOL     OW10840   2.724   5.524   2.609
 3314SOL    HW110841   2.644   5.584   2.603
 3314SOL    HW210842   2.775   5.529   2.523
 3315SOL     OW10843   0.133   5.190   5.075
 3315SOL    HW110844   0.128   5.259   5.147
 3315SOL    HW210845   0.048   5.192   5.022
 3316SOL     OW10846   4.029   2.744   6.283
 3316SOL    HW110847   3.977   2.801   6.347
 3316SOL    HW210848   4.069   2.803   6.212
 3317SOL     OW10849   5.037   2.575   2.526
 3317SOL    HW110850   5.060   2.607   2.618
 3317SOL    HW210851   5.046   2.475   2.522
 3318SOL     OW10852   3.297   2.544   0.776
 3318SOL    HW110853   3.394   2.555   0.759
 3318SOL    HW210854   3.281   2.533   0.875
 3319SOL     OW10855   6.469   5.860   3.440
 3319SOL    HW110856   6.531   5.869   3.518
 3319SOL    HW210857   6.388   5.917   3.455
 3320SOL     OW10858   6.226   6.751   1.589
 3320SOL    HW110859   6.306   6.765   1.531
 3320SOL    HW210860   6.256   6.739   1.684
 3321SOL     OW10861   5.161   1.523   0.612
 3321SOL    HW110862   5.083   1.582   0.632
 3321SOL    HW210863   5.157   1.493   0.517
 3322SOL     OW10864   6.648   3.900   0.666
 3322SOL    HW110865   6.622   3.917   0.761
 3322SOL    HW210866   6.666   3.803   0.653
 3323SOL     OW10867   1.415   2.749   1.431
 3323SOL    HW110868   1.486   2.804   1.474
 3323SOL    HW210869   1.448   2.713   1.344
 3324SOL     OW10870   4.985   6.178   5.932
 3324SOL    HW110871   4.934   6.098   5.964
 3324SOL    HW210872   4.990   6.246   6.005
 3325SOL     OW10873   2.315   3.899   5.996
 3325SOL    HW110874   2.335   3.802   5.988
 3325SOL    HW210875   2.395   3.946   6.034
 3326SOL     OW10876   4.078   1.352   1.935
 3326SOL    HW110877   4.176   1.337   1.923
 3326SOL    HW210878   4.029   1.268   1.914
 3327SOL     OW10879   0.195   4.960   6.814
 3327SOL    HW110880   0.193   5.044   6.867
 3327SOL    HW210881   0.226   4.885   6.873
 3328SOL     OW10882   4.632   2.299   6.584
 3328SOL    HW110883   4.687   2.258   6.512
 3328SOL    HW210884   4.552   2.345   6.544
 3329SOL     OW10885   6.693   5.851   5.725
 3329SOL    HW110886   6.763   5.831   5.794
 3329SOL    HW210887   6.688   5.950   5.711
 3330SOL     OW10888   6.628   3.602   2.910
 3330SOL    HW110889   6.589   3.641   2.826
 3330SOL    HW210890   6.620   3.502   2.906
 3331SOL     OW10891   2.141   3.221   1.226
 3331SOL    HW110892   2.141   3.191   1.131
 3331SOL    HW210893   2.208   3.167   1.278
 3332SOL     OW10894   6.065   4.727   1.418
 3332SOL    HW110895   6.145   4.784   1.433
 3332SOL    HW210896   6.094   4.632   1.401
 3333SOL     OW10897   4.650   5.810   5.899
 3333SOL    HW110898   4.720   5.761   5.847
 3333SOL    HW210899   4.588   5.743   5.941
 3334SOL     OW10900   2.439   4.161   1.652
 3334SOL    HW110901   2.504   4.217   1.601
 3334SOL    HW210902   2.421   4.203   1.741
 3335SOL     OW10903   6.004   4.347   4.738
 3335SOL    HW110904   6.067   4.273   4.716
 3335SOL    HW210905   6.050   4.412   4.799
 3336SOL     OW10906   3.133   5.789   5.873
 3336SOL    HW110907   3.104   5.751   5.785
 3336SOL    HW210908   3.165   5.716   5.933
 3337SOL     OW10909   3.419   1.738   0.822
 3337SOL    HW110910   3.477   1.688   0.885
 3337SOL    HW210911   3.323   1.729   0.850
 3338SOL     OW10912   0.223   4.258   0.560
 3338SOL    HW110913   0.192   4.216   0.646
 3338SOL    HW210914   0.301   4.318   0.578
 3339SOL     OW10915   0.168   5.359   6.398
 3339SOL    HW110916   0.140   5.402   6.312
 3339SOL    HW210917   0.245   5.297   6.380
 3340SOL     OW10918   3.675   6.537   1.930
 3340SOL    HW110919   3.691   6.454   1.984
 3340SOL    HW210920   3.667   6.513   1.833
 3341SOL     OW10921   1.079   0.297   2.050
 3341SOL    HW110922   1.070   0.262   1.957
 3341SOL    HW210923   0.990   0.294   2.096
 3342SOL     OW10924   2.360   6.897   4.245
 3342SOL    HW110925   2.457   6.915   4.262
 3342SOL    HW210926   2.322   6.967   4.186
 3343SOL     OW10927   6.189   2.512   1.226
 3343SOL    HW110928   6.106   2.461   1.204
 3343SOL    HW210929   6.242   2.527   1.143
 3344SOL     OW10930   0.261   3.341   5.186
 3344SOL    HW110931   0.350   3.377   5.216
 3344SOL    HW210932   0.194   3.353   5.258
 3345SOL     OW10933   2.929   3.310   5.614
 3345SOL    HW110934   2.882   3.394   5.587
 3345SOL    HW210935   3.013   3.301   5.560
 3346SOL     OW10936   1.253   6.020   2.367
 3346SOL    HW110937   1.343   5.978   2.378
 3346SOL    HW210938   1.192   5.990   2.441
 3347SOL     OW10939   5.360   4.213   4.942
 3347SOL    HW110940   5.394   4.119   4.934
 3347SOL    HW210941   5.264   4.211   4.971
 3348SOL     OW10942   3.417   2.879   3.445
 3348SOL    HW110943   3.507   2.837   3.431
 3348SOL    HW210944   3.385   2.918   3.359
 3349SOL     OW10945   6.232   3.786   5.128
 3349SOL    HW110946   6.134   3.807   5.120
 3349SOL    HW210947   6.243   3.697   5.171
 3350SOL     OW10948   0.823   1.724   1.170
 3350SOL    HW110949   0.914   1.700   1.136
 3350SOL    HW210950   0.795   1.812   1.133
 3351SOL     OW10951   5.253   1.623   1.716
 3351SOL    HW110952   5.294   1.538   1.682
 3351SOL    HW210953   5.325   1.690   1.735
 3352SOL     OW10954   0.397   3.967   0.691
 3352SOL    HW110955   0.416   4.017   0.606
 3352SOL    HW210956   0.400   3.869   0.673
 3353SOL     OW10957   2.162   6.823   6.278
 3353SOL    HW110958   2.209   6.891   6.223
 3353SOL    HW210959   2.063   6.829   6.263
 3354SOL     OW10960   0.972   1.623   2.771
 3354SOL    HW110961   1.064   1.585   2.753
 3354SOL    HW210962   0.903   1.554   2.749
 3355SOL     OW10963   6.301   1.535   2.551
 3355SOL    HW110964   6.291   1.436   2.542
 3355SOL    HW210965   6.398   1.559   2.551
 3356SOL     OW10966   3.090   3.093   6.405
 3356SOL    HW110967   2.993   3.114   6.397
 3356SOL    HW210968   3.111   3.007   6.358
 3357SOL     OW10969   2.665   4.800   1.785
 3357SOL    HW110970   2.733   4.812   1.712
 3357SOL    HW210971   2.694   4.726   1.845
 3358SOL     OW10972   5.463   4.923   3.114
 3358SOL    HW110973   5.437   4.956   3.023
 3358SOL    HW210974   5.540   4.860   3.106
 3359SOL     OW10975   0.783   0.893   2.018
 3359SOL    HW110976   0.686   0.879   2.039
 3359SOL    HW210977   0.820   0.964   2.078
 3360SOL     OW10978   1.403   0.254   6.701
 3360SOL    HW110979   1.479   0.314   6.728
 3360SOL    HW210980   1.334   0.309   6.654
 3361SOL     OW10981   5.274   6.715   2.638
 3361SOL    HW110982   5.258   6.645   2.569
 3361SOL    HW210983   5.339   6.681   2.706
 3362SOL     OW10984   2.553   1.408   5.460
 3362SOL    HW110985   2.540   1.355   5.544
 3362SOL    HW210986   2.479   1.473   5.449
 3363SOL     OW10987   0.506   0.954   6.838
 3363SOL    HW110988   0.467   0.868   6.873
 3363SOL    HW210989   0.550   1.003   6.913
 3364SOL     OW10990   2.094   5.018   6.454
 3364SOL    HW110991   2.172   5.039   6.394
 3364SOL    HW210992   2.127   4.988   6.543
 3365SOL     OW10993   6.443   2.137   5.620
 3365SOL    HW110994   6.454   2.131   5.521
 3365SOL    HW210995   6.491   2.061   5.664
 3366SOL     OW10996   5.186   1.210   5.718
 3366SOL    HW110997   5.219   1.244   5.806
 3366SOL    HW210998   5.099   1.254   5.696
 3367SOL     OW10999   0.918   0.718   2.396
 3367SOL    HW111000   0.907   0.632   2.444
 3367SOL    HW211001   0.946   0.701   2.302
 3368SOL     OW11002   6.934   6.415   5.645
 3368SOL    HW111003   6.854   6.415   5.706
 3368SOL    HW211004   7.006   6.358   5.685
 3369SOL     OW11005   4.021   6.859   6.422
 3369SOL    HW111006   3.978   6.806   6.494
 3369SOL    HW211007   4.071   6.798   6.360
 3370SOL     OW11008   5.584   0.113   5.283
 3370SOL    HW111009   5.597   0.208   5.310
 3370SOL    HW211010   5.580   0.107   5.183
 3371SOL     OW11011   6.894   5.304   2.031
 3371SOL    HW111012   6.797   5.331   2.036
 3371SOL    HW211013   6.907   5.241   1.955
 3372SOL     OW11014   0.508   1.600   2.570
 3372SOL    HW111015   0.530   1.644   2.657
 3372SOL    HW211016   0.413   1.569   2.572
 3373SOL     OW11017   6.881   1.903   5.414
 3373SOL    HW111018   6.841   1.994   5.416
 3373SOL    HW211019   6.980   1.910   5.402
 3374SOL     OW11020   3.253   5.153   5.103
 3374SOL    HW111021   3.332   5.210   5.125
 3374SOL    HW211022   3.282   5.075   5.048
 3375SOL     OW11023   4.462   4.627   5.487
 3375SOL    HW111024   4.512   4.563   5.544
 3375SOL    HW211025   4.506   4.717   5.490
 3376SOL     OW11026   3.303   3.683   2.365
 3376SOL    HW111027   3.375   3.751   2.351
 3376SOL    HW211028   3.246   3.710   2.443
 3377SOL     OW11029   2.211   6.129   5.237
 3377SOL    HW111030   2.115   6.144   5.260
 3377SOL    HW211031   2.229   6.163   5.144
 3378SOL     OW11032   0.278   1.673   0.925
 3378SOL    HW111033   0.363   1.656   0.875
 3378SOL    HW211034   0.209   1.708   0.862
 3379SOL     OW11035   1.238   4.766   6.360
 3379SOL    HW111036   1.154   4.778   6.308
 3379SOL    HW211037   1.240   4.674   6.399
 3380SOL     OW11038   0.491   4.395   6.322
 3380SOL    HW111039   0.538   4.333   6.259
 3380SOL    HW211040   0.399   4.414   6.287
 3381SOL     OW11041   3.088   2.680   0.651
 3381SOL    HW111042   2.999   2.647   0.622
 3381SOL    HW211043   3.136   2.607   0.700
 3382SOL     OW11044   6.692   0.141   0.783
 3382SOL    HW111045   6.607   0.130   0.836
 3382SOL    HW211046   6.758   0.192   0.837
 3383SOL     OW11047   6.875   4.947   2.874
 3383SOL    HW111048   6.828   4.880   2.816
 3383SOL    HW211049   6.924   4.899   2.946
 3384SOL     OW11050   3.859   3.263   4.698
 3384SOL    HW111051   3.768   3.301   4.686
 3384SOL    HW211052   3.919   3.332   4.738
 3385SOL     OW11053   6.617   3.747   3.176
 3385SOL    HW111054   6.639   3.706   3.087
 3385SOL    HW211055   6.528   3.792   3.171
 3386SOL     OW11056   6.160   4.469   4.927
 3386SOL    HW111057   6.239   4.472   4.988
 3386SOL    HW211058   6.147   4.559   4.886
 3387SOL     OW11059   2.659   2.362   2.742
 3387SOL    HW111060   2.673   2.392   2.648
 3387SOL    HW211061   2.745   2.371   2.793
 3388SOL     OW11062   5.783   2.972   1.864
 3388SOL    HW111063   5.751   2.921   1.784
 3388SOL    HW211064   5.740   3.062   1.866
 3389SOL     OW11065   6.018   4.538   3.130
 3389SOL    HW111066   6.032   4.563   3.226
 3389SOL    HW211067   6.025   4.620   3.073
 3390SOL     OW11068   5.278   2.640   5.147
 3390SOL    HW111069   5.277   2.628   5.246
 3390SOL    HW211070   5.184   2.650   5.114
 3391SOL     OW11071   3.234   1.914   4.715
 3391SOL    HW111072   3.280   2.002   4.723
 3391SOL    HW211073   3.269   1.864   4.636
 3392SOL     OW11074   4.325   6.595   4.001
 3392SOL    HW111075   4.336   6.686   3.962
 3392SOL    HW211076   4.232   6.585   4.036
 3393SOL     OW11077   6.476   0.118   6.702
 3393SOL    HW111078   6.391   0.066   6.707
 3393SOL    HW211079   6.462   0.199   6.644
 3394SOL     OW11080   6.204   2.861   1.550
 3394SOL    HW111081   6.190   2.934   1.617
 3394SOL    HW211082   6.238   2.900   1.464
 3395SOL     OW11083   1.676   3.453   5.249
 3395SOL    HW111084   1.748   3.515   5.278
 3395SOL    HW211085   1.716   3.373   5.204
 3396SOL     OW11086   0.486   4.031   4.028
 3396SOL    HW111087   0.459   4.127   4.023
 3396SOL    HW211088   0.585   4.024   4.043
 3397SOL     OW11089   4.085   6.109   6.043
 3397SOL    HW111090   4.104   6.032   5.982
 3397SOL    HW211091   4.090   6.194   5.990
 3398SOL     OW11092   0.713   6.580   3.889
 3398SOL    HW111093   0.715   6.483   3.916
 3398SOL    HW211094   0.657   6.590   3.806
 3399SOL     OW11095   4.359   4.668   4.371
 3399SOL    HW111096   4.444   4.622   4.397
 3399SOL    HW211097   4.292   4.656   4.444
 3400SOL     OW11098   5.156   2.168   6.609
 3400SOL    HW111099   5.079   2.109   6.584
 3400SOL    HW211100   5.237   2.112   6.626
 3401SOL     OW11101   5.860   4.919   0.487
 3401SOL    HW111102   5.936   4.910   0.423
 3401SOL    HW211103   5.806   4.835   0.487
 3402SOL     OW11104   5.223   5.937   1.904
 3402SOL    HW111105   5.202   5.929   1.806
 3402SOL    HW211106   5.164   6.006   1.945
 3403SOL     OW11107   3.738   1.116   5.256
 3403SOL    HW111108   3.696   1.181   5.193
 3403SOL    HW211109   3.681   1.108   5.338
 3404SOL     OW11110   4.638   0.850   0.434
 3404SOL    HW111111   4.682   0.762   0.454
 3404SOL    HW211112   4.632   0.903   0.519
 3405SOL     OW11113   6.895   4.042   0.056
 3405SOL    HW111114   6.808   4.018   0.013
 3405SOL    HW211115   6.949   4.099   7.019
 3406SOL     OW11116   1.372   4.010   2.041
 3406SOL    HW111117   1.367   4.003   2.141
 3406SOL    HW211118   1.339   4.099   2.011
 3407SOL     OW11119   1.553   5.660   2.656
 3407SOL    HW111120   1.484   5.691   2.721
 3407SOL    HW211121   1.631   5.621   2.705
 3408SOL     OW11122   5.479   4.515   2.887
 3408SOL    HW111123   5.500   4.570   2.968
 3408SOL    HW211124   5.561   4.466   2.859
 3409SOL     OW11125   3.834   0.529   5.648
 3409SOL    HW111126   3.788   0.506   5.563
 3409SOL    HW211127   3.768   0.569   5.712
 3410SOL     OW11128   6.557   0.174   6.996
 3410SOL    HW111129   6.516   0.151   6.908
 3410SOL    HW211130   6.622   0.103   7.022
 3411SOL     OW11131   4.761   2.286   2.366
 3411SOL    HW111132   4.712   2.334   2.439
 3411SOL    HW211133   4.696   2.233   2.312
 3412SOL     OW11134   3.972   4.644   0.180
 3412SOL    HW111135   3.888   4.600   0.149
 3412SOL    HW211136   3.962   4.743   0.175
 3413SOL     OW11137   3.991   2.235   2.728
 3413SOL    HW111138   4.020   2.140   2.725
 3413SOL    HW211139   3.970   2.266   2.635
 3414SOL     OW11140   2.640   2.469   4.963
 3414SOL    HW111141   2.659   2.516   4.877
 3414SOL    HW211142   2.673   2.525   5.039
 3415SOL     OW11143   0.615   5.088   3.862
 3415SOL    HW111144   0.680   5.165   3.860
 3415SOL    HW211145   0.591   5.067   3.956
 3416SOL     OW11146   1.277   5.213   5.673
 3416SOL    HW111147   1.306   5.275   5.746
 3416SOL    HW211148   1.265   5.121   5.710
 3417SOL     OW11149   6.140   0.087   2.828
 3417SOL    HW111150   6.162   0.091   2.926
 3417SOL    HW211151   6.085   0.168   2.804
 3418SOL     OW11152   2.948   1.367   6.042
 3418SOL    HW111153   2.930   1.464   6.026
 3418SOL    HW211154   3.003   1.357   6.124
 3419SOL     OW11155   4.318   4.360   0.381
 3419SOL    HW111156   4.292   4.265   0.396
 3419SOL    HW211157   4.270   4.395   0.300
 3420SOL     OW11158   4.114   2.257   3.600
 3420SOL    HW111159   4.016   2.245   3.587
 3420SOL    HW211160   4.133   2.275   3.697
 3421SOL     OW11161   0.290   5.586   5.171
 3421SOL    HW111162   0.353   5.660   5.148
 3421SOL    HW211163   0.201   5.604   5.131
 3422SOL     OW11164   3.267   1.508   1.343
 3422SOL    HW111165   3.277   1.423   1.292
 3422SOL    HW211166   3.358   1.547   1.360
 3423SOL     OW11167   2.662   0.460   1.084
 3423SOL    HW111168   2.694   0.365   1.086
 3423SOL    HW211169   2.680   0.503   1.173
 3424SOL     OW11170   4.279   1.229   2.901
 3424SOL    HW111171   4.312   1.282   2.979
 3424SOL    HW211172   4.296   1.280   2.817
 3425SOL     OW11173   4.484   4.564   1.463
 3425SOL    HW111174   4.529   4.651   1.484
 3425SOL    HW211175   4.522   4.493   1.522
 3426SOL     OW11176   4.344   3.731   0.714
 3426SOL    HW111177   4.357   3.632   0.707
 3426SOL    HW211178   4.363   3.760   0.808
 3427SOL     OW11179   0.668   1.322   0.110
 3427SOL    HW111180   0.583   1.322   0.161
 3427SOL    HW211181   0.674   1.406   0.055
 3428SOL     OW11182   4.143   4.763   2.509
 3428SOL    HW111183   4.100   4.732   2.594
 3428SOL    HW211184   4.196   4.845   2.527
 3429SOL     OW11185   1.481   3.161   6.899
 3429SOL    HW111186   1.497   3.067   6.868
 3429SOL    HW211187   1.421   3.207   6.834
 3430SOL     OW11188   1.490   6.873   0.161
 3430SOL    HW111189   1.479   6.831   0.071
 3430SOL    HW211190   1.481   6.972   0.153
 3431SOL     OW11191   0.679   5.768   1.119
 3431SOL    HW111192   0.696   5.701   1.047
 3431SOL    HW211193   0.594   5.744   1.166
 3432SOL     OW11194   3.101   1.413   6.313
 3432SOL    HW111195   3.165   1.355   6.261
 3432SOL    HW211196   3.072   1.489   6.256
 3433SOL     OW11197   3.698   0.835   4.724
 3433SOL    HW111198   3.769   0.836   4.794
 3433SOL    HW211199   3.698   0.923   4.676
 3434SOL     OW11200   4.748   2.768   2.327
 3434SOL    HW111201   4.739   2.807   2.419
 3434SOL    HW211202   4.667   2.713   2.307
 3435SOL     OW11203   0.345   1.024   1.306
 3435SOL    HW111204   0.442   1.024   1.329
 3435SOL    HW211205   0.328   1.086   1.230
 3436SOL     OW11206   4.086   6.882   4.326
 3436SOL    HW111207   4.085   6.796   4.377
 3436SOL    HW211208   4.006   6.937   4.351
 3437SOL     OW11209   3.903   0.168   6.035
 3437SOL    HW111210   3.911   0.204   5.942
 3437SOL    HW211211   3.812   0.188   6.071
 3438SOL     OW11212   0.943   2.945   6.353
 3438SOL    HW111213   0.891   2.931   6.269
 3438SOL    HW211214   0.956   3.042   6.369
 3439SOL     OW11215   2.680   5.977   3.917
 3439SOL    HW111216   2.740   5.968   3.837
 3439SOL    HW211217   2.691   6.068   3.958
 3440SOL     OW11218   5.269   3.379   0.882
 3440SOL    HW111219   5.357   3.341   0.910
 3440SOL    HW211220   5.211   3.305   0.846
 3441SOL     OW11221   2.659   0.313   3.396
 3441SOL    HW111222   2.563   0.338   3.396
 3441SOL    HW211223   2.704   0.351   3.477
 3442SOL     OW11224   2.205   4.738   3.743
 3442SOL    HW111225   2.250   4.693   3.820
 3442SOL    HW211226   2.111   4.762   3.768
 3443SOL     OW11227   5.294   0.989   2.958
 3443SOL    HW111228   5.285   0.926   3.035
 3443SOL    HW211229   5.242   1.072   2.977
 3444SOL     OW11230   4.393   5.534   0.266
 3444SOL    HW111231   4.397   5.434   0.259
 3444SOL    HW211232   4.363   5.558   0.359
 3445SOL     OW11233   6.617   4.569   4.072
 3445SOL    HW111234   6.589   4.541   4.164
 3445SOL    HW211235   6.621   4.489   4.012
 3446SOL     OW11236   3.477   6.826   2.860
 3446SOL    HW111237   3.433   6.819   2.949
 3446SOL    HW211238   3.576   6.830   2.872
 3447SOL     OW11239   5.315   6.147   6.861
 3447SOL    HW111240   5.224   6.119   6.891
 3447SOL    HW211241   5.384   6.104   6.919
 3448SOL     OW11242   3.595   2.037   1.330
 3448SOL    HW111243   3.649   2.072   1.254
 3448SOL    HW211244   3.640   1.957   1.369
 3449SOL     OW11245   0.014   6.409   3.271
 3449SOL    HW111246   6.947   6.449   3.266
 3449SOL    HW211247   0.068   6.459   3.339
 3450SOL     OW11248   1.290   1.694   1.623
 3450SOL    HW111249   1.374   1.748   1.625
 3450SOL    HW211250   1.302   1.615   1.563
 3451SOL     OW11251   1.002   5.626   4.598
 3451SOL    HW111252   0.923   5.678   4.565
 3451SOL    HW211253   1.050   5.586   4.520
 3452SOL     OW11254   5.793   1.373   0.613
 3452SOL    HW111255   5.745   1.458   0.635
 3452SOL    HW211256   5.773   1.304   0.681
 3453SOL     OW11257   5.249   5.482   4.698
 3453SOL    HW111258   5.254   5.396   4.648
 3453SOL    HW211259   5.300   5.552   4.648
 3454SOL     OW11260   0.795   0.996   0.472
 3454SOL    HW111261   0.879   1.032   0.431
 3454SOL    HW211262   0.817   0.914   0.524
 3455SOL     OW11263   1.972   2.645   4.048
 3455SOL    HW111264   1.920   2.712   3.996
 3455SOL    HW211265   2.068   2.650   4.022
 3456SOL     OW11266   5.704   6.936   1.665
 3456SOL    HW111267   5.697   6.836   1.658
 3456SOL    HW211268   5.758   6.959   1.746
 3457SOL     OW11269   2.668   5.077   3.251
 3457SOL    HW111270   2.728   5.073   3.331
 3457SOL    HW211271   2.722   5.099   3.170
 3458SOL     OW11272   5.530   6.325   0.829
 3458SOL    HW111273   5.450   6.320   0.887
 3458SOL    HW211274   5.552   6.234   0.793
 3459SOL     OW11275   0.194   5.340   4.015
 3459SOL    HW111276   0.112   5.308   3.966
 3459SOL    HW211277   0.182   5.435   4.042
 3460SOL     OW11278   4.416   3.399   6.616
 3460SOL    HW111279   4.446   3.381   6.709
 3460SOL    HW211280   4.343   3.336   6.591
 3461SOL     OW11281   4.198   6.427   3.587
 3461SOL    HW111282   4.156   6.382   3.509
 3461SOL    HW211283   4.232   6.517   3.559
 3462SOL     OW11284   4.951   3.470   2.975
 3462SOL    HW111285   4.902   3.521   2.904
 3462SOL    HW211286   4.968   3.531   3.053
 3463SOL     OW11287   2.226   2.668   1.505
 3463SOL    HW111288   2.305   2.726   1.521
 3463SOL    HW211289   2.156   2.686   1.574
 3464SOL     OW11290   4.704   2.690   6.441
 3464SOL    HW111291   4.710   2.743   6.526
 3464SOL    HW211292   4.780   2.626   6.436
 3465SOL     OW11293   2.136   3.471   2.307
 3465SOL    HW111294   2.160   3.513   2.219
 3465SOL    HW211295   2.105   3.377   2.291
 3466SOL     OW11296   6.285   5.229   4.423
 3466SOL    HW111297   6.303   5.203   4.328
 3466SOL    HW211298   6.190   5.209   4.446
 3467SOL     OW11299   2.925   2.368   0.899
 3467SOL    HW111300   2.878   2.305   0.962
 3467SOL    HW211301   2.881   2.458   0.905
 3468SOL     OW11302   4.511   1.448   1.210
 3468SOL    HW111303   4.537   1.520   1.147
 3468SOL    HW211304   4.440   1.391   1.168
 3469SOL     OW11305   4.106   6.623   5.362
 3469SOL    HW111306   4.155   6.678   5.429
 3469SOL    HW211307   4.077   6.680   5.285
 3470SOL     OW11308   0.419   3.006   1.687
 3470SOL    HW111309   0.336   3.060   1.693
 3470SOL    HW211310   0.492   3.060   1.645
 3471SOL     OW11311   5.165   3.729   3.674
 3471SOL    HW111312   5.225   3.809   3.683
 3471SOL    HW211313   5.080   3.756   3.628
 3472SOL     OW11314   4.092   1.741   3.688
 3472SOL    HW111315   4.000   1.703   3.697
 3472SOL    HW211316   4.105   1.813   3.756
 3473SOL     OW11317   0.112   4.025   2.539
 3473SOL    HW111318   0.071   4.085   2.470
 3473SOL    HW211319   0.212   4.028   2.530
 3474SOL     OW11320   6.335   5.160   4.129
 3474SOL    HW111321   6.271   5.231   4.098
 3474SOL    HW211322   6.323   5.077   4.074
 3475SOL     OW11323   6.874   4.124   4.515
 3475SOL    HW111324   6.910   4.217   4.511
 3475SOL    HW211325   6.948   4.059   4.501
 3476SOL     OW11326   0.935   1.679   3.366
 3476SOL    HW111327   0.956   1.760   3.311
 3476SOL    HW211328   1.008   1.612   3.354
 3477SOL     OW11329   0.697   3.698   1.778
 3477SOL    HW111330   0.748   3.618   1.810
 3477SOL    HW211331   0.675   3.757   1.856
 3478SOL     OW11332   2.296   0.396   0.066
 3478SOL    HW111333   2.370   0.344   0.025
 3478SOL    HW211334   2.260   0.462   7.024
 3479SOL     OW11335   0.938   3.386   3.812
 3479SOL    HW111336   0.951   3.327   3.732
 3479SOL    HW211337   0.949   3.332   3.895
 3480SOL     OW11338   1.062   5.708   6.774
 3480SOL    HW111339   1.029   5.613   6.769
 3480SOL    HW211340   1.100   5.724   6.865
 3481SOL     OW11341   6.840   0.250   6.168
 3481SOL    HW111342   6.892   0.209   6.243
 3481SOL    HW211343   6.896   0.321   6.124
 3482SOL     OW11344   6.354   3.700   4.846
 3482SOL    HW111345   6.328   3.795   4.864
 3482SOL    HW211346   6.389   3.693   4.753
 3483SOL     OW11347   4.669   2.271   3.434
 3483SOL    HW111348   4.607   2.301   3.507
 3483SOL    HW211349   4.637   2.307   3.347
 3484SOL     OW11350   1.784   3.210   5.664
 3484SOL    HW111351   1.747   3.202   5.757
 3484SOL    HW211352   1.857   3.144   5.651
 3485SOL     OW11353   0.558   1.787   6.258
 3485SOL    HW111354   0.464   1.811   6.234
 3485SOL    HW211355   0.602   1.865   6.302
 3486SOL     OW11356   2.610   0.333   4.942
 3486SOL    HW111357   2.599   0.253   5.001
 3486SOL    HW211358   2.524   0.351   4.894
 3487SOL     OW11359   5.158   0.995   6.717
 3487SOL    HW111360   5.170   1.056   6.639
 3487SOL    HW211361   5.064   0.959   6.716
 3488SOL     OW11362   6.334   0.715   4.251
 3488SOL    HW111363   6.389   0.639   4.287
 3488SOL    HW211364   6.258   0.732   4.314
 3489SOL     OW11365   3.439   0.139   0.504
 3489SOL    HW111366   3.375   0.063   0.496
 3489SOL    HW211367   3.392   0.220   0.539
 3490SOL     OW11368   3.976   5.253   0.732
 3490SOL    HW111369   4.054   5.273   0.673
 3490SOL    HW211370   3.905   5.323   0.719
 3491SOL     OW11371   4.699   3.906   0.175
 3491SOL    HW111372   4.693   3.982   0.110
 3491SOL    HW211373   4.608   3.880   0.206
 3492SOL     OW11374   6.284   4.660   2.490
 3492SOL    HW111375   6.366   4.636   2.542
 3492SOL    HW211376   6.237   4.736   2.536
 3493SOL     OW11377   5.962   3.097   4.586
 3493SOL    HW111378   5.949   3.187   4.627
 3493SOL    HW211379   6.032   3.048   4.637
 3494SOL     OW11380   3.932   1.708   1.666
 3494SOL    HW111381   3.951   1.668   1.577
 3494SOL    HW211382   3.989   1.789   1.679
 3495SOL     OW11383   1.830   3.381   2.238
 3495SOL    HW111384   1.884   3.324   2.299
 3495SOL    HW211385   1.870   3.378   2.146
 3496SOL     OW11386   6.695   5.447   0.999
 3496SOL    HW111387   6.684   5.491   1.088
 3496SOL    HW211388   6.695   5.516   0.927
 3497SOL     OW11389   3.366   0.689   2.572
 3497SOL    HW111390   3.271   0.683   2.539
 3497SOL    HW211391   3.424   0.725   2.498
 3498SOL     OW11392   2.026   1.931   1.500
 3498SOL    HW111393   2.027   1.968   1.407
 3498SOL    HW211394   1.937   1.949   1.542
 3499SOL     OW11395   6.075   5.094   5.870
 3499SOL    HW111396   6.040   5.163   5.934
 3499SOL    HW211397   6.027   5.102   5.783
 3500SOL     OW11398   1.734   2.582   3.787
 3500SOL    HW111399   1.696   2.571   3.695
 3500SOL    HW211400   1.777   2.672   3.795
 3501SOL     OW11401   1.444   6.524   6.026
 3501SOL    HW111402   1.390   6.450   5.986
 3501SOL    HW211403   1.541   6.506   6.011
 3502SOL     OW11404   4.907   3.219   1.893
 3502SOL    HW111405   4.862   3.147   1.945
 3502SOL    HW211406   4.990   3.248   1.940
 3503SOL     OW11407   6.363   6.019   6.832
 3503SOL    HW111408   6.425   5.941   6.838
 3503SOL    HW211409   6.277   5.991   6.789
 3504SOL     OW11410   1.511   0.765   1.558
 3504SOL    HW111411   1.498   0.809   1.647
 3504SOL    HW211412   1.597   0.715   1.558
 3505SOL     OW11413   5.906   5.257   6.043
 3505SOL    HW111414   5.894   5.227   6.138
 3505SOL    HW211415   5.966   5.337   6.041
 3506SOL     OW11416   4.999   4.489   4.709
 3506SOL    HW111417   4.916   4.541   4.733
 3506SOL    HW211418   5.078   4.550   4.713
 3507SOL     OW11419   2.876   6.695   0.544
 3507SOL    HW111420   2.938   6.770   0.565
 3507SOL    HW211421   2.824   6.716   0.462
 3508SOL     OW11422   3.278   2.607   5.389
 3508SOL    HW111423   3.243   2.545   5.319
 3508SOL    HW211424   3.209   2.677   5.408
 3509SOL     OW11425   4.320   5.744   6.626
 3509SOL    HW111426   4.229   5.746   6.586
 3509SOL    HW211427   4.323   5.805   6.706
 3510SOL     OW11428   2.738   0.711   0.993
 3510SOL    HW111429   2.695   0.624   1.019
 3510SOL    HW211430   2.837   0.699   0.987
 3511SOL     OW11431   2.586   4.638   1.136
 3511SOL    HW111432   2.550   4.719   1.090
 3511SOL    HW211433   2.685   4.635   1.126
 3512SOL     OW11434   0.879   4.320   6.774
 3512SOL    HW111435   0.840   4.228   6.765
 3512SOL    HW211436   0.974   4.319   6.744
 3513SOL     OW11437   5.811   2.089   0.297
 3513SOL    HW111438   5.786   2.150   0.222
 3513SOL    HW211439   5.735   2.027   0.316
 3514SOL     OW11440   4.207   0.975   2.848
 3514SOL    HW111441   4.205   0.954   2.946
 3514SOL    HW211442   4.235   1.070   2.835
 3515SOL     OW11443   6.165   5.816   4.620
 3515SOL    HW111444   6.183   5.876   4.698
 3515SOL    HW211445   6.246   5.814   4.561
 3516SOL     OW11446   5.481   0.153   1.137
 3516SOL    HW111447   5.545   0.226   1.160
 3516SOL    HW211448   5.524   0.065   1.158
 3517SOL     OW11449   6.651   1.050   0.634
 3517SOL    HW111450   6.641   1.136   0.584
 3517SOL    HW211451   6.670   1.070   0.730
 3518SOL     OW11452   5.675   1.529   5.467
 3518SOL    HW111453   5.746   1.583   5.422
 3518SOL    HW211454   5.712   1.489   5.552
 3519SOL     OW11455   3.424   0.589   0.624
 3519SOL    HW111456   3.371   0.652   0.681
 3519SOL    HW211457   3.520   0.615   0.627
 3520SOL     OW11458   3.086   6.323   4.988
 3520SOL    HW111459   3.167   6.266   4.979
 3520SOL    HW211460   3.106   6.403   5.044
 3521SOL     OW11461   3.010   3.049   6.934
 3521SOL    HW111462   3.010   2.989   7.014
 3521SOL    HW211463   2.968   3.001   6.857
 3522SOL     OW11464   6.774   5.542   6.970
 3522SOL    HW111465   6.740   5.595   0.024
 3522SOL    HW211466   6.854   5.489   6.998
 3523SOL     OW11467   1.008   5.293   6.250
 3523SOL    HW111468   0.940   5.352   6.205
 3523SOL    HW211469   1.025   5.213   6.193
 3524SOL     OW11470   6.691   1.397   3.404
 3524SOL    HW111471   6.713   1.468   3.471
 3524SOL    HW211472   6.610   1.346   3.435
 3525SOL     OW11473   6.076   5.023   3.926
 3525SOL    HW111474   6.004   4.965   3.964
 3525SOL    HW211475   6.164   4.976   3.934
 3526SOL     OW11476   1.205   5.890   3.368
 3526SOL    HW111477   1.299   5.856   3.358
 3526SOL    HW211478   1.151   5.861   3.290
 3527SOL     OW11479   6.798   2.673   5.887
 3527SOL    HW111480   6.781   2.759   5.935
 3527SOL    HW211481   6.719   2.613   5.897
 3528SOL     OW11482   2.663   6.542   5.289
 3528SOL    HW111483   2.703   6.603   5.357
 3528SOL    HW211484   2.731   6.475   5.259
 3529SOL     OW11485   4.802   5.743   0.065
 3529SOL    HW111486   4.856   5.663   0.092
 3529SOL    HW211487   4.705   5.727   0.085
 3530SOL     OW11488   0.464   0.327   1.863
 3530SOL    HW111489   0.541   0.272   1.896
 3530SOL    HW211490   0.384   0.310   1.922
 3531SOL     OW11491   5.115   1.820   1.482
 3531SOL    HW111492   5.178   1.767   1.539
 3531SOL    HW211493   5.095   1.770   1.398
 3532SOL     OW11494   1.989   1.108   2.179
 3532SOL    HW111495   1.915   1.172   2.159
 3532SOL    HW211496   1.978   1.026   2.123
 3533SOL     OW11497   6.858   1.285   2.660
 3533SOL    HW111498   6.845   1.354   2.589
 3533SOL    HW211499   6.907   1.326   2.737
 3534SOL     OW11500   0.091   1.522   1.561
 3534SOL    HW111501   0.166   1.498   1.498
 3534SOL    HW211502   0.127   1.578   1.635
 3535SOL     OW11503   2.750   5.027   4.955
 3535SOL    HW111504   2.775   4.947   4.900
 3535SOL    HW211505   2.820   5.098   4.942
 3536SOL     OW11506   3.278   2.110   2.257
 3536SOL    HW111507   3.345   2.166   2.305
 3536SOL    HW211508   3.323   2.063   2.181
 3537SOL     OW11509   2.012   5.278   2.537
 3537SOL    HW111510   2.109   5.284   2.563
 3537SOL    HW211511   1.958   5.335   2.598
 3538SOL     OW11512   3.147   5.414   4.698
 3538SOL    HW111513   3.126   5.491   4.637
 3538SOL    HW211514   3.246   5.401   4.702
 3539SOL     OW11515   3.921   3.776   5.109
 3539SOL    HW111516   3.977   3.788   5.191
 3539SOL    HW211517   3.877   3.863   5.086
 3540SOL     OW11518   2.010   1.898   4.027
 3540SOL    HW111519   2.033   1.826   3.960
 3540SOL    HW211520   2.091   1.955   4.043
 3541SOL     OW11521   2.899   3.726   5.246
 3541SOL    HW111522   2.870   3.638   5.209
 3541SOL    HW211523   2.902   3.794   5.173
 3542SOL     OW11524   1.379   4.525   2.594
 3542SOL    HW111525   1.337   4.435   2.579
 3542SOL    HW211526   1.421   4.557   2.510
 3543SOL     OW11527   5.523   2.755   4.558
 3543SOL    HW111528   5.437   2.797   4.531
 3543SOL    HW211529   5.585   2.826   4.593
 3544SOL     OW11530   2.161   4.366   5.830
 3544SOL    HW111531   2.159   4.427   5.750
 3544SOL    HW211532   2.233   4.298   5.817
 3545SOL     OW11533   4.435   5.507   6.610
 3545SOL    HW111534   4.405   5.601   6.628
 3545SOL    HW211535   4.408   5.449   6.687
 3546SOL     OW11536   6.741   5.526   3.256
 3546SOL    HW111537   6.761   5.489   3.166
 3546SOL    HW211538   6.772   5.621   3.260
 3547SOL     OW11539   4.660   5.100   4.632
 3547SOL    HW111540   4.684   5.189   4.669
 3547SOL    HW211541   4.649   5.107   4.533
 3548SOL     OW11542   4.754   2.765   5.043
 3548SOL    HW111543   4.751   2.860   5.074
 3548SOL    HW211544   4.673   2.745   4.988
 3549SOL     OW11545   5.974   5.009   3.077
 3549SOL    HW111546   6.052   5.041   3.024
 3549SOL    HW211547   6.000   5.004   3.174
 3550SOL     OW11548   5.557   1.570   2.350
 3550SOL    HW111549   5.539   1.555   2.448
 3550SOL    HW211550   5.472   1.560   2.299
 3551SOL     OW11551   3.158   6.414   3.522
 3551SOL    HW111552   3.175   6.477   3.598
 3551SOL    HW211553   3.211   6.330   3.536
 3552SOL     OW11554   6.066   5.858   2.697
 3552SOL    HW111555   6.132   5.826   2.629
 3552SOL    HW211556   6.080   5.956   2.714
 3553SOL     OW11557   5.029   2.325   2.820
 3553SOL    HW111558   5.019   2.242   2.875
 3553SOL    HW211559   5.090   2.389   2.866
 3554SOL     OW11560   4.063   4.900   6.797
 3554SOL    HW111561   4.003   4.973   6.766
 3554SOL    HW211562   4.054   4.821   6.737
 3555SOL     OW11563   1.071   2.797   2.913
 3555SOL    HW111564   1.161   2.786   2.956
 3555SOL    HW211565   1.076   2.767   2.818
 3556SOL     OW11566   3.138   0.939   5.981
 3556SOL    HW111567   3.231   0.925   6.015
 3556SOL    HW211568   3.075   0.942   6.058
 3557SOL     OW11569   2.005   0.274   4.778
 3557SOL    HW111570   2.018   0.174   4.775
 3557SOL    HW211571   1.926   0.295   4.834
 3558SOL     OW11572   0.069   6.065   1.474
 3558SOL    HW111573   0.079   6.004   1.395
 3558SOL    HW211574   0.088   6.015   1.558
 3559SOL     OW11575   0.580   0.829   4.821
 3559SOL    HW111576   0.643   0.786   4.757
 3559SOL    HW211577   0.623   0.909   4.863
 3560SOL     OW11578   0.432   5.996   1.266
 3560SOL    HW111579   0.447   6.033   1.174
 3560SOL    HW211580   0.519   5.992   1.315
 3561SOL     OW11581   4.858   4.993   5.711
 3561SOL    HW111582   4.809   4.957   5.790
 3561SOL    HW211583   4.940   5.040   5.741
 3562SOL     OW11584   5.566   0.354   3.478
 3562SOL    HW111585   5.524   0.422   3.417
 3562SOL    HW211586   5.605   0.280   3.423
 3563SOL     OW11587   4.784   0.940   1.570
 3563SOL    HW111588   4.848   1.010   1.601
 3563SOL    HW211589   4.774   0.945   1.470
 3564SOL     OW11590   0.180   4.677   3.898
 3564SOL    HW111591   0.265   4.723   3.873
 3564SOL    HW211592   0.145   4.626   3.819
 3565SOL     OW11593   2.532   0.487   5.208
 3565SOL    HW111594   2.561   0.511   5.115
 3565SOL    HW211595   2.432   0.477   5.209
 3566SOL     OW11596   7.014   2.975   5.892
 3566SOL    HW111597   6.927   2.927   5.900
 3566SOL    HW211598   0.044   2.935   5.819
 3567SOL     OW11599   6.916   3.228   0.871
 3567SOL    HW111600   6.895   3.296   0.940
 3567SOL    HW211601   6.914   3.137   0.912
 3568SOL     OW11602   4.627   4.364   3.611
 3568SOL    HW111603   4.699   4.328   3.671
 3568SOL    HW211604   4.634   4.320   3.522
 3569SOL     OW11605   3.451   4.088   4.062
 3569SOL    HW111606   3.392   4.165   4.036
 3569SOL    HW211607   3.439   4.014   3.996
 3570SOL     OW11608   0.515   1.545   6.318
 3570SOL    HW111609   0.426   1.560   6.362
 3570SOL    HW211610   0.554   1.634   6.293
 3571SOL     OW11611   2.287   6.499   5.275
 3571SOL    HW111612   2.278   6.589   5.234
 3571SOL    HW211613   2.197   6.467   5.306
 3572SOL     OW11614   4.880   4.429   1.693
 3572SOL    HW111615   4.917   4.522   1.698
 3572SOL    HW211616   4.848   4.411   1.600
 3573SOL     OW11617   6.873   3.708   2.948
 3573SOL    HW111618   6.775   3.712   2.931
 3573SOL    HW211619   6.921   3.763   2.880
 3574SOL     OW11620   2.580   2.963   5.853
 3574SOL    HW111621   2.626   3.011   5.777
 3574SOL    HW211622   2.491   3.005   5.870
 3575SOL     OW11623   5.539   6.920   0.030
 3575SOL    HW111624   5.488   7.005   0.042
 3575SOL    HW211625   5.500   6.869   6.978
 3576SOL     OW11626   1.096   2.896   6.923
 3576SOL    HW111627   1.066   2.977   6.872
 3576SOL    HW211628   1.044   2.889   7.008
 3577SOL     OW11629   2.593   2.687   5.791
 3577SOL    HW111630   2.585   2.772   5.842
 3577SOL    HW211631   2.623   2.614   5.853
 3578SOL     OW11632   2.837   3.013   5.948
 3578SOL    HW111633   2.892   3.035   6.029
 3578SOL    HW211634   2.742   3.042   5.963
 3579SOL     OW11635   0.467   2.792   2.015
 3579SOL    HW111636   0.491   2.713   1.959
 3579SOL    HW211637   0.547   2.851   2.026
 3580SOL     OW11638   0.379   4.517   1.830
 3580SOL    HW111639   0.342   4.511   1.737
 3580SOL    HW211640   0.339   4.444   1.886
 3581SOL     OW11641   0.790   0.105   2.612
 3581SOL    HW111642   0.754   0.022   2.568
 3581SOL    HW211643   0.880   0.127   2.572
 3582SOL     OW11644   3.878   4.213   5.994
 3582SOL    HW111645   3.933   4.132   6.015
 3582SOL    HW211646   3.882   4.231   5.895
 3583SOL     OW11647   0.403   4.712   0.695
 3583SOL    HW111648   0.378   4.730   0.790
 3583SOL    HW211649   0.380   4.791   0.639
 3584SOL     OW11650   6.140   4.721   4.787
 3584SOL    HW111651   6.055   4.723   4.733
 3584SOL    HW211652   6.184   4.811   4.782
 3585SOL     OW11653   2.671   1.718   3.068
 3585SOL    HW111654   2.717   1.716   3.157
 3585SOL    HW211655   2.733   1.680   2.998
 3586SOL     OW11656   6.335   2.101   4.890
 3586SOL    HW111657   6.251   2.047   4.888
 3586SOL    HW211658   6.346   2.149   4.803
 3587SOL     OW11659   3.260   0.045   6.507
 3587SOL    HW111660   3.266   0.070   6.604
 3587SOL    HW211661   3.174   7.022   6.490
 3588SOL     OW11662   6.549   4.172   4.352
 3588SOL    HW111663   6.636   4.175   4.302
 3588SOL    HW211664   6.485   4.112   4.303
 3589SOL     OW11665   0.257   6.967   6.745
 3589SOL    HW111666   0.210   6.957   6.658
 3589SOL    HW211667   0.279   6.876   6.781
 3590SOL     OW11668   0.046   4.832   0.658
 3590SOL    HW111669   0.057   4.822   0.757
 3590SOL    HW211670   6.991   4.889   0.639
 3591SOL     OW11671   5.967   2.021   6.492
 3591SOL    HW111672   5.962   1.960   6.571
 3591SOL    HW211673   5.885   2.077   6.487
 3592SOL     OW11674   1.856   6.812   1.463
 3592SOL    HW111675   1.868   6.790   1.559
 3592SOL    HW211676   1.758   6.825   1.444
 3593SOL     OW11677   5.167   3.195   5.776
 3593SOL    HW111678   5.133   3.219   5.685
 3593SOL    HW211679   5.267   3.200   5.776
 3594SOL     OW11680   4.556   4.968   4.835
 3594SOL    HW111681   4.584   5.030   4.761
 3594SOL    HW211682   4.488   5.013   4.892
 3595SOL     OW11683   5.637   6.298   5.024
 3595SOL    HW111684   5.538   6.311   5.021
 3595SOL    HW211685   5.664   6.268   5.116
 3596SOL     OW11686   3.871   2.188   3.506
 3596SOL    HW111687   3.935   2.186   3.429
 3596SOL    HW211688   3.875   2.100   3.555
 3597SOL     OW11689   2.209   3.287   5.270
 3597SOL    HW111690   2.277   3.356   5.298
 3597SOL    HW211691   2.185   3.302   5.174
 3598SOL     OW11692   1.234   5.288   4.887
 3598SOL    HW111693   1.155   5.349   4.887
 3598SOL    HW211694   1.247   5.250   4.979
 3599SOL     OW11695   4.054   1.659   4.632
 3599SOL    HW111696   4.099   1.571   4.650
 3599SOL    HW211697   4.015   1.694   4.717
 3600SOL     OW11698   3.017   3.504   0.651
 3600SOL    HW111699   3.085   3.540   0.586
 3600SOL    HW211700   2.936   3.562   0.650
 3601SOL     OW11701   4.918   0.905   5.362
 3601SOL    HW111702   4.948   0.995   5.328
 3601SOL    HW211703   4.951   0.834   5.300
 3602SOL     OW11704   1.945   1.555   1.192
 3602SOL    HW111705   1.984   1.574   1.101
 3602SOL    HW211706   2.006   1.493   1.241
 3603SOL     OW11707   2.978   0.989   5.760
 3603SOL    HW111708   3.019   0.992   5.668
 3603SOL    HW211709   3.051   0.992   5.828
 3604SOL     OW11710   0.249   0.207   3.579
 3604SOL    HW111711   0.306   0.259   3.515
 3604SOL    HW211712   0.264   0.240   3.672
 3605SOL     OW11713   0.895   5.595   3.554
 3605SOL    HW111714   0.928   5.546   3.634
 3605SOL    HW211715   0.936   5.686   3.551
 3606SOL     OW11716   2.541   6.367   2.437
 3606SOL    HW111717   2.511   6.292   2.379
 3606SOL    HW211718   2.488   6.366   2.522
 3607SOL     OW11719   5.481   2.818   2.748
 3607SOL    HW111720   5.555   2.753   2.769
 3607SOL    HW211721   5.490   2.848   2.653
 3608SOL     OW11722   2.544   2.035   5.217
 3608SOL    HW111723   2.446   2.028   5.201
 3608SOL    HW211724   2.581   1.945   5.241
 3609SOL     OW11725   2.433   0.321   4.684
 3609SOL    HW111726   2.500   0.275   4.625
 3609SOL    HW211727   2.388   0.253   4.742
 3610SOL     OW11728   2.320   6.975   4.931
 3610SOL    HW111729   2.302   6.890   4.880
 3610SOL    HW211730   2.239   7.000   4.984
 3611SOL     OW11731   5.338   5.207   2.919
 3611SOL    HW111732   5.247   5.184   2.953
 3611SOL    HW211733   5.376   5.129   2.869
 3612SOL     OW11734   5.757   1.352   6.834
 3612SOL    HW111735   5.767   1.367   6.933
 3612SOL    HW211736   5.711   1.264   6.819
 3613SOL     OW11737   3.938   5.426   1.319
 3613SOL    HW111738   3.986   5.382   1.243
 3613SOL    HW211739   3.879   5.359   1.364
 3614SOL     OW11740   4.096   5.087   6.275
 3614SOL    HW111741   4.182   5.138   6.268
 3614SOL    HW211742   4.112   4.992   6.247
 3615SOL     OW11743   5.887   2.571   5.799
 3615SOL    HW111744   5.815   2.502   5.786
 3615SOL    HW211745   5.923   2.565   5.892
 3616SOL     OW11746   1.519   1.269   0.003
 3616SOL    HW111747   1.496   1.363   0.028
 3616SOL    HW211748   1.446   1.207   0.034
 3617SOL     OW11749   3.776   6.272   6.057
 3617SOL    HW111750   3.833   6.234   5.984
 3617SOL    HW211751   3.817   6.250   6.145
 3618SOL     OW11752   1.816   4.593   4.931
 3618SOL    HW111753   1.752   4.629   4.998
 3618SOL    HW211754   1.817   4.652   4.851
 3619SOL     OW11755   5.905   3.594   1.038
 3619SOL    HW111756   5.828   3.530   1.035
 3619SOL    HW211757   5.892   3.658   1.114
 3620SOL     OW11758   6.213   5.676   5.266
 3620SOL    HW111759   6.164   5.699   5.350
 3620SOL    HW211760   6.285   5.744   5.250
 3621SOL     OW11761   3.028   3.442   3.606
 3621SOL    HW111762   2.969   3.486   3.537
 3621SOL    HW211763   3.018   3.343   3.599
 3622SOL     OW11764   1.082   5.820   6.515
 3622SOL    HW111765   1.071   5.807   6.613
 3622SOL    HW211766   1.171   5.863   6.497
 3623SOL     OW11767   1.197   5.028   6.476
 3623SOL    HW111768   1.100   5.019   6.456
 3623SOL    HW211769   1.239   4.937   6.482
 3624SOL     OW11770   3.095   1.753   1.575
 3624SOL    HW111771   3.141   1.839   1.550
 3624SOL    HW211772   3.164   1.685   1.600
 3625SOL     OW11773   7.009   2.415   0.698
 3625SOL    HW111774   6.999   2.514   0.685
 3625SOL    HW211775   6.920   2.371   0.689
 3626SOL     OW11776   1.037   2.368   4.903
 3626SOL    HW111777   1.093   2.427   4.962
 3626SOL    HW211778   1.096   2.306   4.852
 3627SOL     OW11779   3.695   2.085   1.718
 3627SOL    HW111780   3.661   2.149   1.788
 3627SOL    HW211781   3.780   2.043   1.750
 3628SOL     OW11782   5.988   1.824   0.949
 3628SOL    HW111783   6.020   1.730   0.965
 3628SOL    HW211784   5.896   1.835   0.987
 3629SOL     OW11785   0.961   1.303   3.916
 3629SOL    HW111786   0.904   1.328   3.837
 3629SOL    HW211787   0.910   1.239   3.973
 3630SOL     OW11788   6.963   2.216   2.601
 3630SOL    HW111789   0.007   2.155   2.562
 3630SOL    HW211790   6.890   2.231   2.534
 3631SOL     OW11791   1.592   6.425   2.323
 3631SOL    HW111792   1.522   6.483   2.365
 3631SOL    HW211793   1.577   6.330   2.351
 3632SOL     OW11794   4.754   4.150   0.914
 3632SOL    HW111795   4.736   4.052   0.908
 3632SOL    HW211796   4.746   4.191   0.823
 3633SOL     OW11797   3.767   3.548   6.613
 3633SOL    HW111798   3.760   3.529   6.515
 3633SOL    HW211799   3.688   3.602   6.643
 3634SOL     OW11800   3.452   5.761   6.762
 3634SOL    HW111801   3.525   5.710   6.808
 3634SOL    HW211802   3.493   5.832   6.705
 3635SOL     OW11803   1.860   0.038   1.944
 3635SOL    HW111804   1.890   6.972   1.975
 3635SOL    HW211805   1.767   0.032   1.910
 3636SOL     OW11806   0.767   4.710   6.451
 3636SOL    HW111807   0.717   4.674   6.373
 3636SOL    HW211808   0.836   4.644   6.480
 3637SOL     OW11809   6.386   2.998   7.022
 3637SOL    HW111810   6.323   2.925   0.026
 3637SOL    HW211811   6.479   2.974   0.026
 3638SOL     OW11812   5.952   4.757   2.955
 3638SOL    HW111813   6.036   4.730   2.909
 3638SOL    HW211814   5.952   4.856   2.969
 3639SOL     OW11815   3.441   3.863   3.899
 3639SOL    HW111816   3.416   3.777   3.942
 3639SOL    HW211817   3.540   3.868   3.888
 3640SOL     OW11818   4.678   2.384   0.577
 3640SOL    HW111819   4.616   2.364   0.500
 3640SOL    HW211820   4.766   2.415   0.541
 3641SOL     OW11821   5.934   3.828   2.551
 3641SOL    HW111822   5.945   3.733   2.579
 3641SOL    HW211823   5.860   3.835   2.484
 3642SOL     OW11824   5.995   3.013   6.467
 3642SOL    HW111825   5.915   3.058   6.506
 3642SOL    HW211826   6.006   3.041   6.372
 3643SOL     OW11827   3.959   5.518   5.097
 3643SOL    HW111828   4.058   5.507   5.097
 3643SOL    HW211829   3.937   5.614   5.116
 3644SOL     OW11830   2.747   0.324   1.447
 3644SOL    HW111831   2.679   0.382   1.402
 3644SOL    HW211832   2.816   0.381   1.492
 3645SOL     OW11833   1.307   4.351   3.477
 3645SOL    HW111834   1.279   4.421   3.543
 3645SOL    HW211835   1.355   4.278   3.526
 3646SOL     OW11836   1.950   4.412   5.100
 3646SOL    HW111837   2.031   4.364   5.064
 3646SOL    HW211838   1.902   4.456   5.024
 3647SOL     OW11839   3.659   6.972   6.564
 3647SOL    HW111840   3.647   0.009   6.642
 3647SOL    HW211841   3.636   7.021   6.480
 3648SOL     OW11842   4.649   5.475   3.334
 3648SOL    HW111843   4.663   5.552   3.271
 3648SOL    HW211844   4.627   5.393   3.282
 3649SOL     OW11845   6.072   2.360   0.391
 3649SOL    HW111846   6.018   2.277   0.402
 3649SOL    HW211847   6.024   2.438   0.432
 3650SOL     OW11848   5.352   5.552   0.213
 3650SOL    HW111849   5.402   5.609   0.279
 3650SOL    HW211850   5.349   5.600   0.125
 3651SOL     OW11851   0.869   2.169   5.602
 3651SOL    HW111852   0.945   2.179   5.537
 3651SOL    HW211853   0.875   2.080   5.647
 3652SOL     OW11854   4.204   1.492   1.714
 3652SOL    HW111855   4.139   1.497   1.790
 3652SOL    HW211856   4.295   1.514   1.747
 3653SOL     OW11857   1.098   1.894   1.279
 3653SOL    HW111858   1.081   1.873   1.183
 3653SOL    HW211859   1.166   1.967   1.285
 3654SOL     OW11860   5.002   6.928   0.596
 3654SOL    HW111861   5.071   6.883   0.539
 3654SOL    HW211862   5.022   6.910   0.692
 3655SOL     OW11863   1.796   2.063   4.172
 3655SOL    HW111864   1.853   1.999   4.120
 3655SOL    HW211865   1.839   2.153   4.174
 3656SOL     OW11866   6.781   0.007   1.206
 3656SOL    HW111867   6.858   7.011   1.266
 3656SOL    HW211868   6.695   7.020   1.256
 3657SOL     OW11869   5.728   5.497   5.254
 3657SOL    HW111870   5.754   5.581   5.303
 3657SOL    HW211871   5.691   5.431   5.319
 3658SOL     OW11872   1.966   4.965   5.728
 3658SOL    HW111873   1.948   5.064   5.724
 3658SOL    HW211874   1.998   4.933   5.639
 3659SOL     OW11875   0.082   1.530   6.294
 3659SOL    HW111876   0.018   1.503   6.222
 3659SOL    HW211877   0.158   1.580   6.253
 3660SOL     OW11878   5.696   5.515   6.570
 3660SOL    HW111879   5.600   5.542   6.565
 3660SOL    HW211880   5.749   5.586   6.617
 3661SOL     OW11881   0.151   1.901   5.083
 3661SOL    HW111882   0.106   1.949   5.007
 3661SOL    HW211883   0.248   1.927   5.087
 3662SOL     OW11884   2.692   1.750   5.489
 3662SOL    HW111885   2.666   1.757   5.393
 3662SOL    HW211886   2.791   1.766   5.498
 3663SOL     OW11887   2.637   1.982   6.625
 3663SOL    HW111888   2.614   2.037   6.545
 3663SOL    HW211889   2.680   1.897   6.596
 3664SOL     OW11890   3.992   1.123   1.721
 3664SOL    HW111891   4.045   1.153   1.642
 3664SOL    HW211892   3.918   1.187   1.739
 3665SOL     OW11893   0.743   5.566   5.981
 3665SOL    HW111894   0.814   5.635   5.964
 3665SOL    HW211895   0.732   5.509   5.899
 3666SOL     OW11896   1.882   2.541   4.700
 3666SOL    HW111897   1.937   2.600   4.641
 3666SOL    HW211898   1.802   2.590   4.732
 3667SOL     OW11899   2.332   0.402   1.549
 3667SOL    HW111900   2.284   0.489   1.550
 3667SOL    HW211901   2.358   0.380   1.455
 3668SOL     OW11902   7.012   0.660   1.495
 3668SOL    HW111903   0.064   0.724   1.495
 3668SOL    HW211904   6.951   0.683   1.419
 3669SOL     OW11905   0.679   1.764   3.736
 3669SOL    HW111906   0.591   1.722   3.716
 3669SOL    HW211907   0.752   1.707   3.697
 3670SOL     OW11908   2.442   6.453   2.070
 3670SOL    HW111909   2.420   6.509   2.150
 3670SOL    HW211910   2.405   6.361   2.083
 3671SOL     OW11911   6.081   0.385   3.804
 3671SOL    HW111912   6.106   0.478   3.780
 3671SOL    HW211913   6.116   0.363   3.895
 3672SOL     OW11914   3.562   6.537   3.280
 3672SOL    HW111915   3.579   6.619   3.335
 3672SOL    HW211916   3.466   6.509   3.291
 3673SOL     OW11917   3.520   6.285   1.209
 3673SOL    HW111918   3.525   6.308   1.112
 3673SOL    HW211919   3.561   6.195   1.224
 3674SOL     OW11920   1.776   4.301   6.632
 3674SOL    HW111921   1.876   4.297   6.635
 3674SOL    HW211922   1.741   4.339   6.718
 3675SOL     OW11923   1.448   0.646   3.854
 3675SOL    HW111924   1.358   0.611   3.877
 3675SOL    HW211925   1.518   0.589   3.898
 3676SOL     OW11926   3.526   2.128   4.050
 3676SOL    HW111927   3.606   2.139   3.992
 3676SOL    HW211928   3.444   2.149   3.997
 3677SOL     OW11929   2.360   0.746   4.392
 3677SOL    HW111930   2.346   0.654   4.355
 3677SOL    HW211931   2.287   0.767   4.457
 3678SOL     OW11932   0.661   0.471   4.013
 3678SOL    HW111933   0.649   0.543   4.081
 3678SOL    HW211934   0.594   0.482   3.940
 3679SOL     OW11935   4.004   0.617   2.546
 3679SOL    HW111936   4.030   0.626   2.450
 3679SOL    HW211937   3.961   0.702   2.578
 3680SOL     OW11938   3.230   1.185   4.578
 3680SOL    HW111939   3.132   1.165   4.569
 3680SOL    HW211940   3.248   1.226   4.667
 3681SOL     OW11941   1.468   5.930   4.386
 3681SOL    HW111942   1.457   5.911   4.288
 3681SOL    HW211943   1.437   5.851   4.439
 3682SOL     OW11944   5.470   2.034   1.528
 3682SOL    HW111945   5.431   2.078   1.609
 3682SOL    HW211946   5.544   1.974   1.555
 3683SOL     OW11947   5.852   1.553   6.657
 3683SOL    HW111948   5.830   1.512   6.746
 3683SOL    HW211949   5.898   1.485   6.600
 3684SOL     OW11950   2.112   6.511   5.827
 3684SOL    HW111951   2.083   6.482   5.918
 3684SOL    HW211952   2.041   6.570   5.787
 3685SOL     OW11953   2.227   6.178   4.989
 3685SOL    HW111954   2.132   6.162   4.963
 3685SOL    HW211955   2.258   6.264   4.949
 3686SOL     OW11956   0.373   4.130   2.576
 3686SOL    HW111957   0.396   4.125   2.673
 3686SOL    HW211958   0.366   4.226   2.549
 3687SOL     OW11959   5.317   4.895   4.297
 3687SOL    HW111960   5.247   4.933   4.357
 3687SOL    HW211961   5.286   4.807   4.261
 3688SOL     OW11962   6.311   2.238   0.187
 3688SOL    HW111963   6.313   2.186   0.101
 3688SOL    HW211964   6.222   2.226   0.231
 3689SOL     OW11965   1.175   6.750   5.753
 3689SOL    HW111966   1.139   6.786   5.667
 3689SOL    HW211967   1.209   6.657   5.739
 3690SOL     OW11968   5.169   5.597   1.570
 3690SOL    HW111969   5.091   5.584   1.509
 3690SOL    HW211970   5.175   5.521   1.634
 3691SOL     OW11971   1.474   2.803   0.747
 3691SOL    HW111972   1.557   2.846   0.712
 3691SOL    HW211973   1.459   2.716   0.700
 3692SOL     OW11974   0.816   3.151   5.653
 3692SOL    HW111975   0.853   3.068   5.611
 3692SOL    HW211976   0.890   3.200   5.698
 3693SOL     OW11977   6.418   1.173   2.043
 3693SOL    HW111978   6.365   1.186   2.128
 3693SOL    HW211979   6.502   1.123   2.064
 3694SOL     OW11980   6.654   0.250   2.741
 3694SOL    HW111981   6.730   0.185   2.743
 3694SOL    HW211982   6.592   0.227   2.666
 3695SOL     OW11983   5.606   3.610   2.859
 3695SOL    HW111984   5.582   3.593   2.763
 3695SOL    HW211985   5.623   3.523   2.905
 3696SOL     OW11986   4.144   0.567   4.671
 3696SOL    HW111987   4.133   0.580   4.770
 3696SOL    HW211988   4.211   0.632   4.636
 3697SOL     OW11989   6.801   6.324   2.982
 3697SOL    HW111990   6.735   6.398   2.991
 3697SOL    HW211991   6.893   6.359   3.003
 3698SOL     OW11992   1.602   0.011   2.771
 3698SOL    HW111993   1.652   6.997   2.848
 3698SOL    HW211994   1.577   0.106   2.791
 3699SOL     OW11995   2.585   2.421   3.649
 3699SOL    HW111996   2.560   2.499   3.593
 3699SOL    HW211997   2.615   2.452   3.739
 3700SOL     OW11998   1.193   5.221   4.603
 3700SOL    HW111999   1.268   5.228   4.538
 3700SOL    HW212000   1.230   5.206   4.695
 3701SOL     OW12001   1.743   0.585   1.923
 3701SOL    HW112002   1.782   0.508   1.973
 3701SOL    HW212003   1.695   0.646   1.987
 3702SOL     OW12004   5.696   4.738   3.074
 3702SOL    HW112005   5.790   4.761   3.050
 3702SOL    HW212006   5.693   4.644   3.110
 3703SOL     OW12007   1.340   1.588   3.846
 3703SOL    HW112008   1.267   1.655   3.831
 3703SOL    HW212009   1.428   1.630   3.825
 3704SOL     OW12010   6.678   1.682   0.646
 3704SOL    HW112011   6.731   1.640   0.720
 3704SOL    HW212012   6.737   1.699   0.567
 3705SOL     OW12013   5.204   4.620   3.187
 3705SOL    HW112014   5.293   4.621   3.231
 3705SOL    HW212015   5.134   4.648   3.253
 3706SOL     OW12016   1.249   4.609   0.183
 3706SOL    HW112017   1.329   4.666   0.166
 3706SOL    HW212018   1.166   4.661   0.161
 3707SOL     OW12019   1.579   5.335   3.635
 3707SOL    HW112020   1.502   5.334   3.698
 3707SOL    HW212021   1.612   5.241   3.620
 3708SOL     OW12022   2.264   6.063   1.162
 3708SOL    HW112023   2.183   6.070   1.105
 3708SOL    HW212024   2.244   6.103   1.252
 3709SOL     OW12025   1.296   1.746   2.256
 3709SOL    HW112026   1.369   1.682   2.231
 3709SOL    HW212027   1.223   1.741   2.188
 3710SOL     OW12028   0.618   4.153   5.277
 3710SOL    HW112029   0.611   4.125   5.182
 3710SOL    HW212030   0.714   4.161   5.303
 3711SOL     OW12031   1.347   5.496   4.279
 3711SOL    HW112032   1.272   5.445   4.235
 3711SOL    HW212033   1.389   5.557   4.212
 3712SOL     OW12034   1.758   5.327   4.630
 3712SOL    HW112035   1.679   5.289   4.581
 3712SOL    HW212036   1.731   5.348   4.724
 3713SOL     OW12037   6.235   0.355   4.059
 3713SOL    HW112038   6.293   0.321   3.985
 3713SOL    HW212039   6.292   0.374   4.139
 3714SOL     OW12040   0.645   4.644   0.553
 3714SOL    HW112041   0.619   4.657   0.457
 3714SOL    HW212042   0.582   4.695   0.612
 3715SOL     OW12043   5.743   5.566   3.973
 3715SOL    HW112044   5.696   5.499   4.031
 3715SOL    HW212045   5.735   5.657   4.015
 3716SOL     OW12046   4.938   5.511   4.554
 3716SOL    HW112047   4.876   5.455   4.498
 3716SOL    HW212048   4.989   5.451   4.616
 3717SOL     OW12049   4.484   0.838   1.042
 3717SOL    HW112050   4.573   0.830   0.996
 3717SOL    HW212051   4.481   0.775   1.120
 3718SOL     OW12052   6.585   6.606   6.174
 3718SOL    HW112053   6.578   6.507   6.169
 3718SOL    HW212054   6.668   6.631   6.225
 3719SOL     OW12055   3.496   4.026   0.107
 3719SOL    HW112056   3.487   4.111   0.158
 3719SOL    HW212057   3.455   3.951   0.159
 3720SOL     OW12058   0.206   3.535   1.323
 3720SOL    HW112059   0.154   3.617   1.300
 3720SOL    HW212060   0.292   3.534   1.271
 3721SOL     OW12061   0.318   6.291   5.567
 3721SOL    HW112062   0.319   6.231   5.488
 3721SOL    HW212063   0.411   6.314   5.594
 3722SOL     OW12064   5.357   6.496   3.279
 3722SOL    HW112065   5.308   6.413   3.306
 3722SOL    HW212066   5.449   6.494   3.319
 3723SOL     OW12067   4.482   3.474   0.644
 3723SOL    HW112068   4.521   3.466   0.736
 3723SOL    HW212069   4.539   3.534   0.589
 3724SOL     OW12070   1.400   4.853   4.556
 3724SOL    HW112071   1.424   4.860   4.653
 3724SOL    HW212072   1.303   4.829   4.547
 3725SOL     OW12073   1.461   5.921   0.126
 3725SOL    HW112074   1.397   5.951   0.196
 3725SOL    HW212075   1.447   5.824   0.107
 3726SOL     OW12076   5.951   3.820   5.175
 3726SOL    HW112077   5.902   3.760   5.111
 3726SOL    HW212078   5.897   3.903   5.189
 3727SOL     OW12079   7.007   3.435   3.745
 3727SOL    HW112080   0.003   3.432   3.842
 3727SOL    HW212081   6.924   3.383   3.726
 3728SOL     OW12082   3.027   2.729   0.325
 3728SOL    HW112083   2.964   2.662   0.364
 3728SOL    HW212084   3.118   2.689   0.318
 3729SOL     OW12085   0.779   0.215   5.805
 3729SOL    HW112086   0.776   0.269   5.720
 3729SOL    HW212087   0.805   0.121   5.784
 3730SOL     OW12088   4.735   5.923   4.633
 3730SOL    HW112089   4.799   5.853   4.603
 3730SOL    HW212090   4.644   5.883   4.647
 3731SOL     OW12091   0.585   2.118   0.142
 3731SOL    HW112092   0.552   2.152   0.231
 3731SOL    HW212093   0.508   2.108   0.080
 3732SOL     OW12094   3.258   2.567   6.767
 3732SOL    HW112095   3.275   2.574   6.668
 3732SOL    HW212096   3.190   2.635   6.794
 3733SOL     OW12097   1.828   0.365   3.414
 3733SOL    HW112098   1.845   0.370   3.316
 3733SOL    HW212099   1.868   0.281   3.451
 3734SOL     OW12100   4.132   6.965   0.958
 3734SOL    HW112101   4.114   0.039   0.957
 3734SOL    HW212102   4.160   6.938   1.050
 3735SOL     OW12103   4.300   6.704   2.722
 3735SOL    HW112104   4.334   6.767   2.652
 3735SOL    HW212105   4.372   6.638   2.745
 3736SOL     OW12106   0.035   0.768   0.733
 3736SOL    HW112107   0.132   0.746   0.745
 3736SOL    HW212108   0.000   0.812   0.815
 3737SOL     OW12109   6.788   2.323   2.421
 3737SOL    HW112110   6.698   2.279   2.426
 3737SOL    HW212111   6.784   2.410   2.470
 3738SOL     OW12112   6.529   6.649   1.223
 3738SOL    HW112113   6.573   6.641   1.313
 3738SOL    HW212114   6.593   6.692   1.159
 3739SOL     OW12115   3.183   4.008   0.241
 3739SOL    HW112116   3.085   3.999   0.261
 3739SOL    HW212117   3.194   4.051   0.151
 3740SOL     OW12118   5.164   5.419   6.351
 3740SOL    HW112119   5.065   5.416   6.336
 3740SOL    HW212120   5.211   5.420   6.262
 3741SOL     OW12121   5.293   3.141   0.384
 3741SOL    HW112122   5.275   3.065   0.322
 3741SOL    HW212123   5.235   3.132   0.465
 3742SOL     OW12124   3.832   5.468   0.698
 3742SOL    HW112125   3.778   5.484   0.781
 3742SOL    HW212126   3.826   5.548   0.638
 3743SOL     OW12127   3.629   3.423   1.097
 3743SOL    HW112128   3.578   3.341   1.071
 3743SOL    HW212129   3.701   3.398   1.161
 3744SOL     OW12130   0.380   6.628   2.374
 3744SOL    HW112131   0.440   6.698   2.333
 3744SOL    HW212132   0.290   6.667   2.389
 3745SOL     OW12133   4.909   3.560   2.276
 3745SOL    HW112134   4.883   3.473   2.234
 3745SOL    HW212135   4.921   3.629   2.204
 3746SOL     OW12136   6.150   0.463   4.431
 3746SOL    HW112137   6.146   0.449   4.530
 3746SOL    HW212138   6.239   0.434   4.396
 3747SOL     OW12139   3.417   6.720   5.857
 3747SOL    HW112140   3.369   6.679   5.780
 3747SOL    HW212141   3.352   6.769   5.915
 3748SOL     OW12142   4.932   1.829   2.548
 3748SOL    HW112143   4.877   1.846   2.466
 3748SOL    HW212144   5.027   1.854   2.529
 3749SOL     OW12145   7.014   6.528   2.056
 3749SOL    HW112146   0.019   6.581   1.977
 3749SOL    HW212147   0.069   6.498   2.108
 3750SOL     OW12148   5.513   4.177   0.733
 3750SOL    HW112149   5.536   4.206   0.825
 3750SOL    HW212150   5.417   4.198   0.714
 3751SOL     OW12151   1.853   3.842   2.680
 3751SOL    HW112152   1.938   3.799   2.711
 3751SOL    HW212153   1.778   3.775   2.685
 3752SOL     OW12154   0.698   6.274   6.640
 3752SOL    HW112155   0.648   6.188   6.647
 3752SOL    HW212156   0.692   6.308   6.546
 3753SOL     OW12157   6.614   6.969   4.976
 3753SOL    HW112158   6.563   6.892   5.013
 3753SOL    HW212159   6.707   6.969   5.013
 3754SOL     OW12160   6.489   6.851   1.502
 3754SOL    HW112161   6.464   6.884   1.411
 3754SOL    HW212162   6.487   6.928   1.566
 3755SOL     OW12163   5.168   3.049   3.025
 3755SOL    HW112164   5.229   3.079   3.099
 3755SOL    HW212165   5.218   3.051   2.939
 3756SOL     OW12166   3.098   0.321   6.322
 3756SOL    HW112167   3.159   0.385   6.276
 3756SOL    HW212168   3.112   0.229   6.284
 3757SOL     OW12169   3.698   5.412   6.627
 3757SOL    HW112170   3.606   5.373   6.632
 3757SOL    HW212171   3.751   5.381   6.706
 3758SOL     OW12172   1.332   1.061   3.947
 3758SOL    HW112173   1.272   1.002   4.002
 3758SOL    HW212174   1.306   1.156   3.959
 3759SOL     OW12175   4.426   4.328   6.860
 3759SOL    HW112176   4.489   4.333   6.782
 3759SOL    HW212177   4.366   4.408   6.859
 3760SOL     OW12178   1.954   2.347   5.174
 3760SOL    HW112179   1.901   2.381   5.252
 3760SOL    HW212180   1.960   2.419   5.104
 3761SOL     OW12181   6.970   6.621   3.825
 3761SOL    HW112182   6.891   6.561   3.835
 3761SOL    HW212183   7.013   6.604   3.736
 3762SOL     OW12184   0.589   3.713   6.910
 3762SOL    HW112185   0.611   3.687   6.816
 3762SOL    HW212186   0.610   3.637   6.972
 3763SOL     OW12187   6.217   3.788   6.183
 3763SOL    HW112188   6.227   3.691   6.203
 3763SOL    HW212189   6.179   3.835   6.263
 3764SOL     OW12190   2.400   6.712   3.703
 3764SOL    HW112191   2.324   6.685   3.645
 3764SOL    HW212192   2.455   6.782   3.657
 3765SOL     OW12193   5.731   1.274   4.478
 3765SOL    HW112194   5.670   1.274   4.557
 3765SOL    HW212195   5.768   1.366   4.464
 3766SOL     OW12196   1.913   0.255   5.115
 3766SOL    HW112197   1.955   0.343   5.138
 3766SOL    HW212198   1.835   0.271   5.054
 3767SOL     OW12199   1.731   5.036   1.549
 3767SOL    HW112200   1.776   5.079   1.471
 3767SOL    HW212201   1.672   4.961   1.518
 3768SOL     OW12202   4.614   6.773   0.775
 3768SOL    HW112203   4.554   6.755   0.697
 3768SOL    HW212204   4.709   6.775   0.744
 3769SOL     OW12205   4.496   6.404   5.009
 3769SOL    HW112206   4.434   6.446   5.075
 3769SOL    HW212207   4.517   6.310   5.037
 3770SOL     OW12208   2.100   2.042   0.023
 3770SOL    HW112209   2.155   1.961   0.038
 3770SOL    HW212210   2.015   2.036   0.076
 3771SOL     OW12211   4.991   1.421   5.742
 3771SOL    HW112212   5.016   1.385   5.832
 3771SOL    HW212213   4.892   1.415   5.730
 3772SOL     OW12214   4.990   1.100   2.490
 3772SOL    HW112215   5.000   1.002   2.471
 3772SOL    HW212216   5.074   1.147   2.462
 3773SOL     OW12217   6.782   2.969   6.686
 3773SOL    HW112218   6.826   2.984   6.597
 3773SOL    HW212219   6.823   2.890   6.731
 3774SOL     OW12220   0.512   1.070   2.152
 3774SOL    HW112221   0.465   1.120   2.225
 3774SOL    HW212222   0.537   1.134   2.079
 3775SOL     OW12223   5.474   3.637   3.655
 3775SOL    HW112224   5.446   3.728   3.683
 3775SOL    HW212225   5.522   3.592   3.731
 3776SOL     OW12226   2.576   3.482   0.453
 3776SOL    HW112227   2.541   3.421   0.524
 3776SOL    HW212228   2.655   3.439   0.408
 3777SOL     OW12229   2.149   4.223   3.728
 3777SOL    HW112230   2.153   4.273   3.642
 3777SOL    HW212231   2.085   4.268   3.790
 3778SOL     OW12232   2.140   6.635   2.070
 3778SOL    HW112233   2.203   6.697   2.023
 3778SOL    HW212234   2.192   6.575   2.131
 3779SOL     OW12235   3.160   5.326   5.973
 3779SOL    HW112236   3.086   5.295   6.032
 3779SOL    HW212237   3.248   5.294   6.009
 3780SOL     OW12238   2.784   6.988   4.812
 3780SOL    HW112239   2.725   6.917   4.851
 3780SOL    HW212240   2.769   0.049   4.860
 3781SOL     OW12241   2.851   5.391   4.651
 3781SOL    HW112242   2.815   5.354   4.566
 3781SOL    HW212243   2.950   5.378   4.654
 3782SOL     OW12244   2.114   1.976   3.328
 3782SOL    HW112245   2.198   2.014   3.367
 3782SOL    HW212246   2.095   2.021   3.241
 3783SOL     OW12247   4.673   5.739   5.431
 3783SOL    HW112248   4.575   5.747   5.452
 3783SOL    HW212249   4.685   5.736   5.331
 3784SOL     OW12250   5.322   1.440   3.308
 3784SOL    HW112251   5.253   1.450   3.380
 3784SOL    HW212252   5.394   1.378   3.339
 3785SOL     OW12253   1.718   1.549   1.733
 3785SOL    HW112254   1.648   1.573   1.665
 3785SOL    HW212255   1.788   1.492   1.690
 3786SOL     OW12256   3.104   5.308   3.343
 3786SOL    HW112257   3.198   5.295   3.311
 3786SOL    HW212258   3.091   5.404   3.368
 3787SOL     OW12259   3.979   1.594   3.966
 3787SOL    HW112260   4.067   1.554   3.991
 3787SOL    HW212261   3.935   1.631   4.047
 3788SOL     OW12262   5.801   2.844   2.203
 3788SOL    HW112263   5.727   2.818   2.141
 3788SOL    HW212264   5.763   2.865   2.293
 3789SOL     OW12265   1.484   5.269   3.070
 3789SOL    HW112266   1.522   5.352   3.110
 3789SOL    HW212267   1.423   5.293   2.994
 3790SOL     OW12268   2.088   3.225   3.994
 3790SOL    HW112269   2.131   3.217   4.084
 3790SOL    HW212270   2.065   3.321   3.976
 3791SOL     OW12271   4.808   0.456   2.026
 3791SOL    HW112272   4.723   0.409   2.050
 3791SOL    HW212273   4.876   0.443   2.098
 3792SOL     OW12274   0.244   6.757   5.375
 3792SOL    HW112275   0.282   6.805   5.454
 3792SOL    HW212276   0.210   6.667   5.405
 3793SOL     OW12277   2.044   0.275   2.595
 3793SOL    HW112278   2.039   0.175   2.599
 3793SOL    HW212279   2.106   0.302   2.521
 3794SOL     OW12280   4.255   6.457   1.600
 3794SOL    HW112281   4.168   6.421   1.568
 3794SOL    HW212282   4.242   6.506   1.686
 3795SOL     OW12283   5.386   0.101   6.573
 3795SOL    HW112284   5.359   0.074   6.480
 3795SOL    HW212285   5.309   0.088   6.635
 3796SOL     OW12286   1.369   2.917   2.211
 3796SOL    HW112287   1.329   2.998   2.253
 3796SOL    HW212288   1.375   2.930   2.112
 3797SOL     OW12289   0.624   5.038   2.512
 3797SOL    HW112290   0.565   5.073   2.584
 3797SOL    HW212291   0.676   5.113   2.471
 3798SOL     OW12292   1.663   4.739   2.304
 3798SOL    HW112293   1.633   4.722   2.210
 3798SOL    HW212294   1.738   4.677   2.327
 3799SOL     OW12295   1.795   0.195   5.409
 3799SOL    HW112296   1.834   0.175   5.319
 3799SOL    HW212297   1.701   0.161   5.413
 3800SOL     OW12298   4.872   3.029   4.656
 3800SOL    HW112299   4.921   3.033   4.743
 3800SOL    HW212300   4.819   2.944   4.651
 3801SOL     OW12301   0.168   6.916   6.088
 3801SOL    HW112302   0.198   6.943   5.997
 3801SOL    HW212303   0.224   6.841   6.121
 3802SOL     OW12304   1.579   2.114   5.406
 3802SOL    HW112305   1.637   2.110   5.325
 3802SOL    HW212306   1.581   2.206   5.444
 3803SOL     OW12307   3.490   1.538   1.030
 3803SOL    HW112308   3.587   1.515   1.036
 3803SOL    HW212309   3.470   1.614   1.091
 3804SOL     OW12310   4.923   2.338   4.750
 3804SOL    HW112311   4.833   2.308   4.717
 3804SOL    HW212312   4.919   2.436   4.770
 3805SOL     OW12313   2.172   4.184   1.576
 3805SOL    HW112314   2.267   4.167   1.602
 3805SOL    HW212315   2.148   4.279   1.598
 3806SOL     OW12316   2.544   1.655   0.360
 3806SOL    HW112317   2.577   1.633   0.452
 3806SOL    HW212318   2.512   1.749   0.358
 3807SOL     OW12319   1.608   6.661   3.207
 3807SOL    HW112320   1.629   6.584   3.268
 3807SOL    HW212321   1.600   6.745   3.261
 3808SOL     OW12322   3.210   0.202   1.402
 3808SOL    HW112323   3.164   0.201   1.313
 3808SOL    HW212324   3.296   0.153   1.396
 3809SOL     OW12325   4.305   0.852   6.270
 3809SOL    HW112326   4.209   0.861   6.244
 3809SOL    HW212327   4.362   0.851   6.188
 3810SOL     OW12328   2.668   3.163   5.308
 3810SOL    HW112329   2.748   3.189   5.255
 3810SOL    HW212330   2.617   3.092   5.259
 3811SOL     OW12331   0.732   5.373   5.790
 3811SOL    HW112332   0.683   5.298   5.746
 3811SOL    HW212333   0.829   5.351   5.797
 3812SOL     OW12334   5.741   1.468   5.142
 3812SOL    HW112335   5.828   1.497   5.181
 3812SOL    HW212336   5.730   1.370   5.156
 3813SOL     OW12337   3.194   5.049   1.410
 3813SOL    HW112338   3.147   4.963   1.430
 3813SOL    HW212339   3.255   5.072   1.485
 3814SOL     OW12340   0.461   6.922   2.027
 3814SOL    HW112341   0.370   6.882   2.020
 3814SOL    HW212342   0.514   6.873   2.096
 3815SOL     OW12343   5.039   2.265   1.508
 3815SOL    HW112344   4.980   2.322   1.450
 3815SOL    HW212345   4.983   2.199   1.558
 3816SOL     OW12346   0.981   6.499   1.249
 3816SOL    HW112347   0.890   6.512   1.289
 3816SOL    HW212348   1.002   6.576   1.188
 3817SOL     OW12349   5.257   2.052   5.451
 3817SOL    HW112350   5.174   2.015   5.492
 3817SOL    HW212351   5.316   1.977   5.422
 3818SOL     OW12352   5.003   5.393   2.110
 3818SOL    HW112353   4.906   5.391   2.132
 3818SOL    HW212354   5.056   5.405   2.194
 3819SOL     OW12355   5.174   4.330   6.720
 3819SOL    HW112356   5.148   4.307   6.626
 3819SOL    HW212357   5.092   4.357   6.771
 3820SOL     OW12358   5.266   6.377   4.066
 3820SOL    HW112359   5.183   6.345   4.113
 3820SOL    HW212360   5.244   6.459   4.013
 3821SOL     OW12361   0.921   4.062   1.979
 3821SOL    HW112362   1.000   4.022   2.025
 3821SOL    HW212363   0.839   4.009   2.003
 3822SOL     OW12364   2.575   5.058   1.540
 3822SOL    HW112365   2.498   5.122   1.532
 3822SOL    HW212366   2.568   4.990   1.467
 3823SOL     OW12367   3.480   2.775   5.323
 3823SOL    HW112368   3.468   2.790   5.225
 3823SOL    HW212369   3.416   2.705   5.354
 3824SOL     OW12370   0.261   2.141   0.063
 3824SOL    HW112371   0.253   2.105   6.995
 3824SOL    HW212372   0.289   2.237   0.059
 3825SOL     OW12373   6.839   6.595   6.287
 3825SOL    HW112374   6.892   6.592   6.202
 3825SOL    HW212375   6.864   6.517   6.345
 3826SOL     OW12376   6.729   2.528   1.321
 3826SOL    HW112377   6.652   2.465   1.338
 3826SOL    HW212378   6.794   2.522   1.397
 3827SOL     OW12379   4.311   3.361   0.411
 3827SOL    HW112380   4.389   3.334   0.467
 3827SOL    HW212381   4.231   3.374   0.470
 3828SOL     OW12382   3.743   1.038   2.471
 3828SOL    HW112383   3.736   1.021   2.569
 3828SOL    HW212384   3.792   1.124   2.455
 3829SOL     OW12385   2.059   5.179   3.568
 3829SOL    HW112386   2.140   5.190   3.626
 3829SOL    HW212387   1.979   5.162   3.624
 3830SOL     OW12388   3.064   0.594   4.593
 3830SOL    HW112389   3.036   0.508   4.636
 3830SOL    HW212390   3.004   0.668   4.624
 3831SOL     OW12391   3.603   1.349   2.116
 3831SOL    HW112392   3.636   1.441   2.133
 3831SOL    HW212393   3.618   1.324   2.021
 3832SOL     OW12394   6.245   0.380   3.012
 3832SOL    HW112395   6.281   0.290   2.987
 3832SOL    HW212396   6.321   0.443   3.027
 3833SOL     OW12397   1.056   4.956   6.862
 3833SOL    HW112398   0.989   4.984   6.795
 3833SOL    HW212399   1.014   4.956   6.953
 3834SOL     OW12400   2.600   2.216   0.171
 3834SOL    HW112401   2.567   2.284   0.236
 3834SOL    HW212402   2.551   2.130   0.186
 3835SOL     OW12403   3.451   5.942   4.951
 3835SOL    HW112404   3.412   5.869   5.007
 3835SOL    HW212405   3.474   5.905   4.860
 3836SOL     OW12406   1.035   3.355   5.889
 3836SOL    HW112407   0.979   3.411   5.828
 3836SOL    HW212408   1.130   3.388   5.887
 3837SOL     OW12409   3.480   3.730   0.226
 3837SOL    HW112410   3.501   3.645   0.273
 3837SOL    HW212411   3.475   3.714   0.128
 3838SOL     OW12412   6.168   3.609   5.431
 3838SOL    HW112413   6.211   3.699   5.425
 3838SOL    HW212414   6.092   3.604   5.366
 3839SOL     OW12415   6.194   6.438   6.191
 3839SOL    HW112416   6.198   6.341   6.166
 3839SOL    HW212417   6.184   6.447   6.290
 3840SOL     OW12418   1.827   0.874   3.679
 3840SOL    HW112419   1.789   0.887   3.771
 3840SOL    HW212420   1.830   0.776   3.658
 3841SOL     OW12421   0.388   3.933   4.921
 3841SOL    HW112422   0.393   3.834   4.934
 3841SOL    HW212423   0.459   3.978   4.974
 3842SOL     OW12424   1.015   5.422   6.774
 3842SOL    HW112425   1.111   5.397   6.787
 3842SOL    HW212426   0.980   5.378   6.692
 3843SOL     OW12427   6.081   4.180   0.562
 3843SOL    HW112428   5.985   4.207   0.570
 3843SOL    HW212429   6.128   4.244   0.501
 3844SOL     OW12430   2.067   4.557   6.394
 3844SOL    HW112431   2.122   4.501   6.333
 3844SOL    HW212432   2.050   4.507   6.479
 3845SOL     OW12433   3.586   3.759   3.702
 3845SOL    HW112434   3.655   3.785   3.770
 3845SOL    HW212435   3.521   3.695   3.744
 3846SOL     OW12436   0.239   4.615   3.316
 3846SOL    HW112437   0.144   4.587   3.303
 3846SOL    HW212438   0.260   4.616   3.414
 3847SOL     OW12439   1.077   0.038   0.530
 3847SOL    HW112440   1.076   0.085   0.619
 3847SOL    HW212441   1.019   0.088   0.466
 3848SOL     OW12442   3.038   5.355   0.503
 3848SOL    HW112443   3.006   5.291   0.573
 3848SOL    HW212444   2.963   5.375   0.439
 3849SOL     OW12445   1.897   2.411   5.907
 3849SOL    HW112446   1.818   2.399   5.967
 3849SOL    HW212447   1.975   2.360   5.943
 3850SOL     OW12448   2.441   3.629   1.643
 3850SOL    HW112449   2.413   3.722   1.619
 3850SOL    HW212450   2.381   3.594   1.714
 3851SOL     OW12451   2.612   2.229   1.560
 3851SOL    HW112452   2.688   2.185   1.513
 3851SOL    HW212453   2.643   2.315   1.600
 3852SOL     OW12454   4.474   0.720   5.268
 3852SOL    HW112455   4.467   0.669   5.354
 3852SOL    HW212456   4.526   0.804   5.284
 3853SOL     OW12457   1.774   2.992   2.093
 3853SOL    HW112458   1.751   2.994   2.190
 3853SOL    HW212459   1.776   2.897   2.061
 3854SOL     OW12460   1.383   2.824   4.418
 3854SOL    HW112461   1.287   2.848   4.402
 3854SOL    HW212462   1.406   2.843   4.514
 3855SOL     OW12463   0.048   2.203   5.589
 3855SOL    HW112464   0.138   2.163   5.570
 3855SOL    HW212465   0.046   2.238   5.683
 3856SOL     OW12466   1.073   6.024   5.295
 3856SOL    HW112467   1.126   6.077   5.228
 3856SOL    HW212468   0.984   6.067   5.308
 3857SOL     OW12469   0.832   6.441   5.708
 3857SOL    HW112470   0.853   6.482   5.797
 3857SOL    HW212471   0.869   6.499   5.635
 3858SOL     OW12472   2.101   5.277   0.259
 3858SOL    HW112473   2.169   5.240   0.196
 3858SOL    HW212474   2.138   5.279   0.352
 3859SOL     OW12475   7.002   1.916   2.362
 3859SOL    HW112476   6.981   2.011   2.340
 3859SOL    HW212477   0.066   1.911   2.408
 3860SOL     OW12478   2.649   6.237   5.225
 3860SOL    HW112479   2.705   6.221   5.307
 3860SOL    HW212480   2.709   6.243   5.145
 3861SOL     OW12481   4.249   4.661   0.567
 3861SOL    HW112482   4.154   4.683   0.545
 3861SOL    HW212483   4.269   4.687   0.661
 3862SOL     OW12484   1.024   5.087   6.072
 3862SOL    HW112485   0.947   5.024   6.085
 3862SOL    HW212486   1.110   5.035   6.074
 3863SOL     OW12487   3.556   3.012   0.387
 3863SOL    HW112488   3.556   3.060   0.475
 3863SOL    HW212489   3.462   3.000   0.355
 3864SOL     OW12490   3.725   1.904   6.658
 3864SOL    HW112491   3.648   1.941   6.710
 3864SOL    HW212492   3.792   1.864   6.721
 3865SOL     OW12493   4.294   0.661   2.475
 3865SOL    HW112494   4.197   0.669   2.449
 3865SOL    HW212495   4.310   0.717   2.556
 3866SOL     OW12496   4.028   6.422   6.413
 3866SOL    HW112497   4.119   6.436   6.374
 3866SOL    HW212498   3.975   6.362   6.354
 3867SOL     OW12499   1.470   3.402   4.080
 3867SOL    HW112500   1.403   3.363   4.144
 3867SOL    HW212501   1.528   3.330   4.044
 3868SOL     OW12502   1.591   5.483   3.174
 3868SOL    HW112503   1.617   5.579   3.183
 3868SOL    HW212504   1.540   5.455   3.256
 3869SOL     OW12505   1.295   2.403   3.463
 3869SOL    HW112506   1.230   2.340   3.420
 3869SOL    HW212507   1.246   2.462   3.527
 3870SOL     OW12508   3.290   4.689   0.313
 3870SOL    HW112509   3.293   4.789   0.323
 3870SOL    HW212510   3.219   4.653   0.374
 3871SOL     OW12511   2.824   1.946   4.406
 3871SOL    HW112512   2.882   2.024   4.428
 3871SOL    HW212513   2.778   1.915   4.488
 3872SOL     OW12514   3.748   3.554   0.560
 3872SOL    HW112515   3.752   3.456   0.542
 3872SOL    HW212516   3.800   3.603   0.489
 3873SOL     OW12517   5.068   3.975   1.836
 3873SOL    HW112518   5.039   4.002   1.744
 3873SOL    HW212519   5.167   3.962   1.838
 3874SOL     OW12520   4.791   6.176   6.237
 3874SOL    HW112521   4.872   6.174   6.296
 3874SOL    HW212522   4.794   6.097   6.175
 3875SOL     OW12523   1.920   4.094   0.297
 3875SOL    HW112524   1.829   4.060   0.273
 3875SOL    HW212525   1.928   4.101   0.397
 3876SOL     OW12526   4.891   4.357   2.250
 3876SOL    HW112527   4.868   4.261   2.231
 3876SOL    HW212528   4.912   4.368   2.347
 3877SOL     OW12529   5.578   1.072   2.592
 3877SOL    HW112530   5.640   0.999   2.618
 3877SOL    HW212531   5.499   1.073   2.654
 3878SOL     OW12532   3.962   6.007   4.848
 3878SOL    HW112533   3.975   5.998   4.947
 3878SOL    HW212534   4.051   6.022   4.805
 3879SOL     OW12535   3.206   5.571   1.161
 3879SOL    HW112536   3.163   5.601   1.246
 3879SOL    HW212537   3.215   5.649   1.099
 3880SOL     OW12538   5.449   2.565   3.902
 3880SOL    HW112539   5.407   2.636   3.846
 3880SOL    HW212540   5.535   2.600   3.941
 3881SOL     OW12541   1.172   5.190   1.466
 3881SOL    HW112542   1.210   5.262   1.524
 3881SOL    HW212543   1.132   5.118   1.523
 3882SOL     OW12544   0.826   6.497   6.738
 3882SOL    HW112545   0.778   6.416   6.705
 3882SOL    HW212546   0.924   6.479   6.740
 3883SOL     OW12547   3.306   1.294   6.143
 3883SOL    HW112548   3.327   1.198   6.162
 3883SOL    HW212549   3.382   1.351   6.175
 3884SOL     OW12550   1.577   4.773   5.579
 3884SOL    HW112551   1.578   4.786   5.678
 3884SOL    HW212552   1.487   4.797   5.544
 3885SOL     OW12553   6.851   1.685   5.613
 3885SOL    HW112554   6.878   1.672   5.708
 3885SOL    HW212555   6.874   1.777   5.583
 3886SOL     OW12556   0.031   5.382   5.240
 3886SOL    HW112557   6.980   5.394   5.305
 3886SOL    HW212558   0.049   5.469   5.194
 3887SOL     OW12559   5.053   3.228   5.526
 3887SOL    HW112560   5.060   3.266   5.434
 3887SOL    HW212561   5.026   3.132   5.520
 3888SOL     OW12562   5.188   2.383   1.966
 3888SOL    HW112563   5.091   2.387   1.989
 3888SOL    HW212564   5.198   2.372   1.867
 3889SOL     OW12565   0.029   5.655   0.189
 3889SOL    HW112566   0.120   5.672   0.227
 3889SOL    HW212567   6.989   5.723   0.223
 3890SOL     OW12568   6.674   3.722   2.623
 3890SOL    HW112569   6.635   3.748   2.534
 3890SOL    HW212570   6.712   3.804   2.667
 3891SOL     OW12571   5.668   5.050   6.497
 3891SOL    HW112572   5.578   5.006   6.487
 3891SOL    HW212573   5.661   5.124   6.563
 3892SOL     OW12574   5.702   5.859   4.029
 3892SOL    HW112575   5.645   5.832   3.952
 3892SOL    HW212576   5.661   5.939   4.074
 3893SOL     OW12577   3.243   6.342   4.223
 3893SOL    HW112578   3.171   6.275   4.240
 3893SOL    HW212579   3.293   6.317   4.140
 3894SOL     OW12580   4.803   5.230   6.748
 3894SOL    HW112581   4.890   5.196   6.713
 3894SOL    HW212582   4.775   5.311   6.695
 3895SOL     OW12583   1.664   1.783   5.915
 3895SOL    HW112584   1.738   1.849   5.932
 3895SOL    HW212585   1.642   1.783   5.818
 3896SOL     OW12586   6.743   2.249   6.423
 3896SOL    HW112587   6.830   2.278   6.461
 3896SOL    HW212588   6.755   2.223   6.327
 3897SOL     OW12589   3.508   6.412   2.961
 3897SOL    HW112590   3.456   6.344   3.011
 3897SOL    HW212591   3.572   6.458   3.023
 3898SOL     OW12592   3.435   3.386   4.842
 3898SOL    HW112593   3.390   3.297   4.838
 3898SOL    HW212594   3.520   3.383   4.790
 3899SOL     OW12595   5.274   1.946   4.731
 3899SOL    HW112596   5.236   2.036   4.754
 3899SOL    HW212597   5.226   1.876   4.783
 3900SOL     OW12598   6.725   2.555   4.481
 3900SOL    HW112599   6.687   2.481   4.425
 3900SOL    HW212600   6.799   2.519   4.537
 3901SOL     OW12601   2.926   5.456   5.091
 3901SOL    HW112602   2.864   5.534   5.098
 3901SOL    HW212603   2.880   5.381   5.042
 3902SOL     OW12604   3.975   4.964   2.356
 3902SOL    HW112605   4.056   4.906   2.365
 3902SOL    HW212606   3.893   4.906   2.352
 3903SOL     OW12607   4.969   2.700   5.845
 3903SOL    HW112608   5.053   2.647   5.847
 3903SOL    HW212609   4.901   2.654   5.788
 3904SOL     OW12610   2.470   5.955   1.046
 3904SOL    HW112611   2.384   6.002   1.067
 3904SOL    HW212612   2.483   5.880   1.111
 3905SOL     OW12613   6.669   0.568   6.147
 3905SOL    HW112614   6.755   0.528   6.113
 3905SOL    HW212615   6.676   0.582   6.246
 3906SOL     OW12616   0.576   5.701   4.704
 3906SOL    HW112617   0.644   5.703   4.631
 3906SOL    HW212618   0.622   5.703   4.793
 3907SOL     OW12619   0.564   1.464   5.182
 3907SOL    HW112620   0.551   1.403   5.261
 3907SOL    HW212621   0.485   1.456   5.121
 3908SOL     OW12622   2.290   1.002   4.317
 3908SOL    HW112623   2.275   1.015   4.219
 3908SOL    HW212624   2.319   0.908   4.334
 3909SOL     OW12625   4.922   2.941   1.124
 3909SOL    HW112626   4.947   2.899   1.036
 3909SOL    HW212627   4.835   2.903   1.155
 3910SOL     OW12628   3.403   2.244   0.944
 3910SOL    HW112629   3.351   2.276   0.865
 3910SOL    HW212630   3.499   2.230   0.918
 3911SOL     OW12631   6.940   0.197   1.383
 3911SOL    HW112632   6.868   0.146   1.432
 3911SOL    HW212633   6.915   0.294   1.379
 3912SOL     OW12634   3.924   3.459   6.915
 3912SOL    HW112635   3.842   3.402   6.916
 3912SOL    HW212636   3.970   3.453   7.004
 3913SOL     OW12637   3.923   5.312   1.640
 3913SOL    HW112638   4.016   5.279   1.620
 3913SOL    HW212639   3.859   5.272   1.575
 3914SOL     OW12640   6.776   1.820   0.190
 3914SOL    HW112641   6.700   1.885   0.192
 3914SOL    HW212642   6.823   1.825   0.101
 3915SOL     OW12643   5.877   0.085   5.689
 3915SOL    HW112644   5.904   0.169   5.641
 3915SOL    HW212645   5.779   0.071   5.680
 3916SOL     OW12646   1.869   2.321   2.826
 3916SOL    HW112647   1.817   2.398   2.788
 3916SOL    HW212648   1.810   2.240   2.828
 3917SOL     OW12649   3.731   4.801   1.650
 3917SOL    HW112650   3.759   4.886   1.694
 3917SOL    HW212651   3.696   4.738   1.720
 3918SOL     OW12652   4.954   0.510   6.860
 3918SOL    HW112653   5.039   0.460   6.875
 3918SOL    HW212654   4.878   0.445   6.854
 3919SOL     OW12655   4.609   6.469   3.235
 3919SOL    HW112656   4.693   6.523   3.234
 3919SOL    HW212657   4.630   6.373   3.217
 3920SOL     OW12658   3.197   1.328   5.636
 3920SOL    HW112659   3.158   1.236   5.626
 3920SOL    HW212660   3.129   1.389   5.676
 3921SOL     OW12661   1.367   2.960   6.205
 3921SOL    HW112662   1.392   2.944   6.301
 3921SOL    HW212663   1.282   2.911   6.184
 3922SOL     OW12664   4.999   3.892   3.302
 3922SOL    HW112665   4.954   3.976   3.273
 3922SOL    HW212666   5.096   3.912   3.322
 3923SOL     OW12667   5.405   1.377   1.654
 3923SOL    HW112668   5.478   1.348   1.717
 3923SOL    HW212669   5.436   1.363   1.560
 3924SOL     OW12670   4.981   4.920   4.168
 3924SOL    HW112671   5.022   4.994   4.220
 3924SOL    HW212672   4.994   4.937   4.070
 3925SOL     OW12673   4.891   5.404   0.947
 3925SOL    HW112674   4.972   5.402   1.006
 3925SOL    HW212675   4.813   5.437   1.000
 3926SOL     OW12676   0.716   5.141   5.009
 3926SOL    HW112677   0.746   5.098   5.094
 3926SOL    HW212678   0.628   5.104   4.982
 3927SOL     OW12679   5.433   1.436   5.800
 3927SOL    HW112680   5.354   1.412   5.855
 3927SOL    HW212681   5.403   1.481   5.715
 3928SOL     OW12682   3.354   5.716   2.717
 3928SOL    HW112683   3.331   5.644   2.781
 3928SOL    HW212684   3.292   5.713   2.639
 3929SOL     OW12685   1.177   1.636   5.818
 3929SOL    HW112686   1.188   1.725   5.773
 3929SOL    HW212687   1.230   1.567   5.767
 3930SOL     OW12688   1.522   4.594   3.812
 3930SOL    HW112689   1.594   4.657   3.841
 3930SOL    HW212690   1.462   4.639   3.746
 3931SOL     OW12691   1.339   2.248   0.223
 3931SOL    HW112692   1.326   2.322   0.157
 3931SOL    HW212693   1.426   2.203   0.205
 3932SOL     OW12694   2.531   4.620   3.143
 3932SOL    HW112695   2.542   4.628   3.044
 3932SOL    HW212696   2.476   4.539   3.164
 3933SOL     OW12697   1.998   6.221   1.399
 3933SOL    HW112698   2.072   6.289   1.402
 3933SOL    HW212699   1.914   6.262   1.433
 3934SOL     OW12700   2.239   0.037   1.100
 3934SOL    HW112701   2.180   0.117   1.095
 3934SOL    HW212702   2.230   7.007   1.017
 3935SOL     OW12703   0.493   3.412   4.945
 3935SOL    HW112704   0.483   3.382   5.040
 3935SOL    HW212705   0.538   3.502   4.944
 3936SOL     OW12706   0.204   3.972   5.156
 3936SOL    HW112707   0.227   3.937   5.064
 3936SOL    HW212708   0.167   4.064   5.148
 3937SOL     OW12709   0.673   6.133   0.507
 3937SOL    HW112710   0.725   6.078   0.441
 3937SOL    HW212711   0.736   6.174   0.573
 3938SOL     OW12712   0.990   3.413   1.218
 3938SOL    HW112713   1.016   3.317   1.232
 3938SOL    HW212714   0.901   3.417   1.174
 3939SOL     OW12715   1.627   6.971   3.264
 3939SOL    HW112716   1.540   6.935   3.296
 3939SOL    HW212717   1.699   6.947   3.329
 3940SOL     OW12718   2.929   5.526   6.474
 3940SOL    HW112719   2.846   5.564   6.433
 3940SOL    HW212720   2.976   5.597   6.526
 3941SOL     OW12721   5.189   5.897   2.429
 3941SOL    HW112722   5.143   5.836   2.494
 3941SOL    HW212723   5.188   5.855   2.338
 3942SOL     OW12724   0.040   6.233   6.071
 3942SOL    HW112725   7.009   6.216   6.152
 3942SOL    HW212726   7.013   6.291   6.008
 3943SOL     OW12727   2.343   3.192   0.437
 3943SOL    HW112728   2.304   3.124   0.500
 3943SOL    HW212729   2.278   3.267   0.424
 3944SOL     OW12730   3.967   3.120   6.253
 3944SOL    HW112731   3.993   3.186   6.324
 3944SOL    HW212732   4.047   3.067   6.227
 3945SOL     OW12733   5.652   0.617   3.673
 3945SOL    HW112734   5.555   0.601   3.689
 3945SOL    HW212735   5.706   0.551   3.725
 3946SOL     OW12736   0.570   3.807   0.452
 3946SOL    HW112737   0.500   3.740   0.477
 3946SOL    HW212738   0.546   3.851   0.366
 3947SOL     OW12739   5.498   6.289   1.835
 3947SOL    HW112740   5.527   6.384   1.828
 3947SOL    HW212741   5.400   6.282   1.818
 3948SOL     OW12742   1.638   2.410   5.116
 3948SOL    HW112743   1.589   2.335   5.072
 3948SOL    HW212744   1.736   2.392   5.116
 3949SOL     OW12745   6.571   0.545   2.579
 3949SOL    HW112746   6.617   0.478   2.638
 3949SOL    HW212747   6.598   0.637   2.606
 3950SOL     OW12748   2.994   4.351   1.636
 3950SOL    HW112749   2.918   4.305   1.591
 3950SOL    HW212750   2.962   4.396   1.720
 3951SOL     OW12751   0.409   2.807   4.658
 3951SOL    HW112752   0.356   2.787   4.740
 3951SOL    HW212753   0.458   2.725   4.629
 3952SOL     OW12754   5.653   3.854   6.842
 3952SOL    HW112755   5.659   3.952   6.863
 3952SOL    HW212756   5.697   3.802   6.915
 3953SOL     OW12757   3.204   3.768   6.197
 3953SOL    HW112758   3.256   3.763   6.112
 3953SOL    HW212759   3.108   3.750   6.179
 3954SOL     OW12760   0.778   3.273   4.978
 3954SOL    HW112761   0.744   3.190   5.023
 3954SOL    HW212762   0.702   3.323   4.937
 3955SOL     OW12763   6.280   3.517   0.406
 3955SOL    HW112764   6.267   3.483   0.499
 3955SOL    HW212765   6.357   3.470   0.363
 3956SOL     OW12766   6.406   3.446   5.462
 3956SOL    HW112767   6.389   3.347   5.467
 3956SOL    HW212768   6.319   3.495   5.467
 3957SOL     OW12769   0.644   1.896   2.133
 3957SOL    HW112770   0.712   1.879   2.062
 3957SOL    HW212771   0.662   1.984   2.177
 3958SOL     OW12772   5.225   0.002   0.338
 3958SOL    HW112773   5.248   0.043   0.426
 3958SOL    HW212774   5.218   6.927   0.347
 3959SOL     OW12775   2.486   5.539   1.618
 3959SOL    HW112776   2.576   5.508   1.588
 3959SOL    HW212777   2.479   5.638   1.607
 3960SOL     OW12778   5.024   3.363   1.095
 3960SOL    HW112779   5.020   3.289   1.162
 3960SOL    HW212780   5.098   3.345   1.030
 3961SOL     OW12781   6.452   0.067   1.622
 3961SOL    HW112782   6.415   0.077   1.715
 3961SOL    HW212783   6.407   0.133   1.561
 3962SOL     OW12784   0.531   6.401   6.016
 3962SOL    HW112785   0.609   6.339   6.009
 3962SOL    HW212786   0.453   6.351   6.054
 3963SOL     OW12787   4.859   4.422   3.397
 3963SOL    HW112788   4.785   4.354   3.387
 3963SOL    HW212789   4.858   4.483   3.318
 3964SOL     OW12790   5.681   6.118   0.128
 3964SOL    HW112791   5.760   6.079   0.175
 3964SOL    HW212792   5.702   6.211   0.099
 3965SOL     OW12793   3.196   3.882   0.849
 3965SOL    HW112794   3.276   3.851   0.797
 3965SOL    HW212795   3.115   3.876   0.791
 3966SOL     OW12796   6.285   4.178   5.247
 3966SOL    HW112797   6.241   4.212   5.330
 3966SOL    HW212798   6.215   4.159   5.178
 3967SOL     OW12799   1.644   6.474   6.984
 3967SOL    HW112800   1.658   6.445   0.054
 3967SOL    HW212801   1.556   6.519   6.975
 3968SOL     OW12802   5.194   1.950   0.859
 3968SOL    HW112803   5.267   1.949   0.791
 3968SOL    HW212804   5.218   2.012   0.933
 3969SOL     OW12805   0.235   5.719   1.100
 3969SOL    HW112806   0.326   5.707   1.141
 3969SOL    HW212807   0.177   5.642   1.124
 3970SOL     OW12808   5.156   4.352   4.175
 3970SOL    HW112809   5.111   4.401   4.101
 3970SOL    HW212810   5.157   4.254   4.154
 3971SOL     OW12811   0.185   6.320   4.112
 3971SOL    HW112812   0.089   6.344   4.130
 3971SOL    HW212813   0.188   6.250   4.040
 3972SOL     OW12814   0.896   0.430   6.700
 3972SOL    HW112815   0.866   0.379   6.620
 3972SOL    HW212816   0.828   0.421   6.773
 3973SOL     OW12817   3.497   2.925   3.702
 3973SOL    HW112818   3.593   2.952   3.698
 3973SOL    HW212819   3.473   2.874   3.619
 3974SOL     OW12820   5.989   1.065   6.637
 3974SOL    HW112821   6.013   1.038   6.730
 3974SOL    HW212822   5.890   1.073   6.629
 3975SOL     OW12823   7.007   6.110   5.116
 3975SOL    HW112824   0.043   6.110   5.037
 3975SOL    HW212825   0.037   6.103   5.200
 3976SOL     OW12826   0.703   2.743   6.961
 3976SOL    HW112827   0.771   2.810   6.992
 3976SOL    HW212828   0.621   2.751   7.018
 3977SOL     OW12829   3.254   5.966   4.677
 3977SOL    HW112830   3.353   5.952   4.670
 3977SOL    HW212831   3.234   6.064   4.674
 3978SOL     OW12832   6.673   4.011   6.826
 3978SOL    HW112833   6.584   4.052   6.847
 3978SOL    HW212834   6.668   3.912   6.837
 3979SOL     OW12835   1.405   6.842   3.360
 3979SOL    HW112836   1.384   6.751   3.396
 3979SOL    HW212837   1.322   6.898   3.360
 3980SOL     OW12838   4.879   3.841   4.170
 3980SOL    HW112839   4.933   3.865   4.089
 3980SOL    HW212840   4.897   3.746   4.195
 3981SOL     OW12841   6.903   1.497   6.109
 3981SOL    HW112842   6.809   1.494   6.142
 3981SOL    HW212843   6.905   1.483   6.010
 3982SOL     OW12844   2.203   2.789   4.247
 3982SOL    HW112845   2.210   2.754   4.153
 3982SOL    HW212846   2.117   2.757   4.287
 3983SOL     OW12847   2.946   6.955   4.040
 3983SOL    HW112848   3.027   6.906   4.072
 3983SOL    HW212849   2.958   6.983   3.945
 3984SOL     OW12850   1.778   6.754   1.760
 3984SOL    HW112851   1.767   6.693   1.839
 3984SOL    HW212852   1.723   6.836   1.773
 3985SOL     OW12853   2.173   3.010   1.624
 3985SOL    HW112854   2.184   3.097   1.672
 3985SOL    HW212855   2.087   3.012   1.573
 3986SOL     OW12856   1.345   2.094   1.859
 3986SOL    HW112857   1.366   2.072   1.954
 3986SOL    HW212858   1.424   2.138   1.817
 3987SOL     OW12859   1.518   3.927   5.504
 3987SOL    HW112860   1.469   3.858   5.557
 3987SOL    HW212861   1.607   3.945   5.546
 3988SOL     OW12862   4.998   0.660   0.272
 3988SOL    HW112863   5.050   0.581   0.239
 3988SOL    HW212864   4.916   0.628   0.320
 3989SOL     OW12865   4.178   1.042   5.850
 3989SOL    HW112866   4.204   0.953   5.887
 3989SOL    HW212867   4.093   1.073   5.894
 3990SOL     OW12868   0.535   2.318   3.680
 3990SOL    HW112869   0.473   2.379   3.630
 3990SOL    HW212870   0.629   2.351   3.670
 3991SOL     OW12871   0.846   1.567   3.602
 3991SOL    HW112872   0.879   1.597   3.513
 3991SOL    HW212873   0.889   1.480   3.627
 3992SOL     OW12874   6.199   3.851   6.834
 3992SOL    HW112875   6.119   3.900   6.799
 3992SOL    HW212876   6.170   3.787   6.905
 3993SOL     OW12877   1.872   0.864   4.416
 3993SOL    HW112878   1.836   0.795   4.353
 3993SOL    HW212879   1.826   0.951   4.400
 3994SOL     OW12880   2.247   2.186   2.881
 3994SOL    HW112881   2.345   2.182   2.861
 3994SOL    HW212882   2.196   2.205   2.797
 3995SOL     OW12883   1.491   3.248   2.519
 3995SOL    HW112884   1.441   3.241   2.433
 3995SOL    HW212885   1.443   3.311   2.580
 3996SOL     OW12886   5.821   6.305   4.452
 3996SOL    HW112887   5.878   6.353   4.518
 3996SOL    HW212888   5.868   6.301   4.364
 3997SOL     OW12889   4.892   3.641   2.771
 3997SOL    HW112890   4.878   3.733   2.735
 3997SOL    HW212891   4.882   3.574   2.697
 3998SOL     OW12892   4.950   2.079   2.917
 3998SOL    HW112893   5.020   2.045   2.980
 3998SOL    HW212894   4.926   2.007   2.852
 3999SOL     OW12895   4.153   3.400   1.262
 3999SOL    HW112896   4.206   3.459   1.323
 3999SOL    HW212897   4.074   3.364   1.311
 4000SOL     OW12898   2.843   5.224   2.410
 4000SOL    HW112899   2.831   5.309   2.359
 4000SOL    HW212900   2.856   5.148   2.346
 4001SOL     OW12901   0.497   5.601   4.417
 4001SOL    HW112902   0.481   5.693   4.452
 4001SOL    HW212903   0.596   5.583   4.414
 4002SOL     OW12904   3.799   4.086   3.724
 4002SOL    HW112905   3.702   4.066   3.738
 4002SOL    HW212906   3.810   4.178   3.685
 4003SOL     OW12907   1.676   0.831   5.227
 4003SOL    HW112908   1.723   0.879   5.153
 4003SOL    HW212909   1.645   0.742   5.195
 4004SOL     OW12910   0.884   3.168   3.966
 4004SOL    HW112911   0.825   3.130   3.895
 4004SOL    HW212912   0.929   3.094   4.015
 4005SOL     OW12913   4.585   3.276   0.120
 4005SOL    HW112914   4.616   3.365   0.086
 4005SOL    HW212915   4.662   3.227   0.161
 4006SOL     OW12916   6.917   5.677   2.145
 4006SOL    HW112917   6.878   5.719   2.063
 4006SOL    HW212918   6.959   5.748   2.201
 4007SOL     OW12919   0.094   0.642   2.451
 4007SOL    HW112920   0.180   0.670   2.494
 4007SOL    HW212921   0.047   0.723   2.415
 4008SOL     OW12922   2.952   1.255   1.015
 4008SOL    HW112923   2.863   1.233   0.974
 4008SOL    HW212924   2.946   1.245   1.115
 4009SOL     OW12925   4.813   2.443   0.855
 4009SOL    HW112926   4.895   2.390   0.878
 4009SOL    HW212927   4.795   2.436   0.757
 4010SOL     OW12928   2.138   5.460   1.354
 4010SOL    HW112929   2.042   5.469   1.328
 4010SOL    HW212930   2.144   5.456   1.454
 4011SOL     OW12931   5.403   6.171   5.703
 4011SOL    HW112932   5.308   6.140   5.713
 4011SOL    HW212933   5.415   6.259   5.748
 4012SOL     OW12934   5.032   6.410   2.504
 4012SOL    HW112935   4.985   6.498   2.498
 4012SOL    HW212936   4.986   6.343   2.446
 4013SOL     OW12937   0.273   0.954   5.995
 4013SOL    HW112938   0.344   1.016   5.964
 4013SOL    HW212939   0.183   0.989   5.968
 4014SOL     OW12940   3.035   4.884   2.351
 4014SOL    HW112941   2.967   4.948   2.316
 4014SOL    HW212942   3.107   4.871   2.282
 4015SOL     OW12943   4.512   5.626   6.039
 4015SOL    HW112944   4.418   5.593   6.048
 4015SOL    HW212945   4.574   5.547   6.031
 4016SOL     OW12946   5.155   5.255   4.977
 4016SOL    HW112947   5.097   5.180   4.945
 4016SOL    HW212948   5.121   5.342   4.941
 4017SOL     OW12949   1.289   4.643   6.026
 4017SOL    HW112950   1.228   4.564   6.016
 4017SOL    HW212951   1.379   4.620   5.988
 4018SOL     OW12952   4.230   5.831   1.247
 4018SOL    HW112953   4.283   5.835   1.163
 4018SOL    HW212954   4.245   5.913   1.301
 4019SOL     OW12955   5.686   4.466   1.983
 4019SOL    HW112956   5.636   4.528   2.044
 4019SOL    HW212957   5.771   4.510   1.953
 4020SOL     OW12958   6.893   5.209   4.492
 4020SOL    HW112959   6.934   5.294   4.525
 4020SOL    HW212960   6.854   5.158   4.569
 4021SOL     OW12961   4.846   3.921   5.914
 4021SOL    HW112962   4.873   4.015   5.934
 4021SOL    HW212963   4.827   3.912   5.817
 4022SOL     OW12964   2.560   0.112   1.489
 4022SOL    HW112965   2.473   0.117   1.438
 4022SOL    HW212966   2.622   0.182   1.454
 4023SOL     OW12967   0.472   1.653   4.347
 4023SOL    HW112968   0.427   1.622   4.431
 4023SOL    HW212969   0.498   1.575   4.292
 4024SOL     OW12970   0.850   6.531   4.806
 4024SOL    HW112971   0.860   6.452   4.746
 4024SOL    HW212972   0.897   6.514   4.893
 4025SOL     OW12973   0.214   5.587   3.097
 4025SOL    HW112974   0.137   5.650   3.093
 4025SOL    HW212975   0.180   5.493   3.097
 4026SOL     OW12976   0.542   0.095   3.803
 4026SOL    HW112977   0.494   0.085   3.890
 4026SOL    HW212978   0.542   0.008   3.754
 4027SOL     OW12979   3.137   4.641   5.520
 4027SOL    HW112980   3.140   4.644   5.420
 4027SOL    HW212981   3.199   4.710   5.558
 4028SOL     OW12982   4.853   1.047   3.392
 4028SOL    HW112983   4.916   1.030   3.469
 4028SOL    HW212984   4.899   1.027   3.306
 4029SOL     OW12985   1.810   6.318   0.193
 4029SOL    HW112986   1.756   6.233   0.189
 4029SOL    HW212987   1.906   6.296   0.210
 4030SOL     OW12988   0.566   1.661   2.834
 4030SOL    HW112989   0.642   1.597   2.825
 4030SOL    HW212990   0.600   1.747   2.873
 4031SOL     OW12991   5.980   6.024   0.057
 4031SOL    HW112992   5.963   5.974   6.997
 4031SOL    HW212993   6.011   6.117   0.036
 4032SOL     OW12994   4.704   0.632   2.544
 4032SOL    HW112995   4.714   0.724   2.583
 4032SOL    HW212996   4.699   0.565   2.618
 4033SOL     OW12997   1.827   2.337   2.480
 4033SOL    HW112998   1.871   2.247   2.474
 4033SOL    HW212999   1.874   2.402   2.421
 4034SOL     OW13000   0.669   2.973   5.394
 4034SOL    HW113001   0.747   2.986   5.333
 4034SOL    HW213002   0.633   2.880   5.382
 4035SOL     OW13003   4.588   2.241   1.657
 4035SOL    HW113004   4.581   2.161   1.715
 4035SOL    HW213005   4.500   2.259   1.614
 4036SOL     OW13006   3.187   5.572   3.211
 4036SOL    HW113007   3.200   5.567   3.112
 4036SOL    HW213008   3.136   5.655   3.233
 4037SOL     OW13009   2.771   1.944   5.975
 4037SOL    HW113010   2.791   1.846   5.972
 4037SOL    HW213011   2.826   1.992   5.907
 4038SOL     OW13012   3.680   4.523   5.899
 4038SOL    HW113013   3.601   4.461   5.895
 4038SOL    HW213014   3.649   4.617   5.891
 4039SOL     OW13015   5.805   4.950   1.097
 4039SOL    HW113016   5.809   4.921   1.192
 4039SOL    HW213017   5.769   4.876   1.040
 4040SOL     OW13018   2.804   6.648   4.908
 4040SOL    HW113019   2.853   6.716   4.963
 4040SOL    HW213020   2.870   6.596   4.853
 4041SOL     OW13021   2.193   6.580   1.177
 4041SOL    HW113022   2.282   6.620   1.199
 4041SOL    HW213023   2.174   6.592   1.079
 4042SOL     OW13024   6.613   1.199   2.741
 4042SOL    HW113025   6.584   1.215   2.836
 4042SOL    HW213026   6.710   1.219   2.732
 4043SOL     OW13027   5.794   3.393   6.512
 4043SOL    HW113028   5.728   3.466   6.527
 4043SOL    HW213029   5.843   3.373   6.597
 4044SOL     OW13030   4.753   4.661   3.167
 4044SOL    HW113031   4.693   4.581   3.167
 4044SOL    HW213032   4.724   4.724   3.095
 4045SOL     OW13033   5.016   1.140   5.290
 4045SOL    HW113034   4.941   1.201   5.263
 4045SOL    HW213035   5.073   1.121   5.211
 4046SOL     OW13036   5.895   1.736   3.208
 4046SOL    HW113037   5.929   1.830   3.200
 4046SOL    HW213038   5.891   1.695   3.116
 4047SOL     OW13039   2.438   3.047   6.810
 4047SOL    HW113040   2.346   3.072   6.838
 4047SOL    HW213041   2.440   2.950   6.783
 4048SOL     OW13042   4.404   2.108   2.242
 4048SOL    HW113043   4.492   2.134   2.202
 4048SOL    HW213044   4.361   2.189   2.281
 4049SOL     OW13045   3.930   4.310   0.249
 4049SOL    HW113046   3.859   4.379   0.264
 4049SOL    HW213047   3.987   4.303   0.331
 4050SOL     OW13048   0.957   5.274   2.442
 4050SOL    HW113049   0.981   5.366   2.473
 4050SOL    HW213050   1.002   5.254   2.356
 4051SOL     OW13051   5.647   1.202   4.731
 4051SOL    HW113052   5.730   1.230   4.781
 4051SOL    HW213053   5.631   1.105   4.745
 4052SOL     OW13054   6.066   1.975   3.082
 4052SOL    HW113055   6.130   2.039   3.125
 4052SOL    HW213056   6.097   1.953   2.990
 4053SOL     OW13057   1.462   5.191   4.492
 4053SOL    HW113058   1.450   5.114   4.556
 4053SOL    HW213059   1.480   5.156   4.401
 4054SOL     OW13060   3.923   4.136   1.248
 4054SOL    HW113061   3.910   4.115   1.151
 4054SOL    HW213062   3.958   4.054   1.294
 4055SOL     OW13063   0.848   4.535   0.696
 4055SOL    HW113064   0.773   4.556   0.633
 4055SOL    HW213065   0.931   4.581   0.666
 4056SOL     OW13066   5.090   3.430   0.524
 4056SOL    HW113067   5.185   3.463   0.519
 4056SOL    HW213068   5.086   3.350   0.584
 4057SOL     OW13069   0.568   3.841   0.143
 4057SOL    HW113070   0.472   3.865   0.127
 4057SOL    HW213071   0.606   3.800   0.060
 4058SOL     OW13072   2.483   0.665   5.598
 4058SOL    HW113073   2.483   0.760   5.566
 4058SOL    HW213074   2.408   0.615   5.554
 4059SOL     OW13075   0.273   1.827   3.664
 4059SOL    HW113076   0.366   1.853   3.690
 4059SOL    HW213077   0.260   1.729   3.682
 4060SOL     OW13078   6.216   6.312   5.161
 4060SOL    HW113079   6.124   6.349   5.172
 4060SOL    HW213080   6.227   6.233   5.221
 4061SOL     OW13081   1.538   5.366   0.770
 4061SOL    HW113082   1.526   5.374   0.869
 4061SOL    HW213083   1.475   5.429   0.724
 4062SOL     OW13084   1.539   2.716   1.190
 4062SOL    HW113085   1.460   2.699   1.130
 4062SOL    HW213086   1.615   2.658   1.162
 4063SOL     OW13087   4.349   0.524   0.182
 4063SOL    HW113088   4.326   0.472   0.100
 4063SOL    HW213089   4.393   0.610   0.155
 4064SOL     OW13090   1.974   1.643   5.385
 4064SOL    HW113091   1.950   1.681   5.475
 4064SOL    HW213092   1.893   1.601   5.345
 4065SOL     OW13093   2.729   6.363   0.710
 4065SOL    HW113094   2.730   6.459   0.740
 4065SOL    HW213095   2.693   6.306   0.783
 4066SOL     OW13096   0.603   4.030   3.506
 4066SOL    HW113097   0.586   4.006   3.411
 4066SOL    HW213098   0.691   4.076   3.514
 4067SOL     OW13099   4.944   5.150   0.462
 4067SOL    HW113100   4.978   5.118   0.550
 4067SOL    HW213101   4.850   5.117   0.448
 4068SOL     OW13102   2.264   2.727   4.881
 4068SOL    HW113103   2.267   2.664   4.960
 4068SOL    HW213104   2.322   2.806   4.899
 4069SOL     OW13105   4.565   6.902   6.206
 4069SOL    HW113106   4.651   6.911   6.156
 4069SOL    HW213107   4.571   6.950   6.293
 4070SOL     OW13108   1.228   3.089   3.178
 4070SOL    HW113109   1.231   3.003   3.128
 4070SOL    HW213110   1.162   3.083   3.253
 4071SOL     OW13111   1.490   0.538   3.609
 4071SOL    HW113112   1.490   0.563   3.706
 4071SOL    HW213113   1.518   0.616   3.554
 4072SOL     OW13114   2.078   5.692   3.026
 4072SOL    HW113115   2.017   5.711   3.103
 4072SOL    HW213116   2.171   5.681   3.060
 4073SOL     OW13117   3.434   4.654   7.019
 4073SOL    HW113118   3.458   4.653   0.092
 4073SOL    HW213119   3.402   4.746   6.994
 4074SOL     OW13120   1.778   5.382   2.974
 4074SOL    HW113121   1.761   5.300   2.920
 4074SOL    HW213122   1.730   5.375   3.062
 4075SOL     OW13123   6.693   1.184   1.322
 4075SOL    HW113124   6.609   1.234   1.342
 4075SOL    HW213125   6.724   1.136   1.404
 4076SOL     OW13126   2.391   4.164   5.345
 4076SOL    HW113127   2.379   4.118   5.257
 4076SOL    HW213128   2.401   4.095   5.417
 4077SOL     OW13129   2.598   0.680   1.866
 4077SOL    HW113130   2.548   0.594   1.872
 4077SOL    HW213131   2.696   0.663   1.873
 4078SOL     OW13132   3.057   4.824   2.663
 4078SOL    HW113133   3.014   4.753   2.607
 4078SOL    HW213134   2.998   4.905   2.664
 4079SOL     OW13135   1.000   2.537   4.466
 4079SOL    HW113136   1.095   2.546   4.495
 4079SOL    HW213137   0.991   2.568   4.372
 4080SOL     OW13138   6.302   1.800   5.010
 4080SOL    HW113139   6.214   1.842   4.986
 4080SOL    HW213140   6.318   1.720   4.953
 4081SOL     OW13141   1.550   3.639   3.947
 4081SOL    HW113142   1.543   3.558   4.004
 4081SOL    HW213143   1.459   3.665   3.915
 4082SOL     OW13144   1.152   3.430   0.896
 4082SOL    HW113145   1.100   3.349   0.926
 4082SOL    HW213146   1.101   3.512   0.921
 4083SOL     OW13147   5.643   2.454   4.543
 4083SOL    HW113148   5.614   2.398   4.621
 4083SOL    HW213149   5.605   2.546   4.551
 4084SOL     OW13150   0.810   1.702   4.010
 4084SOL    HW113151   0.792   1.610   3.975
 4084SOL    HW213152   0.796   1.703   4.109
 4085SOL     OW13153   3.286   6.094   0.524
 4085SOL    HW113154   3.189   6.113   0.507
 4085SOL    HW213155   3.327   6.170   0.573
 4086SOL     OW13156   1.440   5.137   0.649
 4086SOL    HW113157   1.365   5.081   0.685
 4086SOL    HW213158   1.461   5.211   0.713
 4087SOL     OW13159   1.584   1.473   2.924
 4087SOL    HW113160   1.491   1.484   2.959
 4087SOL    HW213161   1.639   1.553   2.949
 4088SOL     OW13162   6.623   1.908   1.204
 4088SOL    HW113163   6.587   1.997   1.174
 4088SOL    HW213164   6.590   1.887   1.295
 4089SOL     OW13165   1.156   0.818   4.924
 4089SOL    HW113166   1.163   0.780   5.016
 4089SOL    HW213167   1.115   0.750   4.863
 4090SOL     OW13168   2.030   4.262   5.543
 4090SOL    HW113169   2.055   4.187   5.604
 4090SOL    HW213170   1.932   4.259   5.525
 4091SOL     OW13171   4.652   6.190   0.400
 4091SOL    HW113172   4.693   6.099   0.402
 4091SOL    HW213173   4.567   6.187   0.346
 4092SOL     OW13174   0.071   2.872   4.648
 4092SOL    HW113175   7.001   2.840   4.640
 4092SOL    HW213176   0.133   2.793   4.641
 4093SOL     OW13177   5.955   0.838   3.967
 4093SOL    HW113178   5.860   0.823   3.939
 4093SOL    HW213179   5.979   0.773   4.039
 4094SOL     OW13180   2.378   4.431   5.023
 4094SOL    HW113181   2.452   4.404   5.084
 4094SOL    HW213182   2.295   4.379   5.046
 4095SOL     OW13183   1.560   3.533   6.546
 4095SOL    HW113184   1.656   3.507   6.531
 4095SOL    HW213185   1.554   3.631   6.562
 4096SOL     OW13186   4.228   4.654   1.255
 4096SOL    HW113187   4.201   4.725   1.189
 4096SOL    HW213188   4.303   4.600   1.217
 4097SOL     OW13189   3.557   3.790   5.253
 4097SOL    HW113190   3.566   3.722   5.179
 4097SOL    HW213191   3.460   3.809   5.269
 4098SOL     OW13192   0.052   2.136   3.041
 4098SOL    HW113193   0.055   2.151   3.140
 4098SOL    HW213194   0.008   2.049   3.021
 4099SOL     OW13195   4.124   6.157   1.959
 4099SOL    HW113196   4.131   6.222   2.035
 4099SOL    HW213197   4.141   6.065   1.993
 4100SOL     OW13198   3.815   5.609   3.480
 4100SOL    HW113199   3.838   5.704   3.461
 4100SOL    HW213200   3.829   5.589   3.577
 4101SOL     OW13201   5.343   1.584   6.176
 4101SOL    HW113202   5.248   1.612   6.169
 4101SOL    HW213203   5.356   1.530   6.259
 4102SOL     OW13204   6.019   1.097   0.593
 4102SOL    HW113205   5.930   1.112   0.550
 4102SOL    HW213206   6.067   1.022   0.548
 4103SOL     OW13207   0.681   0.171   2.219
 4103SOL    HW113208   0.610   0.209   2.279
 4103SOL    HW213209   0.647   0.166   2.125
 4104SOL     OW13210   1.570   4.989   2.951
 4104SOL    HW113211   1.495   5.007   3.015
 4104SOL    HW213212   1.553   5.036   2.865
 4105SOL     OW13213   4.748   4.647   0.006
 4105SOL    HW113214   4.783   4.675   6.941
 4105SOL    HW213215   4.726   4.550   0.005
 4106SOL     OW13216   6.779   3.697   4.893
 4106SOL    HW113217   6.760   3.794   4.878
 4106SOL    HW213218   6.865   3.686   4.943
 4107SOL     OW13219   0.223   0.417   1.099
 4107SOL    HW113220   0.249   0.457   1.012
 4107SOL    HW213221   0.270   0.465   1.173
 4108SOL     OW13222   6.333   3.884   5.950
 4108SOL    HW113223   6.287   3.841   6.029
 4108SOL    HW213224   6.308   3.835   5.867
 4109SOL     OW13225   3.402   5.896   3.702
 4109SOL    HW113226   3.460   5.849   3.636
 4109SOL    HW213227   3.324   5.937   3.656
 4110SOL     OW13228   4.975   3.496   6.322
 4110SOL    HW113229   4.998   3.558   6.248
 4110SOL    HW213230   4.895   3.441   6.296
 4111SOL     OW13231   4.180   3.301   6.809
 4111SOL    HW113232   4.239   3.379   6.829
 4111SOL    HW213233   4.151   3.259   6.895
 4112SOL     OW13234   3.214   1.433   4.275
 4112SOL    HW113235   3.256   1.390   4.195
 4112SOL    HW213236   3.207   1.531   4.260
 4113SOL     OW13237   3.313   4.959   4.709
 4113SOL    HW113238   3.320   5.047   4.662
 4113SOL    HW213239   3.222   4.920   4.693
 4114SOL     OW13240   2.812   1.950   2.447
 4114SOL    HW113241   2.875   2.000   2.506
 4114SOL    HW213242   2.769   2.013   2.384
 4115SOL     OW13243   4.935   4.673   1.727
 4115SOL    HW113244   4.864   4.710   1.787
 4115SOL    HW213245   5.024   4.709   1.753
 4116SOL     OW13246   3.194   1.431   1.898
 4116SOL    HW113247   3.116   1.369   1.900
 4116SOL    HW213248   3.164   1.521   1.865
 4117SOL     OW13249   1.447   5.806   1.055
 4117SOL    HW113250   1.348   5.795   1.053
 4117SOL    HW213251   1.487   5.736   1.115
 4118SOL     OW13252   1.995   6.537   0.511
 4118SOL    HW113253   2.089   6.512   0.488
 4118SOL    HW213254   1.933   6.504   0.440
 4119SOL     OW13255   3.957   0.910   3.590
 4119SOL    HW113256   3.908   0.995   3.608
 4119SOL    HW213257   4.053   0.920   3.618
 4120SOL     OW13258   3.659   0.600   1.924
 4120SOL    HW113259   3.578   0.656   1.910
 4120SOL    HW213260   3.634   0.503   1.917
 4121SOL     OW13261   6.454   3.163   5.011
 4121SOL    HW113262   6.431   3.258   5.030
 4121SOL    HW213263   6.415   3.136   4.923
 4122SOL     OW13264   1.345   5.916   6.137
 4122SOL    HW113265   1.315   5.822   6.152
 4122SOL    HW213266   1.321   5.972   6.216
 4123SOL     OW13267   5.246   3.747   6.389
 4123SOL    HW113268   5.184   3.807   6.441
 4123SOL    HW213269   5.341   3.772   6.408
 4124SOL     OW13270   5.430   0.103   4.054
 4124SOL    HW113271   5.501   0.139   3.993
 4124SOL    HW213272   5.459   0.116   4.149
 4125SOL     OW13273   4.388   1.081   0.781
 4125SOL    HW113274   4.446   1.084   0.862
 4125SOL    HW213275   4.386   1.172   0.738
 4126SOL     OW13276   2.402   4.418   4.353
 4126SOL    HW113277   2.474   4.440   4.418
 4126SOL    HW213278   2.416   4.470   4.269
 4127SOL     OW13279   6.100   3.519   5.678
 4127SOL    HW113280   6.131   3.547   5.587
 4127SOL    HW213281   6.000   3.524   5.682
 4128SOL     OW13282   0.903   2.369   2.733
 4128SOL    HW113283   1.002   2.387   2.727
 4128SOL    HW213284   0.859   2.441   2.786
 4129SOL     OW13285   5.638   2.458   5.941
 4129SOL    HW113286   5.605   2.457   5.847
 4129SOL    HW213287   5.588   2.391   5.995
 4130SOL     OW13288   5.866   4.168   1.009
 4130SOL    HW113289   5.826   4.206   0.926
 4130SOL    HW213290   5.962   4.145   0.992
 4131SOL     OW13291   6.548   5.040   3.785
 4131SOL    HW113292   6.463   5.034   3.732
 4131SOL    HW213293   6.567   4.951   3.827
 4132SOL     OW13294   5.044   2.613   3.478
 4132SOL    HW113295   4.994   2.641   3.396
 4132SOL    HW213296   4.990   2.545   3.528
 4133SOL     OW13297   3.203   0.987   1.043
 4133SOL    HW113298   3.163   1.056   0.983
 4133SOL    HW213299   3.137   0.963   1.114
 4134SOL     OW13300   1.213   1.479   6.891
 4134SOL    HW113301   1.141   1.525   6.839
 4134SOL    HW213302   1.199   1.380   6.887
 4135SOL     OW13303   1.445   0.924   1.814
 4135SOL    HW113304   1.487   0.949   1.902
 4135SOL    HW213305   1.346   0.924   1.824
 4136SOL     OW13306   0.163   2.369   3.502
 4136SOL    HW113307   0.170   2.296   3.434
 4136SOL    HW213308   0.252   2.412   3.514
 4137SOL     OW13309   3.033   4.730   6.192
 4137SOL    HW113310   2.947   4.679   6.199
 4137SOL    HW213311   3.107   4.668   6.168
 4138SOL     OW13312   4.176   4.903   3.200
 4138SOL    HW113313   4.235   4.822   3.196
 4138SOL    HW213314   4.216   4.975   3.142
 4139SOL     OW13315   2.084   1.779   0.090
 4139SOL    HW113316   2.054   1.808   0.181
 4139SOL    HW213317   2.125   1.688   0.097
 4140SOL     OW13318   5.138   1.510   5.093
 4140SOL    HW113319   5.177   1.441   5.153
 4140SOL    HW213320   5.195   1.520   5.011
 4141SOL     OW13321   5.316   5.830   0.515
 4141SOL    HW113322   5.393   5.787   0.467
 4141SOL    HW213323   5.252   5.758   0.545
 4142SOL     OW13324   6.514   4.110   1.348
 4142SOL    HW113325   6.573   4.030   1.357
 4142SOL    HW213326   6.452   4.115   1.425
 4143SOL     OW13327   0.074   2.794   0.936
 4143SOL    HW113328   0.010   2.734   0.985
 4143SOL    HW213329   0.046   2.802   0.841
 4144SOL     OW13330   4.763   0.873   2.683
 4144SOL    HW113331   4.829   0.923   2.739
 4144SOL    HW213332   4.672   0.915   2.693
 4145SOL     OW13333   1.781   6.680   2.385
 4145SOL    HW113334   1.725   6.598   2.382
 4145SOL    HW213335   1.790   6.718   2.293
 4146SOL     OW13336   5.011   6.776   0.219
 4146SOL    HW113337   4.918   6.741   0.220
 4146SOL    HW213338   5.016   6.855   0.157
 4147SOL     OW13339   3.630   1.839   5.485
 4147SOL    HW113340   3.554   1.901   5.504
 4147SOL    HW213341   3.692   1.836   5.563
 4148SOL     OW13342   6.438   0.714   3.510
 4148SOL    HW113343   6.512   0.771   3.546
 4148SOL    HW213344   6.357   0.770   3.496
 4149SOL     OW13345   5.528   3.982   2.097
 4149SOL    HW113346   5.538   3.911   2.028
 4149SOL    HW213347   5.571   4.066   2.065
 4150SOL     OW13348   5.499   0.625   6.497
 4150SOL    HW113349   5.533   0.584   6.582
 4150SOL    HW213350   5.401   0.643   6.506
 4151SOL     OW13351   0.762   5.139   0.575
 4151SOL    HW113352   0.750   5.228   0.618
 4151SOL    HW213353   0.698   5.129   0.499
 4152SOL     OW13354   3.891   4.432   1.508
 4152SOL    HW113355   3.814   4.438   1.571
 4152SOL    HW213356   3.931   4.340   1.512
 4153SOL     OW13357   6.574   4.643   6.072
 4153SOL    HW113358   6.651   4.671   6.131
 4153SOL    HW213359   6.551   4.718   6.010
 4154SOL     OW13360   5.518   2.716   5.991
 4154SOL    HW113361   5.553   2.623   5.984
 4154SOL    HW213362   5.537   2.765   5.906
 4155SOL     OW13363   1.131   3.296   1.739
 4155SOL    HW113364   1.134   3.255   1.830
 4155SOL    HW213365   1.206   3.361   1.729
 4156SOL     OW13366   5.811   6.779   5.431
 4156SOL    HW113367   5.900   6.818   5.408
 4156SOL    HW213368   5.792   6.794   5.528
 4157SOL     OW13369   3.552   0.943   5.145
 4157SOL    HW113370   3.547   0.907   5.052
 4157SOL    HW213371   3.598   1.031   5.144
 4158SOL     OW13372   1.082   6.307   3.982
 4158SOL    HW113373   1.051   6.213   3.997
 4158SOL    HW213374   1.181   6.313   3.994
 4159SOL     OW13375   1.313   2.621   5.246
 4159SOL    HW113376   1.292   2.697   5.309
 4159SOL    HW213377   1.365   2.657   5.168
 4160SOL     OW13378   0.898   0.924   1.256
 4160SOL    HW113379   0.971   0.920   1.188
 4160SOL    HW213380   0.928   0.882   1.341
 4161SOL     OW13381   6.411   1.626   0.621
 4161SOL    HW113382   6.507   1.629   0.648
 4161SOL    HW213383   6.401   1.668   0.530
 4162SOL     OW13384   6.045   6.909   5.402
 4162SOL    HW113385   6.047   7.006   5.377
 4162SOL    HW213386   6.134   6.868   5.382
 4163SOL     OW13387   5.341   1.204   4.175
 4163SOL    HW113388   5.303   1.111   4.179
 4163SOL    HW213389   5.346   1.242   4.267
 4164SOL     OW13390   1.811   0.415   6.423
 4164SOL    HW113391   1.872   0.338   6.437
 4164SOL    HW213392   1.841   0.468   6.344
 4165SOL     OW13393   4.083   6.717   2.275
 4165SOL    HW113394   3.989   6.750   2.280
 4165SOL    HW213395   4.146   6.794   2.287
 4166SOL     OW13396   5.588   2.809   0.806
 4166SOL    HW113397   5.585   2.780   0.901
 4166SOL    HW213398   5.495   2.817   0.770
 4167SOL     OW13399   2.381   2.893   1.537
 4167SOL    HW113400   2.403   2.944   1.454
 4167SOL    HW213401   2.294   2.927   1.575
 4168SOL     OW13402   1.838   5.543   1.222
 4168SOL    HW113403   1.850   5.538   1.123
 4168SOL    HW213404   1.857   5.636   1.254
 4169SOL     OW13405   5.823   3.340   4.633
 4169SOL    HW113406   5.782   3.319   4.722
 4169SOL    HW213407   5.829   3.440   4.621
 4170SOL     OW13408   4.488   2.800   5.302
 4170SOL    HW113409   4.389   2.808   5.298
 4170SOL    HW213410   4.519   2.735   5.232
 4171SOL     OW13411   5.455   3.567   1.832
 4171SOL    HW113412   5.357   3.583   1.834
 4171SOL    HW213413   5.481   3.529   1.743
 4172SOL     OW13414   1.333   1.901   0.284
 4172SOL    HW113415   1.357   1.844   0.205
 4172SOL    HW213416   1.239   1.933   0.276
 4173SOL     OW13417   5.384   3.498   4.812
 4173SOL    HW113418   5.380   3.407   4.771
 4173SOL    HW213419   5.322   3.503   4.890
 4174SOL     OW13420   4.606   1.116   4.479
 4174SOL    HW113421   4.545   1.090   4.555
 4174SOL    HW213422   4.554   1.118   4.394
 4175SOL     OW13423   3.036   0.456   2.763
 4175SOL    HW113424   3.117   0.397   2.757
 4175SOL    HW213425   2.954   0.399   2.772
 4176SOL     OW13426   5.887   6.523   2.956
 4176SOL    HW113427   5.828   6.498   3.033
 4176SOL    HW213428   5.971   6.468   2.960
 4177SOL     OW13429   0.112   6.130   2.951
 4177SOL    HW113430   0.176   6.056   2.933
 4177SOL    HW213431   0.032   6.094   3.000
 4178SOL     OW13432   3.679   2.178   5.598
 4178SOL    HW113433   3.760   2.126   5.622
 4178SOL    HW213434   3.598   2.119   5.606
 4179SOL     OW13435   5.415   3.322   5.674
 4179SOL    HW113436   5.412   3.366   5.584
 4179SOL    HW213437   5.428   3.392   5.745
 4180SOL     OW13438   4.190   3.773   1.661
 4180SOL    HW113439   4.156   3.756   1.568
 4180SOL    HW213440   4.286   3.747   1.667
 4181SOL     OW13441   0.864   0.973   0.079
 4181SOL    HW113442   0.872   0.909   0.155
 4181SOL    HW213443   0.772   1.012   0.077
 4182SOL     OW13444   5.335   0.642   2.931
 4182SOL    HW113445   5.414   0.702   2.915
 4182SOL    HW213446   5.329   0.574   2.858
 4183SOL     OW13447   1.500   1.903   1.663
 4183SOL    HW113448   1.490   1.889   1.762
 4183SOL    HW213449   1.485   1.999   1.641
 4184SOL     OW13450   4.086   5.680   0.332
 4184SOL    HW113451   4.138   5.722   0.257
 4184SOL    HW213452   4.012   5.624   0.295
 4185SOL     OW13453   0.206   0.317   3.831
 4185SOL    HW113454   0.186   0.304   3.928
 4185SOL    HW213455   0.173   0.407   3.802
 4186SOL     OW13456   2.693   3.975   0.627
 4186SOL    HW113457   2.763   3.951   0.695
 4186SOL    HW213458   2.625   4.035   0.669
 4187SOL     OW13459   3.889   3.883   6.670
 4187SOL    HW113460   3.812   3.932   6.630
 4187SOL    HW213461   3.960   3.949   6.696
 4188SOL     OW13462   4.802   6.762   4.500
 4188SOL    HW113463   4.892   6.742   4.461
 4188SOL    HW213464   4.736   6.694   4.469
 4189SOL     OW13465   2.182   2.324   3.861
 4189SOL    HW113466   2.090   2.288   3.846
 4189SOL    HW213467   2.248   2.271   3.808
 4190SOL     OW13468   3.213   0.426   1.208
 4190SOL    HW113469   3.247   0.404   1.300
 4190SOL    HW213470   3.114   0.438   1.211
 4191SOL     OW13471   6.691   1.450   2.209
 4191SOL    HW113472   6.698   1.452   2.109
 4191SOL    HW213473   6.778   1.480   2.248
 4192SOL     OW13474   6.285   1.534   3.068
 4192SOL    HW113475   6.366   1.592   3.073
 4192SOL    HW213476   6.262   1.502   3.160
 4193SOL     OW13477   1.449   6.755   2.178
 4193SOL    HW113478   1.453   6.731   2.275
 4193SOL    HW213479   1.507   6.693   2.126
 4194SOL     OW13480   0.513   0.779   4.457
 4194SOL    HW113481   0.433   0.719   4.459
 4194SOL    HW213482   0.560   0.769   4.369
 4195SOL     OW13483   4.611   0.741   1.678
 4195SOL    HW113484   4.593   0.764   1.773
 4195SOL    HW213485   4.659   0.817   1.633
 4196SOL     OW13486   4.606   2.602   3.575
 4196SOL    HW113487   4.539   2.531   3.596
 4196SOL    HW213488   4.625   2.601   3.476
 4197SOL     OW13489   4.448   4.512   3.991
 4197SOL    HW113490   4.460   4.482   4.085
 4197SOL    HW213491   4.374   4.579   3.987
 4198SOL     OW13492   5.898   3.336   6.235
 4198SOL    HW113493   5.889   3.405   6.163
 4198SOL    HW213494   5.867   3.373   6.322
 4199SOL     OW13495   2.879   4.001   5.956
 4199SOL    HW113496   2.870   4.043   5.866
 4199SOL    HW213497   2.949   4.048   6.009
 4200SOL     OW13498   1.956   0.191   6.429
 4200SOL    HW113499   2.038   0.225   6.476
 4200SOL    HW213500   1.933   0.100   6.464
 4201SOL     OW13501   5.571   6.091   4.099
 4201SOL    HW113502   5.535   6.163   4.159
 4201SOL    HW213503   5.641   6.130   4.039
 4202SOL     OW13504   5.452   4.614   4.574
 4202SOL    HW113505   5.434   4.555   4.495
 4202SOL    HW213506   5.457   4.557   4.657
 4203SOL     OW13507   5.539   5.987   3.618
 4203SOL    HW113508   5.464   5.974   3.554
 4203SOL    HW213509   5.518   5.940   3.704
 4204SOL     OW13510   3.104   3.191   1.064
 4204SOL    HW113511   3.105   3.254   0.987
 4204SOL    HW213512   3.057   3.233   1.141
 4205SOL     OW13513   2.774   5.332   2.793
 4205SOL    HW113514   2.745   5.396   2.722
 4205SOL    HW213515   2.693   5.294   2.839
 4206SOL     OW13516   5.547   0.131   4.295
 4206SOL    HW113517   5.531   0.038   4.327
 4206SOL    HW213518   5.641   0.157   4.313
 4207SOL     OW13519   1.135   1.162   1.461
 4207SOL    HW113520   1.175   1.081   1.418
 4207SOL    HW213521   1.184   1.182   1.546
 4208SOL     OW13522   0.735   3.388   1.140
 4208SOL    HW113523   0.720   3.328   1.061
 4208SOL    HW213524   0.717   3.482   1.114
 4209SOL     OW13525   3.174   0.421   4.902
 4209SOL    HW113526   3.146   0.510   4.867
 4209SOL    HW213527   3.101   0.355   4.886
 4210SOL     OW13528   4.817   2.716   0.658
 4210SOL    HW113529   4.780   2.778   0.727
 4210SOL    HW213530   4.746   2.696   0.591
 4211SOL     OW13531   4.679   4.251   3.332
 4211SOL    HW113532   4.749   4.192   3.291
 4211SOL    HW213533   4.640   4.310   3.261
 4212SOL     OW13534   6.379   0.146   2.666
 4212SOL    HW113535   6.285   0.114   2.677
 4212SOL    HW213536   6.428   0.135   2.753
 4213SOL     OW13537   1.301   0.594   2.440
 4213SOL    HW113538   1.344   0.563   2.355
 4213SOL    HW213539   1.227   0.531   2.465
 4214SOL     OW13540   1.658   3.060   4.516
 4214SOL    HW113541   1.678   2.973   4.470
 4214SOL    HW213542   1.594   3.043   4.592
 4215SOL     OW13543   0.890   5.289   4.590
 4215SOL    HW113544   0.898   5.190   4.580
 4215SOL    HW213545   0.981   5.329   4.600
 4216SOL     OW13546   1.624   3.338   5.495
 4216SOL    HW113547   1.672   3.397   5.430
 4216SOL    HW213548   1.690   3.287   5.551
 4217SOL     OW13549   0.390   0.370   3.416
 4217SOL    HW113550   0.484   0.382   3.448
 4217SOL    HW213551   0.345   0.460   3.411
 4218SOL     OW13552   3.918   6.742   2.539
 4218SOL    HW113553   3.977   6.745   2.620
 4218SOL    HW213554   3.853   6.666   2.548
 4219SOL     OW13555   4.450   6.554   3.464
 4219SOL    HW113556   4.522   6.525   3.527
 4219SOL    HW213557   4.480   6.541   3.370
 4220SOL     OW13558   0.380   3.536   3.029
 4220SOL    HW113559   0.386   3.541   3.129
 4220SOL    HW213560   0.386   3.441   3.000
 4221SOL     OW13561   5.289   5.922   5.884
 4221SOL    HW113562   5.290   5.841   5.943
 4221SOL    HW213563   5.196   5.936   5.848
 4222SOL     OW13564   4.219   2.812   0.295
 4222SOL    HW113565   4.277   2.814   0.214
 4222SOL    HW213566   4.276   2.806   0.377
 4223SOL     OW13567   3.669   4.114   2.884
 4223SOL    HW113568   3.608   4.175   2.833
 4223SOL    HW213569   3.617   4.066   2.954
 4224SOL     OW13570   4.384   2.263   5.107
 4224SOL    HW113571   4.369   2.181   5.053
 4224SOL    HW213572   4.321   2.335   5.078
 4225SOL     OW13573   5.594   0.588   4.690
 4225SOL    HW113574   5.566   0.650   4.617
 4225SOL    HW213575   5.604   0.495   4.653
 4226SOL     OW13576   1.548   1.390   3.558
 4226SOL    HW113577   1.517   1.485   3.556
 4226SOL    HW213578   1.559   1.361   3.653
 4227SOL     OW13579   6.235   4.349   0.397
 4227SOL    HW113580   6.297   4.284   0.352
 4227SOL    HW213581   6.286   4.400   0.466
 4228SOL     OW13582   6.239   5.595   2.341
 4228SOL    HW113583   6.152   5.589   2.292
 4228SOL    HW213584   6.314   5.579   2.277
 4229SOL     OW13585   4.844   4.984   5.996
 4229SOL    HW113586   4.799   4.900   6.025
 4229SOL    HW213587   4.942   4.968   5.987
 4230SOL     OW13588   3.127   7.013   4.473
 4230SOL    HW113589   3.091   0.039   4.394
 4230SOL    HW213590   3.225   6.996   4.460
 4231SOL     OW13591   3.806   6.678   5.668
 4231SOL    HW113592   3.712   6.679   5.703
 4231SOL    HW213593   3.808   6.720   5.577
 4232SOL     OW13594   2.125   4.036   1.903
 4232SOL    HW113595   2.147   4.008   1.809
 4232SOL    HW213596   2.151   3.964   1.967
 4233SOL     OW13597   5.962   6.886   1.036
 4233SOL    HW113598   5.943   6.979   1.067
 4233SOL    HW213599   5.877   6.843   1.005
 4234SOL     OW13600   2.909   3.989   5.641
 4234SOL    HW113601   2.862   4.013   5.557
 4234SOL    HW213602   3.004   4.023   5.637
 4235SOL     OW13603   6.562   3.671   5.552
 4235SOL    HW113604   6.594   3.720   5.471
 4235SOL    HW213605   6.521   3.584   5.525
 4236SOL     OW13606   1.386   3.978   4.748
 4236SOL    HW113607   1.459   4.014   4.690
 4236SOL    HW213608   1.387   3.878   4.746
 4237SOL     OW13609   5.208   3.855   4.958
 4237SOL    HW113610   5.232   3.760   4.977
 4237SOL    HW213611   5.211   3.871   4.860
 4238SOL     OW13612   4.103   5.061   3.964
 4238SOL    HW113613   4.100   5.154   4.000
 4238SOL    HW213614   4.069   5.060   3.870
 4239SOL     OW13615   5.011   5.882   5.784
 4239SOL    HW113616   4.999   5.796   5.833
 4239SOL    HW213617   4.922   5.922   5.765
 4240SOL     OW13618   2.686   4.876   6.596
 4240SOL    HW113619   2.642   4.922   6.519
 4240SOL    HW213620   2.767   4.827   6.564
 4241SOL     OW13621   3.561   0.870   6.997
 4241SOL    HW113622   3.602   0.858   6.906
 4241SOL    HW213623   3.465   0.896   6.988
 4242SOL     OW13624   1.670   0.312   2.474
 4242SOL    HW113625   1.617   0.355   2.401
 4242SOL    HW213626   1.704   0.223   2.442
 4243SOL     OW13627   1.600   2.763   3.325
 4243SOL    HW113628   1.698   2.782   3.329
 4243SOL    HW213629   1.559   2.779   3.415
 4244SOL     OW13630   3.639   6.090   1.603
 4244SOL    HW113631   3.582   6.013   1.632
 4244SOL    HW213632   3.700   6.062   1.529
 4245SOL     OW13633   6.604   3.403   1.669
 4245SOL    HW113634   6.585   3.324   1.727
 4245SOL    HW213635   6.519   3.435   1.627
 4246SOL     OW13636   4.479   2.348   3.609
 4246SOL    HW113637   4.405   2.337   3.543
 4246SOL    HW213638   4.466   2.283   3.684
 4247SOL     OW13639   1.886   4.897   6.221
 4247SOL    HW113640   1.870   4.798   6.221
 4247SOL    HW213641   1.955   4.919   6.291
 4248SOL     OW13642   1.796   0.697   3.332
 4248SOL    HW113643   1.755   0.650   3.253
 4248SOL    HW213644   1.885   0.734   3.306
 4249SOL     OW13645   6.333   6.841   5.362
 4249SOL    HW113646   6.365   6.871   5.451
 4249SOL    HW213647   6.317   6.742   5.364
 4250SOL     OW13648   6.424   5.521   4.095
 4250SOL    HW113649   6.353   5.498   4.161
 4250SOL    HW213650   6.413   5.616   4.067
 4251SOL     OW13651   6.425   2.435   5.488
 4251SOL    HW113652   6.484   2.497   5.539
 4251SOL    HW213653   6.481   2.371   5.435
 4252SOL     OW13654   7.009   6.307   6.780
 4252SOL    HW113655   6.983   6.220   6.823
 4252SOL    HW213656   0.057   6.351   6.833
 4253SOL     OW13657   4.835   5.563   2.939
 4253SOL    HW113658   4.737   5.553   2.955
 4253SOL    HW213659   4.856   5.660   2.924
 4254SOL     OW13660   2.006   3.037   6.454
 4254SOL    HW113661   2.078   3.068   6.516
 4254SOL    HW213662   1.919   3.080   6.479
 4255SOL     OW13663   1.244   3.383   3.483
 4255SOL    HW113664   1.188   3.427   3.414
 4255SOL    HW213665   1.324   3.341   3.439
 4256SOL     OW13666   0.687   6.238   1.638
 4256SOL    HW113667   0.761   6.217   1.701
 4256SOL    HW213668   0.673   6.337   1.635
 4257SOL     OW13669   6.720   6.930   4.170
 4257SOL    HW113670   6.798   6.923   4.107
 4257SOL    HW213671   6.658   7.002   4.139
 4258SOL     OW13672   3.243   5.781   0.986
 4258SOL    HW113673   3.295   5.866   0.987
 4258SOL    HW213674   3.162   5.793   0.929
 4259SOL     OW13675   1.234   0.394   1.295
 4259SOL    HW113676   1.312   0.353   1.247
 4259SOL    HW213677   1.221   0.487   1.263
 4260SOL     OW13678   5.416   1.321   4.714
 4260SOL    HW113679   5.422   1.405   4.768
 4260SOL    HW213680   5.507   1.282   4.703
 4261SOL     OW13681   2.774   6.251   4.296
 4261SOL    HW113682   2.702   6.289   4.354
 4261SOL    HW213683   2.739   6.236   4.204
 4262SOL     OW13684   2.429   4.234   6.420
 4262SOL    HW113685   2.360   4.169   6.390
 4262SOL    HW213686   2.520   4.201   6.392
 4263SOL     OW13687   1.890   1.792   3.406
 4263SOL    HW113688   1.919   1.848   3.484
 4263SOL    HW213689   1.970   1.752   3.362
 4264SOL     OW13690   5.018   1.944   4.884
 4264SOL    HW113691   4.921   1.969   4.889
 4264SOL    HW213692   5.037   1.871   4.949
 4265SOL     OW13693   2.282   7.019   6.138
 4265SOL    HW113694   2.257   0.075   6.191
 4265SOL    HW213695   2.290   0.018   6.041
 4266SOL     OW13696   1.701   5.521   1.662
 4266SOL    HW113697   1.742   5.452   1.602
 4266SOL    HW213698   1.765   5.597   1.674
 4267SOL     OW13699   1.465   4.331   4.887
 4267SOL    HW113700   1.420   4.370   4.807
 4267SOL    HW213701   1.551   4.289   4.860
 4268SOL     OW13702   1.357   3.973   6.567
 4268SOL    HW113703   1.300   3.961   6.649
 4268SOL    HW213704   1.304   4.018   6.496
 4269SOL     OW13705   2.708   1.052   5.211
 4269SOL    HW113706   2.764   0.995   5.270
 4269SOL    HW213707   2.744   1.146   5.211
 4270SOL     OW13708   3.538   3.505   0.377
 4270SOL    HW113709   3.603   3.559   0.431
 4270SOL    HW213710   3.580   3.418   0.351
 4271SOL     OW13711   6.867   1.077   1.963
 4271SOL    HW113712   6.855   1.028   1.877
 4271SOL    HW213713   6.907   1.167   1.944
 4272SOL     OW13714   0.280   1.109   6.736
 4272SOL    HW113715   0.246   1.151   6.821
 4272SOL    HW213716   0.335   1.028   6.759
 4273SOL     OW13717   3.197   6.251   4.639
 4273SOL    HW113718   3.099   6.269   4.637
 4273SOL    HW213719   3.245   6.330   4.678
 4274SOL     OW13720   7.021   1.454   2.322
 4274SOL    HW113721   0.059   1.443   2.245
 4274SOL    HW213722   6.947   1.386   2.315
 4275SOL     OW13723   0.107   2.472   3.152
 4275SOL    HW113724   0.148   2.391   3.192
 4275SOL    HW213725   0.169   2.511   3.084
 4276SOL     OW13726   2.475   5.978   3.568
 4276SOL    HW113727   2.569   5.962   3.598
 4276SOL    HW213728   2.461   5.936   3.478
 4277SOL     OW13729   6.617   5.679   2.852
 4277SOL    HW113730   6.544   5.705   2.915
 4277SOL    HW213731   6.577   5.635   2.771
 4278SOL     OW13732   0.881   6.740   1.923
 4278SOL    HW113733   0.910   6.756   1.828
 4278SOL    HW213734   0.897   6.823   1.977
 4279SOL     OW13735   1.474   1.766   4.142
 4279SOL    HW113736   1.488   1.769   4.043
 4279SOL    HW213737   1.376   1.777   4.162
 4280SOL     OW13738   1.944   6.376   6.514
 4280SOL    HW113739   1.987   6.311   6.452
 4280SOL    HW213740   1.845   6.359   6.517
 4281SOL     OW13741   5.367   5.895   3.391
 4281SOL    HW113742   5.383   5.820   3.327
 4281SOL    HW213743   5.269   5.900   3.413
 4282SOL     OW13744   4.467   5.047   1.277
 4282SOL    HW113745   4.413   4.984   1.333
 4282SOL    HW213746   4.561   5.013   1.271
 4283SOL     OW13747   4.932   1.427   4.212
 4283SOL    HW113748   4.905   1.332   4.223
 4283SOL    HW213749   4.851   1.481   4.186
 4284SOL     OW13750   4.853   5.392   6.359
 4284SOL    HW113751   4.802   5.308   6.342
 4284SOL    HW213752   4.808   5.469   6.313
 4285SOL     OW13753   3.380   1.268   5.867
 4285SOL    HW113754   3.320   1.296   5.792
 4285SOL    HW213755   3.330   1.270   5.953
 4286SOL     OW13756   6.170   0.167   6.626
 4286SOL    HW113757   6.125   0.129   6.545
 4286SOL    HW213758   6.239   0.233   6.598
 4287SOL     OW13759   3.723   0.638   0.883
 4287SOL    HW113760   3.669   0.574   0.938
 4287SOL    HW213761   3.705   0.732   0.913
 4288SOL     OW13762   0.010   6.232   2.354
 4288SOL    HW113763   0.107   6.210   2.363
 4288SOL    HW213764   7.022   6.299   2.281
 4289SOL     OW13765   0.467   4.501   4.562
 4289SOL    HW113766   0.408   4.472   4.487
 4289SOL    HW213767   0.468   4.601   4.566
 4290SOL     OW13768   0.638   1.080   3.191
 4290SOL    HW113769   0.682   1.144   3.128
 4290SOL    HW213770   0.544   1.064   3.161
 4291SOL     OW13771   4.392   3.849   5.761
 4291SOL    HW113772   4.450   3.912   5.709
 4291SOL    HW213773   4.296   3.870   5.745
 4292SOL     OW13774   6.158   1.691   1.991
 4292SOL    HW113775   6.083   1.689   2.057
 4292SOL    HW213776   6.136   1.755   1.917
 4293SOL     OW13777   3.932   3.147   0.602
 4293SOL    HW113778   3.868   3.123   0.674
 4293SOL    HW213779   3.988   3.067   0.579
 4294SOL     OW13780   2.499   1.763   6.746
 4294SOL    HW113781   2.468   1.773   6.652
 4294SOL    HW213782   2.599   1.764   6.749
 4295SOL     OW13783   4.153   6.009   2.817
 4295SOL    HW113784   4.243   5.966   2.811
 4295SOL    HW213785   4.164   6.108   2.821
 4296SOL     OW13786   2.868   6.331   3.194
 4296SOL    HW113787   2.865   6.400   3.122
 4296SOL    HW213788   2.886   6.374   3.282
 4297SOL     OW13789   5.065   5.404   0.387
 4297SOL    HW113790   5.021   5.322   0.425
 4297SOL    HW213791   5.157   5.381   0.355
 4298SOL     OW13792   1.906   0.094   0.694
 4298SOL    HW113793   2.002   0.073   0.715
 4298SOL    HW213794   1.883   0.055   0.605
 4299SOL     OW13795   0.494   2.537   6.875
 4299SOL    HW113796   0.523   2.468   6.809
 4299SOL    HW213797   0.565   2.607   6.885
 4300SOL     OW13798   3.053   0.404   1.497
 4300SOL    HW113799   3.115   0.482   1.508
 4300SOL    HW213800   3.100   0.332   1.446
 4301SOL     OW13801   2.426   6.267   0.346
 4301SOL    HW113802   2.403   6.245   0.251
 4301SOL    HW213803   2.507   6.326   0.348
 4302SOL     OW13804   2.292   5.298   5.771
 4302SOL    HW113805   2.301   5.243   5.688
 4302SOL    HW213806   2.204   5.346   5.769
 4303SOL     OW13807   5.157   5.425   3.313
 4303SOL    HW113808   5.082   5.363   3.291
 4303SOL    HW213809   5.226   5.420   3.241
 4304SOL     OW13810   3.424   3.904   1.603
 4304SOL    HW113811   3.514   3.915   1.563
 4304SOL    HW213812   3.411   3.810   1.632
 4305SOL     OW13813   1.154   6.056   5.602
 4305SOL    HW113814   1.073   6.002   5.623
 4305SOL    HW213815   1.217   6.003   5.546
 4306SOL     OW13816   5.457   4.380   5.127
 4306SOL    HW113817   5.423   4.308   5.066
 4306SOL    HW213818   5.442   4.469   5.084
 4307SOL     OW13819   0.563   0.882   5.878
 4307SOL    HW113820   0.614   0.967   5.863
 4307SOL    HW213821   0.493   0.896   5.948
 4308SOL     OW13822   4.892   6.097   6.712
 4308SOL    HW113823   4.844   6.185   6.715
 4308SOL    HW213824   4.829   6.024   6.739
 4309SOL     OW13825   0.874   1.469   0.525
 4309SOL    HW113826   0.878   1.500   0.620
 4309SOL    HW213827   0.924   1.534   0.467
 4310SOL     OW13828   6.486   2.255   2.359
 4310SOL    HW113829   6.389   2.255   2.382
 4310SOL    HW213830   6.505   2.184   2.291
 4311SOL     OW13831   0.334   6.918   1.525
 4311SOL    HW113832   0.321   6.819   1.517
 4311SOL    HW213833   0.384   6.938   1.609
 4312SOL     OW13834   6.902   4.985   2.490
 4312SOL    HW113835   6.938   4.892   2.494
 4312SOL    HW213836   6.978   5.050   2.490
 4313SOL     OW13837   0.087   3.241   6.461
 4313SOL    HW113838   0.077   3.307   6.535
 4313SOL    HW213839   0.185   3.222   6.447
 4314SOL     OW13840   0.710   1.170   6.168
 4314SOL    HW113841   0.778   1.113   6.215
 4314SOL    HW213842   0.620   1.153   6.207
 4315SOL     OW13843   2.568   0.951   4.991
 4315SOL    HW113844   2.572   1.007   4.907
 4315SOL    HW213845   2.615   0.999   5.065
 4316SOL     OW13846   4.966   6.072   1.163
 4316SOL    HW113847   5.057   6.031   1.150
 4316SOL    HW213848   4.933   6.052   1.255
 4317SOL     OW13849   4.634   0.904   5.731
 4317SOL    HW113850   4.726   0.917   5.692
 4317SOL    HW213851   4.586   0.991   5.731
 4318SOL     OW13852   1.095   6.692   4.141
 4318SOL    HW113853   1.024   6.678   4.072
 4318SOL    HW213854   1.185   6.688   4.097
 4319SOL     OW13855   1.287   4.275   2.519
 4319SOL    HW113856   1.237   4.214   2.580
 4319SOL    HW213857   1.244   4.276   2.429
 4320SOL     OW13858   3.571   0.007   0.728
 4320SOL    HW113859   3.506   7.008   0.800
 4320SOL    HW213860   3.523   0.048   0.651
 4321SOL     OW13861   6.806   6.876   3.136
 4321SOL    HW113862   6.711   6.857   3.162
 4321SOL    HW213863   6.808   6.919   3.046
 4322SOL     OW13864   1.745   2.863   4.855
 4322SOL    HW113865   1.783   2.811   4.931
 4322SOL    HW213866   1.683   2.934   4.890
 4323SOL     OW13867   4.258   4.745   0.152
 4323SOL    HW113868   4.172   4.695   0.162
 4323SOL    HW213869   4.327   4.704   0.212
 4324SOL     OW13870   1.038   4.719   5.850
 4324SOL    HW113871   1.094   4.676   5.921
 4324SOL    HW213872   0.956   4.664   5.835
 4325SOL     OW13873   1.823   0.354   2.688
 4325SOL    HW113874   1.774   0.357   2.601
 4325SOL    HW213875   1.920   0.334   2.671
 4326SOL     OW13876   5.122   1.699   1.969
 4326SOL    HW113877   5.164   1.667   1.885
 4326SOL    HW213878   5.183   1.763   2.015
 4327SOL     OW13879   2.761   5.959   3.608
 4327SOL    HW113880   2.800   5.881   3.559
 4327SOL    HW213881   2.785   6.043   3.560
 4328SOL     OW13882   6.916   0.379   4.338
 4328SOL    HW113883   6.981   0.309   4.367
 4328SOL    HW213884   6.863   0.346   4.260
 4329SOL     OW13885   6.881   2.113   6.921
 4329SOL    HW113886   6.914   2.134   6.829
 4329SOL    HW213887   6.783   2.094   6.918
 4330SOL     OW13888   3.206   5.132   4.332
 4330SOL    HW113889   3.227   5.229   4.344
 4330SOL    HW213890   3.110   5.115   4.354
 4331SOL     OW13891   5.732   1.521   2.004
 4331SOL    HW113892   5.809   1.514   2.067
 4331SOL    HW213893   5.661   1.456   2.030
 4332SOL     OW13894   1.236   5.219   2.038
 4332SOL    HW113895   1.320   5.190   2.083
 4332SOL    HW213896   1.236   5.318   2.028
 4333SOL     OW13897   4.697   2.441   5.872
 4333SOL    HW113898   4.608   2.485   5.858
 4333SOL    HW213899   4.729   2.459   5.965
 4334SOL     OW13900   6.884   2.892   4.369
 4334SOL    HW113901   6.949   2.866   4.298
 4334SOL    HW213902   6.878   2.992   4.373
 4335SOL     OW13903   2.749   3.840   1.523
 4335SOL    HW113904   2.668   3.781   1.524
 4335SOL    HW213905   2.829   3.786   1.548
 4336SOL     OW13906   2.577   5.905   5.429
 4336SOL    HW113907   2.565   5.991   5.479
 4336SOL    HW213908   2.656   5.911   5.368
 4337SOL     OW13909   1.166   5.160   3.764
 4337SOL    HW113910   1.175   5.079   3.705
 4337SOL    HW213911   1.123   5.234   3.712
 4338SOL     OW13912   3.447   2.046   5.518
 4338SOL    HW113913   3.406   2.112   5.581
 4338SOL    HW213914   3.442   2.082   5.425
 4339SOL     OW13915   3.877   4.332   6.239
 4339SOL    HW113916   3.838   4.424   6.228
 4339SOL    HW213917   3.883   4.288   6.150
 4340SOL     OW13918   6.187   4.070   1.547
 4340SOL    HW113919   6.183   4.027   1.457
 4340SOL    HW213920   6.271   4.041   1.594
 4341SOL     OW13921   6.210   6.103   1.910
 4341SOL    HW113922   6.126   6.083   1.961
 4341SOL    HW213923   6.282   6.038   1.936
 4342SOL     OW13924   4.922   3.827   2.563
 4342SOL    HW113925   4.916   3.864   2.471
 4342SOL    HW213926   5.004   3.863   2.608
 4343SOL     OW13927   3.923   6.545   6.069
 4343SOL    HW113928   3.858   6.470   6.077
 4343SOL    HW213929   3.921   6.581   5.976
 4344SOL     OW13930   0.166   3.705   3.286
 4344SOL    HW113931   0.083   3.674   3.240
 4344SOL    HW213932   0.232   3.630   3.289
 4345SOL     OW13933   3.129   3.082   2.585
 4345SOL    HW113934   3.076   3.054   2.506
 4345SOL    HW213935   3.192   3.155   2.559
 4346SOL     OW13936   1.382   2.988   2.655
 4346SOL    HW113937   1.429   3.068   2.619
 4346SOL    HW213938   1.343   3.010   2.745
 4347SOL     OW13939   6.697   5.528   0.389
 4347SOL    HW113940   6.626   5.595   0.410
 4347SOL    HW213941   6.654   5.441   0.363
 4348SOL     OW13942   5.767   4.934   4.487
 4348SOL    HW113943   5.738   5.020   4.531
 4348SOL    HW213944   5.695   4.903   4.425
 4349SOL     OW13945   0.252   3.332   4.194
 4349SOL    HW113946   0.203   3.287   4.269
 4349SOL    HW213947   0.344   3.355   4.224
 4350SOL     OW13948   3.389   1.201   4.367
 4350SOL    HW113949   3.323   1.183   4.439
 4350SOL    HW213950   3.363   1.285   4.318
 4351SOL     OW13951   0.832   5.779   0.554
 4351SOL    HW113952   0.810   5.837   0.476
 4351SOL    HW213953   0.754   5.721   0.577
 4352SOL     OW13954   3.610   4.985   1.484
 4352SOL    HW113955   3.634   4.903   1.537
 4352SOL    HW213956   3.513   4.980   1.459
 4353SOL     OW13957   2.516   2.564   1.246
 4353SOL    HW113958   2.613   2.541   1.240
 4353SOL    HW213959   2.505   2.663   1.239
 4354SOL     OW13960   5.979   6.869   3.308
 4354SOL    HW113961   5.957   6.958   3.348
 4354SOL    HW213962   6.045   6.881   3.233
 4355SOL     OW13963   2.182   5.323   2.801
 4355SOL    HW113964   2.279   5.330   2.778
 4355SOL    HW213965   2.167   5.360   2.893
 4356SOL     OW13966   6.195   2.745   5.422
 4356SOL    HW113967   6.150   2.674   5.477
 4356SOL    HW213968   6.251   2.701   5.352
 4357SOL     OW13969   5.535   0.553   2.010
 4357SOL    HW113970   5.616   0.537   1.954
 4357SOL    HW213971   5.461   0.589   1.953
 4358SOL     OW13972   3.040   0.313   0.067
 4358SOL    HW113973   2.969   0.257   0.110
 4358SOL    HW213974   3.112   0.254   0.032
 4359SOL     OW13975   2.849   1.883   0.674
 4359SOL    HW113976   2.894   1.795   0.658
 4359SOL    HW213977   2.788   1.903   0.597
 4360SOL     OW13978   2.094   4.587   4.335
 4360SOL    HW113979   2.164   4.523   4.365
 4360SOL    HW213980   2.066   4.645   4.412
 4361SOL     OW13981   6.811   1.981   0.525
 4361SOL    HW113982   6.885   1.922   0.493
 4361SOL    HW213983   6.818   2.070   0.480
 4362SOL     OW13984   1.089   5.337   3.558
 4362SOL    HW113985   1.012   5.284   3.521
 4362SOL    HW213986   1.148   5.367   3.483
 4363SOL     OW13987   4.041   0.974   2.457
 4363SOL    HW113988   3.984   0.937   2.384
 4363SOL    HW213989   4.001   0.953   2.546
 4364SOL     OW13990   4.111   3.381   2.522
 4364SOL    HW113991   4.199   3.419   2.492
 4364SOL    HW213992   4.048   3.379   2.445
 4365SOL     OW13993   2.225   1.380   1.256
 4365SOL    HW113994   2.276   1.333   1.183
 4365SOL    HW213995   2.271   1.466   1.278
 4366SOL     OW13996   4.587   6.578   4.809
 4366SOL    HW113997   4.643   6.656   4.836
 4366SOL    HW213998   4.567   6.523   4.890
 4367SOL     OW13999   2.990   5.782   3.153
 4367SOL    HW114000   3.003   5.860   3.092
 4367SOL    HW214001   2.977   5.699   3.099
 4368SOL     OW14002   4.747   4.323   3.886
 4368SOL    HW114003   4.745   4.226   3.906
 4368SOL    HW214004   4.689   4.372   3.951
 4369SOL     OW14005   5.086   4.230   3.514
 4369SOL    HW114006   5.082   4.217   3.613
 4369SOL    HW214007   5.014   4.293   3.485
 4370SOL     OW14008   3.681   4.446   1.675
 4370SOL    HW114009   3.669   4.366   1.733
 4370SOL    HW214010   3.685   4.529   1.731
 4371SOL     OW14011   2.253   1.056   1.645
 4371SOL    HW114012   2.341   1.039   1.601
 4371SOL    HW214013   2.181   1.066   1.575
 4372SOL     OW14014   1.621   3.412   4.840
 4372SOL    HW114015   1.709   3.446   4.872
 4372SOL    HW214016   1.549   3.478   4.861
 4373SOL     OW14017   3.281   1.066   6.347
 4373SOL    HW114018   3.317   1.009   6.421
 4373SOL    HW214019   3.313   1.160   6.358
 4374SOL     OW14020   2.643   6.886   1.174
 4374SOL    HW114021   2.625   6.937   1.258
 4374SOL    HW214022   2.738   6.853   1.175
 4375SOL     OW14023   4.582   2.011   4.738
 4375SOL    HW114024   4.597   1.912   4.748
 4375SOL    HW214025   4.613   2.040   4.648
 4376SOL     OW14026   2.249   6.063   6.740
 4376SOL    HW114027   2.218   6.008   6.817
 4376SOL    HW214028   2.197   6.149   6.737
 4377SOL     OW14029   5.641   0.214   6.312
 4377SOL    HW114030   5.718   0.179   6.257
 4377SOL    HW214031   5.654   0.189   6.408
 4378SOL     OW14032   2.623   5.520   2.150
 4378SOL    HW114033   2.638   5.584   2.074
 4378SOL    HW214034   2.632   5.426   2.117
 4379SOL     OW14035   1.151   0.535   1.742
 4379SOL    HW114036   1.169   0.544   1.840
 4379SOL    HW214037   1.052   0.531   1.726
 4380SOL     OW14038   2.002   5.048   4.543
 4380SOL    HW114039   2.082   5.108   4.547
 4380SOL    HW214040   1.934   5.079   4.610
 4381SOL     OW14041   4.594   6.335   5.362
 4381SOL    HW114042   4.513   6.303   5.313
 4381SOL    HW214043   4.613   6.431   5.338
 4382SOL     OW14044   5.020   3.642   3.171
 4382SOL    HW114045   5.120   3.649   3.178
 4382SOL    HW214046   4.979   3.682   3.252
 4383SOL     OW14047   1.157   1.952   0.021
 4383SOL    HW114048   1.084   1.922   6.985
 4383SOL    HW214049   1.118   1.983   0.108
 4384SOL     OW14050   3.783   6.467   1.370
 4384SOL    HW114051   3.757   6.389   1.314
 4384SOL    HW214052   3.714   6.538   1.362
 4385SOL     OW14053   6.435   1.360   2.265
 4385SOL    HW114054   6.434   1.325   2.358
 4385SOL    HW214055   6.514   1.421   2.253
 4386SOL     OW14056   1.470   3.811   6.853
 4386SOL    HW114057   1.400   3.742   6.871
 4386SOL    HW214058   1.506   3.798   6.761
 4387SOL     OW14059   6.923   3.274   1.838
 4387SOL    HW114060   6.919   3.186   1.884
 4387SOL    HW214061   6.854   3.336   1.877
 4388SOL     OW14062   2.790   1.332   5.339
 4388SOL    HW114063   2.708   1.388   5.355
 4388SOL    HW214064   2.801   1.268   5.415
 4389SOL     OW14065   5.296   2.138   2.020
 4389SOL    HW114066   5.217   2.091   2.058
 4389SOL    HW214067   5.279   2.236   2.018
 4390SOL     OW14068   4.410   2.662   1.535
 4390SOL    HW114069   4.455   2.722   1.600
 4390SOL    HW214070   4.373   2.582   1.583
 4391SOL     OW14071   0.502   6.018   0.991
 4391SOL    HW114072   0.560   5.944   1.027
 4391SOL    HW214073   0.516   6.025   0.892
 4392SOL     OW14074   5.708   3.841   4.440
 4392SOL    HW114075   5.730   3.912   4.372
 4392SOL    HW214076   5.645   3.775   4.399
 4393SOL     OW14077   4.542   5.834   3.832
 4393SOL    HW114078   4.631   5.789   3.839
 4393SOL    HW214079   4.497   5.806   3.747
 4394SOL     OW14080   4.675   1.092   2.190
 4394SOL    HW114081   4.723   1.122   2.273
 4394SOL    HW214082   4.742   1.057   2.124
 4395SOL     OW14083   4.618   1.870   1.545
 4395SOL    HW114084   4.669   1.867   1.631
 4395SOL    HW214085   4.678   1.896   1.470
 4396SOL     OW14086   1.578   0.884   3.836
 4396SOL    HW114087   1.542   0.951   3.901
 4396SOL    HW214088   1.535   0.796   3.852
 4397SOL     OW14089   6.530   0.415   6.338
 4397SOL    HW114090   6.561   0.425   6.244
 4397SOL    HW214091   6.515   0.505   6.379
 4398SOL     OW14092   6.670   4.817   4.179
 4398SOL    HW114093   6.720   4.892   4.136
 4398SOL    HW214094   6.657   4.743   4.113
 4399SOL     OW14095   2.881   1.261   1.643
 4399SOL    HW114096   2.858   1.357   1.627
 4399SOL    HW214097   2.799   1.205   1.635
 4400SOL     OW14098   3.652   5.476   4.362
 4400SOL    HW114099   3.714   5.553   4.346
 4400SOL    HW214100   3.562   5.499   4.326
 4401SOL     OW14101   5.319   6.909   4.182
 4401SOL    HW114102   5.268   6.909   4.268
 4401SOL    HW214103   5.327   7.002   4.147
 4402SOL     OW14104   6.834   0.864   3.317
 4402SOL    HW114105   6.816   0.962   3.330
 4402SOL    HW214106   6.802   0.813   3.397
 4403SOL     OW14107   0.844   6.687   2.657
 4403SOL    HW114108   0.897   6.694   2.572
 4403SOL    HW214109   0.870   6.604   2.706
 4404SOL     OW14110   1.773   4.123   3.655
 4404SOL    HW114111   1.714   4.200   3.680
 4404SOL    HW214112   1.784   4.062   3.734
 4405SOL     OW14113   3.782   4.578   6.163
 4405SOL    HW114114   3.711   4.636   6.203
 4405SOL    HW214115   3.757   4.555   6.069
 4406SOL     OW14116   5.427   3.457   1.585
 4406SOL    HW114117   5.430   3.361   1.613
 4406SOL    HW214118   5.348   3.472   1.526
 4407SOL     OW14119   6.928   6.355   0.089
 4407SOL    HW114120   6.880   6.322   0.170
 4407SOL    HW214121   6.864   6.402   0.028
 4408SOL     OW14122   4.800   6.463   0.289
 4408SOL    HW114123   4.782   6.367   0.311
 4408SOL    HW214124   4.884   6.493   0.336
 4409SOL     OW14125   2.621   1.699   2.301
 4409SOL    HW114126   2.544   1.668   2.244
 4409SOL    HW214127   2.690   1.742   2.242
 4410SOL     OW14128   2.741   5.333   1.983
 4410SOL    HW114129   2.829   5.379   1.977
 4410SOL    HW214130   2.751   5.248   2.034
 4411SOL     OW14131   3.834   3.085   2.418
 4411SOL    HW114132   3.909   3.048   2.363
 4411SOL    HW214133   3.753   3.028   2.408
 4412SOL     OW14134   3.232   1.988   6.261
 4412SOL    HW114135   3.272   2.079   6.249
 4412SOL    HW214136   3.241   1.960   6.357
 4413SOL     OW14137   4.082   5.648   4.392
 4413SOL    HW114138   4.125   5.647   4.301
 4413SOL    HW214139   4.074   5.554   4.425
 4414SOL     OW14140   3.608   5.476   2.205
 4414SOL    HW114141   3.519   5.465   2.248
 4414SOL    HW214142   3.665   5.396   2.223
 4415SOL     OW14143   4.501   2.446   0.830
 4415SOL    HW114144   4.541   2.425   0.740
 4415SOL    HW214145   4.511   2.543   0.849
 4416SOL     OW14146   3.732   1.402   3.559
 4416SOL    HW114147   3.758   1.496   3.539
 4416SOL    HW214148   3.664   1.371   3.492
 4417SOL     OW14149   0.622   0.365   1.115
 4417SOL    HW114150   0.621   0.285   1.055
 4417SOL    HW214151   0.611   0.448   1.061
 4418SOL     OW14152   4.037   0.235   3.581
 4418SOL    HW114153   3.958   0.176   3.600
 4418SOL    HW214154   4.011   0.331   3.592
 4419SOL     OW14155   0.001   5.198   0.358
 4419SOL    HW114156   0.043   5.202   0.449
 4419SOL    HW214157   6.999   5.290   0.329
 4420SOL     OW14158   4.198   0.956   6.572
 4420SOL    HW114159   4.230   0.908   6.490
 4420SOL    HW214160   4.107   0.922   6.597
 4421SOL     OW14161   1.846   1.894   3.144
 4421SOL    HW114162   1.854   1.877   3.242
 4421SOL    HW214163   1.818   1.989   3.129
 4422SOL     OW14164   2.034   3.746   5.723
 4422SOL    HW114165   2.002   3.721   5.631
 4422SOL    HW214166   2.021   3.844   5.738
 4423SOL     OW14167   0.139   1.151   6.515
 4423SOL    HW114168   0.208   1.130   6.584
 4423SOL    HW214169   0.054   1.103   6.537
 4424SOL     OW14170   7.014   6.253   3.726
 4424SOL    HW114171   0.029   6.327   3.672
 4424SOL    HW214172   6.956   6.196   3.668
 4425SOL     OW14173   4.277   4.103   0.358
 4425SOL    HW114174   4.299   4.106   0.260
 4425SOL    HW214175   4.352   4.060   0.408
 4426SOL     OW14176   1.040   0.314   5.270
 4426SOL    HW114177   0.972   0.381   5.298
 4426SOL    HW214178   1.035   0.301   5.171
 4427SOL     OW14179   1.341   6.551   3.402
 4427SOL    HW114180   1.253   6.546   3.355
 4427SOL    HW214181   1.393   6.467   3.385
 4428SOL     OW14182   2.926   5.786   3.436
 4428SOL    HW114183   2.960   5.797   3.343
 4428SOL    HW214184   2.991   5.731   3.489
 4429SOL     OW14185   3.895   0.559   3.121
 4429SOL    HW114186   3.870   0.545   3.025
 4429SOL    HW214187   3.913   0.656   3.137
 4430SOL     OW14188   1.851   0.878   1.339
 4430SOL    HW114189   1.895   0.929   1.265
 4430SOL    HW214190   1.790   0.938   1.390
 4431SOL     OW14191   1.486   2.270   3.334
 4431SOL    HW114192   1.410   2.311   3.384
 4431SOL    HW214193   1.458   2.251   3.240
 4432SOL     OW14194   2.943   3.560   3.344
 4432SOL    HW114195   2.855   3.568   3.298
 4432SOL    HW214196   2.969   3.650   3.381
 4433SOL     OW14197   0.196   0.631   3.478
 4433SOL    HW114198   0.138   0.603   3.401
 4433SOL    HW214199   0.287   0.654   3.444
 4434SOL     OW14200   5.167   2.026   3.997
 4434SOL    HW114201   5.261   2.003   3.971
 4434SOL    HW214202   5.153   2.125   3.986
 4435SOL     OW14203   3.435   3.120   2.297
 4435SOL    HW114204   3.519   3.107   2.245
 4435SOL    HW214205   3.379   3.038   2.293
 4436SOL     OW14206   4.703   0.484   0.180
 4436SOL    HW114207   4.683   0.545   0.103
 4436SOL    HW214208   4.619   0.465   0.230
 4437SOL     OW14209   3.359   0.251   4.636
 4437SOL    HW114210   3.382   0.337   4.682
 4437SOL    HW214211   3.420   0.238   4.558
 4438SOL     OW14212   3.707   3.792   6.157
 4438SOL    HW114213   3.701   3.693   6.169
 4438SOL    HW214214   3.768   3.813   6.080
 4439SOL     OW14215   2.807   4.995   2.245
 4439SOL    HW114216   2.781   4.899   2.237
 4439SOL    HW214217   2.727   5.052   2.229
 4440SOL     OW14218   6.806   0.407   6.419
 4440SOL    HW114219   6.804   0.507   6.414
 4440SOL    HW214220   6.719   0.371   6.386
 4441SOL     OW14221   5.730   2.337   3.456
 4441SOL    HW114222   5.780   2.424   3.457
 4441SOL    HW214223   5.657   2.340   3.523
 4442SOL     OW14224   1.852   6.368   2.416
 4442SOL    HW114225   1.878   6.429   2.491
 4442SOL    HW214226   1.757   6.385   2.391
 4443SOL     OW14227   2.476   1.354   5.718
 4443SOL    HW114228   2.495   1.435   5.774
 4443SOL    HW214229   2.515   1.273   5.762
 4444SOL     OW14230   5.102   0.798   2.516
 4444SOL    HW114231   5.189   0.775   2.473
 4444SOL    HW214232   5.111   0.787   2.615
 4445SOL     OW14233   1.618   1.611   6.202
 4445SOL    HW114234   1.538   1.623   6.261
 4445SOL    HW214235   1.607   1.668   6.120
 4446SOL     OW14236   6.196   5.872   4.190
 4446SOL    HW114237   6.221   5.841   4.282
 4446SOL    HW214238   6.096   5.872   4.182
 4447SOL     OW14239   4.995   3.482   4.866
 4447SOL    HW114240   4.962   3.388   4.876
 4447SOL    HW214241   4.944   3.542   4.928
 4448SOL     OW14242   2.518   3.061   6.184
 4448SOL    HW114243   2.506   3.021   6.275
 4448SOL    HW214244   2.518   2.988   6.116
 4449SOL     OW14245   0.812   1.429   5.042
 4449SOL    HW114246   0.729   1.469   5.082
 4449SOL    HW214247   0.788   1.383   4.957
 4450SOL     OW14248   3.976   3.748   3.208
 4450SOL    HW114249   3.957   3.812   3.133
 4450SOL    HW214250   3.970   3.796   3.295
 4451SOL     OW14251   6.701   4.324   1.691
 4451SOL    HW114252   6.688   4.369   1.779
 4451SOL    HW214253   6.615   4.281   1.662
 4452SOL     OW14254   6.388   5.176   6.073
 4452SOL    HW114255   6.299   5.139   6.099
 4452SOL    HW214256   6.430   5.118   6.003
 4453SOL     OW14257   5.178   2.078   1.333
 4453SOL    HW114258   5.179   1.991   1.382
 4453SOL    HW214259   5.130   2.147   1.387
 4454SOL     OW14260   5.219   3.005   1.428
 4454SOL    HW114261   5.182   2.915   1.405
 4454SOL    HW214262   5.157   3.051   1.491
 4455SOL     OW14263   4.232   1.640   1.258
 4455SOL    HW114264   4.262   1.718   1.313
 4455SOL    HW214265   4.311   1.582   1.237
 4456SOL     OW14266   1.050   5.582   3.145
 4456SOL    HW114267   1.002   5.668   3.127
 4456SOL    HW214268   1.045   5.524   3.064
 4457SOL     OW14269   4.958   1.973   6.594
 4457SOL    HW114270   4.919   1.887   6.559
 4457SOL    HW214271   4.893   2.015   6.657
 4458SOL     OW14272   3.540   1.765   6.406
 4458SOL    HW114273   3.640   1.763   6.401
 4458SOL    HW214274   3.511   1.841   6.463
 4459SOL     OW14275   4.943   6.056   5.427
 4459SOL    HW114276   4.905   6.002   5.502
 4459SOL    HW214277   5.041   6.039   5.420
 4460SOL     OW14278   1.355   1.451   6.182
 4460SOL    HW114279   1.399   1.464   6.093
 4460SOL    HW214280   1.369   1.532   6.238
 4461SOL     OW14281   2.239   0.442   2.403
 4461SOL    HW114282   2.296   0.456   2.322
 4461SOL    HW214283   2.243   0.524   2.460
 4462SOL     OW14284   6.907   5.740   1.305
 4462SOL    HW114285   6.971   5.709   1.375
 4462SOL    HW214286   6.959   5.773   1.225
 4463SOL     OW14287   1.334   3.431   5.984
 4463SOL    HW114288   1.338   3.526   6.013
 4463SOL    HW214289   1.364   3.372   6.060
 4464SOL     OW14290   6.088   2.976   6.969
 4464SOL    HW114291   6.065   2.916   0.021
 4464SOL    HW214292   6.005   2.996   6.917
 4465SOL     OW14293   1.690   5.808   2.053
 4465SOL    HW114294   1.622   5.737   2.069
 4465SOL    HW214295   1.777   5.781   2.094
 4466SOL     OW14296   0.429   2.597   3.944
 4466SOL    HW114297   0.377   2.515   3.921
 4466SOL    HW214298   0.441   2.654   3.863
 4467SOL     OW14299   1.190   6.995   3.352
 4467SOL    HW114300   1.154   7.018   3.442
 4467SOL    HW214301   1.162   0.040   3.286
 4468SOL     OW14302   1.064   2.581   6.985
 4468SOL    HW114303   1.078   2.483   7.001
 4468SOL    HW214304   1.135   2.633   0.008
 4469SOL     OW14305   4.371   0.074   0.131
 4469SOL    HW114306   4.295   0.137   0.114
 4469SOL    HW214307   4.424   0.107   0.209
 4470SOL     OW14308   4.545   5.230   1.080
 4470SOL    HW114309   4.622   5.281   1.118
 4470SOL    HW214310   4.516   5.160   1.145
 4471SOL     OW14311   6.542   3.556   0.180
 4471SOL    HW114312   6.597   3.640   0.180
 4471SOL    HW214313   6.494   3.548   0.093
 4472SOL     OW14314   1.994   4.893   1.353
 4472SOL    HW114315   1.994   4.793   1.353
 4472SOL    HW214316   2.046   4.927   1.431
 4473SOL     OW14317   0.490   0.127   5.508
 4473SOL    HW114318   0.523   0.193   5.576
 4473SOL    HW214319   0.561   0.113   5.439
 4474SOL     OW14320   5.931   0.937   3.703
 4474SOL    HW114321   5.980   0.901   3.782
 4474SOL    HW214322   5.915   1.035   3.715
 4475SOL     OW14323   1.591   3.922   0.041
 4475SOL    HW114324   1.529   3.881   6.999
 4475SOL    HW214325   1.686   3.898   0.018
 4476SOL     OW14326   4.809   6.371   2.196
 4476SOL    HW114327   4.767   6.414   2.116
 4476SOL    HW214328   4.835   6.277   2.175
 4477SOL     OW14329   1.622   1.028   6.980
 4477SOL    HW114330   1.568   1.029   6.896
 4477SOL    HW214331   1.616   1.118   0.000
 4478SOL     OW14332   1.444   5.117   2.198
 4478SOL    HW114333   1.422   5.034   2.249
 4478SOL    HW214334   1.500   5.177   2.255
 4479SOL     OW14335   0.342   7.001   5.142
 4479SOL    HW114336   0.301   6.961   5.060
 4479SOL    HW214337   0.315   6.947   5.222
 4480SOL     OW14338   1.249   4.548   3.674
 4480SOL    HW114339   1.189   4.620   3.708
 4480SOL    HW214340   1.272   4.486   3.750
 4481SOL     OW14341   1.131   7.023   3.870
 4481SOL    HW114342   1.222   0.039   3.881
 4481SOL    HW214343   1.068   0.067   3.833
 4482SOL     OW14344   0.428   4.316   3.935
 4482SOL    HW114345   0.402   4.389   3.999
 4482SOL    HW214346   0.505   4.346   3.880
 4483SOL     OW14347   5.404   2.392   2.189
 4483SOL    HW114348   5.351   2.314   2.221
 4483SOL    HW214349   5.347   2.450   2.131
 4484SOL     OW14350   4.041   2.748   5.730
 4484SOL    HW114351   3.974   2.685   5.690
 4484SOL    HW214352   4.052   2.728   5.827
 4485SOL     OW14353   4.649   1.193   6.751
 4485SOL    HW114354   4.597   1.267   6.707
 4485SOL    HW214355   4.611   1.105   6.722
 4486SOL     OW14356   6.362   2.461   4.039
 4486SOL    HW114357   6.336   2.365   4.050
 4486SOL    HW214358   6.461   2.471   4.048
 4487SOL     OW14359   3.442   3.035   6.196
 4487SOL    HW114360   3.404   3.128   6.194
 4487SOL    HW214361   3.430   2.996   6.287
 4488SOL     OW14362   0.183   1.408   5.749
 4488SOL    HW114363   0.255   1.338   5.755
 4488SOL    HW214364   0.220   1.496   5.780
 4489SOL     OW14365   6.934   0.727   3.099
 4489SOL    HW114366   6.898   0.792   3.167
 4489SOL    HW214367   7.008   0.771   3.048
 4490SOL     OW14368   6.746   2.692   3.410
 4490SOL    HW114369   6.827   2.637   3.390
 4490SOL    HW214370   6.698   2.714   3.325
 4491SOL     OW14371   1.658   2.734   2.864
 4491SOL    HW114372   1.617   2.804   2.924
 4491SOL    HW214373   1.757   2.743   2.866
 4492SOL     OW14374   4.012   3.324   6.441
 4492SOL    HW114375   4.095   3.285   6.481
 4492SOL    HW214376   3.947   3.346   6.514
 4493SOL     OW14377   5.883   5.317   3.601
 4493SOL    HW114378   5.872   5.378   3.523
 4493SOL    HW214379   5.934   5.364   3.673
 4494SOL     OW14380   6.227   3.648   3.644
 4494SOL    HW114381   6.206   3.707   3.722
 4494SOL    HW214382   6.307   3.591   3.666
 4495SOL     OW14383   4.696   6.282   1.419
 4495SOL    HW114384   4.723   6.321   1.507
 4495SOL    HW214385   4.742   6.330   1.345
 4496SOL     OW14386   5.157   4.652   5.498
 4496SOL    HW114387   5.118   4.630   5.409
 4496SOL    HW214388   5.250   4.616   5.504
 4497SOL     OW14389   6.721   5.194   0.643
 4497SOL    HW114390   6.628   5.218   0.672
 4497SOL    HW214391   6.728   5.203   0.544
 4498SOL     OW14392   0.169   4.197   6.669
 4498SOL    HW114393   0.208   4.107   6.690
 4498SOL    HW214394   0.243   4.264   6.661
 4499SOL     OW14395   6.648   3.204   6.687
 4499SOL    HW114396   6.733   3.154   6.671
 4499SOL    HW214397   6.577   3.141   6.715
 4500SOL     OW14398   3.470   3.689   4.728
 4500SOL    HW114399   3.553   3.633   4.737
 4500SOL    HW214400   3.420   3.689   4.815
 4501SOL     OW14401   1.016   4.547   4.951
 4501SOL    HW114402   0.938   4.499   4.912
 4501SOL    HW214403   0.984   4.618   5.013
 4502SOL     OW14404   6.902   3.043   6.936
 4502SOL    HW114405   6.844   3.016   6.859
 4502SOL    HW214406   6.880   3.137   6.962
 4503SOL     OW14407   1.351   1.945   3.262
 4503SOL    HW114408   1.364   1.855   3.222
 4503SOL    HW214409   1.373   2.015   3.194
 4504SOL     OW14410   5.162   2.649   4.613
 4504SOL    HW114411   5.108   2.673   4.532
 4504SOL    HW214412   5.201   2.733   4.652
 4505SOL     OW14413   1.619   5.023   6.187
 4505SOL    HW114414   1.712   4.989   6.204
 4505SOL    HW214415   1.554   4.969   6.239
 4506SOL     OW14416   3.723   0.334   5.434
 4506SOL    HW114417   3.712   0.235   5.437
 4506SOL    HW214418   3.805   0.357   5.381
 4507SOL     OW14419   6.480   4.624   1.035
 4507SOL    HW114420   6.506   4.603   0.941
 4507SOL    HW214421   6.429   4.710   1.037
 4508SOL     OW14422   1.474   4.447   1.103
 4508SOL    HW114423   1.377   4.436   1.122
 4508SOL    HW214424   1.522   4.361   1.117
 4509SOL     OW14425   1.287   2.036   3.990
 4509SOL    HW114426   1.329   2.105   3.931
 4509SOL    HW214427   1.246   1.964   3.934
 4510SOL     OW14428   3.839   6.395   4.992
 4510SOL    HW114429   3.859   6.344   4.908
 4510SOL    HW214430   3.924   6.436   5.027
 4511SOL     OW14431   6.171   2.648   6.830
 4511SOL    HW114432   6.228   2.706   6.771
 4511SOL    HW214433   6.220   2.631   6.916
 4512SOL     OW14434   2.954   4.873   0.237
 4512SOL    HW114435   2.877   4.913   0.189
 4512SOL    HW214436   3.011   4.821   0.173
 4513SOL     OW14437   5.122   0.920   1.646
 4513SOL    HW114438   5.211   0.945   1.607
 4513SOL    HW214439   5.128   0.829   1.687
 4514SOL     OW14440   3.421   1.575   5.114
 4514SOL    HW114441   3.450   1.592   5.020
 4514SOL    HW214442   3.350   1.504   5.115
 4515SOL     OW14443   0.392   4.906   1.200
 4515SOL    HW114444   0.402   4.859   1.112
 4515SOL    HW214445   0.449   4.861   1.269
 4516SOL     OW14446   0.901   7.017   4.638
 4516SOL    HW114447   0.950   0.004   4.552
 4516SOL    HW214448   0.853   0.077   4.660
 4517SOL     OW14449   3.660   0.010   5.063
 4517SOL    HW114450   3.570   0.004   5.021
 4517SOL    HW214451   3.664   6.974   5.142
 4518SOL     OW14452   1.214   1.363   4.329
 4518SOL    HW114453   1.169   1.395   4.246
 4518SOL    HW214454   1.313   1.361   4.315
 4519SOL     OW14455   6.081   2.342   4.442
 4519SOL    HW114456   6.163   2.388   4.475
 4519SOL    HW214457   6.107   2.256   4.398
 4520SOL     OW14458   0.385   4.480   2.878
 4520SOL    HW114459   0.378   4.546   2.803
 4520SOL    HW214460   0.427   4.396   2.845
 4521SOL     OW14461   5.756   2.042   6.216
 4521SOL    HW114462   5.784   2.138   6.220
 4521SOL    HW214463   5.709   2.018   6.301
 4522SOL     OW14464   6.156   0.681   3.785
 4522SOL    HW114465   6.249   0.717   3.796
 4522SOL    HW214466   6.103   0.698   3.868
 4523SOL     OW14467   3.557   3.583   6.998
 4523SOL    HW114468   3.464   3.594   6.961
 4523SOL    HW214469   3.582   3.486   6.997
 4524SOL     OW14470   6.052   0.058   5.015
 4524SOL    HW114471   6.006   7.002   5.054
 4524SOL    HW214472   6.000   0.140   5.039
 4525SOL     OW14473   6.250   1.519   5.564
 4525SOL    HW114474   6.272   1.424   5.543
 4525SOL    HW214475   6.269   1.577   5.484
 4526SOL     OW14476   3.703   0.611   0.596
 4526SOL    HW114477   3.718   0.700   0.552
 4526SOL    HW214478   3.711   0.621   0.695
 4527SOL     OW14479   3.895   1.430   3.274
 4527SOL    HW114480   3.882   1.334   3.298
 4527SOL    HW214481   3.964   1.470   3.334
 4528SOL     OW14482   6.074   0.799   6.449
 4528SOL    HW114483   6.069   0.705   6.415
 4528SOL    HW214484   6.072   0.798   6.549
 4529SOL     OW14485   3.716   6.436   3.508
 4529SOL    HW114486   3.660   6.353   3.506
 4529SOL    HW214487   3.682   6.501   3.441
 4530SOL     OW14488   0.737   3.029   5.118
 4530SOL    HW114489   0.807   2.959   5.133
 4530SOL    HW214490   0.648   2.993   5.145
 4531SOL     OW14491   0.119   3.452   3.491
 4531SOL    HW114492   0.050   3.429   3.423
 4531SOL    HW214493   0.078   3.444   3.583
 4532SOL     OW14494   6.251   2.229   0.549
 4532SOL    HW114495   6.199   2.244   0.633
 4532SOL    HW214496   6.212   2.285   0.476
 4533SOL     OW14497   2.825   5.875   2.871
 4533SOL    HW114498   2.745   5.819   2.892
 4533SOL    HW214499   2.802   5.971   2.882
 4534SOL     OW14500   6.004   4.189   6.024
 4534SOL    HW114501   6.040   4.126   5.955
 4534SOL    HW214502   6.064   4.189   6.104
 4535SOL     OW14503   4.771   2.864   2.597
 4535SOL    HW114504   4.732   2.932   2.659
 4535SOL    HW214505   4.865   2.891   2.573
 4536SOL     OW14506   6.768   1.268   4.575
 4536SOL    HW114507   6.668   1.263   4.569
 4536SOL    HW214508   6.796   1.360   4.604
 4537SOL     OW14509   4.070   3.069   5.903
 4537SOL    HW114510   4.096   3.063   5.806
 4537SOL    HW214511   3.973   3.043   5.912
 4538SOL     OW14512   2.981   1.166   2.389
 4538SOL    HW114513   2.977   1.095   2.319
 4538SOL    HW214514   3.039   1.241   2.356
 4539SOL     OW14515   1.154   1.658   2.485
 4539SOL    HW114516   1.063   1.683   2.451
 4539SOL    HW214517   1.224   1.695   2.424
 4540SOL     OW14518   2.978   3.295   4.640
 4540SOL    HW114519   2.957   3.261   4.548
 4540SOL    HW214520   3.044   3.370   4.633
 4541SOL     OW14521   5.532   1.615   0.953
 4541SOL    HW114522   5.440   1.652   0.962
 4541SOL    HW214523   5.575   1.651   0.870
 4542SOL     OW14524   4.422   0.554   3.784
 4542SOL    HW114525   4.376   0.580   3.699
 4542SOL    HW214526   4.469   0.634   3.822
 4543SOL     OW14527   5.458   1.817   1.778
 4543SOL    HW114528   5.534   1.834   1.841
 4543SOL    HW214529   5.401   1.898   1.771
 4544SOL     OW14530   3.797   4.812   6.599
 4544SOL    HW114531   3.727   4.771   6.658
 4544SOL    HW214532   3.827   4.899   6.639
 4545SOL     OW14533   4.134   2.392   5.775
 4545SOL    HW114534   4.166   2.401   5.681
 4545SOL    HW214535   4.142   2.480   5.823
 4546SOL     OW14536   1.013   6.304   6.212
 4546SOL    HW114537   0.925   6.334   6.249
 4546SOL    HW214538   1.087   6.335   6.273
 4547SOL     OW14539   4.784   2.446   1.509
 4547SOL    HW114540   4.706   2.470   1.451
 4547SOL    HW214541   4.770   2.355   1.547
 4548SOL     OW14542   1.281   3.067   3.721
 4548SOL    HW114543   1.347   3.141   3.708
 4548SOL    HW214544   1.305   3.015   3.803
 4549SOL     OW14545   5.417   2.491   2.601
 4549SOL    HW114546   5.334   2.547   2.600
 4549SOL    HW214547   5.404   2.414   2.664
 4550SOL     OW14548   1.169   6.128   4.740
 4550SOL    HW114549   1.154   6.137   4.839
 4550SOL    HW214550   1.174   6.031   4.716
 4551SOL     OW14551   0.745   2.808   5.897
 4551SOL    HW114552   0.669   2.868   5.874
 4551SOL    HW214553   0.827   2.838   5.849
 4552SOL     OW14554   6.880   3.176   4.345
 4552SOL    HW114555   6.884   3.272   4.374
 4552SOL    HW214556   6.806   3.164   4.279
 4553SOL     OW14557   4.761   4.818   0.471
 4553SOL    HW114558   4.778   4.762   0.552
 4553SOL    HW214559   4.711   4.901   0.498
 4554SOL     OW14560   5.422   6.931   2.771
 4554SOL    HW114561   5.443   6.876   2.690
 4554SOL    HW214562   5.361   7.006   2.746
 4555SOL     OW14563   5.226   1.483   6.911
 4555SOL    HW114564   5.190   1.515   6.998
 4555SOL    HW214565   5.300   1.418   6.927
 4556SOL     OW14566   4.564   1.103   4.187
 4556SOL    HW114567   4.591   1.194   4.158
 4556SOL    HW214568   4.643   1.041   4.184
 4557SOL     OW14569   5.235   0.357   5.784
 4557SOL    HW114570   5.184   0.359   5.698
 4557SOL    HW214571   5.204   0.432   5.842
 4558SOL     OW14572   6.434   2.898   5.984
 4558SOL    HW114573   6.417   2.921   6.080
 4558SOL    HW214574   6.360   2.934   5.927
 4559SOL     OW14575   1.020   6.702   1.089
 4559SOL    HW114576   1.041   6.785   1.141
 4559SOL    HW214577   0.980   6.727   1.001
 4560SOL     OW14578   4.850   2.909   2.974
 4560SOL    HW114579   4.950   2.903   2.970
 4560SOL    HW214580   4.823   2.951   3.060
 4561SOL     OW14581   2.870   0.293   6.475
 4561SOL    HW114582   2.957   0.321   6.436
 4561SOL    HW214583   2.838   0.210   6.429
 4562SOL     OW14584   3.382   5.216   6.095
 4562SOL    HW114585   3.398   5.118   6.103
 4562SOL    HW214586   3.448   5.256   6.031
 4563SOL     OW14587   5.506   2.336   6.433
 4563SOL    HW114588   5.493   2.432   6.411
 4563SOL    HW214589   5.589   2.325   6.488
 4564SOL     OW14590   1.845   5.902   6.963
 4564SOL    HW114591   1.767   5.867   7.015
 4564SOL    HW214592   1.843   6.002   6.964
 4565SOL     OW14593   2.096   0.743   4.526
 4565SOL    HW114594   2.017   0.793   4.491
 4565SOL    HW214595   2.073   0.645   4.533
 4566SOL     OW14596   0.747   1.963   0.335
 4566SOL    HW114597   0.713   1.872   0.360
 4566SOL    HW214598   0.727   1.980   0.238
 4567SOL     OW14599   6.749   1.219   0.911
 4567SOL    HW114600   6.683   1.161   0.959
 4567SOL    HW214601   6.823   1.244   0.974
 4568SOL     OW14602   3.284   4.879   5.013
 4568SOL    HW114603   3.184   4.873   5.004
 4568SOL    HW214604   3.325   4.880   4.922
 4569SOL     OW14605   0.415   2.094   4.598
 4569SOL    HW114606   0.499   2.065   4.644
 4569SOL    HW214607   0.427   2.084   4.499
 4570SOL     OW14608   0.122   4.831   4.162
 4570SOL    HW114609   0.102   4.821   4.065
 4570SOL    HW214610   0.062   4.902   4.201
 4571SOL     OW14611   3.479   3.158   4.479
 4571SOL    HW114612   3.451   3.072   4.438
 4571SOL    HW214613   3.557   3.195   4.427
 4572SOL     OW14614   2.131   6.020   1.519
 4572SOL    HW114615   2.113   6.041   1.615
 4572SOL    HW214616   2.066   6.070   1.461
 4573SOL     OW14617   5.723   0.015   0.705
 4573SOL    HW114618   5.642   0.016   0.646
 4573SOL    HW214619   5.797   6.991   0.659
 4574SOL     OW14620   1.047   4.503   2.448
 4574SOL    HW114621   1.128   4.537   2.497
 4574SOL    HW214622   1.068   4.415   2.406
 4575SOL     OW14623   6.513   0.142   2.420
 4575SOL    HW114624   6.448   0.152   2.495
 4575SOL    HW214625   6.604   0.119   2.457
 4576SOL     OW14626   3.328   5.712   5.083
 4576SOL    HW114627   3.265   5.676   5.013
 4576SOL    HW214628   3.327   5.651   5.162
 4577SOL     OW14629   0.723   2.710   3.666
 4577SOL    HW114630   0.766   2.664   3.743
 4577SOL    HW214631   0.771   2.684   3.581
 4578SOL     OW14632   0.151   4.192   3.809
 4578SOL    HW114633   0.246   4.219   3.823
 4578SOL    HW214634   0.145   4.092   3.802
 4579SOL     OW14635   5.626   2.034   4.036
 4579SOL    HW114636   5.550   2.051   3.973
 4579SOL    HW214637   5.597   1.970   4.107
 4580SOL     OW14638   6.909   5.378   0.733
 4580SOL    HW114639   6.828   5.322   0.714
 4580SOL    HW214640   6.958   5.340   0.812
 4581SOL     OW14641   3.721   5.919   3.097
 4581SOL    HW114642   3.720   6.014   3.065
 4581SOL    HW214643   3.643   5.870   3.058
 4582SOL     OW14644   4.628   6.685   2.569
 4582SOL    HW114645   4.625   6.620   2.493
 4582SOL    HW214646   4.568   6.763   2.549
 4583SOL     OW14647   4.948   2.171   5.162
 4583SOL    HW114648   4.901   2.252   5.196
 4583SOL    HW214649   4.907   2.143   5.075
 4584SOL     OW14650   0.652   4.767   5.261
 4584SOL    HW114651   0.556   4.794   5.273
 4584SOL    HW214652   0.686   4.728   5.347
 4585SOL     OW14653   3.955   6.371   2.822
 4585SOL    HW114654   3.899   6.288   2.830
 4585SOL    HW214655   3.895   6.449   2.807
 4586SOL     OW14656   3.316   5.822   2.216
 4586SOL    HW114657   3.273   5.912   2.222
 4586SOL    HW214658   3.369   5.805   2.298
 4587SOL     OW14659   2.023   4.471   0.886
 4587SOL    HW114660   1.992   4.383   0.849
 4587SOL    HW214661   2.036   4.462   0.985
 4588SOL     OW14662   4.674   4.033   5.284
 4588SOL    HW114663   4.749   3.988   5.332
 4588SOL    HW214664   4.590   3.980   5.295
 4589SOL     OW14665   0.112   1.921   3.946
 4589SOL    HW114666   0.151   1.969   4.025
 4589SOL    HW214667   0.185   1.870   3.899
 4590SOL     OW14668   5.066   5.735   2.616
 4590SOL    HW114669   5.108   5.707   2.702
 4590SOL    HW214670   4.989   5.674   2.596
 4591SOL     OW14671   5.954   5.805   5.081
 4591SOL    HW114672   5.897   5.771   5.005
 4591SOL    HW214673   6.007   5.730   5.119
 4592SOL     OW14674   3.458   2.190   5.897
 4592SOL    HW114675   3.488   2.278   5.933
 4592SOL    HW214676   3.394   2.204   5.821
 4593SOL     OW14677   3.353   6.326   2.312
 4593SOL    HW114678   3.341   6.423   2.292
 4593SOL    HW214679   3.428   6.289   2.257
 4594SOL     OW14680   2.766   1.362   2.592
 4594SOL    HW114681   2.753   1.336   2.688
 4594SOL    HW214682   2.676   1.374   2.549
 4595SOL     OW14683   4.374   2.325   5.916
 4595SOL    HW114684   4.286   2.298   5.878
 4595SOL    HW214685   4.405   2.410   5.872
 4596SOL     OW14686   6.069   6.900   1.866
 4596SOL    HW114687   6.074   6.975   1.800
 4596SOL    HW214688   6.118   6.926   1.949
 4597SOL     OW14689   6.497   4.541   6.776
 4597SOL    HW114690   6.501   4.556   6.875
 4597SOL    HW214691   6.588   4.514   6.744
 4598SOL     OW14692   3.118   4.795   0.030
 4598SOL    HW114693   3.144   4.703   7.024
 4598SOL    HW214694   3.200   4.845   0.059
 4599SOL     OW14695   1.555   4.842   0.563
 4599SOL    HW114696   1.595   4.932   0.544
 4599SOL    HW214697   1.458   4.844   0.540
 4600SOL     OW14698   3.245   5.319   1.391
 4600SOL    HW114699   3.228   5.338   1.294
 4600SOL    HW214700   3.217   5.225   1.412
 4601SOL     OW14701   1.978   6.086   4.911
 4601SOL    HW114702   1.936   6.170   4.876
 4601SOL    HW214703   1.906   6.023   4.942
 4602SOL     OW14704   2.131   0.562   1.092
 4602SOL    HW114705   2.190   0.584   1.169
 4602SOL    HW214706   2.038   0.594   1.110
 4603SOL     OW14707   3.354   0.030   2.140
 4603SOL    HW114708   3.432   0.018   2.079
 4603SOL    HW214709   3.269   0.014   2.089
 4604SOL     OW14710   2.942   6.946   2.339
 4604SOL    HW114711   2.904   6.854   2.339
 4604SOL    HW214712   2.886   7.005   2.280
 4605SOL     OW14713   5.151   0.371   5.505
 4605SOL    HW114714   5.144   0.272   5.489
 4605SOL    HW214715   5.178   0.416   5.421
 4606SOL     OW14716   6.951   6.434   5.356
 4606SOL    HW114717   6.936   6.396   5.447
 4606SOL    HW214718   6.873   6.492   5.330
 4607SOL     OW14719   2.733   1.906   1.203
 4607SOL    HW114720   2.636   1.910   1.228
 4607SOL    HW214721   2.776   1.829   1.251
 4608SOL     OW14722   1.591   3.557   5.788
 4608SOL    HW114723   1.638   3.600   5.865
 4608SOL    HW214724   1.545   3.474   5.819
 4609SOL     OW14725   4.324   6.861   6.105
 4609SOL    HW114726   4.277   6.945   6.133
 4609SOL    HW214727   4.420   6.865   6.133
 4610SOL     OW14728   0.573   3.325   6.645
 4610SOL    HW114729   0.582   3.269   6.728
 4610SOL    HW214730   0.535   3.414   6.669
 4611SOL     OW14731   1.014   4.075   0.277
 4611SOL    HW114732   1.054   3.996   0.322
 4611SOL    HW214733   1.054   4.159   0.314
 4612SOL     OW14734   2.042   0.231   6.161
 4612SOL    HW114735   1.995   0.223   6.248
 4612SOL    HW214736   2.126   0.284   6.173
 4613SOL     OW14737   2.938   5.560   1.947
 4613SOL    HW114738   2.970   5.625   2.015
 4613SOL    HW214739   2.889   5.609   1.875
 4614SOL     OW14740   2.044   5.507   0.152
 4614SOL    HW114741   2.076   5.429   0.206
 4614SOL    HW214742   2.119   5.572   0.140
 4615SOL     OW14743   0.047   2.401   0.257
 4615SOL    HW114744   7.022   2.363   0.179
 4615SOL    HW214745   0.121   2.340   0.284
 4616SOL     OW14746   5.613   1.115   6.853
 4616SOL    HW114747   5.664   1.047   6.905
 4616SOL    HW214748   5.532   1.073   6.813
 4617SOL     OW14749   0.028   2.899   2.028
 4617SOL    HW114750   0.061   2.847   2.107
 4617SOL    HW214751   7.012   2.985   2.060
 4618SOL     OW14752   0.782   1.734   6.039
 4618SOL    HW114753   0.706   1.797   6.022
 4618SOL    HW214754   0.823   1.707   5.952
 4619SOL     OW14755   3.343   0.902   3.777
 4619SOL    HW114756   3.424   0.844   3.787
 4619SOL    HW214757   3.263   0.853   3.811
 4620SOL     OW14758   2.165   4.216   6.310
 4620SOL    HW114759   2.114   4.157   6.249
 4620SOL    HW214760   2.146   4.190   6.405
 4621SOL     OW14761   0.265   6.040   5.896
 4621SOL    HW114762   0.361   6.062   5.879
 4621SOL    HW214763   0.208   6.118   5.874
 4622SOL     OW14764   2.447   3.349   1.023
 4622SOL    HW114765   2.473   3.289   0.948
 4622SOL    HW214766   2.406   3.433   0.986
 4623SOL     OW14767   5.767   4.675   1.777
 4623SOL    HW114768   5.812   4.699   1.863
 4623SOL    HW214769   5.668   4.681   1.788
 4624SOL     OW14770   4.866   6.963   5.422
 4624SOL    HW114771   4.774   6.984   5.455
 4624SOL    HW214772   4.861   6.895   5.349
 4625SOL     OW14773   0.625   2.862   6.700
 4625SOL    HW114774   0.698   2.824   6.642
 4625SOL    HW214775   0.655   2.863   6.795
 4626SOL     OW14776   5.945   4.973   1.870
 4626SOL    HW114777   5.979   4.880   1.862
 4626SOL    HW214778   5.862   4.983   1.815
 4627SOL     OW14779   2.149   0.781   6.139
 4627SOL    HW114780   2.164   0.703   6.078
 4627SOL    HW214781   2.180   0.758   6.231
 4628SOL     OW14782   6.964   4.367   2.014
 4628SOL    HW114783   7.000   4.277   1.988
 4628SOL    HW214784   6.866   4.371   1.993
 4629SOL     OW14785   3.371   4.942   5.406
 4629SOL    HW114786   3.283   4.928   5.361
 4629SOL    HW214787   3.376   4.883   5.487
 4630SOL     OW14788   1.918   0.147   2.932
 4630SOL    HW114789   1.929   0.205   2.851
 4630SOL    HW214790   2.009   0.121   2.966
 4631SOL     OW14791   2.374   0.142   2.572
 4631SOL    HW114792   2.319   0.176   2.497
 4631SOL    HW214793   2.368   0.205   2.650
 4632SOL     OW14794   4.914   5.017   3.927
 4632SOL    HW114795   4.957   5.056   3.845
 4632SOL    HW214796   4.854   5.085   3.968
 4633SOL     OW14797   6.159   2.299   5.531
 4633SOL    HW114798   6.167   2.200   5.539
 4633SOL    HW214799   6.250   2.340   5.527
 4634SOL     OW14800   3.084   4.577   0.845
 4634SOL    HW114801   3.055   4.504   0.783
 4634SOL    HW214802   3.124   4.537   0.927
 4635SOL     OW14803   5.319   4.070   1.528
 4635SOL    HW114804   5.355   3.995   1.583
 4635SOL    HW214805   5.339   4.052   1.431
 4636SOL     OW14806   2.115   5.295   0.828
 4636SOL    HW114807   2.173   5.226   0.872
 4636SOL    HW214808   2.127   5.383   0.875
 4637SOL     OW14809   1.311   0.724   5.329
 4637SOL    HW114810   1.375   0.740   5.405
 4637SOL    HW214811   1.230   0.676   5.364
 4638SOL     OW14812   5.401   3.369   6.090
 4638SOL    HW114813   5.409   3.420   6.176
 4638SOL    HW214814   5.318   3.313   6.092
 4639SOL     OW14815   6.898   3.535   5.219
 4639SOL    HW114816   6.806   3.566   5.242
 4639SOL    HW214817   6.936   3.594   5.148
 4640SOL     OW14818   5.758   4.160   2.694
 4640SOL    HW114819   5.680   4.144   2.755
 4640SOL    HW214820   5.725   4.168   2.600
 4641SOL     OW14821   2.268   4.827   5.308
 4641SOL    HW114822   2.254   4.730   5.291
 4641SOL    HW214823   2.362   4.842   5.341
 4642SOL     OW14824   5.791   5.819   4.450
 4642SOL    HW114825   5.696   5.790   4.435
 4642SOL    HW214826   5.826   5.777   4.533
 4643SOL     OW14827   3.656   2.879   1.463
 4643SOL    HW114828   3.614   2.821   1.393
 4643SOL    HW214829   3.586   2.937   1.504
 4644SOL     OW14830   2.352   5.256   5.074
 4644SOL    HW114831   2.427   5.213   5.024
 4644SOL    HW214832   2.371   5.255   5.172
 4645SOL     OW14833   1.789   5.909   4.992
 4645SOL    HW114834   1.809   5.812   5.009
 4645SOL    HW214835   1.697   5.930   5.025
 4646SOL     OW14836   3.722   0.267   1.928
 4646SOL    HW114837   3.643   0.325   1.948
 4646SOL    HW214838   3.742   0.272   1.830
 4647SOL     OW14839   6.718   0.386   4.931
 4647SOL    HW114840   6.696   0.315   4.864
 4647SOL    HW214841   6.636   0.406   4.985
 4648SOL     OW14842   2.288   4.986   2.711
 4648SOL    HW114843   2.214   5.028   2.765
 4648SOL    HW214844   2.319   4.903   2.757
 4649SOL     OW14845   5.576   0.206   6.016
 4649SOL    HW114846   5.598   0.300   6.041
 4649SOL    HW214847   5.659   0.151   6.012
 4650SOL     OW14848   6.766   4.709   2.051
 4650SOL    HW114849   6.693   4.775   2.031
 4650SOL    HW214850   6.855   4.749   2.028
 4651SOL     OW14851   0.183   2.116   1.243
 4651SOL    HW114852   0.085   2.105   1.261
 4651SOL    HW214853   0.208   2.064   1.161
 4652SOL     OW14854   0.120   6.279   5.762
 4652SOL    HW114855   0.194   6.278   5.695
 4652SOL    HW214856   0.119   6.367   5.809
 4653SOL     OW14857   0.569   5.807   6.683
 4653SOL    HW114858   0.479   5.765   6.699
 4653SOL    HW214859   0.591   5.802   6.585
 4654SOL     OW14860   1.139   1.250   6.519
 4654SOL    HW114861   1.144   1.165   6.467
 4654SOL    HW214862   1.091   1.234   6.606
 4655SOL     OW14863   0.570   5.227   3.470
 4655SOL    HW114864   0.545   5.285   3.548
 4655SOL    HW214865   0.516   5.143   3.474
 4656SOL     OW14866   1.859   6.742   3.118
 4656SOL    HW114867   1.841   6.815   3.053
 4656SOL    HW214868   1.774   6.696   3.143
 4657SOL     OW14869   6.017   0.166   6.875
 4657SOL    HW114870   6.020   0.236   6.946
 4657SOL    HW214871   6.091   0.181   6.810
 4658SOL     OW14872   5.578   0.999   3.382
 4658SOL    HW114873   5.593   0.943   3.301
 4658SOL    HW214874   5.632   0.962   3.458
 4659SOL     OW14875   2.204   2.451   4.391
 4659SOL    HW114876   2.269   2.385   4.431
 4659SOL    HW214877   2.232   2.473   4.298
 4660SOL     OW14878   6.680   0.697   5.803
 4660SOL    HW114879   6.764   0.736   5.840
 4660SOL    HW214880   6.683   0.597   5.812
 4661SOL     OW14881   4.120   3.456   3.566
 4661SOL    HW114882   4.026   3.490   3.562
 4661SOL    HW214883   4.163   3.467   3.477
 4662SOL     OW14884   5.164   0.594   4.831
 4662SOL    HW114885   5.114   0.675   4.863
 4662SOL    HW214886   5.185   0.535   4.908
 4663SOL     OW14887   0.215   1.878   2.486
 4663SOL    HW114888   0.258   1.968   2.481
 4663SOL    HW214889   0.209   1.849   2.581
 4664SOL     OW14890   3.278   2.435   0.048
 4664SOL    HW114891   3.185   2.416   0.079
 4664SOL    HW214892   3.289   2.404   6.978
 4665SOL     OW14893   5.360   0.730   0.132
 4665SOL    HW114894   5.265   0.734   0.101
 4665SOL    HW214895   5.382   0.812   0.183
 4666SOL     OW14896   2.073   1.238   0.508
 4666SOL    HW114897   2.094   1.166   0.442
 4666SOL    HW214898   2.005   1.300   0.468
 4667SOL     OW14899   0.567   5.189   5.657
 4667SOL    HW114900   0.578   5.190   5.558
 4667SOL    HW214901   0.480   5.232   5.681
 4668SOL     OW14902   5.804   1.842   4.461
 4668SOL    HW114903   5.755   1.811   4.543
 4668SOL    HW214904   5.852   1.928   4.482
 4669SOL     OW14905   2.889   0.335   0.718
 4669SOL    HW114906   2.926   0.339   0.626
 4669SOL    HW214907   2.938   0.266   0.771
 4670SOL     OW14908   2.071   1.168   4.417
 4670SOL    HW114909   2.157   1.217   4.433
 4670SOL    HW214910   2.091   1.075   4.386
 4671SOL     OW14911   5.674   3.434   1.092
 4671SOL    HW114912   5.711   3.418   1.184
 4671SOL    HW214913   5.597   3.372   1.076
 4672SOL     OW14914   2.317   3.624   5.784
 4672SOL    HW114915   2.245   3.678   5.741
 4672SOL    HW214916   2.340   3.546   5.726
 4673SOL     OW14917   3.497   0.366   2.576
 4673SOL    HW114918   3.547   0.423   2.642
 4673SOL    HW214919   3.536   0.379   2.485
 4674SOL     OW14920   4.307   6.480   6.155
 4674SOL    HW114921   4.253   6.555   6.191
 4674SOL    HW214922   4.403   6.494   6.175
 4675SOL     OW14923   1.216   4.093   6.333
 4675SOL    HW114924   1.307   4.096   6.292
 4675SOL    HW214925   1.156   4.036   6.276
 4676SOL     OW14926   1.149   5.645   4.015
 4676SOL    HW114927   1.123   5.717   4.079
 4676SOL    HW214928   1.105   5.559   4.042
 4677SOL     OW14929   0.962   3.730   0.556
 4677SOL    HW114930   0.902   3.806   0.584
 4677SOL    HW214931   0.951   3.654   0.619
 4678SOL     OW14932   2.440   4.506   2.430
 4678SOL    HW114933   2.463   4.590   2.381
 4678SOL    HW214934   2.396   4.529   2.518
 4679SOL     OW14935   4.297   0.223   1.444
 4679SOL    HW114936   4.302   0.202   1.541
 4679SOL    HW214937   4.384   0.201   1.399
 4680SOL     OW14938   2.153   0.874   0.957
 4680SOL    HW114939   2.152   0.875   1.057
 4680SOL    HW214940   2.173   0.782   0.924
 4681SOL     OW14941   4.837   5.318   1.576
 4681SOL    HW114942   4.881   5.344   1.661
 4681SOL    HW214943   4.858   5.386   1.505
 4682SOL     OW14944   3.663   4.043   6.918
 4682SOL    HW114945   3.606   4.028   6.999
 4682SOL    HW214946   3.736   4.108   6.941
 4683SOL     OW14947   6.204   4.584   4.082
 4683SOL    HW114948   6.157   4.592   3.994
 4683SOL    HW214949   6.267   4.507   4.080
 4684SOL     OW14950   5.343   0.074   0.117
 4684SOL    HW114951   5.365   0.171   0.114
 4684SOL    HW214952   5.294   0.053   0.202
 4685SOL     OW14953   3.078   3.938   5.291
 4685SOL    HW114954   3.047   4.029   5.264
 4685SOL    HW214955   3.004   3.872   5.278
 4686SOL     OW14956   3.353   5.714   0.456
 4686SOL    HW114957   3.393   5.798   0.419
 4686SOL    HW214958   3.384   5.700   0.550
 4687SOL     OW14959   3.139   0.714   2.921
 4687SOL    HW114960   3.090   0.645   2.867
 4687SOL    HW214961   3.075   0.785   2.950
 4688SOL     OW14962   5.884   3.338   5.383
 4688SOL    HW114963   5.884   3.421   5.327
 4688SOL    HW214964   5.833   3.355   5.468
 4689SOL     OW14965   5.723   0.874   2.279
 4689SOL    HW114966   5.763   0.897   2.368
 4689SOL    HW214967   5.669   0.791   2.287
 4690SOL     OW14968   2.382   2.212   0.601
 4690SOL    HW114969   2.378   2.306   0.635
 4690SOL    HW214970   2.334   2.152   0.666
 4691SOL     OW14971   6.841   4.086   1.624
 4691SOL    HW114972   6.763   4.024   1.630
 4691SOL    HW214973   6.814   4.177   1.655
 4692SOL     OW14974   5.582   3.431   2.045
 4692SOL    HW114975   5.670   3.391   2.018
 4692SOL    HW214976   5.542   3.480   1.967
 4693SOL     OW14977   1.624   1.106   3.674
 4693SOL    HW114978   1.591   1.016   3.702
 4693SOL    HW214979   1.580   1.177   3.728
 4694SOL     OW14980   2.115   0.913   0.550
 4694SOL    HW114981   2.214   0.897   0.556
 4694SOL    HW214982   2.096   0.972   0.472
 4695SOL     OW14983   1.287   6.140   1.526
 4695SOL    HW114984   1.203   6.194   1.520
 4695SOL    HW214985   1.366   6.200   1.519
 4696SOL     OW14986   2.066   5.528   5.799
 4696SOL    HW114987   2.064   5.542   5.700
 4696SOL    HW214988   1.979   5.559   5.838
 4697SOL     OW14989   4.113   5.009   1.306
 4697SOL    HW114990   4.051   4.951   1.359
 4697SOL    HW214991   4.208   4.988   1.331
 4698SOL     OW14992   5.352   1.190   3.820
 4698SOL    HW114993   5.287   1.128   3.863
 4698SOL    HW214994   5.377   1.262   3.884
 4699SOL     OW14995   1.585   6.948   2.528
 4699SOL    HW114996   1.590   6.996   2.615
 4699SOL    HW214997   1.664   6.972   2.472
 4700SOL     OW14998   5.913   2.127   2.462
 4700SOL    HW114999   5.922   2.203   2.526
 4700SOL    HW215000   5.816   2.116   2.437
 4701SOL     OW15001   3.096   2.276   1.736
 4701SOL    HW115002   3.070   2.370   1.754
 4701SOL    HW215003   3.058   2.216   1.806
 4702SOL     OW15004   5.522   4.976   6.759
 4702SOL    HW115005   5.513   4.879   6.783
 4702SOL    HW215006   5.618   5.002   6.757
 4703SOL     OW15007   0.874   5.149   3.480
 4703SOL    HW115008   0.810   5.209   3.432
 4703SOL    HW215009   0.824   5.093   3.546
 4704SOL     OW15010   1.206   5.220   5.149
 4704SOL    HW115011   1.270   5.197   5.223
 4704SOL    HW215012   1.144   5.292   5.180
 4705SOL     OW15013   3.457   1.926   1.695
 4705SOL    HW115014   3.423   1.966   1.780
 4705SOL    HW215015   3.547   1.964   1.674
 4706SOL     OW15016   2.582   1.105   0.519
 4706SOL    HW115017   2.627   1.125   0.606
 4706SOL    HW215018   2.516   1.177   0.498
 4707SOL     OW15019   1.476   6.377   1.774
 4707SOL    HW115020   1.449   6.471   1.795
 4707SOL    HW215021   1.574   6.373   1.758
 4708SOL     OW15022   0.928   2.561   4.722
 4708SOL    HW115023   0.944   2.472   4.765
 4708SOL    HW215024   0.958   2.558   4.627
 4709SOL     OW15025   4.977   3.763   5.181
 4709SOL    HW115026   4.924   3.696   5.129
 4709SOL    HW215027   5.017   3.830   5.119
 4710SOL     OW15028   6.527   6.092   4.798
 4710SOL    HW115029   6.493   6.167   4.742
 4710SOL    HW215030   6.537   6.010   4.742
 4711SOL     OW15031   5.172   3.613   2.781
 4711SOL    HW115032   5.216   3.640   2.867
 4711SOL    HW215033   5.073   3.610   2.793
 4712SOL     OW15034   4.767   4.275   5.611
 4712SOL    HW115035   4.807   4.233   5.692
 4712SOL    HW215036   4.798   4.227   5.529
 4713SOL     OW15037   6.303   4.157   1.141
 4713SOL    HW115038   6.304   4.062   1.111
 4713SOL    HW215039   6.379   4.173   1.203
 4714SOL     OW15040   4.804   1.293   6.542
 4714SOL    HW115041   4.778   1.389   6.540
 4714SOL    HW215042   4.788   1.255   6.633
 4715SOL     OW15043   6.106   1.306   2.097
 4715SOL    HW115044   6.108   1.233   2.166
 4715SOL    HW215045   6.159   1.277   2.017
 4716SOL     OW15046   4.063   4.604   6.119
 4716SOL    HW115047   4.075   4.617   6.021
 4716SOL    HW215048   3.967   4.584   6.138
 4717SOL     OW15049   2.613   4.900   5.671
 4717SOL    HW115050   2.618   4.999   5.663
 4717SOL    HW215051   2.639   4.872   5.764
 4718SOL     OW15052   5.036   4.324   0.816
 4718SOL    HW115053   5.039   4.411   0.768
 4718SOL    HW215054   5.059   4.338   0.913
 4719SOL     OW15055   0.108   3.925   3.716
 4719SOL    HW115056   0.051   3.912   3.635
 4719SOL    HW215057   0.198   3.883   3.701
 4720SOL     OW15058   2.233   3.526   6.815
 4720SOL    HW115059   2.188   3.609   6.782
 4720SOL    HW215060   2.296   3.492   6.744
 4721SOL     OW15061   6.292   2.895   2.818
 4721SOL    HW115062   6.300   2.919   2.722
 4721SOL    HW215063   6.317   2.799   2.832
 4722SOL     OW15064   1.418   5.315   0.268
 4722SOL    HW115065   1.413   5.314   0.169
 4722SOL    HW215066   1.325   5.317   0.306
 4723SOL     OW15067   3.928   3.939   0.242
 4723SOL    HW115068   3.887   3.852   0.218
 4723SOL    HW215069   3.876   3.983   0.314
 4724SOL     OW15070   0.837   6.291   4.657
 4724SOL    HW115071   0.749   6.262   4.618
 4724SOL    HW215072   0.851   6.246   4.744
 4725SOL     OW15073   4.964   5.724   0.734
 4725SOL    HW115074   4.984   5.631   0.704
 4725SOL    HW215075   4.931   5.778   0.656
 4726SOL     OW15076   1.151   3.330   5.514
 4726SOL    HW115077   1.081   3.392   5.549
 4726SOL    HW215078   1.226   3.384   5.473
 4727SOL     OW15079   0.236   5.261   1.253
 4727SOL    HW115080   0.206   5.176   1.208
 4727SOL    HW215081   0.322   5.244   1.302
 4728SOL     OW15082   6.877   1.800   4.842
 4728SOL    HW115083   6.956   1.829   4.788
 4728SOL    HW215084   6.793   1.825   4.795
 4729SOL     OW15085   5.877   1.538   1.753
 4729SOL    HW115086   5.946   1.466   1.750
 4729SOL    HW215087   5.808   1.515   1.822
 4730SOL     OW15088   2.893   6.901   4.543
 4730SOL    HW115089   2.977   6.954   4.537
 4730SOL    HW215090   2.848   6.919   4.630
 4731SOL     OW15091   3.305   6.433   0.407
 4731SOL    HW115092   3.322   6.522   0.364
 4731SOL    HW215093   3.391   6.394   0.438
 4732SOL     OW15094   0.641   5.097   4.569
 4732SOL    HW115095   0.556   5.096   4.622
 4732SOL    HW215096   0.640   5.174   4.506
 4733SOL     OW15097   1.749   3.554   3.338
 4733SOL    HW115098   1.663   3.597   3.364
 4733SOL    HW215099   1.739   3.512   3.248
 4734SOL     OW15100   4.503   3.351   6.864
 4734SOL    HW115101   4.578   3.407   6.830
 4734SOL    HW215102   4.451   3.402   6.932
 4735SOL     OW15103   6.931   0.451   5.103
 4735SOL    HW115104   6.960   0.362   5.138
 4735SOL    HW215105   6.860   0.438   5.034
 4736SOL     OW15106   6.689   1.974   3.738
 4736SOL    HW115107   6.646   2.056   3.777
 4736SOL    HW215108   6.718   1.994   3.644
 4737SOL     OW15109   2.246   4.997   0.347
 4737SOL    HW115110   2.234   4.943   0.430
 4737SOL    HW215111   2.302   5.077   0.367
 4738SOL     OW15112   1.567   6.608   3.712
 4738SOL    HW115113   1.638   6.595   3.781
 4738SOL    HW215114   1.510   6.687   3.737
 4739SOL     OW15115   5.898   3.121   3.280
 4739SOL    HW115116   5.973   3.187   3.283
 4739SOL    HW215117   5.921   3.042   3.336
 4740SOL     OW15118   1.078   0.856   1.995
 4740SOL    HW115119   1.093   0.760   2.018
 4740SOL    HW215120   0.982   0.880   2.011
 4741SOL     OW15121   4.375   4.533   1.913
 4741SOL    HW115122   4.387   4.436   1.894
 4741SOL    HW215123   4.367   4.547   2.012
 4742SOL     OW15124   2.458   6.172   2.282
 4742SOL    HW115125   2.461   6.146   2.185
 4742SOL    HW215126   2.505   6.103   2.337
 4743SOL     OW15127   2.349   2.741   0.269
 4743SOL    HW115128   2.270   2.680   0.282
 4743SOL    HW215129   2.370   2.748   0.171
 4744SOL     OW15130   1.642   3.105   4.962
 4744SOL    HW115131   1.633   3.187   4.905
 4744SOL    HW215132   1.712   3.120   5.031
 4745SOL     OW15133   3.048   5.819   4.764
 4745SOL    HW115134   3.078   5.762   4.840
 4745SOL    HW215135   3.128   5.860   4.720
 4746SOL     OW15136   6.464   0.470   0.412
 4746SOL    HW115137   6.538   0.515   0.363
 4746SOL    HW215138   6.486   0.374   0.426
 4747SOL     OW15139   6.431   2.682   1.567
 4747SOL    HW115140   6.456   2.610   1.502
 4747SOL    HW215141   6.357   2.737   1.530
 4748SOL     OW15142   1.872   0.637   1.153
 4748SOL    HW115143   1.872   0.715   1.215
 4748SOL    HW215144   1.814   0.565   1.189
 4749SOL     OW15145   1.663   0.152   6.406
 4749SOL    HW115146   1.717   0.218   6.458
 4749SOL    HW215147   1.686   0.059   6.436
 4750SOL     OW15148   0.056   1.474   4.786
 4750SOL    HW115149   0.104   1.387   4.797
 4750SOL    HW215150   0.048   1.520   4.874
 4751SOL     OW15151   0.881   3.747   6.478
 4751SOL    HW115152   0.912   3.816   6.543
 4751SOL    HW215153   0.847   3.793   6.395
 4752SOL     OW15154   2.769   6.113   1.791
 4752SOL    HW115155   2.722   6.061   1.862
 4752SOL    HW215156   2.775   6.209   1.820
 4753SOL     OW15157   7.019   6.886   4.594
 4753SOL    HW115158   6.953   6.917   4.525
 4753SOL    HW215159   0.078   6.855   4.549
 4754SOL     OW15160   0.792   0.116   5.408
 4754SOL    HW115161   0.883   0.096   5.370
 4754SOL    HW215162   0.800   0.191   5.474
 4755SOL     OW15163   2.618   1.942   0.496
 4755SOL    HW115164   2.527   1.932   0.455
 4755SOL    HW215165   2.650   2.035   0.483
 4756SOL     OW15166   5.385   2.783   1.132
 4756SOL    HW115167   5.315   2.735   1.185
 4756SOL    HW215168   5.466   2.796   1.188
 4757SOL     OW15169   2.138   2.018   1.258
 4757SOL    HW115170   2.094   2.104   1.283
 4757SOL    HW215171   2.234   2.035   1.237
 4758SOL     OW15172   5.027   4.642   5.260
 4758SOL    HW115173   4.991   4.575   5.195
 4758SOL    HW215174   5.038   4.730   5.214
 4759SOL     OW15175   6.054   4.896   5.532
 4759SOL    HW115176   6.052   4.796   5.534
 4759SOL    HW215177   6.061   4.928   5.437
 4760SOL     OW15178   1.364   2.211   0.917
 4760SOL    HW115179   1.304   2.281   0.880
 4760SOL    HW215180   1.409   2.162   0.843
 4761SOL     OW15181   1.036   6.008   5.918
 4761SOL    HW115182   1.136   6.005   5.916
 4761SOL    HW215183   1.003   6.080   5.856
 4762SOL     OW15184   3.048   6.450   2.420
 4762SOL    HW115185   3.131   6.399   2.442
 4762SOL    HW215186   2.986   6.449   2.498
 4763SOL     OW15187   5.641   5.445   4.631
 4763SOL    HW115188   5.696   5.471   4.552
 4763SOL    HW215189   5.589   5.524   4.664
 4764SOL     OW15190   4.070   3.460   4.733
 4764SOL    HW115191   4.100   3.464   4.637
 4764SOL    HW215192   4.106   3.540   4.782
 4765SOL     OW15193   6.136   5.142   4.936
 4765SOL    HW115194   6.217   5.142   4.995
 4765SOL    HW215195   6.140   5.220   4.874
 4766SOL     OW15196   2.940   0.444   3.305
 4766SOL    HW115197   2.877   0.378   3.264
 4766SOL    HW215198   3.034   0.413   3.292
 4767SOL     OW15199   4.442   5.438   6.331
 4767SOL    HW115200   4.485   5.515   6.283
 4767SOL    HW215201   4.451   5.452   6.430
 4768SOL     OW15202   0.443   0.825   5.120
 4768SOL    HW115203   0.516   0.761   5.142
 4768SOL    HW215204   0.380   0.782   5.055
 4769SOL     OW15205   3.304   6.796   1.471
 4769SOL    HW115206   3.249   6.838   1.542
 4769SOL    HW215207   3.287   6.697   1.470
 4770SOL     OW15208   2.577   0.057   3.747
 4770SOL    HW115209   2.518   0.056   3.827
 4770SOL    HW215210   2.658   0.113   3.765
 4771SOL     OW15211   4.181   4.028   5.645
 4771SOL    HW115212   4.110   4.098   5.652
 4771SOL    HW215213   4.267   4.071   5.615
 4772SOL     OW15214   2.205   2.405   1.479
 4772SOL    HW115215   2.284   2.390   1.419
 4772SOL    HW215216   2.202   2.501   1.506
 4773SOL     OW15217   6.429   6.016   3.847
 4773SOL    HW115218   6.336   6.031   3.880
 4773SOL    HW215219   6.465   6.101   3.810
 4774SOL     OW15220   0.813   4.253   0.840
 4774SOL    HW115221   0.909   4.232   0.860
 4774SOL    HW215222   0.807   4.342   0.796
 4775SOL     OW15223   3.080   0.760   1.900
 4775SOL    HW115224   3.116   0.783   1.990
 4775SOL    HW215225   3.141   0.794   1.829
 4776SOL     OW15226   3.506   5.454   1.712
 4776SOL    HW115227   3.433   5.391   1.739
 4776SOL    HW215228   3.507   5.462   1.612
 4777SOL     OW15229   2.866   4.285   1.378
 4777SOL    HW115230   2.836   4.303   1.284
 4777SOL    HW215231   2.793   4.309   1.442
 4778SOL     OW15232   4.884   3.775   2.112
 4778SOL    HW115233   4.904   3.835   2.190
 4778SOL    HW215234   4.828   3.823   2.046
 4779SOL     OW15235   5.317   0.541   3.178
 4779SOL    HW115236   5.311   0.543   3.079
 4779SOL    HW215237   5.334   0.447   3.208
 4780SOL     OW15238   1.702   6.465   5.974
 4780SOL    HW115239   1.736   6.399   5.908
 4780SOL    HW215240   1.780   6.513   6.016
 4781SOL     OW15241   2.236   5.475   2.457
 4781SOL    HW115242   2.220   5.485   2.359
 4781SOL    HW215243   2.270   5.382   2.475
 4782SOL     OW15244   5.561   6.033   6.563
 4782SOL    HW115245   5.511   6.115   6.536
 4782SOL    HW215246   5.604   6.047   6.652
 4783SOL     OW15247   6.217   4.454   1.438
 4783SOL    HW115248   6.136   4.399   1.416
 4783SOL    HW215249   6.281   4.449   1.362
 4784SOL     OW15250   5.904   4.717   5.024
 4784SOL    HW115251   5.820   4.760   5.055
 4784SOL    HW215252   5.882   4.642   4.961
 4785SOL     OW15253   6.491   0.591   0.790
 4785SOL    HW115254   6.490   0.684   0.752
 4785SOL    HW215255   6.525   0.527   0.721
 4786SOL     OW15256   1.643   2.916   2.320
 4786SOL    HW115257   1.660   2.989   2.387
 4786SOL    HW215258   1.546   2.917   2.295
 4787SOL     OW15259   3.634   2.111   2.355
 4787SOL    HW115260   3.620   2.013   2.344
 4787SOL    HW215261   3.612   2.158   2.270
 4788SOL     OW15262   1.160   5.326   4.162
 4788SOL    HW115263   1.078   5.280   4.128
 4788SOL    HW215264   1.240   5.292   4.112
 4789SOL     OW15265   6.008   0.294   0.805
 4789SOL    HW115266   5.930   0.278   0.745
 4789SOL    HW215267   6.058   0.375   0.773
 4790SOL     OW15268   4.848   1.010   6.991
 4790SOL    HW115269   4.861   1.048   0.058
 4790SOL    HW215270   4.753   0.981   6.979
 4791SOL     OW15271   4.697   6.907   2.820
 4791SOL    HW115272   4.654   6.850   2.751
 4791SOL    HW215273   4.678   7.003   2.801
 4792SOL     OW15274   2.428   2.327   1.864
 4792SOL    HW115275   2.403   2.301   1.957
 4792SOL    HW215276   2.370   2.278   1.798
 4793SOL     OW15277   1.128   6.807   6.040
 4793SOL    HW115278   1.148   6.772   5.949
 4793SOL    HW215279   1.103   6.731   6.100
 4794SOL     OW15280   3.416   0.727   1.927
 4794SOL    HW115281   3.373   0.783   1.856
 4794SOL    HW215282   3.369   0.741   2.014
 4795SOL     OW15283   6.302   3.358   4.547
 4795SOL    HW115284   6.295   3.269   4.502
 4795SOL    HW215285   6.394   3.394   4.535
 4796SOL     OW15286   6.031   3.924   1.269
 4796SOL    HW115287   6.105   3.883   1.323
 4796SOL    HW215288   6.052   3.913   1.172
 4797SOL     OW15289   0.371   4.775   5.286
 4797SOL    HW115290   0.328   4.855   5.245
 4797SOL    HW215291   0.333   4.692   5.246
 4798SOL     OW15292   0.025   3.908   4.505
 4798SOL    HW115293   0.011   3.875   4.599
 4798SOL    HW215294   0.014   3.832   4.441
 4799SOL     OW15295   3.903   1.384   5.001
 4799SOL    HW115296   3.940   1.449   5.068
 4799SOL    HW215297   3.803   1.381   5.010
 4800SOL     OW15298   1.838   1.528   4.410
 4800SOL    HW115299   1.753   1.577   4.392
 4800SOL    HW215300   1.914   1.593   4.412
 4801SOL     OW15301   0.803   2.973   0.834
 4801SOL    HW115302   0.753   3.009   0.755
 4801SOL    HW215303   0.739   2.951   0.908
 4802SOL     OW15304   2.427   0.538   2.215
 4802SOL    HW115305   2.399   0.627   2.180
 4802SOL    HW215306   2.487   0.550   2.295
 4803SOL     OW15307   1.194   6.771   0.484
 4803SOL    HW115308   1.245   6.726   0.558
 4803SOL    HW215309   1.149   6.853   0.521
 4804SOL     OW15310   4.134   5.232   0.105
 4804SOL    HW115311   4.172   5.249   0.196
 4804SOL    HW215312   4.041   5.267   0.100
 4805SOL     OW15313   0.844   2.108   1.000
 4805SOL    HW115314   0.807   2.016   0.987
 4805SOL    HW215315   0.839   2.132   1.097
 4806SOL     OW15316   0.812   2.583   2.907
 4806SOL    HW115317   0.729   2.632   2.883
 4806SOL    HW215318   0.885   2.648   2.927
 4807SOL     OW15319   7.003   6.483   0.771
 4807SOL    HW115320   6.971   6.550   0.838
 4807SOL    HW215321   6.954   6.397   0.782
 4808SOL     OW15322   4.964   3.167   1.262
 4808SOL    HW115323   4.886   3.181   1.324
 4808SOL    HW215324   4.944   3.089   1.202
 4809SOL     OW15325   4.322   5.957   6.784
 4809SOL    HW115326   4.235   6.006   6.777
 4809SOL    HW215327   4.384   6.009   6.844
 4810SOL     OW15328   0.805   0.353   1.339
 4810SOL    HW115329   0.761   0.309   1.260
 4810SOL    HW215330   0.773   0.447   1.346
 4811SOL     OW15331   4.554   6.035   2.687
 4811SOL    HW115332   4.588   6.085   2.766
 4811SOL    HW215333   4.624   6.034   2.616
 4812SOL     OW15334   6.700   5.368   4.338
 4812SOL    HW115335   6.654   5.323   4.261
 4812SOL    HW215336   6.751   5.300   4.390
 4813SOL     OW15337   5.777   2.899   2.490
 4813SOL    HW115338   5.697   2.841   2.509
 4813SOL    HW215339   5.758   2.991   2.523
 4814SOL     OW15340   0.131   3.202   1.720
 4814SOL    HW115341   0.211   3.262   1.713
 4814SOL    HW215342   0.058   3.248   1.771
 4815SOL     OW15343   4.178   6.537   2.093
 4815SOL    HW115344   4.153   6.442   2.110
 4815SOL    HW215345   4.143   6.594   2.167
 4816SOL     OW15346   5.381   5.380   3.143
 4816SOL    HW115347   5.458   5.435   3.175
 4816SOL    HW215348   5.395   5.354   3.048
 4817SOL     OW15349   6.930   1.508   6.863
 4817SOL    HW115350   7.009   1.532   6.806
 4817SOL    HW215351   6.941   1.415   6.897
 4818SOL     OW15352   0.766   6.779   4.340
 4818SOL    HW115353   0.814   6.866   4.345
 4818SOL    HW215354   0.709   6.776   4.258
 4819SOL     OW15355   1.634   2.992   0.539
 4819SOL    HW115356   1.717   2.950   0.502
 4819SOL    HW215357   1.644   3.003   0.638
 4820SOL     OW15358   0.343   3.184   2.486
 4820SOL    HW115359   0.319   3.217   2.578
 4820SOL    HW215360   0.288   3.104   2.464
 4821SOL     OW15361   0.034   5.819   3.105
 4821SOL    HW115362   6.977   5.811   3.048
 4821SOL    HW215363   0.114   5.840   3.049
 4822SOL     OW15364   1.931   4.118   4.556
 4822SOL    HW115365   1.968   4.054   4.489
 4822SOL    HW215366   1.908   4.204   4.511
 4823SOL     OW15367   1.706   3.220   1.663
 4823SOL    HW115368   1.740   3.306   1.702
 4823SOL    HW215369   1.637   3.239   1.593
 4824SOL     OW15370   6.066   1.394   6.267
 4824SOL    HW115371   6.119   1.309   6.271
 4824SOL    HW215372   6.100   1.451   6.192
 4825SOL     OW15373   1.732   6.738   3.949
 4825SOL    HW115374   1.707   6.642   3.962
 4825SOL    HW215375   1.787   6.747   3.866
 4826SOL     OW15376   3.801   0.777   1.801
 4826SOL    HW115377   3.753   0.712   1.860
 4826SOL    HW215378   3.839   0.730   1.722
 4827SOL     OW15379   0.143   2.136   0.652
 4827SOL    HW115380   0.133   2.233   0.675
 4827SOL    HW215381   0.055   2.090   0.664
 4828SOL     OW15382   4.845   1.105   4.340
 4828SOL    HW115383   4.756   1.093   4.383
 4828SOL    HW215384   4.917   1.084   4.406
 4829SOL     OW15385   4.339   6.927   4.755
 4829SOL    HW115386   4.410   6.884   4.698
 4829SOL    HW215387   4.259   6.947   4.698
 4830SOL     OW15388   2.981   6.080   3.118
 4830SOL    HW115389   2.972   6.173   3.152
 4830SOL    HW215390   2.893   6.032   3.129
 4831SOL     OW15391   3.182   4.629   5.257
 4831SOL    HW115392   3.092   4.599   5.225
 4831SOL    HW215393   3.228   4.679   5.184
 4832SOL     OW15394   3.439   3.767   4.462
 4832SOL    HW115395   3.523   3.782   4.410
 4832SOL    HW215396   3.463   3.746   4.557
 4833SOL     OW15397   6.573   3.436   4.474
 4833SOL    HW115398   6.597   3.517   4.420
 4833SOL    HW215399   6.634   3.430   4.553
 4834SOL     OW15400   1.326   4.841   1.455
 4834SOL    HW115401   1.253   4.896   1.413
 4834SOL    HW215402   1.288   4.786   1.529
 4835SOL     OW15403   6.986   2.690   5.667
 4835SOL    HW115404   6.956   2.724   5.578
 4835SOL    HW215405   6.908   2.690   5.730
 4836SOL     OW15406   4.739   1.329   5.759
 4836SOL    HW115407   4.764   1.315   5.855
 4836SOL    HW215408   4.650   1.287   5.741
 4837SOL     OW15409   0.303   3.583   3.831
 4837SOL    HW115410   0.258   3.622   3.750
 4837SOL    HW215411   0.369   3.648   3.867
 4838SOL     OW15412   2.955   3.739   6.058
 4838SOL    HW115413   2.904   3.820   6.030
 4838SOL    HW215414   2.928   3.661   6.001
 4839SOL     OW15415   2.483   1.321   0.762
 4839SOL    HW115416   2.406   1.339   0.823
 4839SOL    HW215417   2.450   1.305   0.669
 4840SOL     OW15418   6.018   4.199   4.114
 4840SOL    HW115419   6.116   4.221   4.116
 4840SOL    HW215420   5.987   4.178   4.207
 4841SOL     OW15421   3.493   6.220   3.358
 4841SOL    HW115422   3.421   6.160   3.322
 4841SOL    HW215423   3.460   6.315   3.357
 4842SOL     OW15424   3.392   5.526   3.015
 4842SOL    HW115425   3.461   5.547   3.084
 4842SOL    HW215426   3.377   5.427   3.012
 4843SOL     OW15427   0.060   1.874   0.360
 4843SOL    HW115428   0.046   1.778   0.386
 4843SOL    HW215429   0.034   1.887   0.264
 4844SOL     OW15430   2.168   5.411   5.369
 4844SOL    HW115431   2.259   5.410   5.409
 4844SOL    HW215432   2.172   5.450   5.277
 4845SOL     OW15433   4.870   3.768   4.805
 4845SOL    HW115434   4.799   3.739   4.740
 4845SOL    HW215435   4.854   3.723   4.893
 4846SOL     OW15436   6.842   3.706   4.531
 4846SOL    HW115437   6.802   3.794   4.557
 4846SOL    HW215438   6.797   3.632   4.581
 4847SOL     OW15439   2.735   6.292   5.902
 4847SOL    HW115440   2.741   6.383   5.860
 4847SOL    HW215441   2.750   6.300   6.001
 4848SOL     OW15442   3.649   0.943   4.085
 4848SOL    HW115443   3.562   0.993   4.080
 4848SOL    HW215444   3.710   0.976   4.013
 4849SOL     OW15445   2.143   6.432   1.416
 4849SOL    HW115446   2.157   6.488   1.334
 4849SOL    HW215447   2.202   6.465   1.489
 4850SOL     OW15448   3.902   0.177   1.049
 4850SOL    HW115449   3.877   0.105   0.983
 4850SOL    HW215450   3.931   0.135   1.135
 4851SOL     OW15451   3.578   4.423   6.374
 4851SOL    HW115452   3.577   4.347   6.308
 4851SOL    HW215453   3.631   4.396   6.454
 4852SOL     OW15454   5.877   5.057   5.160
 4852SOL    HW115455   5.878   5.036   5.062
 4852SOL    HW215456   5.893   5.155   5.173
 4853SOL     OW15457   4.054   6.984   2.458
 4853SOL    HW115458   4.015   6.898   2.492
 4853SOL    HW215459   4.098   6.967   2.370
 4854SOL     OW15460   5.126   6.715   1.774
 4854SOL    HW115461   5.132   6.809   1.741
 4854SOL    HW215462   5.185   6.656   1.719
 4855SOL     OW15463   5.108   4.864   5.968
 4855SOL    HW115464   5.059   4.780   5.945
 4855SOL    HW215465   5.202   4.858   5.935
 4856SOL     OW15466   0.829   3.522   2.478
 4856SOL    HW115467   0.840   3.447   2.543
 4856SOL    HW215468   0.813   3.485   2.386
 4857SOL     OW15469   2.334   2.575   5.117
 4857SOL    HW115470   2.289   2.643   5.175
 4857SOL    HW215471   2.428   2.561   5.149
 4858SOL     OW15472   1.121   6.115   5.019
 4858SOL    HW115473   1.169   6.031   4.993
 4858SOL    HW215474   1.187   6.181   5.054
 4859SOL     OW15475   0.046   6.453   2.537
 4859SOL    HW115476   0.101   6.455   2.621
 4859SOL    HW215477   0.031   6.358   2.510
 4860SOL     OW15478   4.471   5.278   1.420
 4860SOL    HW115479   4.515   5.246   1.504
 4860SOL    HW215480   4.463   5.202   1.356
 4861SOL     OW15481   0.511   3.936   6.257
 4861SOL    HW115482   0.465   3.897   6.177
 4861SOL    HW215483   0.609   3.915   6.252
 4862SOL     OW15484   2.250   5.779   4.666
 4862SOL    HW115485   2.165   5.815   4.704
 4862SOL    HW215486   2.312   5.855   4.646
 4863SOL     OW15487   4.625   2.467   2.584
 4863SOL    HW115488   4.681   2.392   2.619
 4863SOL    HW215489   4.633   2.546   2.645
 4864SOL     OW15490   1.675   1.359   1.031
 4864SOL    HW115491   1.760   1.307   1.025
 4864SOL    HW215492   1.627   1.335   1.116
 4865SOL     OW15493   3.690   6.178   5.456
 4865SOL    HW115494   3.684   6.277   5.457
 4865SOL    HW215495   3.783   6.150   5.431
 4866SOL     OW15496   0.225   4.757   1.904
 4866SOL    HW115497   0.258   4.670   1.867
 4866SOL    HW215498   0.280   4.832   1.867
 4867SOL     OW15499   4.873   5.274   3.730
 4867SOL    HW115500   4.906   5.330   3.806
 4867SOL    HW215501   4.777   5.295   3.712
 4868SOL     OW15502   1.393   6.643   1.795
 4868SOL    HW115503   1.422   6.706   1.868
 4868SOL    HW215504   1.389   6.693   1.708
 4869SOL     OW15505   5.994   1.450   1.162
 4869SOL    HW115506   6.056   1.443   1.084
 4869SOL    HW215507   6.046   1.478   1.243
 4870SOL     OW15508   6.847   0.262   0.954
 4870SOL    HW115509   6.906   0.190   0.990
 4870SOL    HW215510   6.898   0.348   0.950
 4871SOL     OW15511   1.049   2.980   4.087
 4871SOL    HW115512   1.124   3.039   4.116
 4871SOL    HW215513   1.085   2.887   4.071
 4872SOL     OW15514   0.930   0.422   3.868
 4872SOL    HW115515   0.928   0.455   3.774
 4872SOL    HW215516   0.856   0.467   3.920
 4873SOL     OW15517   1.284   5.900   4.949
 4873SOL    HW115518   1.323   5.812   4.978
 4873SOL    HW215519   1.245   5.890   4.858
 4874SOL     OW15520   5.280   3.181   3.778
 4874SOL    HW115521   5.220   3.117   3.730
 4874SOL    HW215522   5.246   3.195   3.871
 4875SOL     OW15523   6.287   2.789   6.617
 4875SOL    HW115524   6.385   2.801   6.598
 4875SOL    HW215525   6.246   2.879   6.636
 4876SOL     OW15526   0.300   1.476   6.973
 4876SOL    HW115527   0.227   1.535   7.008
 4876SOL    HW215528   0.370   1.532   6.929
 4877SOL     OW15529   6.451   1.673   1.127
 4877SOL    HW115530   6.468   1.753   1.185
 4877SOL    HW215531   6.522   1.604   1.144
 4878SOL     OW15532   6.789   2.263   1.667
 4878SOL    HW115533   6.849   2.283   1.744
 4878SOL    HW215534   6.702   2.312   1.679
 4879SOL     OW15535   4.427   6.108   3.445
 4879SOL    HW115536   4.384   6.141   3.361
 4879SOL    HW215537   4.362   6.050   3.495
 4880SOL     OW15538   6.191   2.400   6.159
 4880SOL    HW115539   6.108   2.428   6.111
 4880SOL    HW215540   6.171   2.390   6.257
 4881SOL     OW15541   2.969   5.276   6.632
 4881SOL    HW115542   2.947   5.359   6.580
 4881SOL    HW215543   2.884   5.232   6.661
 4882SOL     OW15544   4.891   0.334   6.252
 4882SOL    HW115545   4.984   0.319   6.220
 4882SOL    HW215546   4.826   0.292   6.188
 4883SOL     OW15547   6.165   5.556   0.546
 4883SOL    HW115548   6.203   5.646   0.567
 4883SOL    HW215549   6.237   5.498   0.505
 4884SOL     OW15550   3.631   6.572   2.217
 4884SOL    HW115551   3.646   6.567   2.118
 4884SOL    HW215552   3.533   6.575   2.236
 4885SOL     OW15553   2.068   6.623   2.856
 4885SOL    HW115554   2.042   6.696   2.920
 4885SOL    HW215555   2.153   6.580   2.887
 4886SOL     OW15556   6.256   0.802   6.213
 4886SOL    HW115557   6.202   0.822   6.295
 4886SOL    HW215558   6.197   0.764   6.143
 4887SOL     OW15559   0.402   1.822   5.478
 4887SOL    HW115560   0.486   1.804   5.427
 4887SOL    HW215561   0.413   1.904   5.534
 4888SOL     OW15562   3.292   5.301   1.796
 4888SOL    HW115563   3.211   5.287   1.854
 4888SOL    HW215564   3.265   5.351   1.714
 4889SOL     OW15565   1.434   2.956   6.473
 4889SOL    HW115566   1.530   2.965   6.500
 4889SOL    HW215567   1.398   2.869   6.507
 4890SOL     OW15568   1.185   0.210   4.607
 4890SOL    HW115569   1.250   0.147   4.564
 4890SOL    HW215570   1.092   0.183   4.585
 4891SOL     OW15571   1.537   3.869   0.969
 4891SOL    HW115572   1.447   3.911   0.968
 4891SOL    HW215573   1.604   3.933   1.007
 4892SOL     OW15574   2.036   5.765   1.543
 4892SOL    HW115575   1.974   5.750   1.466
 4892SOL    HW215576   2.083   5.853   1.531
 4893SOL     OW15577   0.859   3.507   6.368
 4893SOL    HW115578   0.883   3.588   6.421
 4893SOL    HW215579   0.909   3.507   6.282
 4894SOL     OW15580   1.783   1.370   3.436
 4894SOL    HW115581   1.770   1.411   3.346
 4894SOL    HW215582   1.694   1.363   3.482
 4895SOL     OW15583   5.651   4.118   6.932
 4895SOL    HW115584   5.749   4.118   6.954
 4895SOL    HW215585   5.599   4.152   7.010
 4896SOL     OW15586   4.528   5.963   3.135
 4896SOL    HW115587   4.516   5.872   3.095
 4896SOL    HW215588   4.458   5.978   3.206
 4897SOL     OW15589   2.834   5.565   5.864
 4897SOL    HW115590   2.803   5.611   5.781
 4897SOL    HW215591   2.825   5.627   5.942
 4898SOL     OW15592   5.907   2.374   4.887
 4898SOL    HW115593   5.983   2.342   4.944
 4898SOL    HW215594   5.877   2.464   4.919
 4899SOL     OW15595   5.268   4.223   4.610
 4899SOL    HW115596   5.173   4.215   4.639
 4899SOL    HW215597   5.327   4.234   4.690
 4900SOL     OW15598   1.011   6.647   5.251
 4900SOL    HW115599   0.959   6.639   5.336
 4900SOL    HW215600   0.985   6.731   5.204
 4901SOL     OW15601   0.699   6.351   3.248
 4901SOL    HW115602   0.615   6.299   3.236
 4901SOL    HW215603   0.701   6.428   3.184
 4902SOL     OW15604   2.977   4.772   1.909
 4902SOL    HW115605   3.041   4.714   1.858
 4902SOL    HW215606   2.890   4.724   1.920
 4903SOL     OW15607   5.384   6.138   6.033
 4903SOL    HW115608   5.408   6.221   5.981
 4903SOL    HW215609   5.362   6.064   5.969
 4904SOL     OW15610   3.658   6.064   3.514
 4904SOL    HW115611   3.658   6.061   3.614
 4904SOL    HW215612   3.583   6.123   3.483
 4905SOL     OW15613   6.379   3.461   3.261
 4905SOL    HW115614   6.316   3.536   3.238
 4905SOL    HW215615   6.413   3.419   3.177
 4906SOL     OW15616   5.163   0.471   1.434
 4906SOL    HW115617   5.106   0.446   1.512
 4906SOL    HW215618   5.107   0.515   1.364
 4907SOL     OW15619   2.172   1.719   2.468
 4907SOL    HW115620   2.177   1.622   2.491
 4907SOL    HW215621   2.247   1.767   2.513
 4908SOL     OW15622   3.235   5.934   6.921
 4908SOL    HW115623   3.305   5.983   6.868
 4908SOL    HW215624   3.208   5.988   7.000
 4909SOL     OW15625   5.998   6.869   5.680
 4909SOL    HW115626   5.945   6.950   5.706
 4909SOL    HW215627   6.014   6.869   5.581
 4910SOL     OW15628   5.992   0.095   6.397
 4910SOL    HW115629   5.905   0.054   6.427
 4910SOL    HW215630   5.980   0.194   6.385
 4911SOL     OW15631   0.531   2.987   5.870
 4911SOL    HW115632   0.542   3.076   5.826
 4911SOL    HW215633   0.521   3.001   5.969
 4912SOL     OW15634   2.619   2.398   2.236
 4912SOL    HW115635   2.699   2.416   2.179
 4912SOL    HW215636   2.646   2.348   2.318
 4913SOL     OW15637   2.900   3.356   2.541
 4913SOL    HW115638   2.871   3.284   2.604
 4913SOL    HW215639   2.998   3.375   2.554
 4914SOL     OW15640   1.659   6.372   2.759
 4914SOL    HW115641   1.661   6.276   2.733
 4914SOL    HW215642   1.586   6.419   2.710
 4915SOL     OW15643   3.284   6.048   3.240
 4915SOL    HW115644   3.184   6.047   3.244
 4915SOL    HW215645   3.314   6.102   3.161
 4916SOL     OW15646   1.852   1.580   2.517
 4916SOL    HW115647   1.888   1.592   2.610
 4916SOL    HW215648   1.903   1.508   2.471
 4917SOL     OW15649   2.515   5.398   6.583
 4917SOL    HW115650   2.577   5.476   6.599
 4917SOL    HW215651   2.484   5.362   6.671
 4918SOL     OW15652   2.301   0.654   3.106
 4918SOL    HW115653   2.372   0.599   3.151
 4918SOL    HW215654   2.336   0.692   3.021
 4919SOL     OW15655   2.599   3.091   1.563
 4919SOL    HW115656   2.545   3.017   1.602
 4919SOL    HW215657   2.558   3.179   1.587
 4920SOL     OW15658   4.302   0.885   0.364
 4920SOL    HW115659   4.364   0.818   0.325
 4920SOL    HW215660   4.285   0.862   0.460
 4921SOL     OW15661   1.417   4.259   1.912
 4921SOL    HW115662   1.421   4.325   1.837
 4921SOL    HW215663   1.504   4.262   1.962
 4922SOL     OW15664   1.039   2.898   5.922
 4922SOL    HW115665   1.000   2.975   5.972
 4922SOL    HW215666   1.138   2.910   5.915
 4923SOL     OW15667   3.417   2.023   0.724
 4923SOL    HW115668   3.317   2.034   0.720
 4923SOL    HW215669   3.439   1.928   0.749
 4924SOL     OW15670   0.643   3.856   4.319
 4924SOL    HW115671   0.603   3.765   4.308
 4924SOL    HW215672   0.672   3.891   4.229
 4925SOL     OW15673   4.902   5.764   6.196
 4925SOL    HW115674   4.807   5.742   6.217
 4925SOL    HW215675   4.953   5.778   6.281
 4926SOL     OW15676   3.989   2.525   1.559
 4926SOL    HW115677   3.913   2.586   1.580
 4926SOL    HW215678   3.955   2.440   1.520
 4927SOL     OW15679   3.742   3.726   2.817
 4927SOL    HW115680   3.730   3.786   2.896
 4927SOL    HW215681   3.720   3.632   2.842
 4928SOL     OW15682   0.642   6.557   0.498
 4928SOL    HW115683   0.587   6.578   0.579
 4928SOL    HW215684   0.581   6.536   0.422
 4929SOL     OW15685   0.788   5.034   4.236
 4929SOL    HW115686   0.798   4.947   4.284
 4929SOL    HW215687   0.754   5.103   4.300
 4930SOL     OW15688   0.027   2.696   0.539
 4930SOL    HW115689   6.976   2.664   0.482
 4930SOL    HW215690   0.016   2.794   0.558
 4931SOL     OW15691   0.140   0.742   1.188
 4931SOL    HW115692   0.213   0.791   1.140
 4931SOL    HW215693   0.178   0.697   1.269
 4932SOL     OW15694   3.990   2.136   1.053
 4932SOL    HW115695   4.066   2.167   1.111
 4932SOL    HW215696   3.997   2.179   0.963
 4933SOL     OW15697   2.872   0.928   5.368
 4933SOL    HW115698   2.963   0.942   5.331
 4933SOL    HW215699   2.836   0.841   5.336
 4934SOL     OW15700   1.377   5.935   5.454
 4934SOL    HW115701   1.372   5.851   5.400
 4934SOL    HW215702   1.409   6.010   5.396
 4935SOL     OW15703   1.639   1.165   0.339
 4935SOL    HW115704   1.651   1.191   0.243
 4935SOL    HW215705   1.696   1.085   0.359
 4936SOL     OW15706   4.599   5.793   1.234
 4936SOL    HW115707   4.608   5.889   1.260
 4936SOL    HW215708   4.594   5.736   1.317
 4937SOL     OW15709   1.327   2.943   5.924
 4937SOL    HW115710   1.386   2.951   6.005
 4937SOL    HW215711   1.343   3.020   5.863
 4938SOL     OW15712   3.423   4.851   1.768
 4938SOL    HW115713   3.454   4.839   1.862
 4938SOL    HW215714   3.477   4.792   1.707
 4939SOL     OW15715   1.215   1.577   1.875
 4939SOL    HW115716   1.170   1.649   1.928
 4939SOL    HW215717   1.243   1.614   1.787
 4940SOL     OW15718   0.168   1.921   5.356
 4940SOL    HW115719   0.241   1.872   5.402
 4940SOL    HW215720   0.180   1.915   5.257
 4941SOL     OW15721   4.462   2.180   5.376
 4941SOL    HW115722   4.442   2.182   5.278
 4941SOL    HW215723   4.547   2.229   5.393
 4942SOL     OW15724   0.250   1.443   3.482
 4942SOL    HW115725   0.302   1.482   3.406
 4942SOL    HW215726   0.152   1.457   3.465
 4943SOL     OW15727   4.844   2.767   6.687
 4943SOL    HW115728   4.944   2.767   6.685
 4943SOL    HW215729   4.811   2.678   6.719
 4944SOL     OW15730   0.846   5.249   0.102
 4944SOL    HW115731   0.772   5.188   0.130
 4944SOL    HW215732   0.833   5.277   0.007
 4945SOL     OW15733   2.002   0.495   5.168
 4945SOL    HW115734   1.985   0.588   5.202
 4945SOL    HW215735   2.081   0.495   5.107
 4946SOL     OW15736   2.979   5.472   0.041
 4946SOL    HW115737   3.063   5.420   0.026
 4946SOL    HW215738   2.990   5.531   0.121
 4947SOL     OW15739   1.238   0.684   1.527
 4947SOL    HW115740   1.212   0.623   1.601
 4947SOL    HW215741   1.336   0.700   1.530
 4948SOL     OW15742   1.837   2.351   1.883
 4948SOL    HW115743   1.767   2.295   1.926
 4948SOL    HW215744   1.919   2.296   1.868
 4949SOL     OW15745   6.935   4.618   6.354
 4949SOL    HW115746   7.019   4.602   6.302
 4949SOL    HW215747   6.955   4.608   6.452
 4950SOL     OW15748   3.449   4.401   5.750
 4950SOL    HW115749   3.494   4.327   5.801
 4950SOL    HW215750   3.383   4.362   5.686
 4951SOL     OW15751   5.142   5.784   3.167
 4951SOL    HW115752   5.242   5.785   3.163
 4951SOL    HW215753   5.110   5.690   3.169
 4952SOL     OW15754   0.408   0.183   6.508
 4952SOL    HW115755   0.478   0.134   6.561
 4952SOL    HW215756   0.390   0.134   6.423
 4953SOL     OW15757   0.926   2.083   4.686
 4953SOL    HW115758   0.885   2.114   4.771
 4953SOL    HW215759   0.887   2.133   4.609
 4954SOL     OW15760   3.147   3.960   4.750
 4954SOL    HW115761   3.059   3.913   4.762
 4954SOL    HW215762   3.142   4.020   4.670
 4955SOL     OW15763   4.238   5.549   5.591
 4955SOL    HW115764   4.269   5.458   5.563
 4955SOL    HW215765   4.187   5.592   5.516
 4956SOL     OW15766   3.135   0.297   5.178
 4956SOL    HW115767   3.062   0.350   5.222
 4956SOL    HW215768   3.128   0.307   5.078
 4957SOL     OW15769   5.695   4.650   6.270
 4957SOL    HW115770   5.609   4.603   6.291
 4957SOL    HW215771   5.770   4.584   6.271
 4958SOL     OW15772   4.247   6.056   0.650
 4958SOL    HW115773   4.257   5.961   0.679
 4958SOL    HW215774   4.316   6.077   0.580
 4959SOL     OW15775   0.299   2.258   2.971
 4959SOL    HW115776   0.205   2.224   2.974
 4959SOL    HW215777   0.348   2.228   3.053
 4960SOL     OW15778   4.660   4.810   4.039
 4960SOL    HW115779   4.751   4.850   4.052
 4960SOL    HW215780   4.667   4.724   3.989
 4961SOL     OW15781   3.327   2.047   1.163
 4961SOL    HW115782   3.389   2.069   1.239
 4961SOL    HW215783   3.325   2.124   1.099
 4962SOL     OW15784   1.378   4.330   0.837
 4962SOL    HW115785   1.315   4.406   0.857
 4962SOL    HW215786   1.472   4.363   0.842
 4963SOL     OW15787   0.772   3.853   6.228
 4963SOL    HW115788   0.856   3.891   6.189
 4963SOL    HW215789   0.735   3.784   6.167
 4964SOL     OW15790   2.461   6.636   4.580
 4964SOL    HW115791   2.483   6.539   4.574
 4964SOL    HW215792   2.380   6.656   4.524
 4965SOL     OW15793   1.456   5.911   2.943
 4965SOL    HW115794   1.470   5.956   3.031
 4965SOL    HW215795   1.534   5.851   2.924
 4966SOL     OW15796   3.044   6.651   4.148
 4966SOL    HW115797   2.972   6.652   4.079
 4966SOL    HW215798   3.080   6.558   4.157
 4967SOL     OW15799   4.393   4.755   4.864
 4967SOL    HW115800   4.476   4.810   4.873
 4967SOL    HW215801   4.405   4.667   4.911
 4968SOL     OW15802   6.915   2.788   2.994
 4968SOL    HW115803   6.868   2.770   2.907
 4968SOL    HW215804   6.981   2.861   2.982
 4969SOL     OW15805   0.525   5.990   4.191
 4969SOL    HW115806   0.523   5.921   4.119
 4969SOL    HW215807   0.606   5.978   4.248
 4970SOL     OW15808   1.261   1.512   1.428
 4970SOL    HW115809   1.291   1.497   1.334
 4970SOL    HW215810   1.166   1.543   1.428
 4971SOL     OW15811   6.778   6.237   2.408
 4971SOL    HW115812   6.753   6.207   2.500
 4971SOL    HW215813   6.877   6.226   2.396
 4972SOL     OW15814   0.186   4.237   1.013
 4972SOL    HW115815   0.105   4.254   0.956
 4972SOL    HW215816   0.243   4.319   1.016
 4973SOL     OW15817   6.411   1.256   0.985
 4973SOL    HW115818   6.351   1.330   1.014
 4973SOL    HW215819   6.501   1.267   1.027
 4974SOL     OW15820   3.544   6.243   5.188
 4974SOL    HW115821   3.546   6.166   5.252
 4974SOL    HW215822   3.613   6.230   5.117
 4975SOL     OW15823   5.187   4.816   1.175
 4975SOL    HW115824   5.266   4.836   1.116
 4975SOL    HW215825   5.158   4.722   1.160
 4976SOL     OW15826   2.135   6.825   3.145
 4976SOL    HW115827   2.185   6.746   3.179
 4976SOL    HW215828   2.038   6.802   3.133
 4977SOL     OW15829   1.802   4.299   5.826
 4977SOL    HW115830   1.855   4.362   5.883
 4977SOL    HW215831   1.750   4.351   5.759
 4978SOL     OW15832   5.064   4.760   4.928
 4978SOL    HW115833   5.128   4.837   4.924
 4978SOL    HW215834   5.079   4.701   4.848
 4979SOL     OW15835   2.283   6.776   5.801
 4979SOL    HW115836   2.191   6.814   5.809
 4979SOL    HW215837   2.317   6.790   5.708
 4980SOL     OW15838   5.217   3.532   3.883
 4980SOL    HW115839   5.298   3.475   3.871
 4980SOL    HW215840   5.197   3.581   3.798
 4981SOL     OW15841   2.835   4.714   2.426
 4981SOL    HW115842   2.915   4.766   2.394
 4981SOL    HW215843   2.768   4.708   2.353
 4982SOL     OW15844   3.936   1.734   5.725
 4982SOL    HW115845   3.903   1.640   5.733
 4982SOL    HW215846   4.033   1.732   5.700
 4983SOL     OW15847   5.671   5.663   2.876
 4983SOL    HW115848   5.653   5.758   2.902
 4983SOL    HW215849   5.710   5.614   2.953
 4984SOL     OW15850   4.860   4.101   3.185
 4984SOL    HW115851   4.827   4.014   3.148
 4984SOL    HW215852   4.910   4.150   3.114
 4985SOL     OW15853   5.376   0.043   2.381
 4985SOL    HW115854   5.320   0.028   2.463
 4985SOL    HW215855   5.450   0.106   2.403
 4986SOL     OW15856   1.055   5.005   1.657
 4986SOL    HW115857   1.113   4.935   1.698
 4986SOL    HW215858   0.962   4.969   1.648
 4987SOL     OW15859   0.615   1.118   2.447
 4987SOL    HW115860   0.632   1.198   2.389
 4987SOL    HW215861   0.697   1.062   2.452
 4988SOL     OW15862   6.201   5.964   3.624
 4988SOL    HW115863   6.130   5.896   3.646
 4988SOL    HW215864   6.205   6.032   3.697
 4989SOL     OW15865   4.718   0.295   3.195
 4989SOL    HW115866   4.774   0.365   3.152
 4989SOL    HW215867   4.735   0.207   3.150
 4990SOL     OW15868   4.418   2.453   4.798
 4990SOL    HW115869   4.442   2.434   4.703
 4990SOL    HW215870   4.326   2.419   4.818
 4991SOL     OW15871   1.533   4.803   5.838
 4991SOL    HW115872   1.550   4.770   5.931
 4991SOL    HW215873   1.510   4.900   5.841
 4992SOL     OW15874   0.644   3.633   3.670
 4992SOL    HW115875   0.658   3.539   3.698
 4992SOL    HW215876   0.706   3.693   3.720
 4993SOL     OW15877   3.244   6.393   3.834
 4993SOL    HW115878   3.248   6.493   3.830
 4993SOL    HW215879   3.294   6.362   3.915
 4994SOL     OW15880   3.461   4.566   5.307
 4994SOL    HW115881   3.494   4.586   5.399
 4994SOL    HW215882   3.372   4.608   5.294
 4995SOL     OW15883   0.161   0.624   5.973
 4995SOL    HW115884   0.187   0.540   6.021
 4995SOL    HW215885   0.207   0.702   6.014
 4996SOL     OW15886   6.964   1.536   4.219
 4996SOL    HW115887   0.032   1.571   4.224
 4996SOL    HW215888   6.961   1.444   4.259
 4997SOL     OW15889   3.965   1.880   1.337
 4997SOL    HW115890   3.992   1.786   1.358
 4997SOL    HW215891   3.916   1.882   1.250
 4998SOL     OW15892   0.488   3.775   3.485
 4998SOL    HW115893   0.540   3.695   3.517
 4998SOL    HW215894   0.536   3.859   3.510
 4999SOL     OW15895   0.841   3.086   4.312
 4999SOL    HW115896   0.743   3.089   4.294
 4999SOL    HW215897   0.881   3.005   4.269
 5000SOL     OW15898   3.103   5.551   2.903
 5000SOL    HW115899   3.168   5.512   2.838
 5000SOL    HW215900   3.055   5.628   2.859
 5001SOL     OW15901   0.285   5.798   3.355
 5001SOL    HW115902   0.338   5.805   3.271
 5001SOL    HW215903   0.190   5.772   3.334
 5002SOL     OW15904   1.081   3.638   3.808
 5002SOL    HW115905   1.176   3.642   3.840
 5002SOL    HW215906   1.051   3.543   3.805
 5003SOL     OW15907   4.219   0.946   3.659
 5003SOL    HW115908   4.242   0.980   3.569
 5003SOL    HW215909   4.299   0.903   3.701
 5004SOL     OW15910   3.205   5.189   6.528
 5004SOL    HW115911   3.126   5.246   6.550
 5004SOL    HW215912   3.258   5.234   6.456
 5005SOL     OW15913   3.007   2.365   0.136
 5005SOL    HW115914   3.023   2.371   0.234
 5005SOL    HW215915   2.999   2.269   0.109
 5006SOL     OW15916   4.505   1.628   1.626
 5006SOL    HW115917   4.446   1.624   1.707
 5006SOL    HW215918   4.510   1.722   1.594
 5007SOL     OW15919   5.870   6.276   1.955
 5007SOL    HW115920   5.894   6.197   1.897
 5007SOL    HW215921   5.867   6.247   2.050
 5008SOL     OW15922   5.328   6.586   2.168
 5008SOL    HW115923   5.319   6.588   2.267
 5008SOL    HW215924   5.244   6.619   2.126
 5009SOL     OW15925   6.781   2.266   0.714
 5009SOL    HW115926   6.721   2.191   0.687
 5009SOL    HW215927   6.743   2.310   0.796
 5010SOL     OW15928   3.415   3.767   1.229
 5010SOL    HW115929   3.330   3.789   1.277
 5010SOL    HW215930   3.440   3.844   1.170
 5011SOL     OW15931   2.207   3.194   6.883
 5011SOL    HW115932   2.281   3.263   6.881
 5011SOL    HW215933   2.131   3.229   6.938
 5012SOL     OW15934   6.013   1.674   5.853
 5012SOL    HW115935   5.951   1.734   5.803
 5012SOL    HW215936   6.108   1.704   5.839
 5013SOL     OW15937   5.668   6.842   5.659
 5013SOL    HW115938   5.643   6.936   5.680
 5013SOL    HW215939   5.682   6.791   5.744
 5014SOL     OW15940   6.133   3.292   1.642
 5014SOL    HW115941   6.205   3.353   1.676
 5014SOL    HW215942   6.169   3.237   1.567
 5015SOL     OW15943   5.581   6.606   3.807
 5015SOL    HW115944   5.607   6.689   3.757
 5015SOL    HW215945   5.483   6.589   3.794
 5016SOL     OW15946   2.047   3.514   5.914
 5016SOL    HW115947   2.011   3.585   5.853
 5016SOL    HW215948   2.078   3.436   5.860
 5017SOL     OW15949   0.289   3.427   1.749
 5017SOL    HW115950   0.323   3.414   1.842
 5017SOL    HW215951   0.339   3.502   1.706
 5018SOL     OW15952   1.295   0.277   0.932
 5018SOL    HW115953   1.368   0.313   0.991
 5018SOL    HW215954   1.213   0.261   0.987
 5019SOL     OW15955   1.567   5.512   5.142
 5019SOL    HW115956   1.593   5.476   5.232
 5019SOL    HW215957   1.649   5.530   5.088
 5020SOL     OW15958   2.375   6.915   4.531
 5020SOL    HW115959   2.464   6.923   4.485
 5020SOL    HW215960   2.380   6.845   4.602
 5021SOL     OW15961   1.727   1.231   0.615
 5021SOL    HW115962   1.632   1.201   0.605
 5021SOL    HW215963   1.789   1.157   0.590
 5022SOL     OW15964   6.703   2.984   1.674
 5022SOL    HW115965   6.688   2.895   1.717
 5022SOL    HW215966   6.791   2.984   1.626
 5023SOL     OW15967   6.978   4.261   2.654
 5023SOL    HW115968   0.027   4.307   2.603
 5023SOL    HW215969   6.995   4.163   2.656
 5024SOL     OW15970   4.459   3.716   1.574
 5024SOL    HW115971   4.544   3.696   1.623
 5024SOL    HW215972   4.470   3.801   1.522
 5025SOL     OW15973   4.184   1.322   4.220
 5025SOL    HW115974   4.096   1.278   4.202
 5025SOL    HW215975   4.228   1.346   4.134
 5026SOL     OW15976   4.319   0.195   4.824
 5026SOL    HW115977   4.312   0.251   4.741
 5026SOL    HW215978   4.333   0.099   4.798
 5027SOL     OW15979   5.101   6.972   0.050
 5027SOL    HW115980   5.150   0.032   0.068
 5027SOL    HW215981   5.006   6.992   0.027
 5028SOL     OW15982   6.572   1.564   2.522
 5028SOL    HW115983   6.661   1.608   2.531
 5028SOL    HW215984   6.584   1.466   2.509
 5029SOL     OW15985   6.193   1.834   2.736
 5029SOL    HW115986   6.124   1.898   2.704
 5029SOL    HW215987   6.189   1.750   2.681
 5030SOL     OW15988   0.266   4.461   6.802
 5030SOL    HW115989   0.306   4.395   6.866
 5030SOL    HW215990   0.311   4.453   6.713
 5031SOL     OW15991   6.836   6.641   6.606
 5031SOL    HW115992   6.874   6.707   6.672
 5031SOL    HW215993   6.826   6.686   6.517
 5032SOL     OW15994   2.585   3.425   5.316
 5032SOL    HW115995   2.658   3.487   5.288
 5032SOL    HW215996   2.613   3.331   5.299
 5033SOL     OW15997   2.132   0.585   6.948
 5033SOL    HW115998   2.087   0.627   6.869
 5033SOL    HW215999   2.102   0.630   0.008
 5034SOL     OW16000   4.472   6.530   4.233
 5034SOL    HW116001   4.502   6.435   4.244
 5034SOL    HW216002   4.423   6.541   4.147
 5035SOL     OW16003   1.765   3.642   3.776
 5035SOL    HW116004   1.677   3.636   3.823
 5035SOL    HW216005   1.798   3.736   3.779
 5036SOL     OW16006   0.019   2.409   5.385
 5036SOL    HW116007   0.035   2.344   5.459
 5036SOL    HW216008   7.009   2.495   5.422
 5037SOL     OW16009   4.352   4.200   1.250
 5037SOL    HW116010   4.381   4.135   1.180
 5037SOL    HW216011   4.286   4.156   1.311
 5038SOL     OW16012   3.704   3.832   3.920
 5038SOL    HW116013   3.754   3.773   3.984
 5038SOL    HW216014   3.746   3.923   3.920
 5039SOL     OW16015   0.872   3.411   6.926
 5039SOL    HW116016   0.861   3.399   6.827
 5039SOL    HW216017   0.963   3.377   6.953
 5040SOL     OW16018   0.335   6.856   5.858
 5040SOL    HW116019   0.256   6.841   5.799
 5040SOL    HW216020   0.371   6.768   5.888
 5041SOL     OW16021   6.783   3.481   1.930
 5041SOL    HW116022   6.796   3.577   1.905
 5041SOL    HW216023   6.703   3.473   1.990
 5042SOL     OW16024   0.608   2.757   6.190
 5042SOL    HW116025   0.568   2.847   6.208
 5042SOL    HW216026   0.688   2.768   6.130
 5043SOL     OW16027   4.321   6.436   1.122
 5043SOL    HW116028   4.358   6.364   1.063
 5043SOL    HW216029   4.225   6.453   1.099
 5044SOL     OW16030   6.008   4.998   0.715
 5044SOL    HW116031   5.980   5.039   0.802
 5044SOL    HW216032   5.926   4.977   0.661
 5045SOL     OW16033   6.299   3.519   6.264
 5045SOL    HW116034   6.201   3.536   6.270
 5045SOL    HW216035   6.318   3.464   6.182
 5046SOL     OW16036   3.342   3.302   3.396
 5046SOL    HW116037   3.303   3.394   3.402
 5046SOL    HW216038   3.278   3.242   3.347
 5047SOL     OW16039   1.064   3.389   3.275
 5047SOL    HW116040   1.042   3.478   3.234
 5047SOL    HW216041   0.980   3.342   3.302
 5048SOL     OW16042   1.795   1.448   5.760
 5048SOL    HW116043   1.813   1.498   5.845
 5048SOL    HW216044   1.881   1.422   5.718
 5049SOL     OW16045   5.220   1.283   6.350
 5049SOL    HW116046   5.264   1.361   6.395
 5049SOL    HW216047   5.123   1.301   6.340
 5050SOL     OW16048   1.598   0.570   1.178
 5050SOL    HW116049   1.565   0.662   1.160
 5050SOL    HW216050   1.635   0.530   1.094
 5051SOL     OW16051   3.803   5.166   1.124
 5051SOL    HW116052   3.871   5.227   1.085
 5051SOL    HW216053   3.814   5.074   1.086
 5052SOL     OW16054   2.579   0.895   5.893
 5052SOL    HW116055   2.583   0.886   5.993
 5052SOL    HW216056   2.659   0.849   5.853
 5053SOL     OW16057   0.064   0.258   2.215
 5053SOL    HW116058   7.013   0.308   2.172
 5053SOL    HW216059   0.112   0.318   2.279
 5054SOL     OW16060   3.764   5.243   4.030
 5054SOL    HW116061   3.807   5.333   4.035
 5054SOL    HW216062   3.679   5.244   4.083
 5055SOL     OW16063   6.161   3.016   6.706
 5055SOL    HW116064   6.136   2.969   6.790
 5055SOL    HW216065   6.085   3.011   6.641
 5056SOL     OW16066   5.097   4.221   5.045
 5056SOL    HW116067   5.126   4.130   5.073
 5056SOL    HW216068   4.998   4.229   5.052
 5057SOL     OW16069   0.989   6.418   2.594
 5057SOL    HW116070   0.891   6.402   2.601
 5057SOL    HW216071   1.034   6.394   2.680
 5058SOL     OW16072   3.352   4.762   5.643
 5058SOL    HW116073   3.434   4.706   5.627
 5058SOL    HW216074   3.314   4.740   5.733
 5059SOL     OW16075   0.834   0.393   2.273
 5059SOL    HW116076   0.783   0.308   2.272
 5059SOL    HW216077   0.782   0.464   2.225
 5060SOL     OW16078   6.365   1.811   5.467
 5060SOL    HW116079   6.434   1.834   5.535
 5060SOL    HW216080   6.409   1.779   5.383
 5061SOL     OW16081   5.541   4.210   0.156
 5061SOL    HW116082   5.557   4.298   0.113
 5061SOL    HW216083   5.528   4.223   0.254
 5062SOL     OW16084   0.643   0.147   0.973
 5062SOL    HW116085   0.600   0.101   0.896
 5062SOL    HW216086   0.724   0.097   1.002
 5063SOL     OW16087   1.138   6.576   1.929
 5063SOL    HW116088   1.073   6.650   1.914
 5063SOL    HW216089   1.224   6.598   1.884
 5064SOL     OW16090   4.791   3.192   6.650
 5064SOL    HW116091   4.869   3.146   6.692
 5064SOL    HW216092   4.777   3.281   6.694
 5065SOL     OW16093   2.329   6.368   5.749
 5065SOL    HW116094   2.241   6.413   5.769
 5065SOL    HW216095   2.353   6.385   5.653
 5066SOL     OW16096   5.197   5.012   1.402
 5066SOL    HW116097   5.204   4.956   1.319
 5066SOL    HW216098   5.135   4.968   1.466
 5067SOL     OW16099   4.765   1.079   0.343
 5067SOL    HW116100   4.853   1.044   0.312
 5067SOL    HW216101   4.707   1.002   0.373
 5068SOL     OW16102   2.814   4.976   1.181
 5068SOL    HW116103   2.873   5.036   1.234
 5068SOL    HW216104   2.860   4.888   1.167
 5069SOL     OW16105   0.795   4.508   3.518
 5069SOL    HW116106   0.703   4.495   3.481
 5069SOL    HW216107   0.831   4.420   3.548
 5070SOL     OW16108   5.097   2.877   4.057
 5070SOL    HW116109   5.185   2.919   4.038
 5070SOL    HW216110   5.028   2.948   4.072
 5071SOL     OW16111   4.197   1.233   6.751
 5071SOL    HW116112   4.217   1.227   6.654
 5071SOL    HW216113   4.261   1.297   6.794
 5072SOL     OW16114   1.392   4.245   1.366
 5072SOL    HW116115   1.373   4.173   1.433
 5072SOL    HW216116   1.308   4.267   1.316
 5073SOL     OW16117   3.826   1.681   3.760
 5073SOL    HW116118   3.732   1.658   3.787
 5073SOL    HW216119   3.889   1.646   3.829
 5074SOL     OW16120   3.065   4.111   6.151
 5074SOL    HW116121   3.069   4.061   6.238
 5074SOL    HW216122   3.138   4.179   6.148
 5075SOL     OW16123   7.019   5.452   4.529
 5075SOL    HW116124   6.992   5.511   4.453
 5075SOL    HW216125   0.035   5.507   4.601
 5076SOL     OW16126   3.391   7.013   1.330
 5076SOL    HW116127   3.487   0.015   1.336
 5076SOL    HW216128   3.382   6.916   1.355
 5077SOL     OW16129   0.156   2.132   2.397
 5077SOL    HW116130   0.075   2.154   2.344
 5077SOL    HW216131   0.213   2.214   2.407
 5078SOL     OW16132   1.010   1.310   3.603
 5078SOL    HW116133   1.077   1.308   3.677
 5078SOL    HW216134   0.986   1.217   3.578
 5079SOL     OW16135   3.876   5.286   5.291
 5079SOL    HW116136   3.900   5.373   5.248
 5079SOL    HW216137   3.918   5.211   5.240
 5080SOL     OW16138   6.005   6.597   5.708
 5080SOL    HW116139   6.001   6.692   5.676
 5080SOL    HW216140   6.047   6.540   5.637
 5081SOL     OW16141   3.324   3.586   3.404
 5081SOL    HW116142   3.272   3.615   3.485
 5081SOL    HW216143   3.411   3.635   3.401
 5082SOL     OW16144   6.040   6.063   4.738
 5082SOL    HW116145   6.126   6.057   4.789
 5082SOL    HW216146   5.963   6.041   4.799
 5083SOL     OW16147   1.900   5.511   2.105
 5083SOL    HW116148   1.978   5.477   2.156
 5083SOL    HW216149   1.868   5.597   2.145
 5084SOL     OW16150   1.856   6.119   3.966
 5084SOL    HW116151   1.950   6.097   3.991
 5084SOL    HW216152   1.817   6.181   4.033
 5085SOL     OW16153   6.402   2.700   6.276
 5085SOL    HW116154   6.350   2.661   6.353
 5085SOL    HW216155   6.374   2.795   6.262
 5086SOL     OW16156   6.718   5.394   3.495
 5086SOL    HW116157   6.683   5.455   3.566
 5086SOL    HW216158   6.742   5.447   3.414
 5087SOL     OW16159   0.336   5.728   5.659
 5087SOL    HW116160   0.250   5.678   5.652
 5087SOL    HW216161   0.325   5.803   5.725
 5088SOL     OW16162   5.642   0.161   6.598
 5088SOL    HW116163   5.546   0.132   6.599
 5088SOL    HW216164   5.678   0.160   6.691
 5089SOL     OW16165   5.072   3.514   3.463
 5089SOL    HW116166   5.110   3.562   3.384
 5089SOL    HW216167   5.096   3.563   3.547
 5090SOL     OW16168   1.522   4.882   1.184
 5090SOL    HW116169   1.504   4.849   1.276
 5090SOL    HW216170   1.439   4.872   1.128
 5091SOL     OW16171   1.318   5.669   2.814
 5091SOL    HW116172   1.322   5.718   2.901
 5091SOL    HW216173   1.314   5.571   2.831
 5092SOL     OW16174   3.607   2.495   1.702
 5092SOL    HW116175   3.671   2.569   1.684
 5092SOL    HW216176   3.643   2.437   1.776
 5093SOL     OW16177   0.587   2.103   1.474
 5093SOL    HW116178   0.517   2.175   1.469
 5093SOL    HW216179   0.676   2.142   1.453
 5094SOL     OW16180   0.048   0.350   6.471
 5094SOL    HW116181   0.125   0.383   6.525
 5094SOL    HW216182   6.991   0.405   6.492
 5095SOL     OW16183   2.729   6.717   5.492
 5095SOL    HW116184   2.770   6.801   5.457
 5095SOL    HW216185   2.685   6.735   5.580
 5096SOL     OW16186   4.016   4.865   1.761
 5096SOL    HW116187   4.061   4.776   1.760
 5096SOL    HW216188   3.945   4.865   1.831
 5097SOL     OW16189   1.025   0.467   6.398
 5097SOL    HW116190   1.067   0.443   6.311
 5097SOL    HW216191   1.009   0.566   6.401
 5098SOL     OW16192   0.265   2.170   2.711
 5098SOL    HW116193   0.338   2.178   2.642
 5098SOL    HW216194   0.302   2.197   2.800
 5099SOL     OW16195   0.752   0.199   4.697
 5099SOL    HW116196   0.738   0.297   4.712
 5099SOL    HW216197   0.665   0.157   4.669
 5100SOL     OW16198   5.165   6.816   5.961
 5100SOL    HW116199   5.131   6.907   5.986
 5100SOL    HW216200   5.244   6.825   5.901
 5101SOL     OW16201   4.359   6.061   0.387
 5101SOL    HW116202   4.345   6.147   0.337
 5101SOL    HW216203   4.378   5.987   0.322
 5102SOL     OW16204   3.444   6.670   5.099
 5102SOL    HW116205   3.389   6.595   5.135
 5102SOL    HW216206   3.424   6.754   5.149
 5103SOL     OW16207   1.014   0.801   4.411
 5103SOL    HW116208   1.103   0.812   4.456
 5103SOL    HW216209   1.015   0.717   4.357
 5104SOL     OW16210   1.101   6.905   1.245
 5104SOL    HW116211   1.182   6.862   1.284
 5104SOL    HW216212   1.049   6.951   1.317
 5105SOL     OW16213   2.589   3.437   6.667
 5105SOL    HW116214   2.508   3.482   6.631
 5105SOL    HW216215   2.663   3.440   6.599
 5106SOL     OW16216   3.430   0.279   2.253
 5106SOL    HW116217   3.417   0.191   2.206
 5106SOL    HW216218   3.407   0.353   2.190
 5107SOL     OW16219   1.519   6.720   5.808
 5107SOL    HW116220   1.438   6.773   5.781
 5107SOL    HW216221   1.490   6.643   5.866
 5108SOL     OW16222   3.274   3.626   3.918
 5108SOL    HW116223   3.280   3.673   4.006
 5108SOL    HW216224   3.190   3.571   3.915
 5109SOL     OW16225   6.979   1.282   1.496
 5109SOL    HW116226   7.021   1.373   1.491
 5109SOL    HW216227   6.893   1.288   1.545
 5110SOL     OW16228   2.342   5.640   5.716
 5110SOL    HW116229   2.255   5.606   5.752
 5110SOL    HW216230   2.412   5.633   5.786
 5111SOL     OW16231   1.808   0.963   0.415
 5111SOL    HW116232   1.884   0.924   0.364
 5111SOL    HW216233   1.750   0.890   0.451
 5112SOL     OW16234   0.098   6.509   3.623
 5112SOL    HW116235   0.072   6.580   3.558
 5112SOL    HW216236   0.168   6.451   3.583
 5113SOL     OW16237   1.070   0.069   6.520
 5113SOL    HW116238   1.067   0.159   6.476
 5113SOL    HW216239   1.044   0.078   6.617
 5114SOL     OW16240   4.245   5.024   0.508
 5114SOL    HW116241   4.177   4.967   0.553
 5114SOL    HW216242   4.227   5.028   0.410
 5115SOL     OW16243   1.938   3.667   5.348
 5115SOL    HW116244   2.002   3.724   5.399
 5115SOL    HW216245   1.855   3.655   5.403
 5116SOL     OW16246   0.072   3.800   1.267
 5116SOL    HW116247   0.053   3.837   1.358
 5116SOL    HW216248   0.159   3.838   1.234
 5117SOL     OW16249   2.415   4.708   4.393
 5117SOL    HW116250   2.492   4.767   4.419
 5117SOL    HW216251   2.411   4.631   4.457
 5118SOL     OW16252   4.617   6.573   0.944
 5118SOL    HW116253   4.637   6.665   0.910
 5118SOL    HW216254   4.518   6.556   0.937
 5119SOL     OW16255   5.883   0.085   2.289
 5119SOL    HW116256   5.976   0.116   2.269
 5119SOL    HW216257   5.876   7.011   2.274
 5120SOL     OW16258   4.577   1.342   2.573
 5120SOL    HW116259   4.632   1.290   2.507
 5120SOL    HW216260   4.609   1.324   2.665
 5121SOL     OW16261   0.512   3.906   5.428
 5121SOL    HW116262   0.554   3.985   5.384
 5121SOL    HW216263   0.414   3.921   5.437
 5122SOL     OW16264   1.817   6.455   3.866
 5122SOL    HW116265   1.895   6.492   3.916
 5122SOL    HW216266   1.745   6.429   3.932
 5123SOL     OW16267   5.498   4.697   2.123
 5123SOL    HW116268   5.519   4.749   2.041
 5123SOL    HW216269   5.481   4.760   2.199
 5124SOL     OW16270   2.591   6.175   6.957
 5124SOL    HW116271   2.574   6.116   6.877
 5124SOL    HW216272   2.588   6.271   6.929
 5125SOL     OW16273   6.985   2.313   5.842
 5125SOL    HW116274   6.999   2.391   5.903
 5125SOL    HW216275   6.917   2.251   5.881
 5126SOL     OW16276   5.096   3.261   6.405
 5126SOL    HW116277   5.055   3.349   6.381
 5126SOL    HW216278   5.027   3.201   6.445
 5127SOL     OW16279   5.583   2.838   6.582
 5127SOL    HW116280   5.656   2.901   6.607
 5127SOL    HW216281   5.621   2.762   6.528
 5128SOL     OW16282   0.772   0.361   6.942
 5128SOL    HW116283   0.676   0.379   6.964
 5128SOL    HW216284   0.820   0.333   7.024
 5129SOL     OW16285   4.184   2.231   2.056
 5129SOL    HW116286   4.173   2.135   2.083
 5129SOL    HW216287   4.192   2.288   2.138
 5130SOL     OW16288   1.138   6.384   4.805
 5130SOL    HW116289   1.068   6.354   4.869
 5130SOL    HW216290   1.174   6.305   4.756
 5131SOL     OW16291   3.826   5.024   3.441
 5131SOL    HW116292   3.868   5.041   3.530
 5131SOL    HW216293   3.846   5.099   3.379
 5132SOL     OW16294   3.383   1.070   6.783
 5132SOL    HW116295   3.324   1.055   6.704
 5132SOL    HW216296   3.408   1.167   6.789
 5133SOL     OW16297   4.946   4.088   6.885
 5133SOL    HW116298   4.952   4.073   6.786
 5133SOL    HW216299   5.027   4.137   6.916
 5134SOL     OW16300   6.110   6.171   0.897
 5134SOL    HW116301   6.205   6.146   0.881
 5134SOL    HW216302   6.099   6.270   0.887
 5135SOL     OW16303   6.779   3.072   2.799
 5135SOL    HW116304   6.717   3.007   2.755
 5135SOL    HW216305   6.865   3.077   2.748
 5136SOL     OW16306   1.320   1.209   5.820
 5136SOL    HW116307   1.387   1.153   5.869
 5136SOL    HW216308   1.258   1.150   5.768
 5137SOL     OW16309   5.855   1.033   4.127
 5137SOL    HW116310   5.773   1.082   4.096
 5137SOL    HW216311   5.880   0.964   4.060
 5138SOL     OW16312   3.247   3.061   3.855
 5138SOL    HW116313   3.308   3.107   3.919
 5138SOL    HW216314   3.302   3.020   3.781
 5139SOL     OW16315   2.592   0.509   5.827
 5139SOL    HW116316   2.568   0.543   5.736
 5139SOL    HW216317   2.633   0.583   5.880
 5140SOL     OW16318   3.385   3.445   6.676
 5140SOL    HW116319   3.303   3.398   6.645
 5140SOL    HW216320   3.454   3.442   6.603
 5141SOL     OW16321   6.894   2.649   1.560
 5141SOL    HW116322   6.866   2.704   1.481
 5141SOL    HW216323   6.992   2.630   1.555
 5142SOL     OW16324   0.107   0.051   2.396
 5142SOL    HW116325   0.085   0.112   2.320
 5142SOL    HW216326   0.174   0.094   2.456
 5143SOL     OW16327   6.872   6.688   2.230
 5143SOL    HW116328   6.934   6.637   2.170
 5143SOL    HW216329   6.816   6.624   2.282
 5144SOL     OW16330   2.165   3.018   5.399
 5144SOL    HW116331   2.197   3.104   5.359
 5144SOL    HW216332   2.225   2.990   5.473
 5145SOL     OW16333   2.424   5.439   6.348
 5145SOL    HW116334   2.457   5.422   6.441
 5145SOL    HW216335   2.369   5.361   6.318
 5146SOL     OW16336   5.479   5.658   6.817
 5146SOL    HW116337   5.568   5.704   6.822
 5146SOL    HW216338   5.461   5.633   6.722
 5147SOL     OW16339   4.273   2.354   3.130
 5147SOL    HW116340   4.217   2.307   3.062
 5147SOL    HW216341   4.295   2.446   3.098
 5148SOL     OW16342   0.523   0.417   6.472
 5148SOL    HW116343   0.622   0.403   6.477
 5148SOL    HW216344   0.477   0.332   6.497
 5149SOL     OW16345   4.615   4.984   4.353
 5149SOL    HW116346   4.652   4.910   4.409
 5149SOL    HW216347   4.555   4.946   4.283
 5150SOL     OW16348   6.620   6.631   3.862
 5150SOL    HW116349   6.530   6.590   3.850
 5150SOL    HW216350   6.666   6.639   3.774
 5151SOL     OW16351   6.006   6.099   2.165
 5151SOL    HW116352   6.003   6.073   2.262
 5151SOL    HW216353   5.968   6.024   2.110
 5152SOL     OW16354   1.771   1.483   6.932
 5152SOL    HW116355   1.757   1.424   7.012
 5152SOL    HW216356   1.838   1.441   6.871
 5153SOL     OW16357   1.072   2.062   0.894
 5153SOL    HW116358   1.151   2.119   0.917
 5153SOL    HW216359   0.989   2.105   0.928
 5154SOL     OW16360   6.658   3.005   1.176
 5154SOL    HW116361   6.624   2.920   1.216
 5154SOL    HW216362   6.748   2.989   1.135
 5155SOL     OW16363   1.366   1.690   6.755
 5155SOL    HW116364   1.327   1.601   6.775
 5155SOL    HW216365   1.453   1.678   6.707
 5156SOL     OW16366   5.742   6.185   5.248
 5156SOL    HW116367   5.673   6.185   5.320
 5156SOL    HW216368   5.783   6.094   5.240
 5157SOL     OW16369   3.493   7.008   1.613
 5157SOL    HW116370   3.479   6.929   1.554
 5157SOL    HW216371   3.421   7.011   1.682
 5158SOL     OW16372   1.521   2.195   1.680
 5158SOL    HW116373   1.459   2.271   1.701
 5158SOL    HW216374   1.608   2.231   1.648
 5159SOL     OW16375   6.448   3.189   5.794
 5159SOL    HW116376   6.461   3.170   5.891
 5159SOL    HW216377   6.356   3.224   5.779
 5160SOL     OW16378   6.473   6.977   3.587
 5160SOL    HW116379   6.520   0.037   3.612
 5160SOL    HW216380   6.380   6.978   3.624
 5161SOL     OW16381   1.702   3.259   0.516
 5161SOL    HW116382   1.683   3.162   0.500
 5161SOL    HW216383   1.631   3.298   0.574
 5162SOL     OW16384   6.611   0.265   3.925
 5162SOL    HW116385   6.523   0.301   3.895
 5162SOL    HW216386   6.629   0.178   3.879
 5163SOL     OW16387   3.292   0.469   2.104
 5163SOL    HW116388   3.200   0.439   2.078
 5163SOL    HW216389   3.299   0.568   2.092
 5164SOL     OW16390   2.850   3.482   6.914
 5164SOL    HW116391   2.759   3.505   6.947
 5164SOL    HW216392   2.843   3.448   6.820
 5165SOL     OW16393   1.903   3.926   6.336
 5165SOL    HW116394   1.826   3.967   6.385
 5165SOL    HW216395   1.933   3.988   6.264
 5166SOL     OW16396   0.726   4.735   0.857
 5166SOL    HW116397   0.778   4.819   0.839
 5166SOL    HW216398   0.758   4.663   0.796
 5167SOL     OW16399   5.679   3.553   5.421
 5167SOL    HW116400   5.652   3.507   5.337
 5167SOL    HW216401   5.598   3.570   5.478
 5168SOL     OW16402   4.502   2.109   2.868
 5168SOL    HW116403   4.464   2.185   2.815
 5168SOL    HW216404   4.479   2.023   2.824
 5169SOL     OW16405   4.116   5.819   4.598
 5169SOL    HW116406   4.092   5.765   4.518
 5169SOL    HW216407   4.119   5.916   4.574
 5170SOL     OW16408   1.781   3.197   6.615
 5170SOL    HW116409   1.768   3.199   6.714
 5170SOL    HW216410   1.800   3.290   6.583
 5171SOL     OW16411   2.319   5.845   6.064
 5171SOL    HW116412   2.240   5.851   6.003
 5171SOL    HW216413   2.401   5.871   6.014
 5172SOL     OW16414   6.176   5.511   5.045
 5172SOL    HW116415   6.202   5.569   5.123
 5172SOL    HW216416   6.088   5.468   5.065
 5173SOL     OW16417   4.243   4.993   5.980
 5173SOL    HW116418   4.309   4.970   5.909
 5173SOL    HW216419   4.160   5.030   5.937
 5174SOL     OW16420   2.469   6.407   4.091
 5174SOL    HW116421   2.440   6.358   4.174
 5174SOL    HW216422   2.436   6.501   4.094
 5175SOL     OW16423   2.784   3.214   0.003
 5175SOL    HW116424   2.733   3.294   0.033
 5175SOL    HW216425   2.879   3.241   7.010
 5176SOL     OW16426   5.966   6.202   6.821
 5176SOL    HW116427   6.045   6.207   6.761
 5176SOL    HW216428   5.931   6.294   6.839
 5177SOL     OW16429   6.353   6.957   0.512
 5177SOL    HW116430   6.318   6.969   0.605
 5177SOL    HW216431   6.279   6.969   0.446
 5178SOL     OW16432   0.993   4.143   1.394
 5178SOL    HW116433   1.054   4.189   1.459
 5178SOL    HW216434   0.924   4.208   1.361
 5179SOL     OW16435   4.927   5.870   3.006
 5179SOL    HW116436   5.004   5.826   3.053
 5179SOL    HW216437   4.898   5.951   3.057
 5180SOL     OW16438   2.054   5.796   2.781
 5180SOL    HW116439   2.024   5.891   2.784
 5180SOL    HW216440   2.061   5.760   2.874
 5181SOL     OW16441   6.909   0.076   5.931
 5181SOL    HW116442   6.971   0.077   6.010
 5181SOL    HW216443   6.816   0.094   5.961
 5182SOL     OW16444   2.484   6.429   3.332
 5182SOL    HW116445   2.510   6.365   3.405
 5182SOL    HW216446   2.467   6.379   3.248
 5183SOL     OW16447   4.302   2.038   3.617
 5183SOL    HW116448   4.271   2.004   3.528
 5183SOL    HW216449   4.230   2.096   3.657
 5184SOL     OW16450   2.620   1.309   3.328
 5184SOL    HW116451   2.560   1.384   3.354
 5184SOL    HW216452   2.708   1.345   3.299
 5185SOL     OW16453   6.405   0.693   1.798
 5185SOL    HW116454   6.436   0.623   1.861
 5185SOL    HW216455   6.471   0.703   1.723
 5186SOL     OW16456   6.810   3.726   6.598
 5186SOL    HW116457   6.892   3.704   6.546
 5186SOL    HW216458   6.794   3.825   6.594
 5187SOL     OW16459   1.260   4.575   5.254
 5187SOL    HW116460   1.250   4.475   5.248
 5187SOL    HW216461   1.356   4.598   5.268
 5188SOL     OW16462   5.758   6.996   2.660
 5188SOL    HW116463   5.715   6.912   2.629
 5188SOL    HW216464   5.829   6.974   2.727
 5189SOL     OW16465   5.355   0.195   6.257
 5189SOL    HW116466   5.343   0.099   6.281
 5189SOL    HW216467   5.452   0.219   6.262
 5190SOL     OW16468   2.015   4.562   0.347
 5190SOL    HW116469   2.075   4.628   0.300
 5190SOL    HW216470   2.023   4.575   0.446
 5191SOL     OW16471   2.825   4.597   1.578
 5191SOL    HW116472   2.852   4.557   1.666
 5191SOL    HW216473   2.896   4.660   1.546
 5192SOL     OW16474   1.419   4.663   2.356
 5192SOL    HW116475   1.515   4.689   2.353
 5192SOL    HW216476   1.362   4.746   2.349
 5193SOL     OW16477   5.704   0.812   5.440
 5193SOL    HW116478   5.726   0.908   5.424
 5193SOL    HW216479   5.723   0.788   5.535
 5194SOL     OW16480   4.909   1.163   5.909
 5194SOL    HW116481   5.001   1.135   5.937
 5194SOL    HW216482   4.881   1.112   5.828
 5195SOL     OW16483   0.702   0.620   5.026
 5195SOL    HW116484   0.628   0.643   4.962
 5195SOL    HW216485   0.765   0.697   5.032
 5196SOL     OW16486   6.258   6.655   3.599
 5196SOL    HW116487   6.318   6.636   3.677
 5196SOL    HW216488   6.181   6.590   3.602
 5197SOL     OW16489   1.003   2.852   4.659
 5197SOL    HW116490   0.946   2.930   4.685
 5197SOL    HW216491   0.965   2.769   4.700
 5198SOL     OW16492   5.692   5.166   3.727
 5198SOL    HW116493   5.734   5.075   3.723
 5198SOL    HW216494   5.759   5.235   3.699
 5199SOL     OW16495   0.533   4.727   1.745
 5199SOL    HW116496   0.466   4.761   1.679
 5199SOL    HW216497   0.497   4.645   1.789
 5200SOL     OW16498   0.180   3.673   4.688
 5200SOL    HW116499   0.221   3.586   4.712
 5200SOL    HW216500   0.095   3.658   4.638
 5201SOL     OW16501   0.660   5.278   4.342
 5201SOL    HW116502   0.567   5.311   4.355
 5201SOL    HW216503   0.692   5.303   4.251
 5202SOL     OW16504   1.042   4.747   1.878
 5202SOL    HW116505   0.976   4.676   1.904
 5202SOL    HW216506   1.007   4.836   1.907
 5203SOL     OW16507   0.509   3.012   0.161
 5203SOL    HW116508   0.523   2.964   0.074
 5203SOL    HW216509   0.543   2.956   0.236
 5204SOL     OW16510   4.685   4.108   6.983
 5204SOL    HW116511   4.775   4.108   6.940
 5204SOL    HW216512   4.618   4.069   6.921
 5205SOL     OW16513   1.711   0.101   1.144
 5205SOL    HW116514   1.652   0.022   1.157
 5205SOL    HW216515   1.710   0.128   1.048
 5206SOL     OW16516   0.104   4.138   4.692
 5206SOL    HW116517   0.152   4.059   4.654
 5206SOL    HW216518   0.091   4.207   4.621
 5207SOL     OW16519   1.701   4.586   4.199
 5207SOL    HW116520   1.713   4.563   4.296
 5207SOL    HW216521   1.629   4.528   4.160
 5208SOL     OW16522   4.315   1.287   0.137
 5208SOL    HW116523   4.282   1.381   0.128
 5208SOL    HW216524   4.404   1.279   0.093
 5209SOL     OW16525   5.573   5.939   2.923
 5209SOL    HW116526   5.480   5.957   2.893
 5209SOL    HW216527   5.627   6.024   2.918
 5210SOL     OW16528   4.392   4.709   3.159
 5210SOL    HW116529   4.469   4.763   3.193
 5210SOL    HW216530   4.426   4.638   3.097
 5211SOL     OW16531   3.799   3.539   2.462
 5211SOL    HW116532   3.699   3.529   2.465
 5211SOL    HW216533   3.825   3.618   2.517
 5212SOL     OW16534   0.993   1.635   0.357
 5212SOL    HW116535   1.014   1.728   0.327
 5212SOL    HW216536   1.030   1.570   0.290
 5213SOL     OW16537   4.156   2.432   6.668
 5213SOL    HW116538   4.172   2.498   6.594
 5213SOL    HW216539   4.210   2.350   6.651
 5214SOL     OW16540   5.601   1.938   6.419
 5214SOL    HW116541   5.640   1.854   6.455
 5214SOL    HW216542   5.526   1.916   6.356
 5215SOL     OW16543   5.389   5.284   2.434
 5215SOL    HW116544   5.467   5.346   2.438
 5215SOL    HW216545   5.318   5.317   2.497
 5216SOL     OW16546   4.571   5.547   1.064
 5216SOL    HW116547   4.556   5.508   1.155
 5216SOL    HW216548   4.614   5.637   1.072
 5217SOL     OW16549   3.214   4.919   3.692
 5217SOL    HW116550   3.233   4.912   3.594
 5217SOL    HW216551   3.141   4.856   3.716
 5218SOL     OW16552   1.657   0.056   4.439
 5218SOL    HW116553   1.719   0.122   4.483
 5218SOL    HW216554   1.699   6.990   4.440
 5219SOL     OW16555   2.498   5.597   0.606
 5219SOL    HW116556   2.504   5.498   0.610
 5219SOL    HW216557   2.402   5.624   0.591
 5220SOL     OW16558   0.599   6.715   2.793
 5220SOL    HW116559   0.673   6.699   2.727
 5220SOL    HW216560   0.562   6.627   2.822
 5221SOL     OW16561   5.338   1.574   4.846
 5221SOL    HW116562   5.383   1.625   4.772
 5221SOL    HW216563   5.238   1.585   4.836
 5222SOL     OW16564   1.306   7.010   2.470
 5222SOL    HW116565   1.400   7.013   2.505
 5222SOL    HW216566   1.265   6.922   2.495
 5223SOL     OW16567   5.116   6.960   1.120
 5223SOL    HW116568   5.205   6.915   1.110
 5223SOL    HW216569   5.067   6.920   1.197
 5224SOL     OW16570   5.675   1.804   2.926
 5224SOL    HW116571   5.690   1.831   2.831
 5224SOL    HW216572   5.726   1.865   2.987
 5225SOL     OW16573   5.171   6.127   5.165
 5225SOL    HW116574   5.072   6.129   5.156
 5225SOL    HW216575   5.198   6.177   5.248
 5226SOL     OW16576   1.358   6.296   4.095
 5226SOL    HW116577   1.298   6.351   4.154
 5226SOL    HW216578   1.381   6.349   4.013
 5227SOL     OW16579   6.220   4.700   2.825
 5227SOL    HW116580   6.269   4.787   2.828
 5227SOL    HW216581   6.263   4.635   2.888
 5228SOL     OW16582   5.835   0.752   1.096
 5228SOL    HW116583   5.870   0.784   1.184
 5228SOL    HW216584   5.886   0.671   1.067
 5229SOL     OW16585   1.273   4.575   4.914
 5229SOL    HW116586   1.311   4.504   4.972
 5229SOL    HW216587   1.173   4.574   4.922
 5230SOL     OW16588   1.378   6.069   6.923
 5230SOL    HW116589   1.409   5.993   6.981
 5230SOL    HW216590   1.457   6.115   6.884
 5231SOL     OW16591   3.692   3.181   4.075
 5231SOL    HW116592   3.767   3.119   4.095
 5231SOL    HW216593   3.699   3.213   3.980
 5232SOL     OW16594   4.604   2.801   5.896
 5232SOL    HW116595   4.626   2.815   5.992
 5232SOL    HW216596   4.677   2.838   5.838
 5233SOL     OW16597   0.632   0.586   2.621
 5233SOL    HW116598   0.718   0.536   2.626
 5233SOL    HW216599   0.612   0.609   2.526
 5234SOL     OW16600   3.820   6.211   1.215
 5234SOL    HW116601   3.917   6.198   1.197
 5234SOL    HW216602   3.787   6.139   1.276
 5235SOL     OW16603   0.868   3.543   1.440
 5235SOL    HW116604   0.925   3.494   1.374
 5235SOL    HW216605   0.785   3.489   1.458
 5236SOL     OW16606   5.087   3.135   0.844
 5236SOL    HW116607   5.136   3.052   0.873
 5236SOL    HW216608   4.988   3.117   0.846
 5237SOL     OW16609   2.419   1.746   4.692
 5237SOL    HW116610   2.366   1.825   4.723
 5237SOL    HW216611   2.513   1.753   4.725
 5238SOL     OW16612   1.604   4.262   1.231
 5238SOL    HW116613   1.515   4.247   1.274
 5238SOL    HW216614   1.676   4.222   1.288
 5239SOL     OW16615   2.868   3.601   4.863
 5239SOL    HW116616   2.900   3.654   4.784
 5239SOL    HW216617   2.837   3.511   4.832
 5240SOL     OW16618   3.321   2.068   4.965
 5240SOL    HW116619   3.264   2.134   5.014
 5240SOL    HW216620   3.287   1.976   4.983
 5241SOL     OW16621   2.253   5.539   6.027
 5241SOL    HW116622   2.194   5.544   5.947
 5241SOL    HW216623   2.329   5.603   6.016
 5242SOL     OW16624   5.203   1.378   5.944
 5242SOL    HW116625   5.287   1.353   5.993
 5242SOL    HW216626   5.166   1.462   5.982
 5243SOL     OW16627   0.970   4.559   1.012
 5243SOL    HW116628   1.001   4.570   0.917
 5243SOL    HW216629   0.870   4.555   1.014
 5244SOL     OW16630   5.377   3.767   6.734
 5244SOL    HW116631   5.340   3.851   6.693
 5244SOL    HW216632   5.445   3.790   6.803
 5245SOL     OW16633   5.114   3.944   6.519
 5245SOL    HW116634   5.156   3.998   6.592
 5245SOL    HW216635   5.087   4.005   6.445
 5246SOL     OW16636   0.914   3.318   2.681
 5246SOL    HW116637   0.949   3.344   2.772
 5246SOL    HW216638   0.986   3.332   2.613
 5247SOL     OW16639   0.767   4.946   1.456
 5247SOL    HW116640   0.745   4.961   1.552
 5247SOL    HW216641   0.835   5.013   1.426
 5248SOL     OW16642   4.594   0.945   6.585
 5248SOL    HW116643   4.539   0.875   6.631
 5248SOL    HW216644   4.544   0.982   6.507
 5249SOL     OW16645   1.297   5.447   5.405
 5249SOL    HW116646   1.375   5.390   5.431
 5249SOL    HW216647   1.213   5.408   5.442
 5250SOL     OW16648   0.449   1.184   6.003
 5250SOL    HW116649   0.363   1.226   6.032
 5250SOL    HW216650   0.525   1.244   6.029
 5251SOL     OW16651   6.874   2.795   1.325
 5251SOL    HW116652   6.924   2.879   1.346
 5251SOL    HW216653   6.891   2.769   1.230
 5252SOL     OW16654   4.005   6.083   0.381
 5252SOL    HW116655   4.070   6.055   0.452
 5252SOL    HW216656   4.031   6.042   0.294
 5253SOL     OW16657   5.579   3.006   3.791
 5253SOL    HW116658   5.672   3.009   3.827
 5253SOL    HW216659   5.545   3.099   3.776
 5254SOL     OW16660   4.484   1.190   3.851
 5254SOL    HW116661   4.462   1.095   3.831
 5254SOL    HW216662   4.547   1.225   3.781
 5255SOL     OW16663   3.234   6.699   4.785
 5255SOL    HW116664   3.273   6.717   4.695
 5255SOL    HW216665   3.260   6.772   4.848
 5256SOL     OW16666   6.039   6.505   3.600
 5256SOL    HW116667   5.995   6.477   3.515
 5256SOL    HW216668   5.977   6.565   3.651
 5257SOL     OW16669   3.286   1.256   1.684
 5257SOL    HW116670   3.275   1.306   1.769
 5257SOL    HW216671   3.354   1.183   1.696
 5258SOL     OW16672   6.230   2.220   1.869
 5258SOL    HW116673   6.217   2.307   1.821
 5258SOL    HW216674   6.323   2.187   1.853
 5259SOL     OW16675   5.155   4.798   2.755
 5259SOL    HW116676   5.103   4.756   2.829
 5259SOL    HW216677   5.098   4.806   2.674
 5260SOL     OW16678   5.279   3.213   1.244
 5260SOL    HW116679   5.251   3.284   1.310
 5260SOL    HW216680   5.249   3.124   1.278
 5261SOL     OW16681   1.760   2.286   4.658
 5261SOL    HW116682   1.832   2.238   4.708
 5261SOL    HW216683   1.773   2.385   4.668
 5262SOL     OW16684   2.691   6.996   2.047
 5262SOL    HW116685   2.710   6.921   1.984
 5262SOL    HW216686   2.595   6.994   2.074
 5263SOL     OW16687   0.792   6.369   0.655
 5263SOL    HW116688   0.715   6.414   0.609
 5263SOL    HW216689   0.798   6.400   0.750
 5264SOL     OW16690   0.652   2.704   0.568
 5264SOL    HW116691   0.612   2.617   0.542
 5264SOL    HW216692   0.724   2.689   0.636
 5265SOL     OW16693   4.749   4.952   2.131
 5265SOL    HW116694   4.754   4.855   2.107
 5265SOL    HW216695   4.712   5.003   2.054
 5266SOL     OW16696   2.095   6.916   0.892
 5266SOL    HW116697   1.997   6.917   0.872
 5266SOL    HW216698   2.124   6.821   0.907
 5267SOL     OW16699   5.190   4.696   4.674
 5267SOL    HW116700   5.142   4.769   4.625
 5267SOL    HW216701   5.284   4.690   4.640
 5268SOL     OW16702   5.997   4.546   4.275
 5268SOL    HW116703   5.944   4.630   4.283
 5268SOL    HW216704   6.060   4.553   4.199
 5269SOL     OW16705   1.427   5.454   4.543
 5269SOL    HW116706   1.436   5.354   4.541
 5269SOL    HW216707   1.401   5.487   4.452
 5270SOL     OW16708   6.306   3.026   2.585
 5270SOL    HW116709   6.229   3.082   2.614
 5270SOL    HW216710   6.306   3.017   2.486
 5271SOL     OW16711   4.768   4.829   4.963
 5271SOL    HW116712   4.866   4.838   4.983
 5271SOL    HW216713   4.735   4.913   4.920
 5272SOL     OW16714   1.426   1.105   4.407
 5272SOL    HW116715   1.397   1.164   4.483
 5272SOL    HW216716   1.366   1.120   4.329
 5273SOL     OW16717   0.543   0.920   4.082
 5273SOL    HW116718   0.557   1.010   4.123
 5273SOL    HW216719   0.556   0.925   3.983
 5274SOL     OW16720   6.381   5.335   3.792
 5274SOL    HW116721   6.306   5.385   3.837
 5274SOL    HW216722   6.342   5.260   3.738
 5275SOL     OW16723   2.444   6.989   6.917
 5275SOL    HW116724   2.349   6.989   6.950
 5275SOL    HW216725   2.459   6.908   6.861
 5276SOL     OW16726   0.249   6.588   1.024
 5276SOL    HW116727   0.227   6.633   0.937
 5276SOL    HW216728   0.288   6.656   1.086
 5277SOL     OW16729   1.034   1.873   2.742
 5277SOL    HW116730   0.987   1.787   2.760
 5277SOL    HW216731   0.991   1.946   2.796
 5278SOL     OW16732   1.279   4.906   6.088
 5278SOL    HW116733   1.346   4.932   6.158
 5278SOL    HW216734   1.278   4.807   6.077
 5279SOL     OW16735   2.312   6.115   6.461
 5279SOL    HW116736   2.345   6.202   6.424
 5279SOL    HW216737   2.297   6.124   6.559
 5280SOL     OW16738   4.140   6.430   4.994
 5280SOL    HW116739   4.226   6.414   5.042
 5280SOL    HW216740   4.112   6.347   4.946
 5281SOL     OW16741   2.894   0.641   4.926
 5281SOL    HW116742   2.877   0.685   4.838
 5281SOL    HW216743   2.835   0.682   4.996
 5282SOL     OW16744   1.354   6.869   1.636
 5282SOL    HW116745   1.336   6.922   1.718
 5282SOL    HW216746   1.433   6.907   1.588
 5283SOL     OW16747   0.942   0.951   4.622
 5283SOL    HW116748   1.007   0.909   4.559
 5283SOL    HW216749   0.992   1.006   4.689
 5284SOL     OW16750   4.172   2.610   1.375
 5284SOL    HW116751   4.104   2.603   1.448
 5284SOL    HW216752   4.263   2.597   1.414
 5285SOL     OW16753   1.544   2.023   4.283
 5285SOL    HW116754   1.512   1.952   4.221
 5285SOL    HW216755   1.628   2.064   4.247
 5286SOL     OW16756   6.080   3.778   0.722
 5286SOL    HW116757   6.092   3.739   0.630
 5286SOL    HW216758   6.125   3.867   0.726
 5287SOL     OW16759   2.747   5.468   1.541
 5287SOL    HW116760   2.820   5.437   1.602
 5287SOL    HW216761   2.773   5.451   1.446
 5288SOL     OW16762   3.978   0.845   2.157
 5288SOL    HW116763   3.975   0.815   2.062
 5288SOL    HW216764   4.023   0.934   2.163
 5289SOL     OW16765   2.244   4.833   6.739
 5289SOL    HW116766   2.249   4.772   6.659
 5289SOL    HW216767   2.156   4.880   6.739
 5290SOL     OW16768   1.542   2.693   5.097
 5290SOL    HW116769   1.575   2.599   5.108
 5290SOL    HW216770   1.605   2.756   5.142
 5291SOL     OW16771   2.963   4.836   4.339
 5291SOL    HW116772   2.954   4.934   4.323
 5291SOL    HW216773   2.913   4.786   4.269
 5292SOL     OW16774   7.024   3.817   6.099
 5292SOL    HW116775   6.941   3.872   6.104
 5292SOL    HW216776   0.061   3.843   6.174
 5293SOL     OW16777   2.438   6.259   4.309
 5293SOL    HW116778   2.492   6.295   4.385
 5293SOL    HW216779   2.461   6.162   4.295
 5294SOL     OW16780   3.868   0.726   5.281
 5294SOL    HW116781   3.787   0.776   5.311
 5294SOL    HW216782   3.950   0.770   5.318
 5295SOL     OW16783   2.602   1.767   2.602
 5295SOL    HW116784   2.524   1.830   2.608
 5295SOL    HW216785   2.658   1.791   2.523
 5296SOL     OW16786   4.888   5.067   1.521
 5296SOL    HW116787   4.913   5.035   1.612
 5296SOL    HW216788   4.869   5.165   1.524
 5297SOL     OW16789   2.675   5.013   0.541
 5297SOL    HW116790   2.765   4.977   0.517
 5297SOL    HW216791   2.661   5.100   0.492
 5298SOL     OW16792   2.325   0.496   0.577
 5298SOL    HW116793   2.353   0.517   0.483
 5298SOL    HW216794   2.388   0.428   0.615
 5299SOL     OW16795   2.953   1.626   0.638
 5299SOL    HW116796   3.000   1.616   0.550
 5299SOL    HW216797   3.022   1.634   0.710
 5300SOL     OW16798   2.336   4.502   0.117
 5300SOL    HW116799   2.303   4.411   0.141
 5300SOL    HW216800   2.284   4.537   0.040
 5301SOL     OW16801   5.529   0.430   5.705
 5301SOL    HW116802   5.475   0.502   5.662
 5301SOL    HW216803   5.468   0.367   5.753
 5302SOL     OW16804   5.555   6.077   3.204
 5302SOL    HW116805   5.541   6.053   3.300
 5302SOL    HW216806   5.537   5.997   3.147
 5303SOL     OW16807   0.405   4.970   6.079
 5303SOL    HW116808   0.460   5.022   6.013
 5303SOL    HW216809   0.447   4.977   6.169
 5304SOL     OW16810   6.759   0.465   1.346
 5304SOL    HW116811   6.761   0.564   1.329
 5304SOL    HW216812   6.701   0.446   1.424
 5305SOL     OW16813   1.676   5.173   3.270
 5305SOL    HW116814   1.595   5.194   3.214
 5305SOL    HW216815   1.749   5.138   3.211
 5306SOL     OW16816   6.993   3.606   5.674
 5306SOL    HW116817   6.902   3.631   5.707
 5306SOL    HW216818   6.990   3.517   5.629
 5307SOL     OW16819   6.153   1.919   1.828
 5307SOL    HW116820   6.173   2.016   1.847
 5307SOL    HW216821   6.107   1.912   1.740
 5308SOL     OW16822   1.448   4.235   2.950
 5308SOL    HW116823   1.406   4.186   3.026
 5308SOL    HW216824   1.399   4.321   2.935
 5309SOL     OW16825   5.885   6.339   2.686
 5309SOL    HW116826   5.852   6.299   2.600
 5309SOL    HW216827   5.903   6.436   2.674
 5310SOL     OW16828   6.015   3.081   2.580
 5310SOL    HW116829   6.069   3.005   2.546
 5310SOL    HW216830   5.918   3.056   2.579
 5311SOL     OW16831   6.026   0.170   0.426
 5311SOL    HW116832   6.121   0.179   0.396
 5311SOL    HW216833   6.002   0.073   0.434
 5312SOL     OW16834   6.793   6.234   0.685
 5312SOL    HW116835   6.705   6.271   0.656
 5312SOL    HW216836   6.783   6.188   0.773
 5313SOL     OW16837   0.477   4.899   5.559
 5313SOL    HW116838   0.434   4.938   5.477
 5313SOL    HW216839   0.464   4.962   5.636
 5314SOL     OW16840   6.725   0.991   1.597
 5314SOL    HW116841   6.629   0.980   1.572
 5314SOL    HW216842   6.743   1.087   1.619
 5315SOL     OW16843   4.354   1.598   3.821
 5315SOL    HW116844   4.308   1.683   3.847
 5315SOL    HW216845   4.451   1.604   3.846
 5316SOL     OW16846   0.343   2.629   4.937
 5316SOL    HW116847   0.379   2.539   4.914
 5316SOL    HW216848   0.414   2.699   4.923
 5317SOL     OW16849   6.931   1.719   6.374
 5317SOL    HW116850   7.000   1.652   6.348
 5317SOL    HW216851   6.870   1.680   6.443
 5318SOL     OW16852   6.415   3.084   6.779
 5318SOL    HW116853   6.412   3.061   6.876
 5318SOL    HW216854   6.323   3.109   6.748
 5319SOL     OW16855   4.400   6.579   1.386
 5319SOL    HW116856   4.385   6.515   1.311
 5319SOL    HW216857   4.323   6.573   1.451
 5320SOL     OW16858   3.353   6.029   1.021
 5320SOL    HW116859   3.280   6.085   1.059
 5320SOL    HW216860   3.424   6.016   1.089
 5321SOL     OW16861   1.620   3.877   4.855
 5321SOL    HW116862   1.719   3.891   4.857
 5321SOL    HW216863   1.588   3.880   4.760
 5322SOL     OW16864   5.438   6.790   1.951
 5322SOL    HW116865   5.467   6.847   2.028
 5322SOL    HW216866   5.394   6.707   1.986
 5323SOL     OW16867   4.331   1.533   5.359
 5323SOL    HW116868   4.316   1.501   5.452
 5323SOL    HW216869   4.322   1.633   5.357
 5324SOL     OW16870   2.119   1.582   0.465
 5324SOL    HW116871   2.181   1.559   0.390
 5324SOL    HW216872   2.038   1.524   0.460
 5325SOL     OW16873   2.569   2.042   4.896
 5325SOL    HW116874   2.533   2.086   4.978
 5325SOL    HW216875   2.494   2.018   4.835
 5326SOL     OW16876   6.048   6.754   2.512
 5326SOL    HW116877   6.092   6.815   2.578
 5326SOL    HW216878   6.119   6.700   2.465
 5327SOL     OW16879   5.800   2.569   5.347
 5327SOL    HW116880   5.798   2.574   5.447
 5327SOL    HW216881   5.748   2.645   5.308
 5328SOL     OW16882   4.158   4.472   6.913
 5328SOL    HW116883   4.180   4.569   6.904
 5328SOL    HW216884   4.102   4.443   6.836
 5329SOL     OW16885   1.393   6.615   6.491
 5329SOL    HW116886   1.346   6.699   6.520
 5329SOL    HW216887   1.481   6.639   6.450
 5330SOL     OW16888   2.307   3.764   0.624
 5330SOL    HW116889   2.304   3.811   0.712
 5330SOL    HW216890   2.347   3.673   0.635
 5331SOL     OW16891   6.414   0.904   6.809
 5331SOL    HW116892   6.481   0.834   6.833
 5331SOL    HW216893   6.323   0.863   6.803
 5332SOL     OW16894   1.260   4.917   2.324
 5332SOL    HW116895   1.193   4.883   2.390
 5332SOL    HW216896   1.212   4.949   2.242
 5333SOL     OW16897   0.792   6.311   3.953
 5333SOL    HW116898   0.774   6.268   4.041
 5333SOL    HW216899   0.883   6.353   3.954
 5334SOL     OW16900   2.930   0.338   4.301
 5334SOL    HW116901   2.904   0.424   4.258
 5334SOL    HW216902   2.908   0.342   4.399
 5335SOL     OW16903   6.707   5.611   0.758
 5335SOL    HW116904   6.626   5.606   0.699
 5335SOL    HW216905   6.771   5.539   0.732
 5336SOL     OW16906   1.670   4.014   2.515
 5336SOL    HW116907   1.615   4.065   2.581
 5336SOL    HW216908   1.744   3.967   2.564
 5337SOL     OW16909   4.443   4.769   1.061
 5337SOL    HW116910   4.450   4.673   1.086
 5337SOL    HW216911   4.529   4.798   1.018
 5338SOL     OW16912   6.510   2.093   6.331
 5338SOL    HW116913   6.584   2.130   6.388
 5338SOL    HW216914   6.490   2.157   6.257
 5339SOL     OW16915   6.611   2.270   3.604
 5339SOL    HW116916   6.681   2.206   3.571
 5339SOL    HW216917   6.587   2.247   3.698
 5340SOL     OW16918   5.289   2.454   6.773
 5340SOL    HW116919   5.300   2.483   6.678
 5340SOL    HW216920   5.207   2.396   6.780
 5341SOL     OW16921   4.761   0.297   6.885
 5341SOL    HW116922   4.787   0.280   6.980
 5341SOL    HW216923   4.773   0.213   6.832
 5342SOL     OW16924   3.802   1.028   5.779
 5342SOL    HW116925   3.842   1.059   5.693
 5342SOL    HW216926   3.703   1.046   5.779
 5343SOL     OW16927   4.063   3.771   2.375
 5343SOL    HW116928   4.147   3.825   2.385
 5343SOL    HW216929   4.006   3.784   2.456
 5344SOL     OW16930   2.017   2.572   2.940
 5344SOL    HW116931   1.964   2.490   2.922
 5344SOL    HW216932   2.099   2.547   2.993
 5345SOL     OW16933   4.455   6.964   1.453
 5345SOL    HW116934   4.498   6.958   1.363
 5345SOL    HW216935   4.356   6.955   1.443
 5346SOL     OW16936   3.197   6.578   3.091
 5346SOL    HW116937   3.276   6.595   3.033
 5346SOL    HW216938   3.162   6.665   3.127
 5347SOL     OW16939   6.860   1.941   1.042
 5347SOL    HW116940   6.909   2.008   1.097
 5347SOL    HW216941   6.770   1.923   1.084
 5348SOL     OW16942   0.996   0.850   6.856
 5348SOL    HW116943   0.970   0.884   6.946
 5348SOL    HW216944   1.022   0.754   6.862
 5349SOL     OW16945   6.747   0.745   1.320
 5349SOL    HW116946   6.781   0.727   1.228
 5349SOL    HW216947   6.699   0.833   1.321
 5350SOL     OW16948   2.353   1.504   6.619
 5350SOL    HW116949   2.264   1.544   6.643
 5350SOL    HW216950   2.426   1.554   6.666
 5351SOL     OW16951   4.599   6.867   1.648
 5351SOL    HW116952   4.537   6.914   1.586
 5351SOL    HW216953   4.694   6.885   1.621
 5352SOL     OW16954   3.424   5.585   3.753
 5352SOL    HW116955   3.433   5.641   3.670
 5352SOL    HW216956   3.440   5.489   3.730
 5353SOL     OW16957   5.792   5.695   5.416
 5353SOL    HW116958   5.740   5.778   5.395
 5353SOL    HW216959   5.796   5.683   5.515
 5354SOL     OW16960   1.084   3.900   1.486
 5354SOL    HW116961   1.025   3.973   1.451
 5354SOL    HW216962   1.067   3.888   1.584
 5355SOL     OW16963   4.534   2.096   4.419
 5355SOL    HW116964   4.519   2.171   4.355
 5355SOL    HW216965   4.631   2.069   4.415
 5356SOL     OW16966   6.275   3.871   1.376
 5356SOL    HW116967   6.307   3.866   1.281
 5356SOL    HW216968   6.306   3.790   1.426
 5357SOL     OW16969   4.123   0.108   0.001
 5357SOL    HW116970   4.121   0.011   0.021
 5357SOL    HW216971   4.040   0.134   6.976
 5358SOL     OW16972   5.065   3.157   0.581
 5358SOL    HW116973   5.084   3.150   0.678
 5358SOL    HW216974   5.062   3.066   0.540
 5359SOL     OW16975   2.151   1.206   0.077
 5359SOL    HW116976   2.209   1.275   0.035
 5359SOL    HW216977   2.065   1.197   0.026
 5360SOL     OW16978   3.709   6.706   6.536
 5360SOL    HW116979   3.665   6.669   6.454
 5360SOL    HW216980   3.696   6.805   6.539
 5361SOL     OW16981   1.688   0.817   5.716
 5361SOL    HW116982   1.653   0.868   5.637
 5361SOL    HW216983   1.761   0.755   5.686
 5362SOL     OW16984   5.077   5.081   2.925
 5362SOL    HW116985   5.083   4.985   2.951
 5362SOL    HW216986   5.054   5.088   2.828
 5363SOL     OW16987   0.536   4.933   6.321
 5363SOL    HW116988   0.620   4.983   6.341
 5363SOL    HW216989   0.542   4.841   6.360
 5364SOL     OW16990   0.199   6.533   0.578
 5364SOL    HW116991   0.181   6.549   0.481
 5364SOL    HW216992   0.117   6.495   0.622
 5365SOL     OW16993   4.526   1.856   5.588
 5365SOL    HW116994   4.571   1.942   5.611
 5365SOL    HW216995   4.594   1.782   5.591
 5366SOL     OW16996   4.125   3.348   0.616
 5366SOL    HW116997   4.184   3.320   0.691
 5366SOL    HW216998   4.051   3.282   0.605
 5367SOL     OW16999   0.501   4.986   1.862
 5367SOL    HW117000   0.473   5.017   1.953
 5367SOL    HW217001   0.512   4.887   1.862
 5368SOL     OW17002   5.939   2.109   3.480
 5368SOL    HW117003   6.035   2.138   3.482
 5368SOL    HW217004   5.881   2.185   3.510
 5369SOL     OW17005   1.852   4.458   3.037
 5369SOL    HW117006   1.850   4.528   2.966
 5369SOL    HW217007   1.920   4.388   3.014
 5370SOL     OW17008   3.480   2.707   1.319
 5370SOL    HW117009   3.513   2.665   1.235
 5370SOL    HW217010   3.381   2.719   1.313
 5371SOL     OW17011   1.079   4.298   5.084
 5371SOL    HW117012   1.060   4.364   5.011
 5371SOL    HW217013   1.141   4.228   5.051
 5372SOL     OW17014   2.653   5.156   2.604
 5372SOL    HW117015   2.725   5.181   2.539
 5372SOL    HW217016   2.694   5.117   2.686
 5373SOL     OW17017   3.797   4.959   3.885
 5373SOL    HW117018   3.706   4.921   3.872
 5373SOL    HW217019   3.798   5.018   3.965
 5374SOL     OW17020   2.519   2.047   6.848
 5374SOL    HW117021   2.445   2.114   6.842
 5374SOL    HW217022   2.533   2.004   6.759
 5375SOL     OW17023   1.395   4.205   4.409
 5375SOL    HW117024   1.490   4.175   4.395
 5375SOL    HW217025   1.353   4.225   4.321
 5376SOL     OW17026   1.466   3.719   1.222
 5376SOL    HW117027   1.477   3.620   1.234
 5376SOL    HW217028   1.486   3.743   1.127
 5377SOL     OW17029   0.506   0.688   1.213
 5377SOL    HW117030   0.557   0.632   1.148
 5377SOL    HW217031   0.428   0.636   1.248
 5378SOL     OW17032   5.480   0.852   0.535
 5378SOL    HW117033   5.481   0.950   0.513
 5378SOL    HW217034   5.550   0.806   0.479
 5379SOL     OW17035   0.267   6.236   2.374
 5379SOL    HW117036   0.324   6.183   2.437
 5379SOL    HW217037   0.326   6.294   2.317
 5380SOL     OW17038   3.191   0.323   3.361
 5380SOL    HW117039   3.270   0.339   3.302
 5380SOL    HW217040   3.199   0.377   3.445
 5381SOL     OW17041   5.827   4.091   1.372
 5381SOL    HW117042   5.894   4.029   1.331
 5381SOL    HW217043   5.786   4.047   1.453
 5382SOL     OW17044   2.747   0.882   1.464
 5382SOL    HW117045   2.780   0.881   1.558
 5382SOL    HW217046   2.816   0.840   1.405
 5383SOL     OW17047   2.316   1.988   4.789
 5383SOL    HW117048   2.290   2.032   4.702
 5383SOL    HW217049   2.270   2.035   4.864
 5384SOL     OW17050   6.249   6.705   4.265
 5384SOL    HW117051   6.301   6.788   4.246
 5384SOL    HW217052   6.211   6.709   4.357
 5385SOL     OW17053   3.495   3.893   2.361
 5385SOL    HW117054   3.451   3.976   2.327
 5385SOL    HW217055   3.518   3.905   2.458
 5386SOL     OW17056   5.545   6.296   4.446
 5386SOL    HW117057   5.519   6.321   4.353
 5386SOL    HW217058   5.644   6.285   4.451
 5387SOL     OW17059   3.076   5.213   1.930
 5387SOL    HW117060   3.131   5.175   2.005
 5387SOL    HW217061   2.997   5.154   1.913
 5388SOL     OW17062   5.474   6.564   2.781
 5388SOL    HW117063   5.483   6.469   2.750
 5388SOL    HW217064   5.477   6.568   2.880
 5389SOL     OW17065   4.706   1.852   1.140
 5389SOL    HW117066   4.760   1.842   1.224
 5389SOL    HW217067   4.699   1.763   1.095
 5390SOL     OW17068   6.251   4.908   5.739
 5390SOL    HW117069   6.221   4.862   5.656
 5390SOL    HW217070   6.171   4.927   5.797
 5391SOL     OW17071   2.431   2.761   0.535
 5391SOL    HW117072   2.403   2.766   0.439
 5391SOL    HW217073   2.512   2.817   0.548
 5392SOL     OW17074   6.242   3.485   2.233
 5392SOL    HW117075   6.328   3.526   2.264
 5392SOL    HW217076   6.183   3.468   2.312
 5393SOL     OW17077   6.913   6.860   6.738
 5393SOL    HW117078   6.832   6.919   6.742
 5393SOL    HW217079   6.977   6.888   6.809
 5394SOL     OW17080   1.176   3.749   5.804
 5394SOL    HW117081   1.082   3.751   5.771
 5394SOL    HW217082   1.208   3.843   5.818
 5395SOL     OW17083   3.836   0.959   0.294
 5395SOL    HW117084   3.936   0.951   0.287
 5395SOL    HW217085   3.811   0.976   0.390
 5396SOL     OW17086   5.403   3.518   2.231
 5396SOL    HW117087   5.468   3.455   2.189
 5396SOL    HW217088   5.324   3.530   2.171
 5397SOL     OW17089   0.162   3.840   1.649
 5397SOL    HW117090   0.133   3.748   1.676
 5397SOL    HW217091   0.260   3.839   1.628
 5398SOL     OW17092   2.978   2.631   1.752
 5398SOL    HW117093   3.038   2.610   1.675
 5398SOL    HW217094   2.960   2.548   1.804
 5399SOL     OW17095   1.824   6.086   1.720
 5399SOL    HW117096   1.805   5.988   1.727
 5399SOL    HW217097   1.756   6.129   1.662
 5400SOL     OW17098   3.215   4.539   0.553
 5400SOL    HW117099   3.137   4.477   0.545
 5400SOL    HW217100   3.187   4.620   0.604
 5401SOL     OW17101   6.096   3.203   2.169
 5401SOL    HW117102   6.146   3.283   2.202
 5401SOL    HW217103   6.024   3.180   2.234
 5402SOL     OW17104   1.391   6.214   2.003
 5402SOL    HW117105   1.456   6.159   2.054
 5402SOL    HW217106   1.440   6.280   1.946
 5403SOL     OW17107   0.020   3.639   6.490
 5403SOL    HW117108   0.118   3.617   6.490
 5403SOL    HW217109   6.994   3.567   6.442
 5404SOL     OW17110   1.614   2.896   3.771
 5404SOL    HW117111   1.625   2.964   3.699
 5404SOL    HW217112   1.518   2.886   3.793
 5405SOL     OW17113   6.735   5.240   5.771
 5405SOL    HW117114   6.688   5.281   5.692
 5405SOL    HW217115   6.687   5.157   5.799
 5406SOL     OW17116   1.741   1.093   6.663
 5406SOL    HW117117   1.664   1.080   6.726
 5406SOL    HW217118   1.719   1.052   6.575
 5407SOL     OW17119   3.618   3.271   0.237
 5407SOL    HW117120   3.649   3.208   0.309
 5407SOL    HW217121   3.524   3.250   0.212
 5408SOL     OW17122   2.444   0.600   6.794
 5408SOL    HW117123   2.486   0.620   6.882
 5408SOL    HW217124   2.414   0.505   6.792
 5409SOL     OW17125   3.705   0.897   2.915
 5409SOL    HW117126   3.618   0.876   2.960
 5409SOL    HW217127   3.695   0.979   2.859
 5410SOL     OW17128   2.518   1.937   2.062
 5410SOL    HW117129   2.513   1.947   2.162
 5410SOL    HW217130   2.560   2.019   2.023
 5411SOL     OW17131   0.680   5.392   5.341
 5411SOL    HW117132   0.736   5.312   5.322
 5411SOL    HW217133   0.610   5.403   5.270
 5412SOL     OW17134   5.753   2.851   0.590
 5412SOL    HW117135   5.728   2.784   0.520
 5412SOL    HW217136   5.695   2.838   0.671
 5413SOL     OW17137   2.093   1.549   1.690
 5413SOL    HW117138   2.118   1.616   1.760
 5413SOL    HW217139   2.071   1.597   1.605
 5414SOL     OW17140   3.915   1.620   5.160
 5414SOL    HW117141   3.919   1.708   5.112
 5414SOL    HW217142   3.829   1.614   5.211
 5415SOL     OW17143   6.557   5.173   2.121
 5415SOL    HW117144   6.458   5.160   2.123
 5415SOL    HW217145   6.585   5.223   2.203
 5416SOL     OW17146   4.374   5.096   4.991
 5416SOL    HW117147   4.347   5.141   4.906
 5416SOL    HW217148   4.308   5.024   5.014
 5417SOL     OW17149   3.108   0.219   4.584
 5417SOL    HW117150   3.204   0.224   4.613
 5417SOL    HW217151   3.094   0.133   4.534
 5418SOL     OW17152   3.738   0.113   3.043
 5418SOL    HW117153   3.719   0.178   2.969
 5418SOL    HW217154   3.822   0.062   3.023
 5419SOL     OW17155   3.700   5.237   6.848
 5419SOL    HW117156   3.682   5.142   6.824
 5419SOL    HW217157   3.616   5.280   6.880
 5420SOL     OW17158   1.624   2.006   2.567
 5420SOL    HW117159   1.656   1.926   2.618
 5420SOL    HW217160   1.698   2.040   2.508
 5421SOL     OW17161   1.837   3.879   1.999
 5421SOL    HW117162   1.813   3.877   2.096
 5421SOL    HW217163   1.937   3.877   1.989
 5422SOL     OW17164   2.263   3.538   0.929
 5422SOL    HW117165   2.245   3.630   0.897
 5422SOL    HW217166   2.204   3.517   1.007
 5423SOL     OW17167   5.861   2.927   6.792
 5423SOL    HW117168   5.782   2.971   6.835
 5423SOL    HW217169   5.842   2.830   6.778
 5424SOL     OW17170   5.031   3.598   4.249
 5424SOL    HW117171   5.013   3.634   4.340
 5424SOL    HW217172   5.130   3.599   4.232
 5425SOL     OW17173   5.153   1.107   5.066
 5425SOL    HW117174   5.235   1.148   5.024
 5425SOL    HW217175   5.076   1.116   5.003
 5426SOL     OW17176   6.217   6.886   4.896
 5426SOL    HW117177   6.284   6.869   4.968
 5426SOL    HW217178   6.158   6.962   4.922
 5427SOL     OW17179   4.474   5.867   6.429
 5427SOL    HW117180   4.456   5.963   6.448
 5427SOL    HW217181   4.429   5.811   6.499
 5428SOL     OW17182   1.358   0.375   0.656
 5428SOL    HW117183   1.289   0.347   0.590
 5428SOL    HW217184   1.342   0.328   0.743
 5429SOL     OW17185   0.654   2.321   6.588
 5429SOL    HW117186   0.719   2.332   6.663
 5429SOL    HW217187   0.693   2.359   6.504
 5430SOL     OW17188   1.616   2.695   6.180
 5430SOL    HW117189   1.593   2.611   6.132
 5430SOL    HW217190   1.548   2.714   6.250
 5431SOL     OW17191   3.904   6.319   5.649
 5431SOL    HW117192   3.942   6.317   5.557
 5431SOL    HW217193   3.949   6.392   5.702
 5432SOL     OW17194   5.064   6.861   0.857
 5432SOL    HW117195   5.050   6.949   0.903
 5432SOL    HW217196   5.056   6.787   0.924
 5433SOL     OW17197   0.368   1.759   4.868
 5433SOL    HW117198   0.290   1.718   4.821
 5433SOL    HW217199   0.451   1.748   4.813
 5434SOL     OW17200   2.466   0.268   5.891
 5434SOL    HW117201   2.502   0.358   5.867
 5434SOL    HW217202   2.516   0.232   5.970
 5435SOL     OW17203   4.486   0.519   1.847
 5435SOL    HW117204   4.504   0.466   1.930
 5435SOL    HW217205   4.426   0.596   1.870
 5436SOL     OW17206   4.679   4.223   2.660
 5436SOL    HW117207   4.601   4.165   2.636
 5436SOL    HW217208   4.647   4.315   2.683
 5437SOL     OW17209   3.004   3.778   6.822
 5437SOL    HW117210   2.954   3.853   6.867
 5437SOL    HW217211   2.947   3.696   6.823
 5438SOL     OW17212   6.102   1.942   1.408
 5438SOL    HW117213   6.106   1.969   1.312
 5438SOL    HW217214   6.078   2.021   1.465
 5439SOL     OW17215   0.995   2.806   1.340
 5439SOL    HW117216   1.043   2.878   1.291
 5439SOL    HW217217   1.060   2.745   1.384
 5440SOL     OW17218   0.763   2.141   1.249
 5440SOL    HW117219   0.690   2.104   1.192
 5440SOL    HW217220   0.741   2.236   1.273
 5441SOL     OW17221   3.329   2.147   3.173
 5441SOL    HW117222   3.331   2.112   3.266
 5441SOL    HW217223   3.237   2.180   3.152
 5442SOL     OW17224   3.733   0.719   2.221
 5442SOL    HW117225   3.816   0.769   2.196
 5442SOL    HW217226   3.691   0.682   2.138
 5443SOL     OW17227   2.962   6.969   5.707
 5443SOL    HW117228   3.006   6.915   5.779
 5443SOL    HW217229   2.873   6.930   5.686
 5444SOL     OW17230   0.205   6.979   3.693
 5444SOL    HW117231   0.133   6.986   3.762
 5444SOL    HW217232   0.212   0.041   3.643
 5445SOL     OW17233   5.537   3.806   2.310
 5445SOL    HW117234   5.490   3.720   2.289
 5445SOL    HW217235   5.506   3.877   2.247
 5446SOL     OW17236   5.816   5.509   5.759
 5446SOL    HW117237   5.894   5.465   5.715
 5446SOL    HW217238   5.734   5.495   5.704
 5447SOL     OW17239   4.175   2.384   7.015
 5447SOL    HW117240   4.213   2.346   6.931
 5447SOL    HW217241   4.167   2.483   7.006
 5448SOL     OW17242   5.562   2.322   5.306
 5448SOL    HW117243   5.657   2.302   5.281
 5448SOL    HW217244   5.507   2.331   5.223
 5449SOL     OW17245   0.924   3.721   6.925
 5449SOL    HW117246   0.953   3.673   7.008
 5449SOL    HW217247   0.829   3.698   6.904
 5450SOL     OW17248   1.892   0.313   1.517
 5450SOL    HW117249   1.909   0.259   1.435
 5450SOL    HW217250   1.806   0.363   1.507
 5451SOL     OW17251   0.828   5.807   3.113
 5451SOL    HW117252   0.734   5.837   3.100
 5451SOL    HW217253   0.886   5.886   3.132
 5452SOL     OW17254   2.356   4.236   6.685
 5452SOL    HW117255   2.384   4.150   6.728
 5452SOL    HW217256   2.383   4.237   6.589
 5453SOL     OW17257   5.595   5.264   0.108
 5453SOL    HW117258   5.513   5.232   0.155
 5453SOL    HW217259   5.659   5.188   0.096
 5454SOL     OW17260   6.850   4.364   6.879
 5454SOL    HW117261   6.774   4.316   6.923
 5454SOL    HW217262   6.821   4.397   6.789
 5455SOL     OW17263   6.504   3.505   0.912
 5455SOL    HW117264   6.475   3.493   1.007
 5455SOL    HW217265   6.486   3.420   0.862
 5456SOL     OW17266   3.186   0.127   6.911
 5456SOL    HW117267   3.112   0.076   6.867
 5456SOL    HW217268   3.222   0.196   6.847
 5457SOL     OW17269   6.141   2.849   0.561
 5457SOL    HW117270   6.049   2.858   0.597
 5457SOL    HW217271   6.207   2.855   0.635
 5458SOL     OW17272   2.148   4.460   6.700
 5458SOL    HW117273   2.227   4.406   6.731
 5458SOL    HW217274   2.179   4.547   6.662
 5459SOL     OW17275   1.573   4.669   6.544
 5459SOL    HW117276   1.585   4.570   6.541
 5459SOL    HW217277   1.516   4.693   6.622
 5460SOL     OW17278   2.956   0.322   1.230
 5460SOL    HW117279   2.890   0.309   1.304
 5460SOL    HW217280   2.928   0.269   1.150
 5461SOL     OW17281   4.534   0.272   4.998
 5461SOL    HW117282   4.606   0.233   4.940
 5461SOL    HW217283   4.446   0.263   4.952
 5462SOL     OW17284   1.615   0.345   0.678
 5462SOL    HW117285   1.524   0.357   0.638
 5462SOL    HW217286   1.680   0.405   0.633
 5463SOL     OW17287   6.475   2.532   0.545
 5463SOL    HW117288   6.484   2.607   0.610
 5463SOL    HW217289   6.420   2.561   0.467
 5464SOL     OW17290   2.324   0.416   4.456
 5464SOL    HW117291   2.394   0.428   4.385
 5464SOL    HW217292   2.369   0.395   4.543
 5465SOL     OW17293   2.863   0.381   4.839
 5465SOL    HW117294   2.889   0.457   4.898
 5465SOL    HW217295   2.766   0.360   4.851
 5466SOL     OW17296   4.686   4.244   4.471
 5466SOL    HW117297   4.690   4.250   4.571
 5466SOL    HW217298   4.734   4.162   4.440
 5467SOL     OW17299   5.394   1.362   2.728
 5467SOL    HW117300   5.341   1.283   2.699
 5467SOL    HW217301   5.490   1.350   2.700
 5468SOL     OW17302   4.344   2.106   4.837
 5468SOL    HW117303   4.304   2.178   4.780
 5468SOL    HW217304   4.438   2.090   4.809
 5469SOL     OW17305   4.101   3.894   6.273
 5469SOL    HW117306   4.058   3.868   6.186
 5469SOL    HW217307   4.030   3.923   6.337
 5470SOL     OW17308   2.010   5.066   3.926
 5470SOL    HW117309   2.089   5.125   3.943
 5470SOL    HW217310   2.029   4.973   3.957
 5471SOL     OW17311   0.033   5.754   1.872
 5471SOL    HW117312   0.069   5.796   1.955
 5471SOL    HW217313   0.080   5.668   1.855
 5472SOL     OW17314   4.060   4.633   5.845
 5472SOL    HW117315   4.001   4.556   5.823
 5472SOL    HW217316   4.126   4.647   5.771
 5473SOL     OW17317   1.334   3.494   3.722
 5473SOL    HW117318   1.392   3.572   3.698
 5473SOL    HW217319   1.296   3.454   3.639
 5474SOL     OW17320   1.594   5.374   4.052
 5474SOL    HW117321   1.555   5.394   3.962
 5474SOL    HW217322   1.612   5.460   4.101
 5475SOL     OW17323   2.843   2.175   1.377
 5475SOL    HW117324   2.926   2.189   1.430
 5475SOL    HW217325   2.828   2.077   1.362
 5476SOL     OW17326   1.026   3.207   6.326
 5476SOL    HW117327   0.993   3.300   6.341
 5476SOL    HW217328   1.099   3.186   6.391
 5477SOL     OW17329   2.206   2.986   2.987
 5477SOL    HW117330   2.206   2.900   3.038
 5477SOL    HW217331   2.205   3.063   3.050
 5478SOL     OW17332   5.650   5.924   5.402
 5478SOL    HW117333   5.561   5.896   5.366
 5478SOL    HW217334   5.641   6.013   5.446
 5479SOL     OW17335   4.973   0.827   4.639
 5479SOL    HW117336   4.978   0.809   4.737
 5479SOL    HW217337   4.879   0.814   4.607
 5480SOL     OW17338   0.944   3.376   4.339
 5480SOL    HW117339   0.905   3.290   4.309
 5480SOL    HW217340   1.008   3.359   4.414
 5481SOL     OW17341   3.954   6.999   3.927
 5481SOL    HW117342   3.954   0.057   3.984
 5481SOL    HW217343   4.027   6.938   3.957
 5482SOL     OW17344   2.156   4.673   1.154
 5482SOL    HW117345   2.092   4.712   1.087
 5482SOL    HW217346   2.132   4.705   1.245
 5483SOL     OW17347   7.017   2.533   5.990
 5483SOL    HW117348   6.943   2.585   5.948
 5483SOL    HW217349   0.058   2.596   6.032
 5484SOL     OW17350   4.756   0.978   4.787
 5484SOL    HW117351   4.672   1.001   4.835
 5484SOL    HW217352   4.737   0.911   4.715
 5485SOL     OW17353   2.589   0.432   5.473
 5485SOL    HW117354   2.595   0.458   5.377
 5485SOL    HW217355   2.618   0.510   5.530
 5486SOL     OW17356   2.952   6.168   5.291
 5486SOL    HW117357   2.960   6.144   5.387
 5486SOL    HW217358   3.029   6.131   5.240
 5487SOL     OW17359   3.744   4.831   5.602
 5487SOL    HW117360   3.812   4.868   5.665
 5487SOL    HW217361   3.656   4.876   5.618
 5488SOL     OW17362   6.263   1.471   1.061
 5488SOL    HW117363   6.231   1.528   0.985
 5488SOL    HW217364   6.332   1.522   1.113
 5489SOL     OW17365   6.735   4.341   3.056
 5489SOL    HW117366   6.699   4.261   3.105
 5489SOL    HW217367   6.726   4.422   3.114
 5490SOL     OW17368   1.469   6.629   2.950
 5490SOL    HW117369   1.500   6.666   3.038
 5490SOL    HW217370   1.375   6.660   2.932
 5491SOL     OW17371   6.625   4.542   0.245
 5491SOL    HW117372   6.649   4.467   0.183
 5491SOL    HW217373   6.631   4.510   0.339
 5492SOL     OW17374   0.206   1.760   6.066
 5492SOL    HW117375   0.116   1.804   6.078
 5492SOL    HW217376   0.244   1.786   5.977
 5493SOL     OW17377   3.662   3.936   1.463
 5493SOL    HW117378   3.719   3.859   1.490
 5493SOL    HW217379   3.680   3.959   1.368
 5494SOL     OW17380   6.001   4.090   5.508
 5494SOL    HW117381   6.056   4.006   5.511
 5494SOL    HW217382   6.058   4.169   5.529
 5495SOL     OW17383   5.910   6.885   0.567
 5495SOL    HW117384   5.872   6.795   0.543
 5495SOL    HW217385   6.003   6.873   0.600
 5496SOL     OW17386   3.874   0.499   4.103
 5496SOL    HW117387   3.920   0.568   4.159
 5496SOL    HW217388   3.775   0.511   4.112
 5497SOL     OW17389   1.114   0.314   5.761
 5497SOL    HW117390   1.056   0.371   5.819
 5497SOL    HW217391   1.195   0.286   5.813
 5498SOL     OW17392   1.077   5.308   1.786
 5498SOL    HW117393   1.089   5.209   1.788
 5498SOL    HW217394   1.149   5.352   1.840
 5499SOL     OW17395   1.717   0.302   4.911
 5499SOL    HW117396   1.652   0.227   4.926
 5499SOL    HW217397   1.667   0.383   4.882
 5500SOL     OW17398   2.711   1.188   0.841
 5500SOL    HW117399   2.679   1.095   0.859
 5500SOL    HW217400   2.633   1.250   0.838
 5501SOL     OW17401   3.602   3.758   6.568
 5501SOL    HW117402   3.612   3.858   6.572
 5501SOL    HW217403   3.541   3.734   6.493
 5502SOL     OW17404   4.442   2.668   6.803
 5502SOL    HW117405   4.367   2.720   6.843
 5502SOL    HW217406   4.518   2.664   6.867
 5503SOL     OW17407   6.595   4.252   0.866
 5503SOL    HW117408   6.559   4.255   0.959
 5503SOL    HW217409   6.688   4.289   0.865
 5504SOL     OW17410   3.347   1.513   6.942
 5504SOL    HW117411   3.267   1.508   7.003
 5504SOL    HW217412   3.392   1.424   6.940
 5505SOL     OW17413   2.779   5.047   3.528
 5505SOL    HW117414   2.747   4.962   3.570
 5505SOL    HW217415   2.879   5.048   3.526
 5506SOL     OW17416   0.646   3.282   6.095
 5506SOL    HW117417   0.627   3.274   6.193
 5506SOL    HW217418   0.727   3.229   6.073
 5507SOL     OW17419   2.407   0.134   0.209
 5507SOL    HW117420   2.503   0.164   0.201
 5507SOL    HW217421   2.349   0.214   0.226
 5508SOL     OW17422   7.003   0.866   6.290
 5508SOL    HW117423   0.022   0.778   6.272
 5508SOL    HW217424   7.021   0.894   6.384
 5509SOL     OW17425   7.001   4.821   1.080
 5509SOL    HW117426   0.031   4.756   1.027
 5509SOL    HW217427   6.905   4.794   1.079
 5510SOL     OW17428   4.247   5.003   0.245
 5510SOL    HW117429   4.232   4.909   0.212
 5510SOL    HW217430   4.243   5.066   0.167
 5511SOL     OW17431   0.733   1.762   5.697
 5511SOL    HW117432   0.824   1.757   5.738
 5511SOL    HW217433   0.705   1.858   5.688
 5512SOL     OW17434   2.961   0.943   2.194
 5512SOL    HW117435   2.980   0.850   2.225
 5512SOL    HW217436   3.038   0.976   2.139
 5513SOL     OW17437   3.900   4.123   0.027
 5513SOL    HW117438   3.920   4.213   0.067
 5513SOL    HW217439   3.913   4.053   0.097
 5514SOL     OW17440   3.315   1.183   0.038
 5514SOL    HW117441   3.234   1.161   0.093
 5514SOL    HW217442   3.316   1.124   6.981
 5515SOL     OW17443   2.857   6.261   2.299
 5515SOL    HW117444   2.926   6.328   2.328
 5515SOL    HW217445   2.818   6.217   2.380
 5516SOL     OW17446   2.387   2.040   5.515
 5516SOL    HW117447   2.314   2.078   5.572
 5516SOL    HW217448   2.358   2.044   5.419
 5517SOL     OW17449   1.267   2.830   3.081
 5517SOL    HW117450   1.246   2.787   3.169
 5517SOL    HW217451   1.363   2.816   3.059
 5518SOL     OW17452   4.086   4.682   6.615
 5518SOL    HW117453   4.014   4.644   6.556
 5518SOL    HW217454   4.168   4.699   6.561
 5519SOL     OW17455   4.726   2.824   3.710
 5519SOL    HW117456   4.678   2.758   3.653
 5519SOL    HW217457   4.751   2.781   3.797
 5520SOL     OW17458   4.863   6.924   1.556
 5520SOL    HW117459   4.843   7.021   1.567
 5520SOL    HW217460   4.961   6.910   1.547
 5521SOL     OW17461   5.194   6.291   1.754
 5521SOL    HW117462   5.177   6.232   1.833
 5521SOL    HW217463   5.179   6.239   1.670
 5522SOL     OW17464   5.778   5.967   0.943
 5522SOL    HW117465   5.848   6.021   0.990
 5522SOL    HW217466   5.719   5.923   1.011
 5523SOL     OW17467   5.838   1.067   1.576
 5523SOL    HW117468   5.835   1.167   1.569
 5523SOL    HW217469   5.799   1.027   1.493
 5524SOL     OW17470   2.899   1.660   4.359
 5524SOL    HW117471   2.875   1.754   4.385
 5524SOL    HW217472   2.826   1.598   4.387
 5525SOL     OW17473   6.170   1.219   1.386
 5525SOL    HW117474   6.182   1.317   1.373
 5525SOL    HW217475   6.197   1.171   1.302
 5526SOL     OW17476   5.276   4.538   3.549
 5526SOL    HW117477   5.273   4.514   3.646
 5526SOL    HW217478   5.260   4.456   3.494
 5527SOL     OW17479   5.804   1.636   3.768
 5527SOL    HW117480   5.790   1.700   3.844
 5527SOL    HW217481   5.901   1.615   3.759
 5528SOL     OW17482   0.676   1.227   0.489
 5528SOL    HW117483   0.726   1.303   0.448
 5528SOL    HW217484   0.698   1.143   0.440
 5529SOL     OW17485   3.650   0.437   2.331
 5529SOL    HW117486   3.662   0.534   2.311
 5529SOL    HW217487   3.570   0.403   2.283
 5530SOL     OW17488   6.415   2.151   0.907
 5530SOL    HW117489   6.503   2.197   0.908
 5530SOL    HW217490   6.428   2.053   0.899
 5531SOL     OW17491   2.147   4.002   1.167
 5531SOL    HW117492   2.206   3.937   1.216
 5531SOL    HW217493   2.117   4.074   1.229
 5532SOL     OW17494   1.402   2.991   0.424
 5532SOL    HW117495   1.357   3.076   0.452
 5532SOL    HW217496   1.495   2.989   0.461
 5533SOL     OW17497   3.357   1.808   2.509
 5533SOL    HW117498   3.359   1.708   2.512
 5533SOL    HW217499   3.444   1.842   2.474
 5534SOL     OW17500   1.354   0.417   4.570
 5534SOL    HW117501   1.362   0.448   4.475
 5534SOL    HW217502   1.275   0.356   4.578
 5535SOL     OW17503   0.497   1.989   3.734
 5535SOL    HW117504   0.556   1.931   3.790
 5535SOL    HW217505   0.543   2.076   3.717
 5536SOL     OW17506   4.008   6.288   4.304
 5536SOL    HW117507   3.992   6.384   4.328
 5536SOL    HW217508   3.922   6.237   4.308
 5537SOL     OW17509   3.016   1.496   3.411
 5537SOL    HW117510   3.090   1.562   3.398
 5537SOL    HW217511   2.982   1.503   3.504
 5538SOL     OW17512   4.199   5.255   5.281
 5538SOL    HW117513   4.129   5.188   5.257
 5538SOL    HW217514   4.207   5.323   5.208
 5539SOL     OW17515   2.859   4.311   0.426
 5539SOL    HW117516   2.765   4.321   0.394
 5539SOL    HW217517   2.923   4.331   0.352
 5540SOL     OW17518   5.250   5.276   1.666
 5540SOL    HW117519   5.328   5.279   1.730
 5540SOL    HW217520   5.284   5.256   1.574
 5541SOL     OW17521   4.406   0.984   5.538
 5541SOL    HW117522   4.375   0.997   5.444
 5541SOL    HW217523   4.331   0.948   5.594
 5542SOL     OW17524   5.041   4.670   6.303
 5542SOL    HW117525   5.141   4.680   6.302
 5542SOL    HW217526   5.012   4.634   6.392
 5543SOL     OW17527   0.167   2.338   6.542
 5543SOL    HW117528   0.252   2.389   6.556
 5543SOL    HW217529   0.134   2.353   6.449
 5544SOL     OW17530   5.889   0.970   0.078
 5544SOL    HW117531   5.878   1.069   0.092
 5544SOL    HW217532   5.872   0.923   0.165
 5545SOL     OW17533   2.658   2.451   1.763
 5545SOL    HW117534   2.738   2.453   1.823
 5545SOL    HW217535   2.578   2.422   1.815
 5546SOL     OW17536   2.891   4.885   5.879
 5546SOL    HW117537   2.810   4.903   5.936
 5546SOL    HW217538   2.861   4.859   5.787
 5547SOL     OW17539   3.760   6.255   4.731
 5547SOL    HW117540   3.687   6.281   4.667
 5547SOL    HW217541   3.847   6.292   4.699
 5548SOL     OW17542   0.144   3.029   5.468
 5548SOL    HW117543   0.144   2.947   5.524
 5548SOL    HW217544   0.058   3.034   5.416
 5549SOL     OW17545   3.373   4.549   6.781
 5549SOL    HW117546   3.414   4.591   6.861
 5549SOL    HW217547   3.286   4.593   6.760
 5550SOL     OW17548   3.446   6.824   2.389
 5550SOL    HW117549   3.530   6.870   2.363
 5550SOL    HW217550   3.369   6.887   2.380
 5551SOL     OW17551   0.263   1.629   3.263
 5551SOL    HW117552   0.314   1.703   3.305
 5551SOL    HW217553   0.300   1.609   3.172
 5552SOL     OW17554   0.435   2.837   0.691
 5552SOL    HW117555   0.524   2.807   0.655
 5552SOL    HW217556   0.363   2.810   0.627
 5553SOL     OW17557   5.372   6.501   0.035
 5553SOL    HW117558   5.297   6.471   7.001
 5553SOL    HW217559   5.352   6.591   0.072
 5554SOL     OW17560   2.868   1.408   4.630
 5554SOL    HW117561   2.949   1.458   4.600
 5554SOL    HW217562   2.886   1.310   4.627
 5555SOL     OW17563   0.785   6.269   2.040
 5555SOL    HW117564   0.814   6.355   1.997
 5555SOL    HW217565   0.802   6.193   1.977
 5556SOL     OW17566   0.392   0.994   4.575
 5556SOL    HW117567   0.447   0.925   4.527
 5556SOL    HW217568   0.373   0.963   4.668
 5557SOL     OW17569   2.698   0.748   3.473
 5557SOL    HW117570   2.618   0.689   3.477
 5557SOL    HW217571   2.680   0.824   3.410
 5558SOL     OW17572   5.186   2.361   4.538
 5558SOL    HW117573   5.202   2.456   4.566
 5558SOL    HW217574   5.095   2.333   4.570
 5559SOL     OW17575   2.740   0.197   1.086
 5559SOL    HW117576   2.651   0.152   1.087
 5559SOL    HW217577   2.785   0.180   0.998
 5560SOL     OW17578   0.036   0.863   4.466
 5560SOL    HW117579   6.973   0.910   4.462
 5560SOL    HW217580   0.039   0.804   4.547
 5561SOL     OW17581   1.546   3.910   3.198
 5561SOL    HW117582   1.645   3.897   3.202
 5561SOL    HW217583   1.505   3.835   3.145
 5562SOL     OW17584   2.629   2.744   6.478
 5562SOL    HW117585   2.577   2.825   6.452
 5562SOL    HW217586   2.594   2.665   6.427
 5563SOL     OW17587   4.229   4.265   1.688
 5563SOL    HW117588   4.167   4.200   1.732
 5563SOL    HW217589   4.308   4.281   1.746
 5564SOL     OW17590   6.203   3.748   1.873
 5564SOL    HW117591   6.179   3.657   1.909
 5564SOL    HW217592   6.159   3.818   1.929
 5565SOL     OW17593   3.077   2.763   5.499
 5565SOL    HW117594   3.135   2.839   5.527
 5565SOL    HW217595   2.984   2.777   5.533
 5566SOL     OW17596   1.991   4.935   0.501
 5566SOL    HW117597   1.915   4.874   0.526
 5566SOL    HW217598   1.988   5.016   0.559
 5567SOL     OW17599   2.324   5.833   3.364
 5567SOL    HW117600   2.228   5.813   3.346
 5567SOL    HW217601   2.378   5.811   3.282
 5568SOL     OW17602   3.994   2.439   1.157
 5568SOL    HW117603   4.066   2.387   1.203
 5568SOL    HW217604   3.905   2.413   1.195
 5569SOL     OW17605   5.726   2.200   6.900
 5569SOL    HW117606   5.807   2.154   6.937
 5569SOL    HW217607   5.685   2.258   6.971
 5570SOL     OW17608   0.240   3.518   5.953
 5570SOL    HW117609   0.142   3.518   5.971
 5570SOL    HW217610   0.262   3.587   5.884
 5571SOL     OW17611   6.667   4.643   6.405
 5571SOL    HW117612   6.612   4.562   6.384
 5571SOL    HW217613   6.759   4.632   6.365
 5572SOL     OW17614   5.662   2.855   5.286
 5572SOL    HW117615   5.570   2.844   5.250
 5572SOL    HW217616   5.706   2.935   5.245
 5573SOL     OW17617   0.612   4.110   0.071
 5573SOL    HW117618   0.598   4.013   0.093
 5573SOL    HW217619   0.622   4.162   0.155
 5574SOL     OW17620   0.166   5.618   4.677
 5574SOL    HW117621   0.160   5.585   4.771
 5574SOL    HW217622   0.187   5.716   4.678
 5575SOL     OW17623   1.262   0.951   1.355
 5575SOL    HW117624   1.325   0.923   1.427
 5575SOL    HW217625   1.304   0.936   1.266
 5576SOL     OW17626   5.735   5.757   0.480
 5576SOL    HW117627   5.806   5.691   0.454
 5576SOL    HW217628   5.773   5.849   0.478
 5577SOL     OW17629   2.044   3.952   4.987
 5577SOL    HW117630   2.132   3.986   4.953
 5577SOL    HW217631   2.059   3.867   5.037
 5578SOL     OW17632   3.175   1.931   5.802
 5578SOL    HW117633   3.263   1.975   5.780
 5578SOL    HW217634   3.192   1.852   5.860
 5579SOL     OW17635   5.022   4.797   1.496
 5579SOL    HW117636   4.949   4.864   1.479
 5579SOL    HW217637   5.000   4.744   1.578
 5580SOL     OW17638   4.972   0.712   1.462
 5580SOL    HW117639   4.895   0.695   1.523
 5580SOL    HW217640   4.956   0.796   1.411
 5581SOL     OW17641   2.181   2.527   0.889
 5581SOL    HW117642   2.131   2.605   0.927
 5581SOL    HW217643   2.275   2.527   0.923
 5582SOL     OW17644   3.913   3.183   3.687
 5582SOL    HW117645   3.856   3.264   3.682
 5582SOL    HW217646   3.979   3.193   3.761
 5583SOL     OW17647   4.111   0.897   0.190
 5583SOL    HW117648   4.179   0.895   0.263
 5583SOL    HW217649   4.132   0.973   0.128
 5584SOL     OW17650   5.616   3.402   3.082
 5584SOL    HW117651   5.672   3.462   3.139
 5584SOL    HW217652   5.541   3.364   3.136
 5585SOL     OW17653   6.943   6.591   4.327
 5585SOL    HW117654   6.985   6.665   4.380
 5585SOL    HW217655   6.849   6.616   4.303
 5586SOL     OW17656   2.076   1.599   6.677
 5586SOL    HW117657   2.033   1.666   6.737
 5586SOL    HW217658   2.030   1.598   6.589
 5587SOL     OW17659   3.768   6.782   3.877
 5587SOL    HW117660   3.818   6.855   3.922
 5587SOL    HW217661   3.806   6.768   3.785
 5588SOL     OW17662   4.270   0.797   5.974
 5588SOL    HW117663   4.368   0.814   5.985
 5588SOL    HW217664   4.247   0.707   6.011
 5589SOL     OW17665   3.046   4.020   6.653
 5589SOL    HW117666   3.029   3.937   6.706
 5589SOL    HW217667   3.038   4.100   6.714
 5590SOL     OW17668   6.806   6.940   3.611
 5590SOL    HW117669   6.865   6.943   3.530
 5590SOL    HW217670   6.782   6.845   3.632
 5591SOL     OW17671   5.101   0.439   0.148
 5591SOL    HW117672   5.200   0.437   0.135
 5591SOL    HW217673   5.059   0.364   0.098
 5592SOL     OW17674   1.715   1.992   2.131
 5592SOL    HW117675   1.740   1.897   2.150
 5592SOL    HW217676   1.750   2.018   2.041
 5593SOL     OW17677   1.886   3.942   4.757
 5593SOL    HW117678   1.911   4.028   4.712
 5593SOL    HW217679   1.927   3.939   4.848
 5594SOL     OW17680   2.513   1.344   6.807
 5594SOL    HW117681   2.481   1.390   6.725
 5594SOL    HW217682   2.436   1.330   6.870
 5595SOL     OW17683   0.404   1.470   6.038
 5595SOL    HW117684   0.419   1.477   6.137
 5595SOL    HW217685   0.426   1.557   5.995
 5596SOL     OW17686   5.160   1.869   3.348
 5596SOL    HW117687   5.121   1.911   3.430
 5596SOL    HW217688   5.235   1.808   3.375
 5597SOL     OW17689   0.909   1.341   6.009
 5597SOL    HW117690   1.000   1.355   6.047
 5597SOL    HW217691   0.845   1.320   6.082
 5598SOL     OW17692   6.957   1.942   4.274
 5598SOL    HW117693   0.008   1.917   4.214
 5598SOL    HW217694   6.958   1.882   4.355
 5599SOL     OW17695   5.122   2.773   3.084
 5599SOL    HW117696   5.139   2.870   3.069
 5599SOL    HW217697   5.205   2.730   3.121
 5600SOL     OW17698   1.814   2.083   2.360
 5600SOL    HW117699   1.764   2.046   2.281
 5600SOL    HW217700   1.895   2.027   2.376
 5601SOL     OW17701   5.705   3.424   5.917
 5601SOL    HW117702   5.762   3.345   5.939
 5601SOL    HW217703   5.669   3.464   6.002
 5602SOL     OW17704   6.689   2.033   2.243
 5602SOL    HW117705   6.630   1.953   2.231
 5602SOL    HW217706   6.744   2.022   2.326
 5603SOL     OW17707   3.642   1.968   6.012
 5603SOL    HW117708   3.591   2.039   5.963
 5603SOL    HW217709   3.580   1.918   6.073
 5604SOL     OW17710   1.480   6.258   3.393
 5604SOL    HW117711   1.483   6.195   3.471
 5604SOL    HW217712   1.385   6.285   3.374
 5605SOL     OW17713   4.507   0.069   4.217
 5605SOL    HW117714   4.459   0.008   4.279
 5605SOL    HW217715   4.532   0.019   4.133
 5606SOL     OW17716   4.650   3.041   0.271
 5606SOL    HW117717   4.729   2.985   0.297
 5606SOL    HW217718   4.569   3.010   0.320
 5607SOL     OW17719   6.410   2.185   2.846
 5607SOL    HW117720   6.457   2.188   2.758
 5607SOL    HW217721   6.430   2.269   2.897
 5608SOL     OW17722   5.226   0.837   3.201
 5608SOL    HW117723   5.266   0.746   3.192
 5608SOL    HW217724   5.185   0.848   3.292
 5609SOL     OW17725   6.987   0.553   0.308
 5609SOL    HW117726   0.050   0.601   0.311
 5609SOL    HW217727   6.949   0.557   0.215
 5610SOL     OW17728   5.943   5.772   6.945
 5610SOL    HW117729   5.876   5.744   6.876
 5610SOL    HW217730   5.958   5.697   7.009
 5611SOL     OW17731   5.925   4.609   1.999
 5611SOL    HW117732   5.972   4.527   1.969
 5611SOL    HW217733   5.947   4.628   2.094
 5612SOL     OW17734   3.943   1.770   0.283
 5612SOL    HW117735   3.859   1.801   0.328
 5612SOL    HW217736   4.011   1.843   0.287
 5613SOL     OW17737   5.825   5.657   5.969
 5613SOL    HW117738   5.739   5.639   6.017
 5613SOL    HW217739   5.823   5.612   5.880
 5614SOL     OW17740   5.050   2.655   4.195
 5614SOL    HW117741   5.064   2.744   4.152
 5614SOL    HW217742   5.124   2.593   4.169
 5615SOL     OW17743   0.316   2.965   3.285
 5615SOL    HW117744   0.239   3.028   3.292
 5615SOL    HW217745   0.398   3.007   3.324
 5616SOL     OW17746   2.032   3.174   2.608
 5616SOL    HW117747   1.947   3.148   2.653
 5616SOL    HW217748   2.107   3.117   2.643
 5617SOL     OW17749   1.332   4.527   6.480
 5617SOL    HW117750   1.303   4.583   6.558
 5617SOL    HW217751   1.421   4.485   6.501
 5618SOL     OW17752   4.937   6.630   2.247
 5618SOL    HW117753   4.889   6.545   2.228
 5618SOL    HW217754   4.918   6.658   2.342
 5619SOL     OW17755   3.420   3.218   3.662
 5619SOL    HW117756   3.374   3.252   3.579
 5619SOL    HW217757   3.458   3.127   3.645
 5620SOL     OW17758   5.007   4.467   3.982
 5620SOL    HW117759   4.947   4.488   3.905
 5620SOL    HW217760   4.979   4.521   4.062
 5621SOL     OW17761   1.283   2.731   6.543
 5621SOL    HW117762   1.281   2.770   6.635
 5621SOL    HW217763   1.223   2.651   6.539
 5622SOL     OW17764   4.596   5.338   4.471
 5622SOL    HW117765   4.689   5.337   4.437
 5622SOL    HW217766   4.534   5.301   4.402
 5623SOL     OW17767   4.446   4.888   4.165
 5623SOL    HW117768   4.357   4.842   4.173
 5623SOL    HW217769   4.505   4.834   4.104
 5624SOL     OW17770   5.028   4.726   3.368
 5624SOL    HW117771   4.929   4.722   3.380
 5624SOL    HW217772   5.060   4.820   3.383
 5625SOL     OW17773   2.708   6.361   6.166
 5625SOL    HW117774   2.629   6.302   6.151
 5625SOL    HW217775   2.678   6.456   6.175
 5626SOL     OW17776   0.581   4.938   6.701
 5626SOL    HW117777   0.498   4.888   6.729
 5626SOL    HW217778   0.560   4.998   6.624
 5627SOL     OW17779   1.429   5.622   0.110
 5627SOL    HW117780   1.469   5.536   0.079
 5627SOL    HW217781   1.394   5.611   0.203
 5628SOL     OW17782   2.216   3.709   0.371
 5628SOL    HW117783   2.181   3.616   0.373
 5628SOL    HW217784   2.260   3.730   0.459
 5629SOL     OW17785   6.919   3.571   3.182
 5629SOL    HW117786   6.899   3.621   3.098
 5629SOL    HW217787   6.847   3.589   3.249
 5630SOL     OW17788   0.896   4.147   0.021
 5630SOL    HW117789   0.802   4.114   0.018
 5630SOL    HW217790   0.933   4.136   0.113
 5631SOL     OW17791   3.701   1.535   1.797
 5631SOL    HW117792   3.757   1.618   1.798
 5631SOL    HW217793   3.743   1.468   1.735
 5632SOL     OW17794   5.041   0.024   5.694
 5632SOL    HW117795   5.036   6.952   5.718
 5632SOL    HW217796   5.051   0.034   5.595
 5633SOL     OW17797   1.032   5.407   5.514
 5633SOL    HW117798   1.038   5.342   5.590
 5633SOL    HW217799   0.973   5.483   5.541
 5634SOL     OW17800   3.071   0.336   2.006
 5634SOL    HW117801   3.050   0.355   1.910
 5634SOL    HW217802   3.041   0.243   2.029
 5635SOL     OW17803   3.241   0.850   1.720
 5635SOL    HW117804   3.206   0.937   1.686
 5635SOL    HW217805   3.329   0.830   1.676
 5636SOL     OW17806   4.890   0.979   5.636
 5636SOL    HW117807   4.880   0.935   5.546
 5636SOL    HW217808   4.975   0.948   5.678
 5637SOL     OW17809   4.652   0.042   4.551
 5637SOL    HW117810   4.716   0.031   4.475
 5637SOL    HW217811   4.573   7.007   4.537
 5638SOL     OW17812   6.893   5.293   1.094
 5638SOL    HW117813   6.925   5.234   1.020
 5638SOL    HW217814   6.814   5.346   1.063
 5639SOL     OW17815   2.134   0.299   1.759
 5639SOL    HW117816   2.034   0.302   1.758
 5639SOL    HW217817   2.170   0.366   1.694
 5640SOL     OW17818   3.343   6.791   3.371
 5640SOL    HW117819   3.402   6.834   3.440
 5640SOL    HW217820   3.293   6.715   3.412
 5641SOL     OW17821   6.836   4.057   4.049
 5641SOL    HW117822   6.901   4.131   4.062
 5641SOL    HW217823   6.826   4.005   4.134
 5642SOL     OW17824   2.324   3.553   6.536
 5642SOL    HW117825   2.276   3.632   6.498
 5642SOL    HW217826   2.358   3.495   6.462
 5643SOL     OW17827   5.908   2.360   4.192
 5643SOL    HW117828   5.969   2.357   4.271
 5643SOL    HW217829   5.876   2.267   4.171
 5644SOL     OW17830   4.051   0.617   4.943
 5644SOL    HW117831   4.122   0.620   5.014
 5644SOL    HW217832   4.000   0.703   4.943
 5645SOL     OW17833   6.812   6.224   4.164
 5645SOL    HW117834   6.764   6.136   4.161
 5645SOL    HW217835   6.745   6.298   4.166
 5646SOL     OW17836   6.821   6.354   3.898
 5646SOL    HW117837   6.900   6.298   3.872
 5646SOL    HW217838   6.802   6.342   3.995
 5647SOL     OW17839   0.002   4.648   6.625
 5647SOL    HW117840   0.027   4.744   6.612
 5647SOL    HW217841   0.084   4.594   6.641
 5648SOL     OW17842   2.194   1.238   4.985
 5648SOL    HW117843   2.102   1.273   5.001
 5648SOL    HW217844   2.188   1.148   4.941
 5649SOL     OW17845   1.322   0.276   4.823
 5649SOL    HW117846   1.284   0.346   4.883
 5649SOL    HW217847   1.271   0.273   4.738
 5650SOL     OW17848   6.572   5.319   6.623
 5650SOL    HW117849   6.505   5.343   6.554
 5650SOL    HW217850   6.597   5.222   6.613
 5651SOL     OW17851   6.111   0.997   2.581
 5651SOL    HW117852   6.063   1.060   2.641
 5651SOL    HW217853   6.151   0.923   2.635
 5652SOL     OW17854   5.780   3.729   0.362
 5652SOL    HW117855   5.859   3.783   0.333
 5652SOL    HW217856   5.811   3.640   0.396
 5653SOL     OW17857   2.356   6.488   6.647
 5653SOL    HW117858   2.279   6.547   6.624
 5653SOL    HW217859   2.322   6.401   6.684
 5654SOL     OW17860   0.746   6.208   5.968
 5654SOL    HW117861   0.804   6.213   5.886
 5654SOL    HW217862   0.798   6.167   6.043
 5655SOL     OW17863   0.271   4.838   3.027
 5655SOL    HW117864   0.266   4.869   3.122
 5655SOL    HW217865   0.366   4.843   2.995
 5656SOL     OW17866   3.676   5.542   5.920
 5656SOL    HW117867   3.637   5.627   5.882
 5656SOL    HW217868   3.655   5.537   6.017
 5657SOL     OW17869   4.041   5.578   2.208
 5657SOL    HW117870   4.136   5.584   2.237
 5657SOL    HW217871   4.034   5.598   2.110
 5658SOL     OW17872   4.952   0.057   4.980
 5658SOL    HW117873   4.961   6.995   5.030
 5658SOL    HW217874   5.001   0.050   4.893
 5659SOL     OW17875   3.406   4.131   2.789
 5659SOL    HW117876   3.377   4.074   2.866
 5659SOL    HW217877   3.334   4.131   2.718
 5660SOL     OW17878   6.138   6.838   0.679
 5660SOL    HW117879   6.086   6.754   0.688
 5660SOL    HW217880   6.173   6.866   0.769
 5661SOL     OW17881   6.645   5.509   4.746
 5661SOL    HW117882   6.579   5.576   4.779
 5661SOL    HW217883   6.602   5.418   4.742
 5662SOL     OW17884   2.127   3.880   4.629
 5662SOL    HW117885   2.177   3.964   4.648
 5662SOL    HW217886   2.047   3.875   4.688
 5663SOL     OW17887   2.040   3.828   0.654
 5663SOL    HW117888   1.965   3.771   0.621
 5663SOL    HW217889   2.117   3.822   0.590
 5664SOL     OW17890   0.325   5.348   2.550
 5664SOL    HW117891   0.345   5.265   2.498
 5664SOL    HW217892   0.305   5.423   2.487
 5665SOL     OW17893   1.666   1.341   6.106
 5665SOL    HW117894   1.660   1.425   6.160
 5665SOL    HW217895   1.754   1.297   6.122
 5666SOL     OW17896   5.965   5.532   0.075
 5666SOL    HW117897   5.894   5.480   0.027
 5666SOL    HW217898   5.939   5.543   0.171
 5667SOL     OW17899   6.695   6.207   3.443
 5667SOL    HW117900   6.750   6.131   3.478
 5667SOL    HW217901   6.663   6.185   3.351
 5668SOL     OW17902   5.766   3.082   5.988
 5668SOL    HW117903   5.840   3.104   5.924
 5668SOL    HW217904   5.678   3.085   5.940
 5669SOL     OW17905   0.108   3.406   4.969
 5669SOL    HW117906   0.167   3.359   5.034
 5669SOL    HW217907   0.023   3.355   4.958
 5670SOL     OW17908   1.667   3.501   2.876
 5670SOL    HW117909   1.643   3.587   2.921
 5670SOL    HW217910   1.739   3.517   2.809
 5671SOL     OW17911   1.556   0.999   5.033
 5671SOL    HW117912   1.600   1.063   5.096
 5671SOL    HW217913   1.624   0.960   4.972
 5672SOL     OW17914   5.429   4.565   5.503
 5672SOL    HW117915   5.491   4.590   5.577
 5672SOL    HW217916   5.417   4.465   5.502
 5673SOL     OW17917   1.911   0.688   1.511
 5673SOL    HW117918   1.842   0.618   1.523
 5673SOL    HW217919   1.879   0.756   1.444
 5674SOL     OW17920   6.625   3.648   1.542
 5674SOL    HW117921   6.654   3.579   1.608
 5674SOL    HW217922   6.627   3.609   1.450
 5675SOL     OW17923   4.214   1.727   5.679
 5675SOL    HW117924   4.267   1.646   5.705
 5675SOL    HW217925   4.248   1.762   5.591
 5676SOL     OW17926   3.271   6.559   1.602
 5676SOL    HW117927   3.172   6.571   1.594
 5676SOL    HW217928   3.290   6.485   1.667
 5677SOL     OW17929   0.118   1.132   4.120
 5677SOL    HW117930   0.204   1.143   4.070
 5677SOL    HW217931   0.138   1.105   4.214
 5678SOL     OW17932   1.876   5.023   3.703
 5678SOL    HW117933   1.918   5.045   3.791
 5678SOL    HW217934   1.879   4.924   3.689
 5679SOL     OW17935   3.022   5.775   5.212
 5679SOL    HW117936   2.942   5.835   5.221
 5679SOL    HW217937   2.994   5.681   5.229
 5680SOL     OW17938   1.978   6.913   5.880
 5680SOL    HW117939   2.047   6.985   5.868
 5680SOL    HW217940   1.895   6.939   5.832
 5681SOL     OW17941   1.864   3.776   0.367
 5681SOL    HW117942   1.784   3.834   0.352
 5681SOL    HW217943   1.923   3.779   0.286
 5682SOL     OW17944   0.845   3.749   3.837
 5682SOL    HW117945   0.931   3.700   3.830
 5682SOL    HW217946   0.793   3.716   3.916
 5683SOL     OW17947   3.755   2.824   4.986
 5683SOL    HW117948   3.732   2.735   4.947
 5683SOL    HW217949   3.824   2.812   5.057
 5684SOL     OW17950   3.171   3.452   3.203
 5684SOL    HW117951   3.091   3.490   3.251
 5684SOL    HW217952   3.156   3.457   3.105
 5685SOL     OW17953   1.092   5.502   2.460
 5685SOL    HW117954   1.066   5.522   2.365
 5685SOL    HW217955   1.091   5.586   2.513
 5686SOL     OW17956   3.566   5.622   0.321
 5686SOL    HW117957   3.469   5.643   0.333
 5686SOL    HW217958   3.601   5.676   0.244
 5687SOL     OW17959   4.657   5.158   5.606
 5687SOL    HW117960   4.681   5.252   5.582
 5687SOL    HW217961   4.740   5.107   5.628
 5688SOL     OW17962   6.005   2.004   2.677
 5688SOL    HW117963   5.979   2.027   2.583
 5688SOL    HW217964   5.923   1.988   2.731
 5689SOL     OW17965   3.859   2.659   6.043
 5689SOL    HW117966   3.896   2.752   6.040
 5689SOL    HW217967   3.927   2.595   6.008
 5690SOL     OW17968   4.711   6.444   1.971
 5690SOL    HW117969   4.785   6.441   1.903
 5690SOL    HW217970   4.623   6.450   1.925
 5691SOL     OW17971   2.186   0.064   2.984
 5691SOL    HW117972   2.255   0.035   2.918
 5691SOL    HW217973   2.163   7.012   3.044
 5692SOL     OW17974   6.009   2.866   0.193
 5692SOL    HW117975   6.023   2.796   0.263
 5692SOL    HW217976   5.921   2.850   0.148
 5693SOL     OW17977   4.694   2.667   2.780
 5693SOL    HW117978   4.708   2.726   2.860
 5693SOL    HW217979   4.731   2.712   2.699
 5694SOL     OW17980   1.310   2.099   4.414
 5694SOL    HW117981   1.264   2.161   4.351
 5694SOL    HW217982   1.390   2.059   4.370
 5695SOL     OW17983   1.476   3.737   3.683
 5695SOL    HW117984   1.497   3.818   3.738
 5695SOL    HW217985   1.554   3.717   3.624
 5696SOL     OW17986   3.530   6.971   5.954
 5696SOL    HW117987   3.605   6.905   5.959
 5696SOL    HW217988   3.510   6.993   5.859
 5697SOL     OW17989   6.631   3.380   6.883
 5697SOL    HW117990   6.554   3.438   6.908
 5697SOL    HW217991   6.608   3.326   6.802
 5698SOL     OW17992   1.105   4.264   2.319
 5698SOL    HW117993   1.071   4.170   2.321
 5698SOL    HW217994   1.092   4.301   2.227
 5699SOL     OW17995   6.633   1.551   4.866
 5699SOL    HW117996   6.680   1.546   4.954
 5699SOL    HW217997   6.535   1.541   4.880
 5700SOL     OW17998   1.111   5.024   3.425
 5700SOL    HW117999   1.152   4.981   3.505
 5700SOL    HW218000   1.031   5.077   3.452
 5701SOL     OW18001   5.073   5.064   1.745
 5701SOL    HW118002   5.037   5.105   1.829
 5701SOL    HW218003   5.151   5.118   1.712
 5702SOL     OW18004   2.064   0.450   6.705
 5702SOL    HW118005   2.082   0.461   6.803
 5702SOL    HW218006   2.136   0.395   6.663
 5703SOL     OW18007   4.290   4.675   0.845
 5703SOL    HW118008   4.353   4.699   0.919
 5703SOL    HW218009   4.214   4.621   0.881
 5704SOL     OW18010   4.215   5.534   4.093
 5704SOL    HW118011   4.315   5.535   4.100
 5704SOL    HW218012   4.186   5.604   4.028
 5705SOL     OW18013   6.098   1.686   2.425
 5705SOL    HW118014   6.167   1.628   2.469
 5705SOL    HW218015   6.142   1.763   2.380
 5706SOL     OW18016   2.317   0.965   6.531
 5706SOL    HW118017   2.268   1.049   6.555
 5706SOL    HW218018   2.403   0.961   6.582
 5707SOL     OW18019   2.868   2.316   5.955
 5707SOL    HW118020   2.905   2.230   5.920
 5707SOL    HW218021   2.940   2.365   6.005
 5708SOL     OW18022   5.580   0.042   1.967
 5708SOL    HW118023   5.663   0.050   1.912
 5708SOL    HW218024   5.562   0.129   2.013
 5709SOL     OW18025   0.909   0.853   3.033
 5709SOL    HW118026   0.908   0.933   2.973
 5709SOL    HW218027   0.821   0.845   3.079
 5710SOL     OW18028   2.935   4.578   5.908
 5710SOL    HW118029   2.911   4.587   6.004
 5710SOL    HW218030   2.861   4.615   5.852
 5711SOL     OW18031   4.641   1.798   4.514
 5711SOL    HW118032   4.546   1.804   4.482
 5711SOL    HW218033   4.700   1.850   4.452
 5712SOL     OW18034   6.979   5.783   6.336
 5712SOL    HW118035   0.024   5.835   6.386
 5712SOL    HW218036   7.016   5.694   6.311
 5713SOL     OW18037   6.990   2.347   2.876
 5713SOL    HW118038   0.015   2.293   2.944
 5713SOL    HW218039   7.000   2.306   2.786
 5714SOL     OW18040   2.028   0.766   6.749
 5714SOL    HW118041   2.115   0.815   6.743
 5714SOL    HW218042   1.991   0.752   6.657
 5715SOL     OW18043   1.540   0.323   3.477
 5715SOL    HW118044   1.637   0.327   3.452
 5715SOL    HW218045   1.520   0.394   3.544
 5716SOL     OW18046   1.841   3.227   5.150
 5716SOL    HW118047   1.914   3.229   5.081
 5716SOL    HW218048   1.874   3.273   5.233
 5717SOL     OW18049   0.609   4.233   0.337
 5717SOL    HW118050   0.550   4.310   0.317
 5717SOL    HW218051   0.628   4.230   0.435
 5718SOL     OW18052   2.043   4.961   5.468
 5718SOL    HW118053   1.946   4.944   5.451
 5718SOL    HW218054   2.096   4.930   5.389
 5719SOL     OW18055   2.364   0.345   6.748
 5719SOL    HW118056   2.430   0.300   6.808
 5719SOL    HW218057   2.405   0.358   6.657
 5720SOL     OW18058   2.243   5.222   3.979
 5720SOL    HW118059   2.280   5.249   3.891
 5720SOL    HW218060   2.207   5.302   4.027
 5721SOL     OW18061   0.687   4.582   1.466
 5721SOL    HW118062   0.667   4.588   1.564
 5721SOL    HW218063   0.762   4.644   1.443
 5722SOL     OW18064   5.188   0.999   3.921
 5722SOL    HW118065   5.218   0.939   3.995
 5722SOL    HW218066   5.090   0.988   3.906
 5723SOL     OW18067   1.666   4.639   1.098
 5723SOL    HW118068   1.592   4.574   1.083
 5723SOL    HW218069   1.628   4.727   1.128
 5724SOL     OW18070   4.951   1.734   6.770
 5724SOL    HW118071   5.001   1.652   6.742
 5724SOL    HW218072   5.011   1.814   6.762
 5725SOL     OW18073   5.224   5.718   6.053
 5725SOL    HW118074   5.261   5.625   6.041
 5725SOL    HW218075   5.126   5.713   6.068
 5726SOL     OW18076   4.491   3.100   6.358
 5726SOL    HW118077   4.494   3.008   6.398
 5726SOL    HW218078   4.581   3.141   6.364
 5727SOL     OW18079   6.007   1.891   3.908
 5727SOL    HW118080   5.948   1.815   3.936
 5727SOL    HW218081   6.089   1.892   3.965
 5728SOL     OW18082   5.743   1.057   6.492
 5728SOL    HW118083   5.655   1.010   6.507
 5728SOL    HW218084   5.792   1.013   6.417
 5729SOL     OW18085   0.942   2.959   5.518
 5729SOL    HW118086   0.931   2.873   5.468
 5729SOL    HW218087   0.990   3.025   5.459
 5730SOL     OW18088   4.098   5.428   6.830
 5730SOL    HW118089   4.092   5.425   6.730
 5730SOL    HW218090   4.187   5.395   6.859
 5731SOL     OW18091   3.563   1.004   4.473
 5731SOL    HW118092   3.529   1.083   4.421
 5731SOL    HW218093   3.556   0.922   4.417
 5732SOL     OW18094   5.813   4.318   3.946
 5732SOL    HW118095   5.900   4.308   3.994
 5732SOL    HW218096   5.828   4.372   3.863
 5733SOL     OW18097   3.147   0.176   0.786
 5733SOL    HW118098   3.188   0.200   0.698
 5733SOL    HW218099   3.187   0.234   0.858
 5734SOL     OW18100   2.401   5.713   6.289
 5734SOL    HW118101   2.383   5.769   6.208
 5734SOL    HW218102   2.401   5.617   6.264
 5735SOL     OW18103   4.762   0.718   2.125
 5735SOL    HW118104   4.824   0.702   2.202
 5735SOL    HW218105   4.742   0.631   2.080
 5736SOL     OW18106   5.779   4.073   0.313
 5736SOL    HW118107   5.752   4.110   0.224
 5736SOL    HW218108   5.708   4.011   0.346
 5737SOL     OW18109   4.196   5.258   1.220
 5737SOL    HW118110   4.253   5.275   1.301
 5737SOL    HW218111   4.158   5.165   1.226
 5738SOL     OW18112   2.903   0.607   0.252
 5738SOL    HW118113   2.833   0.579   0.317
 5738SOL    HW218114   2.863   0.614   0.160
 5739SOL     OW18115   1.886   0.987   5.791
 5739SOL    HW118116   1.815   0.921   5.766
 5739SOL    HW218117   1.890   1.059   5.721
 5740SOL     OW18118   4.867   3.480   1.796
 5740SOL    HW118119   4.816   3.394   1.801
 5740SOL    HW218120   4.947   3.469   1.738
 5741SOL     OW18121   0.690   3.641   4.045
 5741SOL    HW118122   0.701   3.541   4.042
 5741SOL    HW218123   0.763   3.679   4.103
 5742SOL     OW18124   4.907   0.456   3.053
 5742SOL    HW118125   4.903   0.556   3.043
 5742SOL    HW218126   4.998   0.424   3.029
 5743SOL     OW18127   3.687   5.239   0.283
 5743SOL    HW118128   3.638   5.201   0.361
 5743SOL    HW218129   3.624   5.290   0.225
 5744SOL     OW18130   4.997   6.750   2.880
 5744SOL    HW118131   5.060   6.677   2.855
 5744SOL    HW218132   4.904   6.713   2.889
 5745SOL     OW18133   1.337   2.934   1.922
 5745SOL    HW118134   1.383   3.022   1.914
 5745SOL    HW218135   1.267   2.926   1.850
 5746SOL     OW18136   4.746   6.859   3.386
 5746SOL    HW118137   4.718   6.893   3.297
 5746SOL    HW218138   4.764   6.936   3.447
 5747SOL     OW18139   1.182   6.560   0.923
 5747SOL    HW118140   1.241   6.510   0.987
 5747SOL    HW218141   1.125   6.624   0.973
 5748SOL     OW18142   0.397   5.834   0.657
 5748SOL    HW118143   0.305   5.836   0.696
 5748SOL    HW218144   0.438   5.925   0.664
 5749SOL     OW18145   1.712   5.651   6.220
 5749SOL    HW118146   1.811   5.643   6.206
 5749SOL    HW218147   1.688   5.747   6.234
 5750SOL     OW18148   6.333   3.570   4.122
 5750SOL    HW118149   6.378   3.563   4.211
 5750SOL    HW218150   6.379   3.510   4.057
 5751SOL     OW18151   1.334   3.703   4.735
 5751SOL    HW118152   1.404   3.676   4.670
 5751SOL    HW218153   1.359   3.673   4.826
 5752SOL     OW18154   4.754   0.461   0.847
 5752SOL    HW118155   4.792   0.450   0.755
 5752SOL    HW218156   4.719   0.373   0.879
 5753SOL     OW18157   3.697   4.133   4.992
 5753SOL    HW118158   3.618   4.155   4.933
 5753SOL    HW218159   3.710   4.206   5.058
 5754SOL     OW18160   0.590   5.485   1.493
 5754SOL    HW118161   0.683   5.510   1.522
 5754SOL    HW218162   0.525   5.550   1.533
 5755SOL     OW18163   1.126   2.310   6.725
 5755SOL    HW118164   1.159   2.263   6.643
 5755SOL    HW218165   1.161   2.404   6.725
 5756SOL     OW18166   5.849   6.105   1.354
 5756SOL    HW118167   5.903   6.105   1.269
 5756SOL    HW218168   5.752   6.110   1.331
 5757SOL     OW18169   6.515   0.573   4.395
 5757SOL    HW118170   6.484   0.525   4.477
 5757SOL    HW218171   6.610   0.601   4.408
 5758SOL     OW18172   6.125   6.889   3.050
 5758SOL    HW118173   6.057   6.858   2.984
 5758SOL    HW218174   6.199   6.823   3.055
 5759SOL     OW18175   3.644   0.040   1.240
 5759SOL    HW118176   3.580   0.072   1.170
 5759SOL    HW218177   3.684   6.977   1.211
 5760SOL     OW18178   1.036   2.999   0.612
 5760SOL    HW118179   1.054   3.097   0.601
 5760SOL    HW218180   0.961   2.986   0.676
 5761SOL     OW18181   5.829   0.090   4.304
 5761SOL    HW118182   5.871   0.034   4.233
 5761SOL    HW218183   5.801   0.032   4.380
 5762SOL     OW18184   6.537   5.799   6.782
 5762SOL    HW118185   6.630   5.817   6.752
 5762SOL    HW218186   6.523   5.700   6.790
 5763SOL     OW18187   6.014   6.942   6.718
 5763SOL    HW118188   5.932   6.897   6.754
 5763SOL    HW218189   6.015   0.013   6.748
 5764SOL     OW18190   4.762   6.852   3.862
 5764SOL    HW118191   4.727   6.761   3.841
 5764SOL    HW218192   4.685   6.914   3.879
 5765SOL     OW18193   5.831   5.329   2.370
 5765SOL    HW118194   5.789   5.304   2.283
 5765SOL    HW218195   5.856   5.246   2.420
 5766SOL     OW18196   0.222   1.600   4.208
 5766SOL    HW118197   0.244   1.523   4.269
 5766SOL    HW218198   0.294   1.670   4.216
 5767SOL     OW18199   3.676   6.682   0.005
 5767SOL    HW118200   3.603   6.741   0.039
 5767SOL    HW218201   3.733   6.734   6.966
 5768SOL     OW18202   0.302   0.585   4.571
 5768SOL    HW118203   0.368   0.563   4.643
 5768SOL    HW218204   0.221   0.627   4.613
 5769SOL     OW18205   1.705   4.059   6.478
 5769SOL    HW118206   1.638   4.092   6.412
 5769SOL    HW218207   1.696   4.110   6.564
 5770SOL     OW18208   1.841   4.551   1.720
 5770SOL    HW118209   1.830   4.517   1.627
 5770SOL    HW218210   1.884   4.641   1.719
 5771SOL     OW18211   3.380   5.230   3.363
 5771SOL    HW118212   3.362   5.273   3.451
 5771SOL    HW218213   3.388   5.131   3.374
 5772SOL     OW18214   2.879   0.210   2.329
 5772SOL    HW118215   2.798   0.216   2.387
 5772SOL    HW218216   2.961   0.221   2.384
 5773SOL     OW18217   4.730   1.887   2.380
 5773SOL    HW118218   4.684   1.901   2.468
 5773SOL    HW218219   4.662   1.885   2.307
 5774SOL     OW18220   0.134   6.495   2.274
 5774SOL    HW118221   0.232   6.508   2.292
 5774SOL    HW218222   0.083   6.505   2.360
 5775SOL     OW18223   6.710   5.724   1.925
 5775SOL    HW118224   6.646   5.781   1.875
 5775SOL    HW218225   6.746   5.653   1.864
 5776SOL     OW18226   2.438   1.273   4.252
 5776SOL    HW118227   2.430   1.197   4.317
 5776SOL    HW218228   2.369   1.342   4.273
 5777SOL     OW18229   1.673   6.086   2.688
 5777SOL    HW118230   1.694   6.057   2.594
 5777SOL    HW218231   1.675   6.006   2.748
 5778SOL     OW18232   0.702   1.880   0.979
 5778SOL    HW118233   0.712   1.797   0.924
 5778SOL    HW218234   0.605   1.901   0.988
 5779SOL     OW18235   5.762   1.616   5.945
 5779SOL    HW118236   5.701   1.682   5.988
 5779SOL    HW218237   5.853   1.656   5.935
 5780SOL     OW18238   5.262   6.071   3.829
 5780SOL    HW118239   5.241   6.168   3.816
 5780SOL    HW218240   5.222   6.040   3.915
 5781SOL     OW18241   0.541   4.721   4.922
 5781SOL    HW118242   0.459   4.683   4.878
 5781SOL    HW218243   0.561   4.671   5.006
 5782SOL     OW18244   0.875   0.365   0.180
 5782SOL    HW118245   0.917   0.453   0.159
 5782SOL    HW218246   0.776   0.378   0.190
 5783SOL     OW18247   1.304   1.707   0.869
 5783SOL    HW118248   1.278   1.720   0.773
 5783SOL    HW218249   1.403   1.698   0.876
 5784SOL     OW18250   6.502   6.035   6.558
 5784SOL    HW118251   6.549   6.006   6.642
 5784SOL    HW218252   6.515   5.966   6.487
 5785SOL     OW18253   1.241   1.746   0.610
 5785SOL    HW118254   1.311   1.798   0.562
 5785SOL    HW218255   1.241   1.651   0.579
 5786SOL     OW18256   5.730   4.507   1.065
 5786SOL    HW118257   5.821   4.526   1.101
 5786SOL    HW218258   5.680   4.449   1.128
 5787SOL     OW18259   3.156   2.512   5.825
 5787SOL    HW118260   3.114   2.499   5.735
 5787SOL    HW218261   3.254   2.532   5.814
 5788SOL     OW18262   2.581   1.088   3.793
 5788SOL    HW118263   2.582   1.169   3.850
 5788SOL    HW218264   2.567   1.114   3.697
 5789SOL     OW18265   4.163   4.834   6.192
 5789SOL    HW118266   4.205   4.876   6.112
 5789SOL    HW218267   4.115   4.751   6.164
 5790SOL     OW18268   0.659   2.834   3.385
 5790SOL    HW118269   0.592   2.761   3.375
 5790SOL    HW218270   0.740   2.814   3.329
 5791SOL     OW18271   2.607   0.799   2.848
 5791SOL    HW118272   2.527   0.779   2.905
 5791SOL    HW218273   2.585   0.873   2.784
 5792SOL     OW18274   6.453   2.601   2.732
 5792SOL    HW118275   6.358   2.613   2.759
 5792SOL    HW218276   6.457   2.586   2.633
 5793SOL     OW18277   0.309   0.688   3.820
 5793SOL    HW118278   0.222   0.645   3.794
 5793SOL    HW218279   0.376   0.617   3.840
 5794SOL     OW18280   4.679   3.550   0.016
 5794SOL    HW118281   4.742   3.610   0.065
 5794SOL    HW218282   4.610   3.604   6.993
 5795SOL     OW18283   5.718   4.337   6.456
 5795SOL    HW118284   5.712   4.265   6.526
 5795SOL    HW218285   5.810   4.337   6.417
 5796SOL     OW18286   3.899   1.435   0.411
 5796SOL    HW118287   3.991   1.474   0.404
 5796SOL    HW218288   3.834   1.495   0.363
 5797SOL     OW18289   2.995   1.913   4.879
 5797SOL    HW118290   3.068   1.916   4.811
 5797SOL    HW218291   2.979   2.005   4.915
 5798SOL     OW18292   6.673   4.476   4.569
 5798SOL    HW118293   6.661   4.574   4.585
 5798SOL    HW218294   6.639   4.453   4.478
 5799SOL     OW18295   5.291   0.318   3.920
 5799SOL    HW118296   5.345   0.239   3.952
 5799SOL    HW218297   5.342   0.365   3.848
 5800SOL     OW18298   6.252   4.948   0.651
 5800SOL    HW118299   6.313   4.939   0.730
 5800SOL    HW218300   6.164   4.987   0.682
 5801SOL     OW18301   1.986   1.910   3.674
 5801SOL    HW118302   2.025   1.843   3.738
 5801SOL    HW218303   1.960   1.992   3.724
 5802SOL     OW18304   0.806   3.365   5.471
 5802SOL    HW118305   0.816   3.273   5.511
 5802SOL    HW218306   0.838   3.363   5.377
 5803SOL     OW18307   1.574   4.647   0.385
 5803SOL    HW118308   1.616   4.697   0.309
 5803SOL    HW218309   1.542   4.712   0.454
 5804SOL     OW18310   6.192   3.819   4.631
 5804SOL    HW118311   6.134   3.846   4.554
 5804SOL    HW218312   6.264   3.757   4.598
 5805SOL     OW18313   5.084   3.111   6.667
 5805SOL    HW118314   5.165   3.170   6.667
 5805SOL    HW218315   5.086   3.052   6.586
 5806SOL     OW18316   0.914   6.273   0.017
 5806SOL    HW118317   0.865   6.186   0.011
 5806SOL    HW218318   0.864   6.335   0.077
 5807SOL     OW18319   1.747   3.452   1.884
 5807SOL    HW118320   1.823   3.394   1.912
 5807SOL    HW218321   1.780   3.545   1.868
 5808SOL     OW18322   6.550   4.012   2.965
 5808SOL    HW118323   6.478   3.942   2.960
 5808SOL    HW218324   6.583   4.032   2.873
 5809SOL     OW18325   6.998   3.792   4.226
 5809SOL    HW118326   0.035   3.715   4.244
 5809SOL    HW218327   0.026   3.877   4.222
 5810SOL     OW18328   2.570   2.049   2.319
 5810SOL    HW118329   2.628   2.126   2.344
 5810SOL    HW218330   2.474   2.072   2.337
 5811SOL     OW18331   2.509   1.313   3.979
 5811SOL    HW118332   2.469   1.398   3.945
 5811SOL    HW218333   2.479   1.298   4.074
 5812SOL     OW18334   4.631   0.716   4.262
 5812SOL    HW118335   4.540   0.756   4.250
 5812SOL    HW218336   4.624   0.616   4.260
 5813SOL     OW18337   1.129   0.595   5.504
 5813SOL    HW118338   1.096   0.660   5.571
 5813SOL    HW218339   1.211   0.549   5.539
 5814SOL     OW18340   0.704   5.370   1.196
 5814SOL    HW118341   0.648   5.302   1.243
 5814SOL    HW218342   0.786   5.389   1.250
 5815SOL     OW18343   3.643   1.468   2.704
 5815SOL    HW118344   3.706   1.530   2.657
 5815SOL    HW218345   3.601   1.515   2.782
 5816SOL     OW18346   4.776   0.597   0.412
 5816SOL    HW118347   4.762   0.541   0.493
 5816SOL    HW218348   4.722   0.560   0.336
 5817SOL     OW18349   4.923   3.211   4.937
 5817SOL    HW118350   4.991   3.137   4.941
 5817SOL    HW218351   4.846   3.188   4.997
 5818SOL     OW18352   6.148   6.454   6.445
 5818SOL    HW118353   6.120   6.534   6.498
 5818SOL    HW218354   6.220   6.405   6.493
 5819SOL     OW18355   5.940   0.241   1.673
 5819SOL    HW118356   5.963   0.338   1.673
 5819SOL    HW218357   6.017   0.188   1.637
 5820SOL     OW18358   5.666   6.402   3.650
 5820SOL    HW118359   5.736   6.362   3.710
 5820SOL    HW218360   5.653   6.498   3.674
 5821SOL     OW18361   2.600   0.971   1.895
 5821SOL    HW118362   2.504   0.952   1.915
 5821SOL    HW218363   2.651   0.885   1.895
 5822SOL     OW18364   0.175   1.432   2.112
 5822SOL    HW118365   0.192   1.528   2.087
 5822SOL    HW218366   0.122   1.388   2.041
 5823SOL     OW18367   2.215   1.858   4.302
 5823SOL    HW118368   2.155   1.808   4.364
 5823SOL    HW218369   2.304   1.812   4.298
 5824SOL     OW18370   5.081   6.950   3.376
 5824SOL    HW118371   5.175   6.933   3.347
 5824SOL    HW218372   5.025   6.869   3.356
 5825SOL     OW18373   2.634   0.474   0.340
 5825SOL    HW118374   2.537   0.499   0.337
 5825SOL    HW218375   2.650   0.414   0.419
 5826SOL     OW18376   6.291   0.235   5.001
 5826SOL    HW118377   6.281   0.278   5.091
 5826SOL    HW218378   6.216   0.171   4.986
 5827SOL     OW18379   0.780   5.439   4.959
 5827SOL    HW118380   0.785   5.340   4.973
 5827SOL    HW218381   0.861   5.470   4.909
 5828SOL     OW18382   0.031   3.735   1.950
 5828SOL    HW118383   0.110   3.681   1.979
 5828SOL    HW218384   0.009   3.714   1.855
 5829SOL     OW18385   1.846   1.041   1.763
 5829SOL    HW118386   1.802   1.118   1.810
 5829SOL    HW218387   1.936   1.068   1.731
 5830SOL     OW18388   2.937   1.378   6.526
 5830SOL    HW118389   2.861   1.442   6.514
 5830SOL    HW218390   2.999   1.383   6.448
 5831SOL     OW18391   5.558   6.851   3.361
 5831SOL    HW118392   5.531   6.940   3.325
 5831SOL    HW218393   5.477   6.798   3.385
 5832SOL     OW18394   4.038   4.130   5.246
 5832SOL    HW118395   4.035   4.036   5.277
 5832SOL    HW218396   4.130   4.167   5.259
 5833SOL     OW18397   3.514   2.948   4.902
 5833SOL    HW118398   3.612   2.942   4.921
 5833SOL    HW218399   3.496   2.912   4.811
 5834SOL     OW18400   6.235   1.085   1.136
 5834SOL    HW118401   6.299   1.121   1.068
 5834SOL    HW218402   6.141   1.109   1.110
 5835SOL     OW18403   5.562   2.423   3.659
 5835SOL    HW118404   5.497   2.470   3.599
 5835SOL    HW218405   5.585   2.482   3.736
 5836SOL     OW18406   3.770   5.956   2.171
 5836SOL    HW118407   3.772   5.865   2.213
 5836SOL    HW218408   3.737   5.949   2.077
 5837SOL     OW18409   5.009   4.234   6.544
 5837SOL    HW118410   4.940   4.169   6.512
 5837SOL    HW218411   4.977   4.327   6.528
 5838SOL     OW18412   0.908   0.965   5.302
 5838SOL    HW118413   0.951   1.030   5.365
 5838SOL    HW218414   0.812   0.989   5.289
 5839SOL     OW18415   6.439   3.270   3.051
 5839SOL    HW118416   6.500   3.271   2.972
 5839SOL    HW218417   6.361   3.209   3.032
 5840SOL     OW18418   1.730   5.302   6.761
 5840SOL    HW118419   1.718   5.209   6.728
 5840SOL    HW218420   1.796   5.303   6.836
 5841SOL     OW18421   6.817   2.592   3.921
 5841SOL    HW118422   6.795   2.681   3.960
 5841SOL    HW218423   6.822   2.600   3.822
 5842SOL     OW18424   3.771   2.990   0.792
 5842SOL    HW118425   3.782   2.993   0.891
 5842SOL    HW218426   3.767   2.895   0.761
 5843SOL     OW18427   1.787   3.907   2.294
 5843SOL    HW118428   1.744   3.953   2.372
 5843SOL    HW218429   1.829   3.822   2.325
 5844SOL     OW18430   1.119   6.422   6.673
 5844SOL    HW118431   1.149   6.466   6.757
 5844SOL    HW218432   1.130   6.322   6.681
 5845SOL     OW18433   0.993   2.622   4.091
 5845SOL    HW118434   0.949   2.621   4.001
 5845SOL    HW218435   0.945   2.686   4.151
 5846SOL     OW18436   0.179   2.863   5.697
 5846SOL    HW118437   0.278   2.859   5.686
 5846SOL    HW218438   0.148   2.787   5.754
 5847SOL     OW18439   2.080   2.775   2.362
 5847SOL    HW118440   2.111   2.831   2.285
 5847SOL    HW218441   2.093   2.825   2.447
 5848SOL     OW18442   1.331   4.421   3.215
 5848SOL    HW118443   1.328   4.389   3.309
 5848SOL    HW218444   1.426   4.428   3.185
 5849SOL     OW18445   2.314   0.299   5.498
 5849SOL    HW118446   2.260   0.357   5.559
 5849SOL    HW218447   2.406   0.337   5.488
 5850SOL     OW18448   0.857   4.852   2.091
 5850SOL    HW118449   0.883   4.763   2.127
 5850SOL    HW218450   0.797   4.899   2.156
 5851SOL     OW18451   6.078   3.947   2.020
 5851SOL    HW118452   6.084   4.019   2.090
 5851SOL    HW218453   5.984   3.913   2.016
 5852SOL     OW18454   4.380   5.853   2.769
 5852SOL    HW118455   4.355   5.784   2.701
 5852SOL    HW218456   4.463   5.900   2.740
 5853SOL     OW18457   3.548   4.580   5.574
 5853SOL    HW118458   3.541   4.546   5.667
 5853SOL    HW218459   3.639   4.561   5.538
 5854SOL     OW18460   6.758   1.193   6.049
 5854SOL    HW118461   6.724   1.171   5.958
 5854SOL    HW218462   6.755   1.292   6.062
 5855SOL     OW18463   0.733   1.100   4.497
 5855SOL    HW118464   0.653   1.044   4.517
 5855SOL    HW218465   0.814   1.057   4.539
 5856SOL     OW18466   1.968   4.370   3.868
 5856SOL    HW118467   1.886   4.313   3.878
 5856SOL    HW218468   1.962   4.448   3.931
 5857SOL     OW18469   6.286   3.192   5.463
 5857SOL    HW118470   6.191   3.182   5.433
 5857SOL    HW218471   6.339   3.114   5.431
 5858SOL     OW18472   3.525   1.171   2.347
 5858SOL    HW118473   3.593   1.100   2.365
 5858SOL    HW218474   3.572   1.257   2.325
 5859SOL     OW18475   5.959   6.339   0.581
 5859SOL    HW118476   5.933   6.373   0.490
 5859SOL    HW218477   6.037   6.277   0.571
 5860SOL     OW18478   1.778   3.807   1.649
 5860SOL    HW118479   1.838   3.869   1.600
 5860SOL    HW218480   1.702   3.780   1.590
 5861SOL     OW18481   6.349   2.458   4.458
 5861SOL    HW118482   6.365   2.557   4.454
 5861SOL    HW218483   6.402   2.413   4.387
 5862SOL     OW18484   4.413   4.509   2.955
 5862SOL    HW118485   4.398   4.572   2.878
 5862SOL    HW218486   4.331   4.452   2.968
 5863SOL     OW18487   2.579   1.090   0.011
 5863SOL    HW118488   2.571   1.166   0.075
 5863SOL    HW218489   2.656   1.106   6.974
 5864SOL     OW18490   4.737   4.730   1.500
 5864SOL    HW118491   4.830   4.702   1.479
 5864SOL    HW218492   4.732   4.760   1.596
 5865SOL     OW18493   4.730   1.098   3.043
 5865SOL    HW118494   4.817   1.064   3.077
 5865SOL    HW218495   4.673   1.021   3.012
 5866SOL     OW18496   4.218   0.544   6.039
 5866SOL    HW118497   4.148   0.574   5.974
 5866SOL    HW218498   4.286   0.489   5.991
 5867SOL     OW18499   0.124   2.757   1.618
 5867SOL    HW118500   0.172   2.754   1.705
 5867SOL    HW218501   0.183   2.797   1.548
 5868SOL     OW18502   1.602   6.802   5.399
 5868SOL    HW118503   1.641   6.799   5.491
 5868SOL    HW218504   1.522   6.742   5.394
 5869SOL     OW18505   2.939   4.889   3.857
 5869SOL    HW118506   2.845   4.865   3.832
 5869SOL    HW218507   2.943   4.986   3.881
 5870SOL     OW18508   4.974   5.170   4.579
 5870SOL    HW118509   4.914   5.124   4.515
 5870SOL    HW218510   5.069   5.145   4.560
 5871SOL     OW18511   3.244   3.158   6.846
 5871SOL    HW118512   3.186   3.102   6.905
 5871SOL    HW218513   3.260   3.246   6.890
 5872SOL     OW18514   3.105   6.247   5.718
 5872SOL    HW118515   3.132   6.175   5.782
 5872SOL    HW218516   3.182   6.307   5.701
 5873SOL     OW18517   2.585   3.499   7.023
 5873SOL    HW118518   2.568   3.570   6.955
 5873SOL    HW218519   2.517   3.506   0.072
 5874SOL     OW18520   1.720   4.060   1.094
 5874SOL    HW118521   1.672   4.146   1.111
 5874SOL    HW218522   1.804   4.078   1.043
 5875SOL     OW18523   3.796   1.735   0.012
 5875SOL    HW118524   3.852   1.692   0.083
 5875SOL    HW218525   3.707   1.690   0.008
 5876SOL     OW18526   3.284   4.278   6.103
 5876SOL    HW118527   3.260   4.297   6.198
 5876SOL    HW218528   3.383   4.277   6.093
 5877SOL     OW18529   0.297   7.011   3.044
 5877SOL    HW118530   0.320   0.023   3.135
 5877SOL    HW218531   0.369   6.949   3.014
 5878SOL     OW18532   5.018   4.742   3.014
 5878SOL    HW118533   5.104   4.699   3.044
 5878SOL    HW218534   4.947   4.725   3.083
 5879SOL     OW18535   3.880   3.475   5.906
 5879SOL    HW118536   3.790   3.442   5.936
 5879SOL    HW218537   3.948   3.403   5.918
 5880SOL     OW18538   5.350   2.592   5.413
 5880SOL    HW118539   5.361   2.493   5.406
 5880SOL    HW218540   5.435   2.632   5.449
 5881SOL     OW18541   1.522   5.901   2.432
 5881SOL    HW118542   1.614   5.880   2.400
 5881SOL    HW218543   1.520   5.902   2.532
 5882SOL     OW18544   1.814   5.697   5.768
 5882SOL    HW118545   1.804   5.664   5.675
 5882SOL    HW218546   1.744   5.656   5.826
 5883SOL     OW18547   0.480   4.197   1.146
 5883SOL    HW118548   0.544   4.270   1.123
 5883SOL    HW218549   0.457   4.202   1.243
 5884SOL     OW18550   6.417   2.042   3.419
 5884SOL    HW118551   6.429   2.121   3.480
 5884SOL    HW218552   6.386   1.963   3.472
 5885SOL     OW18553   0.177   5.198   0.062
 5885SOL    HW118554   0.134   5.269   0.005
 5885SOL    HW218555   0.144   5.207   0.156
 5886SOL     OW18556   1.737   3.848   3.536
 5886SOL    HW118557   1.767   3.849   3.440
 5886SOL    HW218558   1.773   3.929   3.582
 5887SOL     OW18559   2.078   2.776   1.055
 5887SOL    HW118560   2.031   2.773   1.143
 5887SOL    HW218561   2.030   2.838   0.993
 5888SOL     OW18562   3.445   6.558   0.748
 5888SOL    HW118563   3.347   6.551   0.731
 5888SOL    HW218564   3.495   6.550   0.661
 5889SOL     OW18565   5.914   0.703   2.086
 5889SOL    HW118566   5.846   0.722   2.157
 5889SOL    HW218567   5.869   0.704   1.996
 5890SOL     OW18568   2.468   6.010   2.693
 5890SOL    HW118569   2.501   5.941   2.757
 5890SOL    HW218570   2.522   6.006   2.609
 5891SOL     OW18571   2.565   3.551   0.802
 5891SOL    HW118572   2.528   3.467   0.762
 5891SOL    HW218573   2.631   3.592   0.740
 5892SOL     OW18574   1.137   4.068   1.140
 5892SOL    HW118575   1.091   4.109   1.218
 5892SOL    HW218576   1.218   4.018   1.171
 5893SOL     OW18577   0.831   6.474   1.878
 5893SOL    HW118578   0.768   6.464   1.801
 5893SOL    HW218579   0.830   6.569   1.909
 5894SOL     OW18580   2.243   5.244   6.265
 5894SOL    HW118581   2.275   5.169   6.206
 5894SOL    HW218582   2.149   5.267   6.241
 5895SOL     OW18583   5.529   3.615   4.605
 5895SOL    HW118584   5.471   3.597   4.685
 5895SOL    HW218585   5.624   3.623   4.635
 5896SOL     OW18586   5.476   2.406   1.703
 5896SOL    HW118587   5.523   2.465   1.637
 5896SOL    HW218588   5.495   2.440   1.796
 5897SOL     OW18589   4.359   2.579   0.504
 5897SOL    HW118590   4.353   2.543   0.411
 5897SOL    HW218591   4.455   2.592   0.529
 5898SOL     OW18592   1.916   1.371   5.370
 5898SOL    HW118593   1.993   1.434   5.379
 5898SOL    HW218594   1.835   1.422   5.339
 5899SOL     OW18595   6.953   5.860   5.979
 5899SOL    HW118596   0.009   5.878   6.035
 5899SOL    HW218597   6.870   5.877   6.033
 5900SOL     OW18598   5.902   6.442   3.363
 5900SOL    HW118599   5.902   6.407   3.270
 5900SOL    HW218600   5.839   6.519   3.370
 5901SOL     OW18601   1.596   0.925   5.461
 5901SOL    HW118602   1.507   0.965   5.440
 5901SOL    HW218603   1.641   0.897   5.377
 5902SOL     OW18604   5.123   4.449   5.830
 5902SOL    HW118605   5.070   4.491   5.904
 5902SOL    HW218606   5.220   4.467   5.845
 5903SOL     OW18607   6.282   2.279   5.833
 5903SOL    HW118608   6.287   2.376   5.860
 5903SOL    HW218609   6.348   2.261   5.761
 5904SOL     OW18610   2.092   4.735   1.904
 5904SOL    HW118611   2.013   4.795   1.888
 5904SOL    HW218612   2.073   4.645   1.864
 5905SOL     OW18613   5.828   1.033   4.395
 5905SOL    HW118614   5.799   1.128   4.403
 5905SOL    HW218615   5.841   1.010   4.298
 5906SOL     OW18616   4.777   1.215   5.507
 5906SOL    HW118617   4.794   1.274   5.586
 5906SOL    HW218618   4.820   1.126   5.522
 5907SOL     OW18619   1.830   3.395   6.079
 5907SOL    HW118620   1.897   3.355   6.141
 5907SOL    HW218621   1.877   3.436   6.001
 5908SOL     OW18622   4.865   2.961   5.835
 5908SOL    HW118623   4.900   3.022   5.906
 5908SOL    HW218624   4.898   2.868   5.851
 5909SOL     OW18625   6.887   4.947   4.049
 5909SOL    HW118626   6.862   5.029   3.997
 5909SOL    HW218627   6.901   4.871   3.987
 5910SOL     OW18628   2.267   4.082   0.924
 5910SOL    HW118629   2.196   4.112   0.860
 5910SOL    HW218630   2.224   4.052   1.009
 5911SOL     OW18631   5.836   6.695   6.216
 5911SOL    HW118632   5.873   6.759   6.149
 5911SOL    HW218633   5.750   6.730   6.252
 5912SOL     OW18634   6.872   3.385   6.643
 5912SOL    HW118635   6.788   3.349   6.684
 5912SOL    HW218636   6.850   3.423   6.553
 5913SOL     OW18637   1.186   1.917   5.827
 5913SOL    HW118638   1.233   1.978   5.763
 5913SOL    HW218639   1.221   1.933   5.919
 5914SOL     OW18640   2.038   6.262   1.105
 5914SOL    HW118641   1.970   6.201   1.064
 5914SOL    HW218642   2.018   6.273   1.202
 5915SOL     OW18643   4.900   3.473   2.542
 5915SOL    HW118644   4.898   3.516   2.452
 5915SOL    HW218645   4.894   3.374   2.532
 5916SOL     OW18646   3.051   0.164   5.846
 5916SOL    HW118647   3.010   0.088   5.795
 5916SOL    HW218648   3.035   0.249   5.796
 5917SOL     OW18649   3.754   2.898   3.051
 5917SOL    HW118650   3.831   2.958   3.025
 5917SOL    HW218651   3.705   2.870   2.968
 5918SOL     OW18652   2.226   3.001   4.426
 5918SOL    HW118653   2.270   2.970   4.510
 5918SOL    HW218654   2.237   2.932   4.355
 5919SOL     OW18655   1.159   3.324   6.927
 5919SOL    HW118656   1.197   3.263   6.996
 5919SOL    HW218657   1.211   3.410   6.927
 5920SOL     OW18658   4.011   6.467   6.818
 5920SOL    HW118659   4.059   6.395   6.768
 5920SOL    HW218660   3.994   6.545   6.758
 5921SOL     OW18661   4.234   5.512   5.101
 5921SOL    HW118662   4.294   5.524   5.179
 5921SOL    HW218663   4.286   5.523   5.016
 5922SOL     OW18664   5.690   4.192   2.004
 5922SOL    HW118665   5.651   4.283   2.016
 5922SOL    HW218666   5.770   4.197   1.945
 5923SOL     OW18667   0.603   6.851   3.679
 5923SOL    HW118668   0.548   6.769   3.697
 5923SOL    HW218669   0.656   6.874   3.761
 5924SOL     OW18670   5.466   2.224   4.168
 5924SOL    HW118671   5.534   2.153   4.148
 5924SOL    HW218672   5.425   2.256   4.082
 5925SOL     OW18673   6.117   6.438   1.028
 5925SOL    HW118674   6.025   6.477   1.029
 5925SOL    HW218675   6.182   6.504   1.064
 5926SOL     OW18676   3.770   5.064   1.779
 5926SOL    HW118677   3.742   5.144   1.727
 5926SOL    HW218678   3.805   5.093   1.869
 5927SOL     OW18679   2.519   5.663   2.392
 5927SOL    HW118680   2.449   5.705   2.335
 5927SOL    HW218681   2.536   5.570   2.361
 5928SOL     OW18682   1.310   6.991   1.879
 5928SOL    HW118683   1.245   0.039   1.859
 5928SOL    HW218684   1.311   6.972   1.977
 5929SOL     OW18685   1.349   0.091   5.871
 5929SOL    HW118686   1.426   0.076   5.809
 5929SOL    HW218687   1.277   0.026   5.851
 5930SOL     OW18688   6.844   2.068   4.933
 5930SOL    HW118689   6.752   2.068   4.973
 5930SOL    HW218690   6.865   1.977   4.898
 5931SOL     OW18691   5.907   5.152   0.939
 5931SOL    HW118692   5.852   5.084   0.988
 5931SOL    HW218693   5.967   5.199   1.004
 5932SOL     OW18694   2.293   6.103   0.789
 5932SOL    HW118695   2.283   6.190   0.838
 5932SOL    HW218696   2.389   6.077   0.785
 5933SOL     OW18697   6.307   3.842   2.948
 5933SOL    HW118698   6.326   3.759   2.896
 5933SOL    HW218699   6.267   3.911   2.888
 5934SOL     OW18700   3.628   3.865   3.015
 5934SOL    HW118701   3.618   3.885   3.112
 5934SOL    HW218702   3.543   3.888   2.967
 5935SOL     OW18703   3.597   2.887   3.940
 5935SOL    HW118704   3.534   2.920   3.869
 5935SOL    HW218705   3.691   2.898   3.908
 5936SOL     OW18706   5.368   5.850   6.451
 5936SOL    HW118707   5.444   5.911   6.475
 5936SOL    HW218708   5.316   5.889   6.375
 5937SOL     OW18709   1.835   3.543   1.162
 5937SOL    HW118710   1.807   3.631   1.200
 5937SOL    HW218711   1.931   3.526   1.184
 5938SOL     OW18712   2.102   4.444   1.541
 5938SOL    HW118713   2.067   4.447   1.635
 5938SOL    HW218714   2.195   4.479   1.539
 5939SOL     OW18715   3.453   0.375   3.197
 5939SOL    HW118716   3.496   0.463   3.219
 5939SOL    HW218717   3.407   0.382   3.109
 5940SOL     OW18718   4.042   6.008   3.476
 5940SOL    HW118719   4.013   5.952   3.398
 5940SOL    HW218720   3.984   5.988   3.554
 5941SOL     OW18721   6.245   4.717   1.877
 5941SOL    HW118722   6.172   4.727   1.809
 5941SOL    HW218723   6.224   4.773   1.957
 5942SOL     OW18724   4.866   1.785   5.479
 5942SOL    HW118725   4.840   1.709   5.538
 5942SOL    HW218726   4.920   1.751   5.402
 5943SOL     OW18727   1.113   5.989   6.962
 5943SOL    HW118728   1.205   6.022   6.941
 5943SOL    HW218729   1.116   5.891   6.980
 5944SOL     OW18730   4.269   1.928   2.539
 5944SOL    HW118731   4.272   1.831   2.564
 5944SOL    HW218732   4.362   1.966   2.539
 5945SOL     OW18733   7.001   4.657   5.082
 5945SOL    HW118734   0.034   4.599   5.139
 5945SOL    HW218735   6.908   4.658   5.120
 5946SOL     OW18736   3.834   3.011   5.274
 5946SOL    HW118737   3.907   3.065   5.232
 5946SOL    HW218738   3.862   2.915   5.279
 5947SOL     OW18739   4.265   3.378   1.689
 5947SOL    HW118740   4.257   3.464   1.738
 5947SOL    HW218741   4.177   3.331   1.688
 5948SOL     OW18742   3.690   4.868   2.289
 5948SOL    HW118743   3.688   4.810   2.208
 5948SOL    HW218744   3.610   4.848   2.347
 5949SOL     OW18745   4.517   4.752   1.971
 5949SOL    HW118746   4.443   4.685   1.974
 5949SOL    HW218747   4.596   4.716   2.020
 5950SOL     OW18748   5.971   2.959   3.477
 5950SOL    HW118749   5.955   2.883   3.540
 5950SOL    HW218750   6.069   2.972   3.464
 5951SOL     OW18751   1.646   5.630   4.165
 5951SOL    HW118752   1.567   5.686   4.190
 5951SOL    HW218753   1.715   5.634   4.237
 5952SOL     OW18754   6.886   6.851   5.063
 5952SOL    HW118755   6.960   6.833   5.128
 5952SOL    HW218756   6.906   6.806   4.976
 5953SOL     OW18757   0.350   3.414   6.179
 5953SOL    HW118758   0.382   3.319   6.172
 5953SOL    HW218759   0.321   3.446   6.089
 5954SOL     OW18760   0.082   5.481   6.654
 5954SOL    HW118761   0.101   5.462   6.558
 5954SOL    HW218762   7.019   5.438   6.679
 5955SOL     OW18763   5.522   5.704   2.324
 5955SOL    HW118764   5.425   5.728   2.319
 5955SOL    HW218765   5.577   5.786   2.309
 5956SOL     OW18766   6.043   1.801   0.355
 5956SOL    HW118767   6.009   1.771   0.266
 5956SOL    HW218768   5.965   1.817   0.417
 5957SOL     OW18769   5.391   6.721   6.175
 5957SOL    HW118770   5.314   6.681   6.125
 5957SOL    HW218771   5.419   6.807   6.131
 5958SOL     OW18772   0.690   5.295   1.772
 5958SOL    HW118773   0.734   5.360   1.710
 5958SOL    HW218774   0.733   5.301   1.862
 5959SOL     OW18775   2.350   1.502   6.054
 5959SOL    HW118776   2.309   1.481   6.143
 5959SOL    HW218777   2.439   1.459   6.046
 5960SOL     OW18778   3.133   0.737   3.824
 5960SOL    HW118779   3.081   0.719   3.741
 5960SOL    HW218780   3.174   0.652   3.857
 5961SOL     OW18781   2.803   0.766   5.836
 5961SOL    HW118782   2.843   0.714   5.912
 5961SOL    HW218783   2.867   0.838   5.808
 5962SOL     OW18784   5.109   5.473   2.352
 5962SOL    HW118785   5.155   5.431   2.431
 5962SOL    HW218786   5.149   5.562   2.334
 5963SOL     OW18787   4.051   3.633   2.127
 5963SOL    HW118788   3.987   3.557   2.116
 5963SOL    HW218789   4.052   3.661   2.223
 5964SOL     OW18790   1.209   4.479   5.617
 5964SOL    HW118791   1.157   4.557   5.581
 5964SOL    HW218792   1.235   4.419   5.542
 5965SOL     OW18793   2.745   2.236   5.156
 5965SOL    HW118794   2.667   2.188   5.196
 5965SOL    HW218795   2.715   2.323   5.117
 5966SOL     OW18796   2.242   6.388   3.882
 5966SOL    HW118797   2.178   6.327   3.834
 5966SOL    HW218798   2.286   6.337   3.956
 5967SOL     OW18799   4.843   6.891   2.155
 5967SOL    HW118800   4.860   6.792   2.155
 5967SOL    HW218801   4.900   6.935   2.224
 5968SOL     OW18802   0.360   2.968   4.443
 5968SOL    HW118803   0.291   2.920   4.389
 5968SOL    HW218804   0.364   2.929   4.534
 5969SOL     OW18805   5.494   3.269   3.313
 5969SOL    HW118806   5.406   3.230   3.285
 5969SOL    HW218807   5.559   3.195   3.330
 5970SOL     OW18808   1.441   2.832   3.553
 5970SOL    HW118809   1.353   2.864   3.587
 5970SOL    HW218810   1.504   2.909   3.544
 5971SOL     OW18811   2.254   6.867   2.377
 5971SOL    HW118812   2.301   6.891   2.462
 5971SOL    HW218813   2.182   6.800   2.397
 5972SOL     OW18814   4.651   6.240   0.658
 5972SOL    HW118815   4.642   6.238   0.558
 5972SOL    HW218816   4.567   6.277   0.698
 5973SOL     OW18817   1.777   4.212   3.950
 5973SOL    HW118818   1.692   4.263   3.942
 5973SOL    HW218819   1.770   4.147   4.025
 5974SOL     OW18820   0.915   3.883   6.713
 5974SOL    HW118821   0.921   3.828   6.797
 5974SOL    HW218822   0.843   3.951   6.723
 5975SOL     OW18823   2.328   2.901   0.984
 5975SOL    HW118824   2.404   2.847   0.947
 5975SOL    HW218825   2.249   2.840   1.000
 5976SOL     OW18826   3.165   3.538   5.268
 5976SOL    HW118827   3.210   3.520   5.180
 5976SOL    HW218828   3.105   3.462   5.291
 5977SOL     OW18829   1.263   3.239   2.770
 5977SOL    HW118830   1.185   3.257   2.830
 5977SOL    HW218831   1.344   3.287   2.804
 5978SOL     OW18832   4.960   5.902   2.163
 5978SOL    HW118833   4.893   5.882   2.235
 5978SOL    HW218834   4.981   5.817   2.114
 5979SOL     OW18835   0.649   0.443   3.513
 5979SOL    HW118836   0.669   0.351   3.478
 5979SOL    HW218837   0.711   0.509   3.470
 5980SOL     OW18838   5.996   4.248   6.805
 5980SOL    HW118839   5.931   4.321   6.826
 5980SOL    HW218840   6.070   4.284   6.748
 5981SOL     OW18841   4.405   0.686   2.207
 5981SOL    HW118842   4.368   0.681   2.300
 5981SOL    HW218843   4.471   0.612   2.194
 5982SOL     OW18844   6.833   1.966   6.340
 5982SOL    HW118845   6.884   1.885   6.368
 5982SOL    HW218846   6.782   2.003   6.418
 5983SOL     OW18847   0.934   1.031   4.259
 5983SOL    HW118848   0.967   0.952   4.310
 5983SOL    HW218849   0.855   1.070   4.307
 5984SOL     OW18850   6.921   0.187   5.165
 5984SOL    HW118851   6.929   0.117   5.237
 5984SOL    HW218852   6.825   0.210   5.152
 5985SOL     OW18853   4.378   2.223   4.058
 5985SOL    HW118854   4.380   2.125   4.081
 5985SOL    HW218855   4.469   2.252   4.028
 5986SOL     OW18856   3.626   2.896   2.730
 5986SOL    HW118857   3.654   2.991   2.748
 5986SOL    HW218858   3.550   2.896   2.665
 5987SOL     OW18859   3.908   0.444   5.269
 5987SOL    HW118860   3.860   0.407   5.190
 5987SOL    HW218861   3.894   0.543   5.274
 5988SOL     OW18862   3.818   0.427   3.832
 5988SOL    HW118863   3.867   0.464   3.753
 5988SOL    HW218864   3.864   0.456   3.916
 5989SOL     OW18865   2.604   0.932   6.167
 5989SOL    HW118866   2.657   1.017   6.172
 5989SOL    HW218867   2.582   0.901   6.260
 5990SOL     OW18868   3.122   4.604   1.688
 5990SOL    HW118869   3.084   4.515   1.663
 5990SOL    HW218870   3.221   4.601   1.680
 5991SOL     OW18871   2.821   5.140   3.898
 5991SOL    HW118872   2.766   5.220   3.874
 5991SOL    HW218873   2.779   5.093   3.977
 5992SOL     OW18874   4.636   0.798   3.896
 5992SOL    HW118875   4.680   0.710   3.915
 5992SOL    HW218876   4.675   0.868   3.958
 5993SOL     OW18877   3.125   5.582   4.917
 5993SOL    HW118878   3.147   5.509   4.851
 5993SOL    HW218879   3.087   5.542   5.000
 5994SOL     OW18880   0.270   1.970   2.185
 5994SOL    HW118881   0.279   2.048   2.248
 5994SOL    HW218882   0.250   2.004   2.093
 5995SOL     OW18883   0.027   4.008   1.486
 5995SOL    HW118884   6.966   4.037   1.527
 5995SOL    HW218885   0.074   3.945   1.547
 5996SOL     OW18886   0.594   5.107   5.930
 5996SOL    HW118887   0.632   5.187   5.977
 5996SOL    HW218888   0.644   5.092   5.845
 5997SOL     OW18889   0.476   6.383   2.239
 5997SOL    HW118890   0.572   6.369   2.263
 5997SOL    HW218891   0.446   6.473   2.272
 5998SOL     OW18892   5.234   1.889   2.898
 5998SOL    HW118893   5.179   1.817   2.855
 5998SOL    HW218894   5.181   1.932   2.970
 5999SOL     OW18895   1.555   1.435   2.624
 5999SOL    HW118896   1.613   1.357   2.600
 5999SOL    HW218897   1.571   1.460   2.719
 6000SOL     OW18898   4.534   6.010   2.244
 6000SOL    HW118899   4.485   6.031   2.328
 6000SOL    HW218900   4.519   6.083   2.178
 6001SOL     OW18901   6.241   1.910   0.052
 6001SOL    HW118902   6.232   1.944   6.983
 6001SOL    HW218903   6.207   1.980   0.116
 6002SOL     OW18904   1.730   0.199   2.123
 6002SOL    HW118905   1.803   0.147   2.078
 6002SOL    HW218906   1.763   0.291   2.144
 6003SOL     OW18907   4.756   4.035   3.967
 6003SOL    HW118908   4.814   3.992   4.037
 6003SOL    HW218909   4.671   3.984   3.959
 6004SOL     OW18910   0.100   3.858   2.745
 6004SOL    HW118911   0.062   3.918   2.816
 6004SOL    HW218912   0.115   3.911   2.661
 6005SOL     OW18913   3.065   6.176   2.858
 6005SOL    HW118914   3.030   6.130   2.940
 6005SOL    HW218915   3.056   6.115   2.780
 6006SOL     OW18916   2.283   6.436   0.058
 6006SOL    HW118917   2.198   6.453   0.008
 6006SOL    HW218918   2.304   6.514   0.117
 6007SOL     OW18919   5.554   2.844   3.565
 6007SOL    HW118920   5.550   2.927   3.621
 6007SOL    HW218921   5.615   2.777   3.608
 6008SOL     OW18922   3.708   4.865   6.356
 6008SOL    HW118923   3.738   4.840   6.448
 6008SOL    HW218924   3.638   4.801   6.325
 6009SOL     OW18925   3.283   2.124   4.293
 6009SOL    HW118926   3.349   2.174   4.237
 6009SOL    HW218927   3.267   2.034   4.252
 6010SOL     OW18928   1.010   3.261   3.582
 6010SOL    HW118929   1.003   3.173   3.535
 6010SOL    HW218930   1.096   3.306   3.557
 6011SOL     OW18931   5.978   3.180   2.997
 6011SOL    HW118932   5.964   3.082   3.012
 6011SOL    HW218933   6.022   3.221   3.077
 6012SOL     OW18934   6.662   3.434   0.425
 6012SOL    HW118935   6.757   3.410   0.406
 6012SOL    HW218936   6.619   3.469   0.341
 6013SOL     OW18937   5.744   1.391   2.457
 6013SOL    HW118938   5.762   1.308   2.405
 6013SOL    HW218939   5.698   1.458   2.399
 6014SOL     OW18940   6.170   0.398   1.096
 6014SOL    HW118941   6.256   0.368   1.136
 6014SOL    HW218942   6.183   0.418   0.999
 6015SOL     OW18943   5.693   1.779   4.730
 6015SOL    HW118944   5.653   1.727   4.805
 6015SOL    HW218945   5.624   1.839   4.689
 6016SOL     OW18946   1.953   6.883   5.254
 6016SOL    HW118947   1.856   6.898   5.269
 6016SOL    HW218948   2.002   6.887   5.342
 6017SOL     OW18949   6.766   4.743   2.737
 6017SOL    HW118950   6.844   4.681   2.729
 6017SOL    HW218951   6.714   4.742   2.652
 6018SOL     OW18952   2.248   4.881   0.862
 6018SOL    HW118953   2.152   4.867   0.886
 6018SOL    HW218954   2.263   4.855   0.767
 6019SOL     OW18955   4.234   0.203   4.117
 6019SOL    HW118956   4.239   0.268   4.041
 6019SOL    HW218957   4.326   0.168   4.136
 6020SOL     OW18958   3.755   0.277   2.836
 6020SOL    HW118959   3.776   0.271   2.738
 6020SOL    HW218960   3.691   0.352   2.851
 6021SOL     OW18961   4.045   1.442   3.031
 6021SOL    HW118962   3.997   1.430   3.118
 6021SOL    HW218963   4.082   1.354   3.002
 6022SOL     OW18964   4.223   1.868   4.905
 6022SOL    HW118965   4.255   1.959   4.881
 6022SOL    HW218966   4.133   1.852   4.864
 6023SOL     OW18967   6.856   1.229   2.316
 6023SOL    HW118968   6.907   1.148   2.286
 6023SOL    HW218969   6.759   1.207   2.321
 6024SOL     OW18970   0.846   4.872   2.599
 6024SOL    HW118971   0.836   4.801   2.669
 6024SOL    HW218972   0.756   4.899   2.566
 6025SOL     OW18973   4.382   1.969   1.411
 6025SOL    HW118974   4.449   1.923   1.470
 6025SOL    HW218975   4.428   2.013   1.335
 6026SOL     OW18976   0.550   4.467   5.362
 6026SOL    HW118977   0.539   4.434   5.268
 6026SOL    HW218978   0.471   4.521   5.389
 6027SOL     OW18979   3.056   3.679   0.443
 6027SOL    HW118980   3.132   3.655   0.382
 6027SOL    HW218981   2.969   3.657   0.399
 6028SOL     OW18982   1.565   3.619   0.292
 6028SOL    HW118983   1.584   3.582   0.383
 6028SOL    HW218984   1.478   3.668   0.294
 6029SOL     OW18985   1.801   5.339   1.415
 6029SOL    HW118986   1.814   5.409   1.344
 6029SOL    HW218987   1.807   5.248   1.374
 6030SOL     OW18988   2.426   0.376   1.303
 6030SOL    HW118989   2.369   0.457   1.294
 6030SOL    HW218990   2.372   0.295   1.280
 6031SOL     OW18991   5.122   0.247   5.097
 6031SOL    HW118992   5.056   0.291   5.158
 6031SOL    HW218993   5.073   0.185   5.035
 6032SOL     OW18994   0.272   3.299   2.746
 6032SOL    HW118995   0.189   3.345   2.714
 6032SOL    HW218996   0.271   3.294   2.846
 6033SOL     OW18997   1.040   0.560   4.271
 6033SOL    HW118998   0.979   0.483   4.250
 6033SOL    HW218999   1.123   0.525   4.316
 6034SOL     OW19000   2.103   3.847   5.469
 6034SOL    HW119001   2.063   3.923   5.418
 6034SOL    HW219002   2.151   3.883   5.549
 6035SOL     OW19003   6.113   1.321   4.134
 6035SOL    HW119004   6.181   1.352   4.200
 6035SOL    HW219005   6.021   1.332   4.172
 6036SOL     OW19006   6.920   0.416   4.744
 6036SOL    HW119007   6.900   0.319   4.732
 6036SOL    HW219008   6.839   0.462   4.782
 6037SOL     OW19009   6.315   4.943   4.705
 6037SOL    HW119010   6.400   4.959   4.655
 6037SOL    HW219011   6.319   4.989   4.794
 6038SOL     OW19012   4.686   3.839   6.600
 6038SOL    HW119013   4.610   3.783   6.569
 6038SOL    HW219014   4.772   3.794   6.578
 6039SOL     OW19015   3.338   3.936   2.991
 6039SOL    HW119016   3.238   3.941   2.988
 6039SOL    HW219017   3.372   4.001   3.059
 6040SOL     OW19018   0.341   1.689   0.192
 6040SOL    HW119019   0.379   1.645   0.273
 6040SOL    HW219020   0.333   1.788   0.208
 6041SOL     OW19021   0.749   2.889   0.382
 6041SOL    HW119022   0.700   2.824   0.441
 6041SOL    HW219023   0.803   2.838   0.315
 6042SOL     OW19024   5.009   5.061   3.637
 6042SOL    HW119025   4.968   5.151   3.647
 6042SOL    HW219026   5.093   5.056   3.690
 6043SOL     OW19027   1.120   4.594   4.309
 6043SOL    HW119028   1.104   4.578   4.407
 6043SOL    HW219029   1.080   4.681   4.283
 6044SOL     OW19030   1.155   0.609   2.099
 6044SOL    HW119031   1.086   0.561   2.154
 6044SOL    HW219032   1.234   0.550   2.085
 6045SOL     OW19033   7.011   4.089   1.849
 6045SOL    HW119034   6.939   4.037   1.804
 6045SOL    HW219035   0.052   4.122   1.781
 6046SOL     OW19036   2.617   2.804   0.847
 6046SOL    HW119037   2.644   2.812   0.751
 6046SOL    HW219038   2.650   2.884   0.897
 6047SOL     OW19039   0.055   6.529   4.727
 6047SOL    HW119040   0.011   6.470   4.795
 6047SOL    HW219041   0.073   6.476   4.644
 6048SOL     OW19042   4.360   6.545   5.197
 6048SOL    HW119043   4.356   6.616   5.127
 6048SOL    HW219044   4.391   6.584   5.283
 6049SOL     OW19045   6.502   5.235   1.046
 6049SOL    HW119046   6.594   5.272   1.035
 6049SOL    HW219047   6.435   5.299   1.008
 6050SOL     OW19048   4.851   4.364   5.247
 6050SOL    HW119049   4.815   4.431   5.312
 6050SOL    HW219050   4.891   4.287   5.297
 6051SOL     OW19051   1.777   1.660   2.990
 6051SOL    HW119052   1.863   1.646   2.939
 6051SOL    HW219053   1.786   1.741   3.048
 6052SOL     OW19054   6.804   0.882   0.377
 6052SOL    HW119055   6.806   0.961   0.438
 6052SOL    HW219056   6.798   0.913   0.282
 6053SOL     OW19057   1.699   0.234   6.151
 6053SOL    HW119058   1.668   0.214   6.244
 6053SOL    HW219059   1.793   0.202   6.139
 6054SOL     OW19060   2.488   5.085   0.183
 6054SOL    HW119061   2.577   5.038   0.177
 6054SOL    HW219062   2.496   5.162   0.246
 6055SOL     OW19063   4.935   0.648   4.300
 6055SOL    HW119064   5.028   0.658   4.338
 6055SOL    HW219065   4.869   0.643   4.375
 6056SOL     OW19066   4.803   2.200   6.406
 6056SOL    HW119067   4.763   2.273   6.351
 6056SOL    HW219068   4.871   2.151   6.352
 6057SOL     OW19069   3.531   1.057   5.800
 6057SOL    HW119070   3.485   0.978   5.759
 6057SOL    HW219071   3.464   1.128   5.821
 6058SOL     OW19072   5.683   1.745   4.258
 6058SOL    HW119073   5.638   1.657   4.272
 6058SOL    HW219074   5.735   1.769   4.340
 6059SOL     OW19075   0.149   4.889   6.081
 6059SOL    HW119076   0.243   4.895   6.047
 6059SOL    HW219077   0.148   4.914   6.178
 6060SOL     OW19078   4.241   6.721   5.601
 6060SOL    HW119079   4.274   6.736   5.694
 6060SOL    HW219080   4.319   6.719   5.538
 6061SOL     OW19081   2.256   1.725   6.254
 6061SOL    HW119082   2.269   1.627   6.269
 6061SOL    HW219083   2.305   1.754   6.172
 6062SOL     OW19084   2.594   0.201   4.115
 6062SOL    HW119085   2.627   0.237   4.028
 6062SOL    HW219086   2.660   0.135   4.151
 6063SOL     OW19087   4.382   6.999   6.917
 6063SOL    HW119088   4.379   7.018   7.015
 6063SOL    HW219089   4.375   0.061   6.866
 6064SOL     OW19090   1.443   5.760   3.389
 6064SOL    HW119091   1.447   5.661   3.398
 6064SOL    HW219092   1.507   5.802   3.454
 6065SOL     OW19093   0.275   0.526   0.870
 6065SOL    HW119094   0.209   0.503   0.798
 6065SOL    HW219095   0.296   0.623   0.867
 6066SOL     OW19096   4.307   2.985   6.652
 6066SOL    HW119097   4.249   2.973   6.733
 6066SOL    HW219098   4.401   2.963   6.676
 6067SOL     OW19099   6.428   1.764   6.845
 6067SOL    HW119100   6.346   1.807   6.884
 6067SOL    HW219101   6.424   1.665   6.861
 6068SOL     OW19102   4.582   2.657   4.861
 6068SOL    HW119103   4.510   2.590   4.842
 6068SOL    HW219104   4.613   2.697   4.775
 6069SOL     OW19105   6.337   3.988   4.213
 6069SOL    HW119106   6.373   3.915   4.154
 6069SOL    HW219107   6.283   3.947   4.286
 6070SOL     OW19108   4.300   2.253   6.209
 6070SOL    HW119109   4.367   2.182   6.188
 6070SOL    HW219110   4.333   2.341   6.175
 6071SOL     OW19111   4.211   6.200   4.831
 6071SOL    HW119112   4.268   6.214   4.751
 6071SOL    HW219113   4.258   6.140   4.896
 6072SOL     OW19114   0.432   2.000   0.950
 6072SOL    HW119115   0.333   2.013   0.949
 6072SOL    HW219116   0.474   2.064   1.013
 6073SOL     OW19117   6.624   2.511   1.069
 6073SOL    HW119118   6.659   2.518   1.163
 6073SOL    HW219119   6.619   2.414   1.043
 6074SOL     OW19120   0.434   0.271   4.345
 6074SOL    HW119121   0.400   0.189   4.298
 6074SOL    HW219122   0.358   0.329   4.372
 6075SOL     OW19123   5.660   4.148   6.651
 6075SOL    HW119124   5.683   4.053   6.630
 6075SOL    HW219125   5.637   4.156   6.748
 6076SOL     OW19126   1.956   6.329   4.440
 6076SOL    HW119127   1.982   6.233   4.431
 6076SOL    HW219128   1.864   6.336   4.479
 6077SOL     OW19129   5.966   5.865   2.047
 6077SOL    HW119130   6.064   5.850   2.038
 6077SOL    HW219131   5.922   5.782   2.083
 6078SOL     OW19132   2.595   4.576   3.662
 6078SOL    HW119133   2.500   4.544   3.663
 6078SOL    HW219134   2.639   4.548   3.577
 6079SOL     OW19135   2.237   1.465   0.220
 6079SOL    HW119136   2.322   1.513   0.200
 6079SOL    HW219137   2.239   1.374   0.180
 6080SOL     OW19138   5.831   2.357   2.126
 6080SOL    HW119139   5.780   2.288   2.178
 6080SOL    HW219140   5.911   2.315   2.084
 6081SOL     OW19141   0.565   3.879   2.987
 6081SOL    HW119142   0.656   3.848   2.961
 6081SOL    HW219143   0.496   3.821   2.944
 6082SOL     OW19144   4.159   1.880   3.929
 6082SOL    HW119145   4.163   1.856   4.026
 6082SOL    HW219146   4.121   1.972   3.919
 6083SOL     OW19147   1.791   6.538   0.334
 6083SOL    HW119148   1.711   6.551   0.393
 6083SOL    HW219149   1.781   6.453   0.282
 6084SOL     OW19150   0.735   4.808   5.543
 6084SOL    HW119151   0.794   4.860   5.605
 6084SOL    HW219152   0.646   4.852   5.536
 6085SOL     OW19153   5.145   3.999   1.196
 6085SOL    HW119154   5.142   3.934   1.120
 6085SOL    HW219155   5.055   4.040   1.208
 6086SOL     OW19156   2.866   1.573   3.630
 6086SOL    HW119157   2.883   1.669   3.654
 6086SOL    HW219158   2.845   1.521   3.712
 6087SOL     OW19159   5.191   6.842   6.853
 6087SOL    HW119160   5.126   6.885   6.790
 6087SOL    HW219161   5.177   6.877   6.945
 6088SOL     OW19162   0.508   0.095   4.619
 6088SOL    HW119163   0.502   0.131   4.526
 6088SOL    HW219164   0.416   0.086   4.657
 6089SOL     OW19165   0.265   3.586   0.112
 6089SOL    HW119166   0.320   3.540   0.182
 6089SOL    HW219167   0.309   3.671   0.085
 6090SOL     OW19168   0.029   5.997   4.589
 6090SOL    HW119169   6.996   6.058   4.535
 6090SOL    HW219170   7.004   5.913   4.609
 6091SOL     OW19171   5.667   1.799   1.962
 6091SOL    HW119172   5.684   1.702   1.942
 6091SOL    HW219173   5.681   1.816   2.059
 6092SOL     OW19174   1.787   2.289   1.619
 6092SOL    HW119175   1.796   2.346   1.537
 6092SOL    HW219176   1.836   2.331   1.695
 6093SOL     OW19177   0.713   3.263   1.378
 6093SOL    HW119178   0.720   3.291   1.283
 6093SOL    HW219179   0.805   3.257   1.418
 6094SOL     OW19180   1.103   0.895   1.068
 6094SOL    HW119181   1.161   0.976   1.064
 6094SOL    HW219182   1.141   0.829   1.133
 6095SOL     OW19183   6.755   3.707   5.735
 6095SOL    HW119184   6.714   3.763   5.807
 6095SOL    HW219185   6.682   3.659   5.685
 6096SOL     OW19186   3.714   1.824   3.142
 6096SOL    HW119187   3.682   1.916   3.164
 6096SOL    HW219188   3.685   1.799   3.050
 6097SOL     OW19189   3.024   2.171   2.290
 6097SOL    HW119190   3.119   2.142   2.282
 6097SOL    HW219191   2.988   2.194   2.200
 6098SOL     OW19192   1.938   2.134   5.799
 6098SOL    HW119193   2.036   2.146   5.815
 6098SOL    HW219194   1.892   2.222   5.805
 6099SOL     OW19195   6.224   5.378   4.807
 6099SOL    HW119196   6.221   5.410   4.902
 6099SOL    HW219197   6.154   5.426   4.754
 6100SOL     OW19198   6.622   2.918   0.096
 6100SOL    HW119199   6.701   2.858   0.110
 6100SOL    HW219200   6.648   3.012   0.118
 6101SOL     OW19201   6.338   1.557   4.852
 6101SOL    HW119202   6.272   1.500   4.902
 6101SOL    HW219203   6.335   1.534   4.755
 6102SOL     OW19204   2.808   0.616   5.590
 6102SOL    HW119205   2.769   0.654   5.506
 6102SOL    HW219206   2.782   0.672   5.668
 6103SOL     OW19207   6.515   6.850   6.028
 6103SOL    HW119208   6.418   6.844   6.006
 6103SOL    HW219209   6.544   6.767   6.075
 6104SOL     OW19210   0.883   2.621   6.781
 6104SOL    HW119211   0.788   2.634   6.809
 6104SOL    HW219212   0.942   2.623   6.862
 6105SOL     OW19213   3.433   5.885   4.405
 6105SOL    HW119214   3.527   5.903   4.374
 6105SOL    HW219215   3.381   5.970   4.406
 6106SOL     OW19216   3.279   5.539   5.311
 6106SOL    HW119217   3.246   5.631   5.330
 6106SOL    HW219218   3.373   5.529   5.343
 6107SOL     OW19219   2.251   4.365   5.453
 6107SOL    HW119220   2.306   4.297   5.404
 6107SOL    HW219221   2.167   4.323   5.486
 6108SOL     OW19222   0.368   2.310   4.927
 6108SOL    HW119223   0.326   2.295   4.838
 6108SOL    HW219224   0.298   2.306   4.998
 6109SOL     OW19225   6.550   4.738   1.367
 6109SOL    HW119226   6.585   4.645   1.354
 6109SOL    HW219227   6.625   4.803   1.370
 6110SOL     OW19228   2.819   1.441   4.887
 6110SOL    HW119229   2.724   1.422   4.914
 6110SOL    HW219230   2.824   1.445   4.787
 6111SOL     OW19231   1.219   4.952   3.042
 6111SOL    HW119232   1.174   4.867   3.016
 6111SOL    HW219233   1.278   4.936   3.122
 6112SOL     OW19234   0.160   1.894   2.772
 6112SOL    HW119235   0.210   1.981   2.773
 6112SOL    HW219236   0.139   1.867   2.866
 6113SOL     OW19237   1.759   6.138   5.310
 6113SOL    HW119238   1.701   6.131   5.391
 6113SOL    HW219239   1.854   6.150   5.337
 6114SOL     OW19240   4.821   5.836   0.430
 6114SOL    HW119241   4.826   5.742   0.395
 6114SOL    HW219242   4.763   5.837   0.512
 6115SOL     OW19243   5.980   4.944   2.701
 6115SOL    HW119244   5.941   4.865   2.748
 6115SOL    HW219245   5.937   4.954   2.612
 6116SOL     OW19246   4.285   0.712   1.918
 6116SOL    HW119247   4.199   0.760   1.904
 6116SOL    HW219248   4.294   0.686   2.014
 6117SOL     OW19249   5.279   0.533   4.566
 6117SOL    HW119250   5.267   0.628   4.537
 6117SOL    HW219251   5.245   0.523   4.660
 6118SOL     OW19252   6.008   0.298   3.132
 6118SOL    HW119253   6.090   0.245   3.109
 6118SOL    HW219254   6.035   0.386   3.172
 6119SOL     OW19255   6.983   5.038   4.302
 6119SOL    HW119256   6.940   5.040   4.211
 6119SOL    HW219257   6.955   5.119   4.353
 6120SOL     OW19258   2.635   1.035   3.031
 6120SOL    HW119259   2.537   1.032   3.050
 6120SOL    HW219260   2.662   0.950   2.985
 6121SOL     OW19261   6.952   2.396   4.554
 6121SOL    HW119262   6.949   2.371   4.651
 6121SOL    HW219263   6.974   2.316   4.499
 6122SOL     OW19264   5.007   5.266   3.135
 6122SOL    HW119265   4.973   5.220   3.217
 6122SOL    HW219266   5.019   5.199   3.061
 6123SOL     OW19267   5.728   0.958   2.005
 6123SOL    HW119268   5.630   0.968   1.989
 6123SOL    HW219269   5.747   0.960   2.103
 6124SOL     OW19270   3.522   0.576   5.716
 6124SOL    HW119271   3.469   0.510   5.662
 6124SOL    HW219272   3.475   0.594   5.802
 6125SOL     OW19273   2.135   5.217   1.642
 6125SOL    HW119274   2.094   5.288   1.585
 6125SOL    HW219275   2.089   5.215   1.731
 6126SOL     OW19276   5.183   5.319   2.626
 6126SOL    HW119277   5.250   5.374   2.675
 6126SOL    HW219278   5.093   5.331   2.668
 6127SOL     OW19279   2.411   4.875   1.677
 6127SOL    HW119280   2.472   4.939   1.630
 6127SOL    HW219281   2.463   4.820   1.743
 6128SOL     OW19282   5.217   1.969   0.406
 6128SOL    HW119283   5.248   1.908   0.479
 6128SOL    HW219284   5.297   2.010   0.362
 6129SOL     OW19285   5.842   4.951   3.725
 6129SOL    HW119286   5.777   4.891   3.772
 6129SOL    HW219287   5.932   4.941   3.766
 6130SOL     OW19288   5.315   3.150   2.330
 6130SOL    HW119289   5.369   3.162   2.247
 6130SOL    HW219290   5.225   3.191   2.317
 6131SOL     OW19291   6.351   0.914   5.273
 6131SOL    HW119292   6.303   0.842   5.322
 6131SOL    HW219293   6.429   0.875   5.224
 6132SOL     OW19294   5.717   2.386   0.714
 6132SOL    HW119295   5.689   2.458   0.651
 6132SOL    HW219296   5.787   2.329   0.671
 6133SOL     OW19297   0.857   4.400   0.445
 6133SOL    HW119298   0.810   4.454   0.376
 6133SOL    HW219299   0.882   4.459   0.522
 6134SOL     OW19300   4.779   3.423   6.096
 6134SOL    HW119301   4.796   3.391   6.003
 6134SOL    HW219302   4.700   3.485   6.095
 6135SOL     OW19303   5.916   6.709   1.295
 6135SOL    HW119304   5.958   6.721   1.205
 6135SOL    HW219305   5.822   6.675   1.283
 6136SOL     OW19306   0.263   1.790   1.432
 6136SOL    HW119307   0.220   1.700   1.436
 6136SOL    HW219308   0.357   1.784   1.465
 6137SOL     OW19309   2.597   0.221   6.129
 6137SOL    HW119310   2.694   0.216   6.106
 6137SOL    HW219311   2.584   0.199   6.226
 6138SOL     OW19312   4.398   0.652   2.903
 6138SOL    HW119313   4.306   0.645   2.942
 6138SOL    HW219314   4.436   0.561   2.890
 6139SOL     OW19315   1.984   4.558   4.103
 6139SOL    HW119316   2.039   4.570   4.185
 6139SOL    HW219317   1.898   4.513   4.126
 6140SOL     OW19318   1.916   6.621   1.273
 6140SOL    HW119319   1.920   6.701   1.333
 6140SOL    HW219320   1.982   6.631   1.199
 6141SOL     OW19321   6.314   6.173   6.233
 6141SOL    HW119322   6.306   6.074   6.239
 6141SOL    HW219323   6.262   6.215   6.307
 6142SOL     OW19324   0.594   4.610   2.169
 6142SOL    HW119325   0.553   4.701   2.162
 6142SOL    HW219326   0.556   4.550   2.099
 6143SOL     OW19327   6.316   5.064   6.455
 6143SOL    HW119328   6.381   5.018   6.395
 6143SOL    HW219329   6.228   5.074   6.408
 6144SOL     OW19330   0.587   4.657   3.816
 6144SOL    HW119331   0.661   4.724   3.825
 6144SOL    HW219332   0.502   4.697   3.849
 6145SOL     OW19333   5.234   6.265   3.312
 6145SOL    HW119334   5.142   6.241   3.282
 6145SOL    HW219335   5.301   6.207   3.265
 6146SOL     OW19336   5.675   0.781   3.197
 6146SOL    HW119337   5.687   0.691   3.240
 6146SOL    HW219338   5.599   0.777   3.132
 6147SOL     OW19339   1.764   3.404   3.110
 6147SOL    HW119340   1.849   3.354   3.095
 6147SOL    HW219341   1.724   3.432   3.023
 6148SOL     OW19342   6.758   6.587   4.862
 6148SOL    HW119343   6.688   6.610   4.794
 6148SOL    HW219344   6.831   6.654   4.859
 6149SOL     OW19345   2.081   6.324   3.658
 6149SOL    HW119346   2.100   6.237   3.612
 6149SOL    HW219347   1.983   6.342   3.655
 6150SOL     OW19348   4.681   5.428   5.976
 6150SOL    HW119349   4.613   5.409   5.905
 6150SOL    HW219350   4.751   5.356   5.976
 6151SOL     OW19351   5.178   2.345   5.424
 6151SOL    HW119352   5.106   2.413   5.409
 6151SOL    HW219353   5.166   2.269   5.360
 6152SOL     OW19354   6.723   4.425   6.651
 6152SOL    HW119355   6.750   4.505   6.597
 6152SOL    HW219356   6.732   4.343   6.595
 6153SOL     OW19357   4.851   3.399   0.880
 6153SOL    HW119358   4.905   3.389   0.964
 6153SOL    HW219359   4.897   3.464   0.819
 6154SOL     OW19360   5.367   3.052   2.844
 6154SOL    HW119361   5.429   3.106   2.902
 6154SOL    HW219362   5.413   2.967   2.818
 6155SOL     OW19363   0.877   3.984   4.720
 6155SOL    HW119364   0.795   3.928   4.711
 6155SOL    HW219365   0.941   3.939   4.782
 6156SOL     OW19366   0.070   0.542   3.214
 6156SOL    HW119367   0.065   0.460   3.156
 6156SOL    HW219368   0.001   0.608   3.184
 6157SOL     OW19369   2.126   1.703   3.323
 6157SOL    HW119370   2.199   1.640   3.295
 6157SOL    HW219371   2.157   1.797   3.308
 6158SOL     OW19372   4.507   0.746   0.195
 6158SOL    HW119373   4.539   0.786   0.110
 6158SOL    HW219374   4.564   0.778   0.271
 6159SOL     OW19375   5.329   3.254   6.743
 6159SOL    HW119376   5.283   3.340   6.723
 6159SOL    HW219377   5.372   3.218   6.660
 6160SOL     OW19378   6.145   5.340   1.568
 6160SOL    HW119379   6.166   5.261   1.510
 6160SOL    HW219380   6.079   5.313   1.638
 6161SOL     OW19381   5.844   0.853   6.118
 6161SOL    HW119382   5.919   0.800   6.079
 6161SOL    HW219383   5.880   0.919   6.184
 6162SOL     OW19384   6.074   5.262   4.045
 6162SOL    HW119385   6.030   5.334   3.991
 6162SOL    HW219386   6.068   5.175   3.996
 6163SOL     OW19387   6.424   4.044   2.068
 6163SOL    HW119388   6.331   4.011   2.086
 6163SOL    HW219389   6.420   4.128   2.014
 6164SOL     OW19390   4.016   2.628   0.299
 6164SOL    HW119391   4.091   2.694   0.306
 6164SOL    HW219392   3.929   2.674   0.320
 6165SOL     OW19393   4.389   6.306   6.908
 6165SOL    HW119394   4.407   6.373   6.980
 6165SOL    HW219395   4.414   6.346   6.820
 6166SOL     OW19396   3.407   1.739   6.186
 6166SOL    HW119397   3.335   1.795   6.227
 6166SOL    HW219398   3.478   1.721   6.253
 6167SOL     OW19399   6.520   4.727   3.576
 6167SOL    HW119400   6.496   4.819   3.548
 6167SOL    HW219401   6.524   4.667   3.496
 6168SOL     OW19402   0.443   2.750   2.358
 6168SOL    HW119403   0.348   2.742   2.329
 6168SOL    HW219404   0.481   2.836   2.324
 6169SOL     OW19405   1.611   4.313   2.299
 6169SOL    HW119406   1.527   4.350   2.261
 6169SOL    HW219407   1.666   4.273   2.225
 6170SOL     OW19408   0.215   2.755   4.304
 6170SOL    HW119409   0.162   2.780   4.223
 6170SOL    HW219410   0.163   2.690   4.359
 6171SOL     OW19411   0.100   0.619   6.268
 6171SOL    HW119412   0.053   0.535   6.242
 6171SOL    HW219413   0.199   0.601   6.274
 6172SOL     OW19414   1.186   3.584   4.178
 6172SOL    HW119415   1.091   3.563   4.199
 6172SOL    HW219416   1.194   3.680   4.148
 6173SOL     OW19417   6.408   6.317   3.276
 6173SOL    HW119418   6.363   6.258   3.343
 6173SOL    HW219419   6.392   6.281   3.184
 6174SOL     OW19420   5.816   4.135   2.254
 6174SOL    HW119421   5.770   4.149   2.342
 6174SOL    HW219422   5.757   4.168   2.180
 6175SOL     OW19423   3.026   2.473   5.600
 6175SOL    HW119424   2.969   2.391   5.598
 6175SOL    HW219425   2.998   2.534   5.526
 6176SOL     OW19426   4.758   4.227   6.302
 6176SOL    HW119427   4.752   4.175   6.387
 6176SOL    HW219428   4.700   4.308   6.309
 6177SOL     OW19429   6.262   0.988   1.546
 6177SOL    HW119430   6.196   0.938   1.490
 6177SOL    HW219431   6.231   1.083   1.557
 6178SOL     OW19432   3.971   4.751   1.486
 6178SOL    HW119433   3.913   4.803   1.423
 6178SOL    HW219434   3.936   4.760   1.579
 6179SOL     OW19435   5.678   5.043   4.210
 6179SOL    HW119436   5.645   5.049   4.116
 6179SOL    HW219437   5.740   5.120   4.229
 6180SOL     OW19438   3.329   4.343   6.999
 6180SOL    HW119439   3.320   4.381   0.066
 6180SOL    HW219440   3.333   4.417   6.932
 6181SOL     OW19441   6.264   6.297   6.869
 6181SOL    HW119442   6.298   6.207   6.842
 6181SOL    HW219443   6.330   6.367   6.842
 6182SOL     OW19444   3.258   2.614   0.354
 6182SOL    HW119445   3.218   2.525   0.372
 6182SOL    HW219446   3.316   2.641   0.431
 6183SOL     OW19447   0.727   0.217   0.655
 6183SOL    HW119448   0.628   0.229   0.655
 6183SOL    HW219449   0.758   0.190   0.564
 6184SOL     OW19450   2.191   0.056   5.629
 6184SOL    HW119451   2.241   0.111   5.562
 6184SOL    HW219452   2.219   0.082   5.721
 6185SOL     OW19453   3.623   2.958   5.474
 6185SOL    HW119454   3.570   2.892   5.421
 6185SOL    HW219455   3.708   2.980   5.424
 6186SOL     OW19456   0.394   1.642   1.793
 6186SOL    HW119457   0.430   1.703   1.723
 6186SOL    HW219458   0.394   1.548   1.758
 6187SOL     OW19459   4.288   1.418   5.904
 6187SOL    HW119460   4.338   1.473   5.971
 6187SOL    HW219461   4.190   1.429   5.918
 6188SOL     OW19462   1.331   1.292   4.893
 6188SOL    HW119463   1.262   1.342   4.946
 6188SOL    HW219464   1.419   1.296   4.940
 6189SOL     OW19465   6.413   6.152   1.476
 6189SOL    HW119466   6.475   6.225   1.446
 6189SOL    HW219467   6.327   6.193   1.509
 6190SOL     OW19468   1.211   2.608   4.891
 6190SOL    HW119469   1.232   2.657   4.806
 6190SOL    HW219470   1.130   2.647   4.933
 6191SOL     OW19471   4.081   3.448   0.126
 6191SOL    HW119472   4.093   3.349   0.121
 6191SOL    HW219473   4.164   3.490   0.161
 6192SOL     OW19474   2.877   0.958   0.635
 6192SOL    HW119475   2.821   1.031   0.673
 6192SOL    HW219476   2.843   0.935   0.543
 6193SOL     OW19477   4.626   5.495   6.923
 6193SOL    HW119478   4.696   5.552   6.881
 6193SOL    HW219479   4.571   5.551   6.985
 6194SOL     OW19480   6.024   6.755   6.515
 6194SOL    HW119481   5.948   6.729   6.455
 6194SOL    HW219482   6.003   6.841   6.561
 6195SOL     OW19483   6.326   6.272   6.567
 6195SOL    HW119484   6.353   6.351   6.623
 6195SOL    HW219485   6.382   6.193   6.592
 6196SOL     OW19486   5.848   3.691   2.922
 6196SOL    HW119487   5.921   3.623   2.922
 6196SOL    HW219488   5.762   3.646   2.897
 6197SOL     OW19489   2.100   5.501   1.597
 6197SOL    HW119490   2.137   5.504   1.690
 6197SOL    HW219491   2.053   5.587   1.577
 6198SOL     OW19492   6.086   1.049   6.894
 6198SOL    HW119493   6.120   1.142   6.880
 6198SOL    HW219494   6.022   1.048   6.970
 6199SOL     OW19495   1.419   0.222   6.308
 6199SOL    HW119496   1.344   0.156   6.302
 6199SOL    HW219497   1.503   0.174   6.335
 6200SOL     OW19498   1.570   1.214   2.252
 6200SOL    HW119499   1.479   1.255   2.247
 6200SOL    HW219500   1.586   1.181   2.345
 6201SOL     OW19501   0.548   4.481   3.444
 6201SOL    HW119502   0.504   4.401   3.486
 6201SOL    HW219503   0.507   4.500   3.355
 6202SOL     OW19504   5.723   1.866   2.682
 6202SOL    HW119505   5.677   1.908   2.604
 6202SOL    HW219506   5.771   1.784   2.652
 6203SOL     OW19507   6.396   0.127   1.925
 6203SOL    HW119508   6.410   0.075   2.009
 6203SOL    HW219509   6.449   0.211   1.927
 6204SOL     OW19510   1.761   6.941   4.904
 6204SOL    HW119511   1.723   6.953   4.996
 6204SOL    HW219512   1.703   6.986   4.837
 6205SOL     OW19513   5.197   4.204   3.279
 6205SOL    HW119514   5.153   4.214   3.367
 6205SOL    HW219515   5.133   4.163   3.213
 6206SOL     OW19516   6.072   1.888   4.298
 6206SOL    HW119517   6.085   1.813   4.233
 6206SOL    HW219518   6.038   1.851   4.385
 6207SOL     OW19519   1.688   4.988   4.724
 6207SOL    HW119520   1.606   5.044   4.733
 6207SOL    HW219521   1.763   5.030   4.776
 6208SOL     OW19522   3.978   3.689   6.041
 6208SOL    HW119523   4.013   3.632   6.115
 6208SOL    HW219524   3.930   3.631   5.974
 6209SOL     OW19525   3.168   2.585   1.571
 6209SOL    HW119526   3.254   2.549   1.536
 6209SOL    HW219527   3.119   2.631   1.497
 6210SOL     OW19528   4.890   2.375   4.299
 6210SOL    HW119529   4.988   2.380   4.314
 6210SOL    HW219530   4.861   2.450   4.240
 6211SOL     OW19531   5.562   4.328   5.362
 6211SOL    HW119532   5.534   4.348   5.268
 6211SOL    HW219533   5.656   4.360   5.377
 6212SOL     OW19534   4.250   5.479   4.805
 6212SOL    HW119535   4.264   5.508   4.711
 6212SOL    HW219536   4.176   5.412   4.808
 6213SOL     OW19537   4.369   5.956   0.110
 6213SOL    HW119538   4.282   6.003   0.096
 6213SOL    HW219539   4.442   6.009   0.066
 6214SOL     OW19540   6.691   6.099   6.112
 6214SOL    HW119541   6.624   6.164   6.146
 6214SOL    HW219542   6.646   6.012   6.091
 6215SOL     OW19543   5.544   2.499   5.694
 6215SOL    HW119544   5.521   2.420   5.636
 6215SOL    HW219545   5.558   2.580   5.637
 6216SOL     OW19546   4.568   1.948   3.613
 6216SOL    HW119547   4.604   1.934   3.705
 6216SOL    HW219548   4.480   1.997   3.619
 6217SOL     OW19549   0.436   4.578   3.144
 6217SOL    HW119550   0.365   4.594   3.212
 6217SOL    HW219551   0.399   4.524   3.068
 6218SOL     OW19552   4.749   6.447   0.025
 6218SOL    HW119553   4.761   6.349   0.015
 6218SOL    HW219554   4.779   6.476   0.116
 6219SOL     OW19555   1.855   1.172   6.165
 6219SOL    HW119556   1.904   1.184   6.252
 6219SOL    HW219557   1.898   1.100   6.112
 6220SOL     OW19558   3.572   6.436   0.496
 6220SOL    HW119559   3.544   6.504   0.428
 6220SOL    HW219560   3.668   6.450   0.520
 6221SOL     OW19561   5.606   5.888   0.007
 6221SOL    HW119562   5.532   5.829   0.038
 6221SOL    HW219563   5.609   5.970   0.063
 6222SOL     OW19564   6.548   1.631   1.863
 6222SOL    HW119565   6.460   1.659   1.824
 6222SOL    HW219566   6.621   1.687   1.824
 6223SOL     OW19567   0.389   4.799   4.200
 6223SOL    HW119568   0.430   4.871   4.144
 6223SOL    HW219569   0.289   4.806   4.194
 6224SOL     OW19570   3.570   0.612   0.011
 6224SOL    HW119571   3.632   0.601   0.089
 6224SOL    HW219572   3.570   0.707   7.006
 6225SOL     OW19573   4.810   6.377   6.703
 6225SOL    HW119574   4.850   6.454   6.754
 6225SOL    HW219575   4.817   6.395   6.605
 6226SOL     OW19576   1.392   1.290   4.627
 6226SOL    HW119577   1.432   1.380   4.610
 6226SOL    HW219578   1.344   1.291   4.715
 6227SOL     OW19579   2.773   4.454   5.441
 6227SOL    HW119580   2.860   4.497   5.418
 6227SOL    HW219581   2.712   4.523   5.482
 6228SOL     OW19582   0.735   3.018   3.172
 6228SOL    HW119583   0.716   2.940   3.231
 6228SOL    HW219584   0.772   2.987   3.084
 6229SOL     OW19585   0.132   3.135   4.032
 6229SOL    HW119586   0.169   3.145   3.940
 6229SOL    HW219587   0.152   3.217   4.085
 6230SOL     OW19588   0.103   0.484   1.674
 6230SOL    HW119589   0.120   0.398   1.626
 6230SOL    HW219590   0.041   0.540   1.619
 6231SOL     OW19591   2.355   5.308   6.805
 6231SOL    HW119592   2.397   5.220   6.784
 6231SOL    HW219593   2.335   5.313   6.903
 6232SOL     OW19594   3.956   0.789   6.515
 6232SOL    HW119595   3.966   0.792   6.416
 6232SOL    HW219596   3.861   0.809   6.539
 6233SOL     OW19597   6.875   3.352   1.559
 6233SOL    HW119598   6.786   3.395   1.576
 6233SOL    HW219599   6.896   3.288   1.633
 6234SOL     OW19600   4.746   5.404   4.889
 6234SOL    HW119601   4.833   5.442   4.856
 6234SOL    HW219602   4.676   5.475   4.888
 6235SOL     OW19603   0.313   0.158   2.574
 6235SOL    HW119604   0.245   0.150   2.646
 6235SOL    HW219605   0.398   0.195   2.611
 6236SOL     OW19606   0.067   5.722   1.487
 6236SOL    HW119607   0.027   5.762   1.569
 6236SOL    HW219608   0.162   5.753   1.477
 6237SOL     OW19609   3.010   1.214   1.308
 6237SOL    HW119610   3.000   1.246   1.402
 6237SOL    HW219611   2.972   1.122   1.299
 6238SOL     OW19612   1.998   0.734   4.016
 6238SOL    HW119613   2.072   0.668   4.002
 6238SOL    HW219614   2.024   0.821   3.976
 6239SOL     OW19615   4.644   1.553   4.341
 6239SOL    HW119616   4.674   1.627   4.402
 6239SOL    HW219617   4.568   1.503   4.384
 6240SOL     OW19618   3.636   2.909   4.232
 6240SOL    HW119619   3.674   2.868   4.149
 6240SOL    HW219620   3.542   2.938   4.215
 6241SOL     OW19621   3.066   0.445   3.578
 6241SOL    HW119622   3.026   0.534   3.601
 6241SOL    HW219623   3.016   0.404   3.502
 6242SOL     OW19624   2.378   1.890   3.272
 6242SOL    HW119625   2.309   1.900   3.200
 6242SOL    HW219626   2.418   1.979   3.293
 6243SOL     OW19627   4.442   1.795   6.352
 6243SOL    HW119628   4.466   1.699   6.341
 6243SOL    HW219629   4.472   1.847   6.272
 6244SOL     OW19630   5.303   3.433   2.484
 6244SOL    HW119631   5.326   3.400   2.393
 6244SOL    HW219632   5.225   3.495   2.478
 6245SOL     OW19633   0.112   4.434   2.229
 6245SOL    HW119634   0.208   4.428   2.200
 6245SOL    HW219635   0.055   4.455   2.149
 6246SOL     OW19636   6.886   6.900   3.971
 6246SOL    HW119637   6.961   6.963   3.948
 6246SOL    HW219638   6.895   6.816   3.918
 6247SOL     OW19639   5.986   6.399   3.877
 6247SOL    HW119640   6.034   6.465   3.935
 6247SOL    HW219641   6.007   6.419   3.781
 6248SOL     OW19642   3.684   2.900   5.766
 6248SOL    HW119643   3.684   2.935   5.672
 6248SOL    HW219644   3.631   2.816   5.770
 6249SOL     OW19645   6.059   3.009   1.995
 6249SOL    HW119646   6.075   3.082   2.062
 6249SOL    HW219647   5.962   3.003   1.974
 6250SOL     OW19648   5.971   0.323   0.081
 6250SOL    HW119649   5.890   0.373   0.112
 6250SOL    HW219650   6.047   0.340   0.144
 6251SOL     OW19651   2.975   0.353   3.823
 6251SOL    HW119652   3.015   0.377   3.735
 6251SOL    HW219653   3.044   0.311   3.882
 6252SOL     OW19654   3.258   5.730   6.463
 6252SOL    HW119655   3.242   5.803   6.396
 6252SOL    HW219656   3.214   5.646   6.432
 6253SOL     OW19657   3.860   5.603   4.616
 6253SOL    HW119658   3.812   5.524   4.654
 6253SOL    HW219659   3.953   5.576   4.591
 6254SOL     OW19660   0.311   6.994   1.121
 6254SOL    HW119661   0.255   0.052   1.133
 6254SOL    HW219662   0.255   6.913   1.139
 6255SOL     OW19663   0.675   1.376   1.111
 6255SOL    HW119664   0.701   1.429   1.192
 6255SOL    HW219665   0.731   1.293   1.106
 6256SOL     OW19666   5.578   6.099   2.048
 6256SOL    HW119667   5.622   6.023   2.001
 6256SOL    HW219668   5.510   6.141   1.988
 6257SOL     OW19669   2.990   3.995   1.150
 6257SOL    HW119670   3.045   4.058   1.204
 6257SOL    HW219671   2.993   4.022   1.054
 6258SOL     OW19672   4.532   5.707   5.079
 6258SOL    HW119673   4.528   5.638   5.006
 6258SOL    HW219674   4.511   5.663   5.167
 6259SOL     OW19675   3.551   0.680   4.133
 6259SOL    HW119676   3.550   0.620   4.053
 6259SOL    HW219677   3.595   0.766   4.109
 6260SOL     OW19678   1.744   1.442   6.485
 6260SOL    HW119679   1.733   1.390   6.570
 6260SOL    HW219680   1.719   1.384   6.408
 6261SOL     OW19681   3.822   0.031   0.827
 6261SOL    HW119682   3.883   7.009   0.762
 6261SOL    HW219683   3.731   0.038   0.788
 6262SOL     OW19684   5.386   0.769   2.427
 6262SOL    HW119685   5.446   0.726   2.360
 6262SOL    HW219686   5.434   0.847   2.469
 6263SOL     OW19687   5.204   6.248   5.430
 6263SOL    HW119688   5.183   6.334   5.384
 6263SOL    HW219689   5.165   6.248   5.522
 6264SOL     OW19690   2.673   6.547   0.249
 6264SOL    HW119691   2.693   6.478   0.319
 6264SOL    HW219692   2.623   6.503   0.173
 6265SOL     OW19693   5.008   6.896   6.262
 6265SOL    HW119694   5.083   6.960   6.277
 6265SOL    HW219695   4.947   6.932   6.191
 6266SOL     OW19696   2.702   4.975   2.818
 6266SOL    HW119697   2.614   4.990   2.863
 6266SOL    HW219698   2.744   4.892   2.854
 6267SOL     OW19699   2.039   6.668   4.731
 6267SOL    HW119700   2.075   6.715   4.810
 6267SOL    HW219701   2.066   6.716   4.647
 6268SOL     OW19702   3.112   1.516   0.409
 6268SOL    HW119703   3.154   1.593   0.361
 6268SOL    HW219704   3.161   1.500   0.495
 6269SOL     OW19705   6.648   4.907   0.273
 6269SOL    HW119706   6.731   4.852   0.282
 6269SOL    HW219707   6.647   4.950   0.182
 6270SOL     OW19708   1.970   6.105   0.658
 6270SOL    HW119709   1.980   6.182   0.720
 6270SOL    HW219710   2.050   6.099   0.598
 6271SOL     OW19711   6.685   3.351   5.742
 6271SOL    HW119712   6.595   3.307   5.739
 6271SOL    HW219713   6.683   3.426   5.808
 6272SOL     OW19714   6.929   0.075   0.196
 6272SOL    HW119715   6.835   0.056   0.168
 6272SOL    HW219716   6.930   0.152   0.259
 6273SOL     OW19717   0.671   6.501   1.629
 6273SOL    HW119718   0.720   6.501   1.542
 6273SOL    HW219719   0.623   6.588   1.640
 6274SOL     OW19720   3.044   5.062   3.474
 6274SOL    HW119721   3.050   5.142   3.414
 6274SOL    HW219722   3.134   5.018   3.480
 6275SOL     OW19723   2.715   5.683   6.414
 6275SOL    HW119724   2.644   5.672   6.345
 6275SOL    HW219725   2.701   5.770   6.462
 6276SOL     OW19726   1.913   5.015   2.611
 6276SOL    HW119727   1.826   5.001   2.563
 6276SOL    HW219728   1.955   5.100   2.579
 6277SOL     OW19729   5.676   2.697   1.066
 6277SOL    HW119730   5.666   2.768   1.136
 6277SOL    HW219731   5.766   2.707   1.022
 6278SOL     OW19732   3.290   2.176   0.362
 6278SOL    HW119733   3.288   2.140   0.269
 6278SOL    HW219734   3.256   2.107   0.426
 6279SOL     OW19735   3.101   6.868   1.751
 6279SOL    HW119736   3.072   6.772   1.749
 6279SOL    HW219737   3.030   6.925   1.710
 6280SOL     OW19738   5.644   2.594   6.502
 6280SOL    HW119739   5.629   2.568   6.598
 6280SOL    HW219740   5.716   2.537   6.463
 6281SOL     OW19741   5.436   3.975   5.796
 6281SOL    HW119742   5.480   4.042   5.856
 6281SOL    HW219743   5.504   3.908   5.766
 6282SOL     OW19744   6.897   3.214   5.996
 6282SOL    HW119745   6.933   3.128   5.958
 6282SOL    HW219746   6.860   3.270   5.922
 6283SOL     OW19747   1.992   6.458   4.906
 6283SOL    HW119748   1.984   6.536   4.843
 6283SOL    HW219749   1.941   6.380   4.870
 6284SOL     OW19750   1.404   3.537   5.230
 6284SOL    HW119751   1.499   3.511   5.212
 6284SOL    HW219752   1.384   3.524   5.327
 6285SOL     OW19753   1.499   3.622   3.386
 6285SOL    HW119754   1.439   3.564   3.330
 6285SOL    HW219755   1.444   3.691   3.433
 6286SOL     OW19756   0.308   2.713   6.777
 6286SOL    HW119757   0.254   2.746   6.854
 6286SOL    HW219758   0.372   2.643   6.809
 6287SOL     OW19759   4.783   5.238   5.293
 6287SOL    HW119760   4.738   5.240   5.204
 6287SOL    HW219761   4.792   5.143   5.324
 6288SOL     OW19762   3.141   3.979   6.374
 6288SOL    HW119763   3.157   3.892   6.328
 6288SOL    HW219764   3.127   3.963   6.472
 6289SOL     OW19765   2.640   4.256   6.000
 6289SOL    HW119766   2.612   4.161   6.013
 6289SOL    HW219767   2.706   4.261   5.925
 6290SOL     OW19768   6.168   6.335   4.840
 6290SOL    HW119769   6.228   6.385   4.902
 6290SOL    HW219770   6.087   6.305   4.890
 6291SOL     OW19771   4.130   3.361   2.991
 6291SOL    HW119772   4.146   3.460   2.997
 6291SOL    HW219773   4.149   3.330   2.898
 6292SOL     OW19774   1.820   4.029   4.162
 6292SOL    HW119775   1.787   3.946   4.118
 6292SOL    HW219776   1.878   4.004   4.240
 6293SOL     OW19777   2.862   1.126   6.620
 6293SOL    HW119778   2.902   1.218   6.614
 6293SOL    HW219779   2.932   1.058   6.601
 6294SOL     OW19780   1.590   1.105   2.513
 6294SOL    HW119781   1.539   1.115   2.598
 6294SOL    HW219782   1.687   1.098   2.533
 6295SOL     OW19783   4.736   3.237   6.382
 6295SOL    HW119784   4.750   3.221   6.480
 6295SOL    HW219785   4.690   3.325   6.369
 6296SOL     OW19786   1.203   3.528   0.506
 6296SOL    HW119787   1.168   3.564   0.420
 6296SOL    HW219788   1.188   3.595   0.579
 6297SOL     OW19789   5.877   1.441   4.241
 6297SOL    HW119790   5.803   1.499   4.278
 6297SOL    HW219791   5.837   1.361   4.196
 6298SOL     OW19792   0.037   5.979   0.780
 6298SOL    HW119793   6.972   5.949   0.747
 6298SOL    HW219794   0.025   6.033   0.863
 6299SOL     OW19795   3.529   1.605   3.516
 6299SOL    HW119796   3.562   1.582   3.607
 6299SOL    HW219797   3.501   1.522   3.468
 6300SOL     OW19798   2.929   1.320   6.936
 6300SOL    HW119799   3.002   1.308   6.869
 6300SOL    HW219800   2.966   1.309   0.003
 6301SOL     OW19801   4.326   6.301   0.319
 6301SOL    HW119802   4.301   6.381   0.374
 6301SOL    HW219803   4.386   6.331   0.244
 6302SOL     OW19804   2.580   2.775   6.107
 6302SOL    HW119805   2.622   2.687   6.084
 6302SOL    HW219806   2.561   2.778   6.206
 6303SOL     OW19807   0.186   5.423   4.900
 6303SOL    HW119808   0.147   5.361   4.968
 6303SOL    HW219809   0.267   5.468   4.938
 6304SOL     OW19810   3.994   0.662   4.281
 6304SOL    HW119811   4.012   0.760   4.296
 6304SOL    HW219812   4.006   0.613   4.367
 6305SOL     OW19813   1.014   5.702   6.035
 6305SOL    HW119814   0.926   5.747   6.043
 6305SOL    HW219815   1.038   5.661   6.123
 6306SOL     OW19816   0.419   5.088   4.725
 6306SOL    HW119817   0.344   5.142   4.687
 6306SOL    HW219818   0.431   5.111   4.822
 6307SOL     OW19819   3.575   2.895   2.107
 6307SOL    HW119820   3.491   2.849   2.076
 6307SOL    HW219821   3.600   2.860   2.198
 6308SOL     OW19822   0.580   2.255   0.409
 6308SOL    HW119823   0.536   2.322   0.471
 6308SOL    HW219824   0.583   2.166   0.454
 6309SOL     OW19825   2.594   6.226   4.703
 6309SOL    HW119826   2.524   6.235   4.775
 6309SOL    HW219827   2.684   6.234   4.744
 6310SOL     OW19828   1.657   0.146   3.063
 6310SOL    HW119829   1.740   0.114   3.019
 6310SOL    HW219830   1.628   0.079   3.131
 6311SOL     OW19831   6.109   1.309   6.772
 6311SOL    HW119832   6.072   1.269   6.688
 6311SOL    HW219833   6.179   1.377   6.749
 6312SOL     OW19834   3.330   6.186   6.599
 6312SOL    HW119835   3.418   6.140   6.588
 6312SOL    HW219836   3.328   6.235   6.687
 6313SOL     OW19837   6.040   5.137   4.501
 6313SOL    HW119838   6.030   5.163   4.597
 6313SOL    HW219839   6.070   5.042   4.495
 6314SOL     OW19840   1.879   6.515   2.649
 6314SOL    HW119841   1.937   6.548   2.723
 6314SOL    HW219842   1.789   6.489   2.685
 6315SOL     OW19843   2.303   2.018   3.668
 6315SOL    HW119844   2.305   2.117   3.652
 6315SOL    HW219845   2.209   1.985   3.660
 6316SOL     OW19846   4.831   1.239   4.661
 6316SOL    HW119847   4.770   1.160   4.657
 6316SOL    HW219848   4.916   1.217   4.614
 6317SOL     OW19849   5.282   5.175   2.004
 6317SOL    HW119850   5.304   5.143   2.096
 6317SOL    HW219851   5.184   5.164   1.988
 6318SOL     OW19852   6.900   6.742   0.549
 6318SOL    HW119853   6.826   6.703   0.493
 6318SOL    HW219854   6.986   6.736   0.499
 6319SOL     OW19855   5.751   1.792   4.010
 6319SOL    HW119856   5.719   1.887   4.006
 6319SOL    HW219857   5.733   1.754   4.100
 6320SOL     OW19858   6.024   1.411   5.677
 6320SOL    HW119859   6.100   1.472   5.653
 6320SOL    HW219860   5.993   1.431   5.770
 6321SOL     OW19861   6.848   2.704   6.767
 6321SOL    HW119862   6.829   2.651   6.849
 6321SOL    HW219863   6.909   2.652   6.707
 6322SOL     OW19864   0.813   0.947   2.496
 6322SOL    HW119865   0.834   0.855   2.464
 6322SOL    HW219866   0.884   0.977   2.559
 6323SOL     OW19867   2.478   4.876   1.013
 6323SOL    HW119868   2.551   4.915   0.957
 6323SOL    HW219869   2.395   4.869   0.959
 6324SOL     OW19870   4.372   3.317   1.128
 6324SOL    HW119871   4.349   3.225   1.159
 6324SOL    HW219872   4.312   3.383   1.174
 6325SOL     OW19873   1.481   2.506   3.926
 6325SOL    HW119874   1.554   2.564   3.889
 6325SOL    HW219875   1.517   2.450   4.000
 6326SOL     OW19876   5.189   5.098   5.474
 6326SOL    HW119877   5.162   5.189   5.507
 6326SOL    HW219878   5.109   5.053   5.434
 6327SOL     OW19879   0.326   1.225   3.648
 6327SOL    HW119880   0.297   1.139   3.605
 6327SOL    HW219881   0.305   1.302   3.588
 6328SOL     OW19882   4.496   3.423   5.321
 6328SOL    HW119883   4.567   3.443   5.253
 6328SOL    HW219884   4.411   3.470   5.295
 6329SOL     OW19885   0.591   2.029   5.720
 6329SOL    HW119886   0.584   2.073   5.809
 6329SOL    HW219887   0.634   2.091   5.655
 6330SOL     OW19888   5.329   1.465   3.672
 6330SOL    HW119889   5.329   1.374   3.713
 6330SOL    HW219890   5.419   1.506   3.681
 6331SOL     OW19891   0.617   3.034   3.593
 6331SOL    HW119892   0.521   3.030   3.619
 6331SOL    HW219893   0.638   2.960   3.529
 6332SOL     OW19894   3.206   1.626   6.690
 6332SOL    HW119895   3.141   1.648   6.763
 6332SOL    HW219896   3.286   1.579   6.729
 6333SOL     OW19897   6.098   0.878   1.331
 6333SOL    HW119898   6.112   0.817   1.252
 6333SOL    HW219899   6.093   0.973   1.299
 6334SOL     OW19900   1.496   1.101   1.595
 6334SOL    HW119901   1.468   1.037   1.666
 6334SOL    HW219902   1.424   1.168   1.579
 6335SOL     OW19903   6.547   2.865   6.583
 6335SOL    HW119904   6.622   2.872   6.649
 6335SOL    HW219905   6.543   2.949   6.529
 6336SOL     OW19906   0.621   4.012   5.043
 6336SOL    HW119907   0.618   3.918   5.079
 6336SOL    HW219908   0.693   4.018   4.973
 6337SOL     OW19909   5.312   6.845   5.118
 6337SOL    HW119910   5.317   6.941   5.148
 6337SOL    HW219911   5.354   6.787   5.188
 6338SOL     OW19912   1.146   1.194   3.102
 6338SOL    HW119913   1.107   1.176   3.012
 6338SOL    HW219914   1.242   1.221   3.091
 6339SOL     OW19915   0.347   4.549   4.080
 6339SOL    HW119916   0.413   4.623   4.092
 6339SOL    HW219917   0.266   4.583   4.031
 6340SOL     OW19918   2.463   4.023   0.430
 6340SOL    HW119919   2.463   4.123   0.416
 6340SOL    HW219920   2.555   3.993   0.455
 6341SOL     OW19921   0.676   5.331   2.414
 6341SOL    HW119922   0.668   5.356   2.510
 6341SOL    HW219923   0.770   5.302   2.395
 6342SOL     OW19924   1.690   1.044   0.948
 6342SOL    HW119925   1.745   0.961   0.944
 6342SOL    HW219926   1.726   1.105   1.018
 6343SOL     OW19927   1.038   5.606   0.538
 6343SOL    HW119928   0.973   5.669   0.579
 6343SOL    HW219929   1.058   5.532   0.602
 6344SOL     OW19930   0.335   1.233   3.947
 6344SOL    HW119931   0.315   1.178   3.867
 6344SOL    HW219932   0.286   1.320   3.941
 6345SOL     OW19933   5.883   2.544   2.318
 6345SOL    HW119934   5.890   2.486   2.236
 6345SOL    HW219935   5.795   2.528   2.363
 6346SOL     OW19936   0.171   4.334   5.477
 6346SOL    HW119937   0.141   4.275   5.551
 6346SOL    HW219938   0.252   4.294   5.434
 6347SOL     OW19939   1.983   2.206   3.108
 6347SOL    HW119940   1.892   2.167   3.125
 6347SOL    HW219941   1.984   2.250   3.018
 6348SOL     OW19942   0.895   2.104   6.010
 6348SOL    HW119943   0.985   2.086   6.052
 6348SOL    HW219944   0.899   2.189   5.959
 6349SOL     OW19945   6.916   1.217   0.648
 6349SOL    HW119946   6.867   1.237   0.733
 6349SOL    HW219947   6.977   1.138   0.662
 6350SOL     OW19948   0.625   6.112   1.413
 6350SOL    HW119949   0.687   6.157   1.350
 6350SOL    HW219950   0.633   6.153   1.504
 6351SOL     OW19951   5.614   4.160   1.623
 6351SOL    HW119952   5.591   4.072   1.665
 6351SOL    HW219953   5.666   4.215   1.689
 6352SOL     OW19954   3.416   0.595   4.472
 6352SOL    HW119955   3.408   0.690   4.502
 6352SOL    HW219956   3.338   0.542   4.505
 6353SOL     OW19957   3.520   6.525   6.164
 6353SOL    HW119958   3.424   6.515   6.140
 6353SOL    HW219959   3.568   6.573   6.090
 6354SOL     OW19960   4.422   5.458   1.653
 6354SOL    HW119961   4.342   5.498   1.698
 6354SOL    HW219962   4.456   5.520   1.583
 6355SOL     OW19963   3.372   5.375   0.735
 6355SOL    HW119964   3.284   5.339   0.768
 6355SOL    HW219965   3.440   5.302   0.740
 6356SOL     OW19966   0.332   5.468   6.028
 6356SOL    HW119967   0.238   5.503   6.034
 6356SOL    HW219968   0.394   5.531   6.075
 6357SOL     OW19969   4.977   1.048   1.859
 6357SOL    HW119970   5.048   1.119   1.859
 6357SOL    HW219971   5.001   0.977   1.794
 6358SOL     OW19972   1.267   1.735   5.360
 6358SOL    HW119973   1.281   1.821   5.408
 6358SOL    HW219974   1.169   1.715   5.354
 6359SOL     OW19975   5.607   6.791   0.783
 6359SOL    HW119976   5.651   6.872   0.745
 6359SOL    HW219977   5.642   6.709   0.737
 6360SOL     OW19978   0.527   1.396   1.499
 6360SOL    HW119979   0.575   1.467   1.449
 6360SOL    HW219980   0.593   1.332   1.540
 6361SOL     OW19981   0.376   1.678   0.493
 6361SOL    HW119982   0.398   1.625   0.575
 6361SOL    HW219983   0.382   1.775   0.513
 6362SOL     OW19984   1.230   5.418   0.462
 6362SOL    HW119985   1.313   5.470   0.480
 6362SOL    HW219986   1.174   5.415   0.544
 6363SOL     OW19987   2.200   4.061   3.055
 6363SOL    HW119988   2.262   4.067   2.977
 6363SOL    HW219989   2.187   3.965   3.080
 6364SOL     OW19990   2.554   2.521   4.221
 6364SOL    HW119991   2.622   2.468   4.271
 6364SOL    HW219992   2.581   2.528   4.125
 6365SOL     OW19993   5.620   6.816   2.937
 6365SOL    HW119994   5.579   6.735   2.978
 6365SOL    HW219995   5.551   6.867   2.886
 6366SOL     OW19996   5.904   0.801   5.103
 6366SOL    HW119997   5.916   0.884   5.158
 6366SOL    HW219998   5.969   0.802   5.027
 6367SOL     OW19999   1.173   2.429   2.724
 6367SOL    HW120000   1.159   2.523   2.692
 6367SOL    HW220001   1.166   2.366   2.647
 6368SOL     OW20002   5.093   3.762   4.473
 6368SOL    HW120003   5.117   3.803   4.561
 6368SOL    HW220004   5.141   3.809   4.400
 6369SOL     OW20005   4.327   5.214   0.691
 6369SOL    HW120006   4.277   5.291   0.650
 6369SOL    HW220007   4.310   5.132   0.637
 6370SOL     OW20008   5.372   4.038   4.400
 6370SOL    HW120009   5.302   3.995   4.343
 6370SOL    HW220010   5.333   4.116   4.448
 6371SOL     OW20011   5.050   4.080   1.583
 6371SOL    HW120012   4.997   4.070   1.498
 6371SOL    HW220013   5.147   4.072   1.563
 6372SOL     OW20014   6.346   1.600   2.195
 6372SOL    HW120015   6.339   1.504   2.222
 6372SOL    HW220016   6.310   1.611   2.102
 6373SOL     OW20017   5.101   3.699   1.601
 6373SOL    HW120018   5.096   3.775   1.665
 6373SOL    HW220019   5.025   3.704   1.537
 6374SOL     OW20020   4.500   3.692   6.893
 6374SOL    HW120021   4.456   3.675   6.805
 6374SOL    HW220022   4.537   3.785   6.894
 6375SOL     OW20023   4.653   1.460   1.982
 6375SOL    HW120024   4.695   1.442   1.893
 6375SOL    HW220025   4.718   1.508   2.041
 6376SOL     OW20026   3.474   0.643   0.358
 6376SOL    HW120027   3.456   0.657   0.456
 6376SOL    HW220028   3.430   0.559   0.328
 6377SOL     OW20029   0.894   0.750   0.587
 6377SOL    HW120030   0.928   0.656   0.576
 6377SOL    HW220031   0.868   0.764   0.682
 6378SOL     OW20032   5.069   4.640   2.029
 6378SOL    HW120033   5.044   4.549   1.993
 6378SOL    HW220034   5.103   4.697   1.955
 6379SOL     OW20035   2.093   5.266   6.693
 6379SOL    HW120036   2.192   5.262   6.704
 6379SOL    HW220037   2.067   5.352   6.649
 6380SOL     OW20038   0.926   4.232   5.314
 6380SOL    HW120039   0.981   4.152   5.338
 6380SOL    HW220040   0.953   4.266   5.225
 6381SOL     OW20041   4.427   2.975   0.440
 6381SOL    HW120042   4.444   3.035   0.518
 6381SOL    HW220043   4.366   3.022   0.375
 6382SOL     OW20044   1.490   1.400   0.360
 6382SOL    HW120045   1.532   1.313   0.335
 6382SOL    HW220046   1.469   1.452   0.276
 6383SOL     OW20047   2.379   2.335   2.129
 6383SOL    HW120048   2.469   2.340   2.173
 6383SOL    HW220049   2.307   2.336   2.199
 6384SOL     OW20050   6.167   3.039   1.760
 6384SOL    HW120051   6.141   3.030   1.856
 6384SOL    HW220052   6.152   3.133   1.730
 6385SOL     OW20053   0.337   3.393   0.314
 6385SOL    HW120054   0.341   3.425   0.409
 6385SOL    HW220055   0.253   3.339   0.301
 6386SOL     OW20056   2.706   2.562   0.300
 6386SOL    HW120057   2.714   2.536   0.204
 6386SOL    HW220058   2.694   2.661   0.308
 6387SOL     OW20059   0.261   6.783   0.117
 6387SOL    HW120060   0.193   6.710   0.104
 6387SOL    HW220061   0.295   6.781   0.210
 6388SOL     OW20062   5.720   5.273   2.121
 6388SOL    HW120063   5.784   5.312   2.054
 6388SOL    HW220064   5.633   5.321   2.116
 6389SOL     OW20065   6.791   0.050   0.552
 6389SOL    HW120066   6.757   0.106   0.628
 6389SOL    HW220067   6.888   0.068   0.538
 6390SOL     OW20068   5.348   0.697   6.792
 6390SOL    HW120069   5.277   0.724   6.727
 6390SOL    HW220070   5.334   0.602   6.820
 6391SOL     OW20071   1.248   1.930   5.042
 6391SOL    HW120072   1.184   1.903   4.969
 6391SOL    HW220073   1.339   1.895   5.020
 6392SOL     OW20074   3.903   6.773   3.642
 6392SOL    HW120075   3.930   6.781   3.546
 6392SOL    HW220076   3.916   6.678   3.672
 6393SOL     OW20077   1.162   5.728   0.018
 6393SOL    HW120078   1.242   5.669   0.012
 6393SOL    HW220079   1.126   5.726   0.112
 6394SOL     OW20080   1.962   5.133   1.864
 6394SOL    HW120081   1.947   5.065   1.936
 6394SOL    HW220082   1.874   5.158   1.823
 6395SOL     OW20083   2.114   3.824   3.788
 6395SOL    HW120084   2.083   3.906   3.836
 6395SOL    HW220085   2.113   3.746   3.851
 6396SOL     OW20086   1.561   2.822   5.425
 6396SOL    HW120087   1.531   2.898   5.483
 6396SOL    HW220088   1.614   2.857   5.348
 6397SOL     OW20089   5.542   3.967   4.923
 6397SOL    HW120090   5.483   3.888   4.938
 6397SOL    HW220091   5.554   3.981   4.825
 6398SOL     OW20092   2.081   0.004   2.614
 6398SOL    HW120093   2.004   6.964   2.614
 6398SOL    HW220094   2.162   6.983   2.651
 6399SOL     OW20095   3.311   0.526   6.917
 6399SOL    HW120096   3.402   0.548   6.953
 6399SOL    HW220097   3.244   0.531   6.991
 6400SOL     OW20098   0.627   5.881   3.337
 6400SOL    HW120099   0.673   5.941   3.403
 6400SOL    HW220100   0.642   5.786   3.362
 6401SOL     OW20101   4.270   5.145   2.957
 6401SOL    HW120102   4.172   5.132   2.939
 6401SOL    HW220103   4.305   5.217   2.898
 6402SOL     OW20104   2.583   4.657   5.503
 6402SOL    HW120105   2.500   4.604   5.522
 6402SOL    HW220106   2.588   4.735   5.565
 6403SOL     OW20107   5.055   5.384   5.210
 6403SOL    HW120108   5.122   5.331   5.159
 6403SOL    HW220109   4.987   5.322   5.250
 6404SOL     OW20110   4.805   0.129   1.719
 6404SOL    HW120111   4.721   0.132   1.664
 6404SOL    HW220112   4.781   0.134   1.816
 6405SOL     OW20113   5.324   1.470   2.981
 6405SOL    HW120114   5.341   1.422   2.896
 6405SOL    HW220115   5.377   1.555   2.983
 6406SOL     OW20116   0.002   3.378   2.690
 6406SOL    HW120117   7.022   3.461   2.635
 6406SOL    HW220118   0.019   3.402   2.786
 6407SOL     OW20119   0.423   6.209   2.655
 6407SOL    HW120120   0.409   6.197   2.753
 6407SOL    HW220121   0.380   6.295   2.626
 6408SOL     OW20122   6.708   0.792   2.207
 6408SOL    HW120123   6.765   0.821   2.283
 6408SOL    HW220124   6.663   0.871   2.166
 6409SOL     OW20125   5.049   4.757   3.664
 6409SOL    HW120126   5.011   4.849   3.652
 6409SOL    HW220127   5.056   4.712   3.575
 6410SOL     OW20128   1.796   1.712   0.244
 6410SOL    HW120129   1.884   1.757   0.255
 6410SOL    HW220130   1.759   1.732   0.154
 6411SOL     OW20131   0.232   2.770   1.886
 6411SOL    HW120132   0.318   2.808   1.923
 6411SOL    HW220133   0.155   2.813   1.932
 6412SOL     OW20134   3.381   1.456   0.256
 6412SOL    HW120135   3.441   1.526   0.215
 6412SOL    HW220136   3.355   1.484   0.348
 6413SOL     OW20137   4.808   6.358   3.415
 6413SOL    HW120138   4.829   6.454   3.434
 6413SOL    HW220139   4.723   6.333   3.462
 6414SOL     OW20140   2.210   0.050   0.443
 6414SOL    HW120141   2.165   0.115   0.382
 6414SOL    HW220142   2.191   0.073   0.538
 6415SOL     OW20143   0.395   2.523   3.547
 6415SOL    HW120144   0.408   2.575   3.632
 6415SOL    HW220145   0.400   2.585   3.469
 6416SOL     OW20146   2.656   5.353   6.892
 6416SOL    HW120147   2.670   5.419   6.818
 6416SOL    HW220148   2.731   5.288   6.893
 6417SOL     OW20149   4.359   2.831   6.437
 6417SOL    HW120150   4.270   2.793   6.411
 6417SOL    HW220151   4.347   2.896   6.512
 6418SOL     OW20152   4.672   4.538   0.303
 6418SOL    HW120153   4.595   4.595   0.331
 6418SOL    HW220154   4.654   4.442   0.327
 6419SOL     OW20155   0.686   6.418   6.407
 6419SOL    HW120156   0.619   6.477   6.454
 6419SOL    HW220157   0.725   6.466   6.329
 6420SOL     OW20158   2.344   4.796   4.125
 6420SOL    HW120159   2.361   4.772   4.220
 6420SOL    HW220160   2.325   4.712   4.073
 6421SOL     OW20161   3.701   1.013   2.143
 6421SOL    HW120162   3.731   0.963   2.224
 6421SOL    HW220163   3.771   1.081   2.118
 6422SOL     OW20164   6.098   2.517   4.722
 6422SOL    HW120165   6.041   2.443   4.758
 6422SOL    HW220166   6.188   2.512   4.764
 6423SOL     OW20167   1.670   4.815   4.537
 6423SOL    HW120168   1.576   4.819   4.505
 6423SOL    HW220169   1.683   4.878   4.614
 6424SOL     OW20170   6.592   4.933   5.498
 6424SOL    HW120171   6.644   4.867   5.551
 6424SOL    HW220172   6.626   4.936   5.404
 6425SOL     OW20173   6.675   5.977   4.175
 6425SOL    HW120174   6.690   5.897   4.233
 6425SOL    HW220175   6.647   5.947   4.084
 6426SOL     OW20176   4.688   4.286   4.743
 6426SOL    HW120177   4.719   4.200   4.784
 6426SOL    HW220178   4.644   4.342   4.814
 6427SOL     OW20179   3.875   3.554   3.532
 6427SOL    HW120180   3.823   3.572   3.449
 6427SOL    HW220181   3.819   3.500   3.595
 6428SOL     OW20182   5.410   2.589   0.464
 6428SOL    HW120183   5.358   2.505   0.478
 6428SOL    HW220184   5.394   2.652   0.540
 6429SOL     OW20185   1.995   1.133   5.226
 6429SOL    HW120186   1.986   1.188   5.310
 6429SOL    HW220187   2.091   1.110   5.213
 6430SOL     OW20188   6.215   0.360   5.234
 6430SOL    HW120189   6.175   0.444   5.198
 6430SOL    HW220190   6.266   0.380   5.317
 6431SOL     OW20191   3.875   4.890   1.995
 6431SOL    HW120192   3.785   4.848   1.997
 6431SOL    HW220193   3.892   4.937   2.081
 6432SOL     OW20194   5.335   4.228   6.215
 6432SOL    HW120195   5.252   4.261   6.172
 6432SOL    HW220196   5.330   4.243   6.314
 6433SOL     OW20197   3.225   4.604   6.046
 6433SOL    HW120198   3.318   4.608   6.010
 6433SOL    HW220199   3.190   4.511   6.036
 6434SOL     OW20200   4.968   5.861   6.450
 6434SOL    HW120201   4.957   5.959   6.459
 6434SOL    HW220202   5.033   5.828   6.518
 6435SOL     OW20203   4.453   2.130   0.820
 6435SOL    HW120204   4.519   2.168   0.755
 6435SOL    HW220205   4.426   2.200   0.886
 6436SOL     OW20206   6.480   3.014   3.359
 6436SOL    HW120207   6.490   2.939   3.295
 6436SOL    HW220208   6.383   3.027   3.379
 6437SOL     OW20209   1.428   2.133   5.907
 6437SOL    HW120210   1.403   2.135   5.810
 6437SOL    HW220211   1.433   2.038   5.938
 6438SOL     OW20212   0.554   4.755   0.248
 6438SOL    HW120213   0.564   4.790   0.155
 6438SOL    HW220214   0.459   4.730   0.265
 6439SOL     OW20215   5.099   6.566   3.230
 6439SOL    HW120216   5.195   6.593   3.217
 6439SOL    HW220217   5.086   6.533   3.324
 6440SOL     OW20218   3.033   1.630   6.175
 6440SOL    HW120219   3.053   1.724   6.203
 6440SOL    HW220220   2.946   1.628   6.126
 6441SOL     OW20221   0.217   1.573   2.548
 6441SOL    HW120222   0.148   1.580   2.620
 6441SOL    HW220223   0.221   1.659   2.497
 6442SOL     OW20224   2.962   2.152   4.997
 6442SOL    HW120225   3.038   2.200   5.041
 6442SOL    HW220226   2.877   2.174   5.045
 6443SOL     OW20227   3.772   2.950   6.590
 6443SOL    HW120228   3.751   3.018   6.660
 6443SOL    HW220229   3.870   2.927   6.595
 6444SOL     OW20230   6.274   3.971   4.849
 6444SOL    HW120231   6.244   3.916   4.771
 6444SOL    HW220232   6.358   4.019   4.825
 6445SOL     OW20233   3.050   3.169   3.678
 6445SOL    HW120234   3.069   3.140   3.584
 6445SOL    HW220235   3.118   3.129   3.739
 6446SOL     OW20236   1.510   1.437   6.789
 6446SOL    HW120237   1.547   1.530   6.791
 6446SOL    HW220238   1.532   1.390   6.874
 6447SOL     OW20239   5.889   3.699   2.021
 6447SOL    HW120240   5.968   3.650   1.985
 6447SOL    HW220241   5.847   3.645   2.094
 6448SOL     OW20242   3.410   4.666   1.373
 6448SOL    HW120243   3.499   4.622   1.363
 6448SOL    HW220244   3.378   4.657   1.468
 6449SOL     OW20245   2.802   5.174   0.899
 6449SOL    HW120246   2.746   5.091   0.901
 6449SOL    HW220247   2.759   5.245   0.956
 6450SOL     OW20248   0.049   4.200   6.922
 6450SOL    HW120249   6.993   4.259   6.920
 6450SOL    HW220250   0.104   4.215   6.839
 6451SOL     OW20251   3.805   2.703   1.637
 6451SOL    HW120252   3.746   2.753   1.575
 6451SOL    HW220253   3.851   2.767   1.699
 6452SOL     OW20254   3.969   2.119   3.999
 6452SOL    HW120255   4.034   2.193   3.985
 6452SOL    HW220256   4.005   2.055   4.067
 6453SOL     OW20257   2.138   0.929   2.466
 6453SOL    HW120258   2.171   1.019   2.439
 6453SOL    HW220259   2.084   0.936   2.550
 6454SOL     OW20260   4.891   2.302   3.237
 6454SOL    HW120261   4.865   2.253   3.154
 6454SOL    HW220262   4.849   2.257   3.316
 6455SOL     OW20263   6.642   2.815   3.994
 6455SOL    HW120264   6.584   2.748   3.948
 6455SOL    HW220265   6.649   2.792   4.091
 6456SOL     OW20266   5.793   1.214   2.242
 6456SOL    HW120267   5.797   1.239   2.146
 6456SOL    HW220268   5.711   1.159   2.259
 6457SOL     OW20269   3.691   6.962   2.407
 6457SOL    HW120270   3.692   6.917   2.496
 6457SOL    HW220271   3.738   0.026   2.414
 6458SOL     OW20272   0.188   6.109   3.917
 6458SOL    HW120273   0.236   6.036   3.867
 6458SOL    HW220274   0.125   6.155   3.855
 6459SOL     OW20275   0.656   3.564   3.117
 6459SOL    HW120276   0.565   3.585   3.083
 6459SOL    HW220277   0.654   3.558   3.217
 6460SOL     OW20278   0.307   5.354   6.825
 6460SOL    HW120279   0.226   5.408   6.803
 6460SOL    HW220280   0.363   5.404   6.892
 6461SOL     OW20281   1.375   6.441   1.070
 6461SOL    HW120282   1.358   6.352   1.111
 6461SOL    HW220283   1.462   6.439   1.021
 6462SOL     OW20284   1.586   3.851   5.247
 6462SOL    HW120285   1.538   3.880   5.330
 6462SOL    HW220286   1.587   3.926   5.181
 6463SOL     OW20287   4.087   2.762   1.133
 6463SOL    HW120288   4.177   2.785   1.098
 6463SOL    HW220289   4.088   2.671   1.174
 6464SOL     OW20290   1.217   4.284   3.861
 6464SOL    HW120291   1.133   4.278   3.915
 6464SOL    HW220292   1.295   4.262   3.919
 6465SOL     OW20293   3.530   1.141   3.663
 6465SOL    HW120294   3.488   1.052   3.642
 6465SOL    HW220295   3.463   1.214   3.646
 6466SOL     OW20296   5.997   4.389   0.235
 6466SOL    HW120297   6.080   4.370   0.287
 6466SOL    HW220298   5.955   4.303   0.206
 6467SOL     OW20299   2.520   2.810   7.002
 6467SOL    HW120300   2.612   2.838   0.003
 6467SOL    HW220301   2.472   2.886   6.959
 6468SOL     OW20302   2.664   0.973   1.231
 6468SOL    HW120303   2.646   1.069   1.209
 6468SOL    HW220304   2.664   0.961   1.331
 6469SOL     OW20305   2.438   1.340   1.939
 6469SOL    HW120306   2.518   1.370   1.887
 6469SOL    HW220307   2.366   1.314   1.876
 6470SOL     OW20308   6.930   1.404   0.160
 6470SOL    HW120309   6.896   1.403   0.254
 6470SOL    HW220310   6.977   1.490   0.143
 6471SOL     OW20311   0.656   6.143   5.509
 6471SOL    HW120312   0.616   6.228   5.544
 6471SOL    HW220313   0.674   6.081   5.585
 6472SOL     OW20314   6.851   6.657   2.898
 6472SOL    HW120315   6.769   6.620   2.942
 6472SOL    HW220316   6.826   6.700   2.811
 6473SOL     OW20317   2.268   1.368   3.556
 6473SOL    HW120318   2.226   1.280   3.574
 6473SOL    HW220319   2.233   1.406   3.471
 6474SOL     OW20320   3.968   6.155   5.364
 6474SOL    HW120321   3.956   6.254   5.370
 6474SOL    HW220322   4.053   6.128   5.410
 6475SOL     OW20323   5.947   5.578   2.338
 6475SOL    HW120324   5.888   5.645   2.383
 6475SOL    HW220325   5.910   5.486   2.352
 6476SOL     OW20326   3.586   2.759   6.665
 6476SOL    HW120327   3.532   2.808   6.734
 6476SOL    HW220328   3.668   2.812   6.643
 6477SOL     OW20329   0.271   5.880   2.005
 6477SOL    HW120330   0.195   5.943   1.989
 6477SOL    HW220331   0.339   5.891   1.933
 6478SOL     OW20332   2.875   5.898   1.153
 6478SOL    HW120333   2.867   5.994   1.128
 6478SOL    HW220334   2.838   5.883   1.245
 6479SOL     OW20335   4.070   6.262   3.396
 6479SOL    HW120336   4.067   6.163   3.409
 6479SOL    HW220337   4.124   6.283   3.314
 6480SOL     OW20338   3.519   1.161   6.516
 6480SOL    HW120339   3.513   1.104   6.597
 6480SOL    HW220340   3.452   1.235   6.522
 6481SOL     OW20341   3.813   2.990   2.008
 6481SOL    HW120342   3.877   3.045   2.061
 6481SOL    HW220343   3.727   2.982   2.058
 6482SOL     OW20344   5.338   3.791   5.442
 6482SOL    HW120345   5.349   3.890   5.447
 6482SOL    HW220346   5.366   3.758   5.352
 6483SOL     OW20347   2.054   6.509   5.417
 6483SOL    HW120348   2.032   6.554   5.330
 6483SOL    HW220349   2.031   6.571   5.492
 6484SOL     OW20350   2.956   1.053   3.435
 6484SOL    HW120351   2.902   1.124   3.480
 6484SOL    HW220352   2.900   1.005   3.367
 6485SOL     OW20353   2.790   5.890   4.718
 6485SOL    HW120354   2.882   5.852   4.726
 6485SOL    HW220355   2.780   5.936   4.630
 6486SOL     OW20356   0.928   5.135   2.888
 6486SOL    HW120357   0.846   5.168   2.933
 6486SOL    HW220358   0.906   5.105   2.795
 6487SOL     OW20359   6.498   4.292   3.946
 6487SOL    HW120360   6.517   4.195   3.934
 6487SOL    HW220361   6.539   4.344   3.870
 6488SOL     OW20362   3.742   5.367   4.692
 6488SOL    HW120363   3.718   5.285   4.640
 6488SOL    HW220364   3.765   5.342   4.786
 6489SOL     OW20365   5.395   2.939   5.382
 6489SOL    HW120366   5.353   2.873   5.321
 6489SOL    HW220367   5.367   2.920   5.476
 6490SOL     OW20368   2.071   2.278   0.315
 6490SOL    HW120369   2.008   2.280   0.237
 6490SOL    HW220370   2.023   2.244   0.396
 6491SOL     OW20371   2.173   0.034   1.904
 6491SOL    HW120372   2.224   0.076   1.829
 6491SOL    HW220373   2.077   0.062   1.899
 6492SOL     OW20374   4.003   3.288   5.059
 6492SOL    HW120375   3.960   3.376   5.081
 6492SOL    HW220376   4.048   3.295   4.970
 6493SOL     OW20377   1.671   4.544   4.500
 6493SOL    HW120378   1.676   4.644   4.503
 6493SOL    HW220379   1.614   4.512   4.576
 6494SOL     OW20380   6.584   0.655   1.565
 6494SOL    HW120381   6.541   0.576   1.521
 6494SOL    HW220382   6.577   0.734   1.505
 6495SOL     OW20383   6.836   0.436   3.028
 6495SOL    HW120384   6.839   0.534   3.046
 6495SOL    HW220385   6.880   0.417   2.941
 6496SOL     OW20386   3.380   2.225   1.386
 6496SOL    HW120387   3.472   2.188   1.371
 6496SOL    HW220388   3.386   2.309   1.439
 6497SOL     OW20389   0.055   1.379   0.839
 6497SOL    HW120390   0.094   1.291   0.812
 6497SOL    HW220391   0.119   1.452   0.817
 6498SOL     OW20392   2.310   4.198   4.128
 6498SOL    HW120393   2.230   4.151   4.092
 6498SOL    HW220394   2.323   4.173   4.224
 6499SOL     OW20395   4.829   3.011   3.250
 6499SOL    HW120396   4.805   3.015   3.347
 6499SOL    HW220397   4.865   3.100   3.221
 6500SOL     OW20398   1.626   4.308   3.243
 6500SOL    HW120399   1.616   4.209   3.236
 6500SOL    HW220400   1.702   4.330   3.304
 6501SOL     OW20401   5.550   2.077   2.527
 6501SOL    HW120402   5.539   2.174   2.552
 6501SOL    HW220403   5.492   2.021   2.587
 6502SOL     OW20404   6.795   3.947   2.366
 6502SOL    HW120405   6.735   4.009   2.316
 6502SOL    HW220406   6.889   3.981   2.361
 6503SOL     OW20407   6.945   3.347   5.594
 6503SOL    HW120408   7.019   3.292   5.634
 6503SOL    HW220409   6.857   3.316   5.631
 6504SOL     OW20410   4.120   6.672   6.223
 6504SOL    HW120411   4.171   6.738   6.168
 6504SOL    HW220412   4.040   6.640   6.172
 6505SOL     OW20413   0.096   5.418   1.081
 6505SOL    HW120414   0.011   5.364   1.081
 6505SOL    HW220415   0.157   5.384   1.152
 6506SOL     OW20416   1.310   3.948   2.333
 6506SOL    HW120417   1.298   3.868   2.391
 6506SOL    HW220418   1.388   4.002   2.365
 6507SOL     OW20419   3.950   5.335   0.360
 6507SOL    HW120420   3.878   5.268   0.338
 6507SOL    HW220421   3.925   5.424   0.321
 6508SOL     OW20422   0.686   0.176   3.475
 6508SOL    HW120423   0.636   0.115   3.537
 6508SOL    HW220424   0.783   0.152   3.476
 6509SOL     OW20425   2.732   1.493   6.911
 6509SOL    HW120426   2.819   1.445   6.906
 6509SOL    HW220427   2.658   1.433   6.882
 6510SOL     OW20428   2.914   6.431   5.263
 6510SOL    HW120429   2.926   6.337   5.234
 6510SOL    HW220430   2.952   6.493   5.193
 6511SOL     OW20431   3.113   2.380   0.402
 6511SOL    HW120432   3.088   2.389   0.498
 6511SOL    HW220433   3.180   2.307   0.391
 6512SOL     OW20434   4.240   1.291   0.631
 6512SOL    HW120435   4.232   1.389   0.611
 6512SOL    HW220436   4.261   1.241   0.547
 6513SOL     OW20437   2.836   4.711   2.918
 6513SOL    HW120438   2.870   4.678   2.830
 6513SOL    HW220439   2.758   4.656   2.947
 6514SOL     OW20440   5.403   6.696   5.324
 6514SOL    HW120441   5.428   6.782   5.367
 6514SOL    HW220442   5.460   6.622   5.359
 6515SOL     OW20443   1.204   5.112   2.846
 6515SOL    HW120444   1.187   5.077   2.938
 6515SOL    HW220445   1.133   5.079   2.784
 6516SOL     OW20446   6.486   3.155   1.773
 6516SOL    HW120447   6.560   3.102   1.732
 6516SOL    HW220448   6.458   3.113   1.859
 6517SOL     OW20449   6.873   3.248   0.587
 6517SOL    HW120450   6.928   3.323   0.551
 6517SOL    HW220451   6.878   3.247   0.687
 6518SOL     OW20452   0.838   1.412   1.969
 6518SOL    HW120453   0.781   1.333   1.948
 6518SOL    HW220454   0.784   1.496   1.961
 6519SOL     OW20455   0.951   1.374   3.163
 6519SOL    HW120456   1.037   1.325   3.148
 6519SOL    HW220457   0.958   1.430   3.245
 6520SOL     OW20458   0.169   5.200   0.606
 6520SOL    HW120459   0.140   5.225   0.698
 6520SOL    HW220460   0.239   5.265   0.574
 6521SOL     OW20461   1.775   3.923   3.839
 6521SOL    HW120462   1.679   3.945   3.827
 6521SOL    HW220463   1.786   3.859   3.915
 6522SOL     OW20464   2.503   2.750   5.288
 6522SOL    HW120465   2.499   2.843   5.250
 6522SOL    HW220466   2.468   2.751   5.382
 6523SOL     OW20467   6.081   6.851   0.303
 6523SOL    HW120468   6.078   6.884   0.208
 6523SOL    HW220469   5.987   6.838   0.337
 6524SOL     OW20470   2.763   2.999   0.974
 6524SOL    HW120471   2.841   3.018   0.914
 6524SOL    HW220472   2.759   3.069   1.045
 6525SOL     OW20473   1.244   4.920   3.652
 6525SOL    HW120474   1.206   4.836   3.690
 6525SOL    HW220475   1.342   4.909   3.635
 6526SOL     OW20476   0.941   5.694   0.854
 6526SOL    HW120477   0.885   5.626   0.902
 6526SOL    HW220478   0.895   5.722   0.770
 6527SOL     OW20479   6.849   1.528   0.802
 6527SOL    HW120480   6.765   1.473   0.808
 6527SOL    HW220481   6.927   1.472   0.828
 6528SOL     OW20482   4.346   6.890   6.642
 6528SOL    HW120483   4.387   6.908   6.732
 6528SOL    HW220484   4.266   6.948   6.631
 6529SOL     OW20485   5.500   0.318   2.099
 6529SOL    HW120486   5.419   0.309   2.156
 6529SOL    HW220487   5.510   0.413   2.070
 6530SOL     OW20488   0.318   2.540   2.982
 6530SOL    HW120489   0.362   2.450   2.979
 6530SOL    HW220490   0.290   2.566   2.890
 6531SOL     OW20491   4.031   3.862   4.480
 6531SOL    HW120492   4.003   3.945   4.431
 6531SOL    HW220493   4.040   3.883   4.577
 6532SOL     OW20494   1.560   0.110   0.116
 6532SOL    HW120495   1.571   0.209   0.126
 6532SOL    HW220496   1.619   0.077   0.043
 6533SOL     OW20497   4.801   4.691   2.042
 6533SOL    HW120498   4.749   4.616   2.000
 6533SOL    HW220499   4.888   4.656   2.076
 6534SOL     OW20500   0.213   4.145   3.070
 6534SOL    HW120501   0.161   4.228   3.091
 6534SOL    HW220502   0.229   4.094   3.155
 6535SOL     OW20503   5.234   3.235   4.659
 6535SOL    HW120504   5.169   3.284   4.718
 6535SOL    HW220505   5.213   3.253   4.563
 6536SOL     OW20506   0.841   4.730   5.076
 6536SOL    HW120507   0.769   4.745   5.144
 6536SOL    HW220508   0.926   4.771   5.108
 6537SOL     OW20509   6.337   5.690   3.639
 6537SOL    HW120510   6.318   5.785   3.615
 6537SOL    HW220511   6.434   5.679   3.661
 6538SOL     OW20512   1.445   2.408   5.372
 6538SOL    HW120513   1.510   2.394   5.298
 6538SOL    HW220514   1.398   2.495   5.360
 6539SOL     OW20515   5.138   0.323   6.157
 6539SOL    HW120516   5.221   0.274   6.184
 6539SOL    HW220517   5.162   0.395   6.092
 6540SOL     OW20518   6.524   2.956   5.682
 6540SOL    HW120519   6.451   2.903   5.726
 6540SOL    HW220520   6.511   3.053   5.702
 6541SOL     OW20521   5.677   2.127   5.650
 6541SOL    HW120522   5.599   2.177   5.614
 6541SOL    HW220523   5.678   2.132   5.750
 6542SOL     OW20524   1.273   4.028   3.062
 6542SOL    HW120525   1.370   4.003   3.065
 6542SOL    HW220526   1.222   3.970   3.125
 6543SOL     OW20527   3.542   1.381   4.530
 6543SOL    HW120528   3.517   1.297   4.481
 6543SOL    HW220529   3.493   1.458   4.491
 6544SOL     OW20530   0.694   6.510   0.885
 6544SOL    HW120531   0.739   6.599   0.886
 6544SOL    HW220532   0.613   6.514   0.826
 6545SOL     OW20533   4.737   6.930   0.978
 6545SOL    HW120534   4.792   7.010   0.953
 6545SOL    HW220535   4.664   6.918   0.910
 6546SOL     OW20536   4.771   4.085   6.535
 6546SOL    HW120537   4.751   3.989   6.553
 6546SOL    HW220538   4.693   4.141   6.564
 6547SOL     OW20539   0.529   6.039   5.870
 6547SOL    HW120540   0.572   6.112   5.923
 6547SOL    HW220541   0.599   5.988   5.820
 6548SOL     OW20542   6.953   1.360   5.830
 6548SOL    HW120543   0.018   1.379   5.791
 6548SOL    HW220544   6.885   1.354   5.757
 6549SOL     OW20545   4.270   1.554   2.434
 6549SOL    HW120546   4.293   1.457   2.423
 6549SOL    HW220547   4.330   1.609   2.376
 6550SOL     OW20548   6.595   6.545   3.292
 6550SOL    HW120549   6.532   6.468   3.304
 6550SOL    HW220550   6.559   6.625   3.341
 6551SOL     OW20551   2.834   3.882   0.846
 6551SOL    HW120552   2.780   3.872   0.929
 6551SOL    HW220553   2.892   3.802   0.834
 6552SOL     OW20554   1.887   4.991   0.258
 6552SOL    HW120555   1.950   5.063   0.231
 6552SOL    HW220556   1.919   4.949   0.343
 6553SOL     OW20557   0.555   1.382   3.227
 6553SOL    HW120558   0.571   1.464   3.281
 6553SOL    HW220559   0.464   1.345   3.247
 6554SOL     OW20560   1.265   2.237   4.181
 6554SOL    HW120561   1.276   2.166   4.112
 6554SOL    HW220562   1.355   2.267   4.213
 6555SOL     OW20563   6.790   4.024   3.738
 6555SOL    HW120564   6.859   4.003   3.669
 6555SOL    HW220565   6.769   3.942   3.791
 6556SOL     OW20566   4.960   3.200   2.544
 6556SOL    HW120567   4.957   3.199   2.644
 6556SOL    HW220568   4.955   3.106   2.510
 6557SOL     OW20569   1.836   0.679   2.306
 6557SOL    HW120570   1.824   0.659   2.404
 6557SOL    HW220571   1.933   0.695   2.287
 6558SOL     OW20572   5.475   6.270   6.458
 6558SOL    HW120573   5.465   6.314   6.548
 6558SOL    HW220574   5.459   6.337   6.386
 6559SOL     OW20575   0.119   2.762   6.303
 6559SOL    HW120576   0.093   2.788   6.210
 6559SOL    HW220577   0.161   2.841   6.349
 6560SOL     OW20578   5.857   4.664   0.282
 6560SOL    HW120579   5.923   4.733   0.254
 6560SOL    HW220580   5.898   4.573   0.275
 6561SOL     OW20581   3.651   4.358   6.965
 6561SOL    HW120582   3.558   4.321   6.976
 6561SOL    HW220583   3.667   4.426   0.012
 6562SOL     OW20584   5.422   2.540   1.009
 6562SOL    HW120585   5.426   2.518   1.106
 6562SOL    HW220586   5.465   2.628   0.992
 6563SOL     OW20587   6.350   5.088   5.561
 6563SOL    HW120588   6.432   5.032   5.544
 6563SOL    HW220589   6.285   5.035   5.614
 6564SOL     OW20590   6.196   3.647   3.123
 6564SOL    HW120591   6.149   3.684   3.203
 6564SOL    HW220592   6.203   3.717   3.052
 6565SOL     OW20593   5.171   0.367   2.951
 6565SOL    HW120594   5.266   0.368   2.918
 6565SOL    HW220595   5.154   0.284   3.003
 6566SOL     OW20596   4.977   5.996   3.614
 6566SOL    HW120597   4.882   5.979   3.587
 6566SOL    HW220598   5.037   5.980   3.536
 6567SOL     OW20599   4.122   0.363   1.844
 6567SOL    HW120600   4.126   0.413   1.758
 6567SOL    HW220601   4.044   0.301   1.843
 6568SOL     OW20602   4.175   1.710   1.012
 6568SOL    HW120603   4.205   1.691   1.106
 6568SOL    HW220604   4.148   1.625   0.968
 6569SOL     OW20605   0.781   4.480   4.480
 6569SOL    HW120606   0.790   4.391   4.525
 6569SOL    HW220607   0.699   4.479   4.422
 6570SOL     OW20608   4.471   6.991   2.345
 6570SOL    HW120609   4.504   0.059   2.366
 6570SOL    HW220610   4.499   6.966   2.252
 6571SOL     OW20611   3.480   5.791   3.011
 6571SOL    HW120612   3.485   5.865   2.944
 6571SOL    HW220613   3.393   5.743   3.001
 6572SOL     OW20614   1.419   5.791   4.125
 6572SOL    HW120615   1.363   5.873   4.136
 6572SOL    HW220616   1.451   5.786   4.030
 6573SOL     OW20617   0.926   1.771   3.005
 6573SOL    HW120618   0.950   1.861   2.969
 6573SOL    HW220619   0.955   1.701   2.940
 6574SOL     OW20620   1.667   5.249   2.330
 6574SOL    HW120621   1.687   5.340   2.366
 6574SOL    HW220622   1.714   5.237   2.242
 6575SOL     OW20623   0.292   1.250   3.278
 6575SOL    HW120624   0.260   1.258   3.372
 6575SOL    HW220625   0.223   1.285   3.216
 6576SOL     OW20626   4.742   6.102   1.031
 6576SOL    HW120627   4.822   6.058   1.071
 6576SOL    HW220628   4.728   6.068   0.938
 6577SOL     OW20629   3.340   1.344   4.037
 6577SOL    HW120630   3.260   1.297   3.999
 6577SOL    HW220631   3.410   1.352   3.966
 6578SOL     OW20632   1.249   4.975   1.014
 6578SOL    HW120633   1.269   5.036   1.091
 6578SOL    HW220634   1.177   4.910   1.041
 6579SOL     OW20635   7.024   0.675   4.178
 6579SOL    HW120636   0.019   0.705   4.272
 6579SOL    HW220637   7.014   0.756   4.119
 6580SOL     OW20638   2.224   2.031   0.475
 6580SOL    HW120639   2.285   2.101   0.511
 6580SOL    HW220640   2.129   2.061   0.485
 6581SOL     OW20641   0.411   1.959   1.309
 6581SOL    HW120642   0.329   1.921   1.351
 6581SOL    HW220643   0.473   1.992   1.380
 6582SOL     OW20644   6.088   1.269   2.901
 6582SOL    HW120645   6.020   1.209   2.860
 6582SOL    HW220646   6.174   1.263   2.849
 6583SOL     OW20647   3.853   5.198   0.093
 6583SOL    HW120648   3.779   5.195   0.160
 6583SOL    HW220649   3.815   5.213   0.002
 6584SOL     OW20650   4.407   2.526   6.297
 6584SOL    HW120651   4.397   2.607   6.240
 6584SOL    HW220652   4.392   2.550   6.393
 6585SOL     OW20653   5.464   6.755   1.640
 6585SOL    HW120654   5.383   6.718   1.686
 6585SOL    HW220655   5.542   6.693   1.654
 6586SOL     OW20656   0.200   1.230   6.981
 6586SOL    HW120657   0.256   1.178   0.021
 6586SOL    HW220658   0.244   1.319   6.963
 6587SOL     OW20659   2.219   4.571   5.263
 6587SOL    HW120660   2.235   4.510   5.185
 6587SOL    HW220661   2.255   4.527   5.346
 6588SOL     OW20662   0.214   2.520   0.467
 6588SOL    HW120663   0.178   2.432   0.438
 6588SOL    HW220664   0.139   2.578   0.499
 6589SOL     OW20665   6.796   0.115   2.480
 6589SOL    HW120666   6.780   0.118   2.382
 6589SOL    HW220667   6.877   0.059   2.500
 6590SOL     OW20668   1.209   6.300   4.333
 6590SOL    HW120669   1.180   6.395   4.323
 6590SOL    HW220670   1.154   6.255   4.404
 6591SOL     OW20671   5.952   4.527   3.427
 6591SOL    HW120672   5.854   4.516   3.437
 6591SOL    HW220673   5.999   4.451   3.472
 6592SOL     OW20674   6.221   6.936   3.658
 6592SOL    HW120675   6.131   6.928   3.615
 6592SOL    HW220676   6.268   6.847   3.655
 6593SOL     OW20677   1.787   1.308   2.117
 6593SOL    HW120678   1.702   1.278   2.161
 6593SOL    HW220679   1.773   1.315   2.018
 6594SOL     OW20680   5.213   0.376   6.524
 6594SOL    HW120681   5.260   0.346   6.441
 6594SOL    HW220682   5.119   0.342   6.523
 6595SOL     OW20683   0.544   1.698   5.279
 6595SOL    HW120684   0.549   1.608   5.235
 6595SOL    HW220685   0.599   1.763   5.227
 6596SOL     OW20686   5.233   0.099   2.706
 6596SOL    HW120687   5.268   0.151   2.784
 6596SOL    HW220688   5.142   0.063   2.728
 6597SOL     OW20689   0.821   4.311   1.869
 6597SOL    HW120690   0.763   4.298   1.789
 6597SOL    HW220691   0.861   4.224   1.897
 6598SOL     OW20692   1.843   4.369   4.427
 6598SOL    HW120693   1.791   4.435   4.481
 6598SOL    HW220694   1.926   4.412   4.392
 6599SOL     OW20695   6.790   5.464   6.377
 6599SOL    HW120696   6.746   5.392   6.323
 6599SOL    HW220697   6.722   5.531   6.405
 6600SOL     OW20698   4.618   0.348   5.267
 6600SOL    HW120699   4.647   0.441   5.245
 6600SOL    HW220700   4.548   0.319   5.202
 6601SOL     OW20701   1.459   2.526   1.654
 6601SOL    HW120702   1.414   2.473   1.725
 6601SOL    HW220703   1.553   2.547   1.682
 6602SOL     OW20704   1.206   5.685   1.557
 6602SOL    HW120705   1.157   5.658   1.475
 6602SOL    HW220706   1.148   5.743   1.613
 6603SOL     OW20707   0.441   3.711   2.630
 6603SOL    HW120708   0.410   3.710   2.725
 6603SOL    HW220709   0.445   3.618   2.595
 6604SOL     OW20710   1.926   6.230   3.423
 6604SOL    HW120711   1.882   6.253   3.509
 6604SOL    HW220712   2.005   6.171   3.441
 6605SOL     OW20713   0.137   5.948   1.218
 6605SOL    HW120714   0.215   5.995   1.259
 6605SOL    HW220715   0.169   5.875   1.159
 6606SOL     OW20716   1.941   2.973   2.932
 6606SOL    HW120717   2.028   3.007   2.967
 6606SOL    HW220718   1.904   2.905   2.996
 6607SOL     OW20719   5.781   3.669   3.622
 6607SOL    HW120720   5.697   3.615   3.632
 6607SOL    HW220721   5.859   3.607   3.616
 6608SOL     OW20722   1.107   6.053   6.256
 6608SOL    HW120723   1.067   6.001   6.181
 6608SOL    HW220724   1.073   6.147   6.253
 6609SOL     OW20725   4.477   1.376   6.607
 6609SOL    HW120726   4.416   1.407   6.680
 6609SOL    HW220727   4.425   1.318   6.543
 6610SOL     OW20728   3.092   5.849   0.781
 6610SOL    HW120729   3.104   5.947   0.797
 6610SOL    HW220730   3.030   5.835   0.704
 6611SOL     OW20731   3.444   1.583   4.834
 6611SOL    HW120732   3.352   1.619   4.850
 6611SOL    HW220733   3.479   1.619   4.748
 6612SOL     OW20734   0.243   0.388   6.647
 6612SOL    HW120735   0.291   0.300   6.639
 6612SOL    HW220736   0.308   0.458   6.677
 6613SOL     OW20737   4.425   0.237   0.712
 6613SOL    HW120738   4.455   0.236   0.808
 6613SOL    HW220739   4.404   0.330   0.685
 6614SOL     OW20740   4.267   4.989   0.851
 6614SOL    HW120741   4.288   5.087   0.850
 6614SOL    HW220742   4.351   4.936   0.860
 6615SOL     OW20743   3.773   5.494   5.578
 6615SOL    HW120744   3.688   5.463   5.537
 6615SOL    HW220745   3.773   5.594   5.584
 6616SOL     OW20746   3.805   1.739   6.381
 6616SOL    HW120747   3.888   1.791   6.404
 6616SOL    HW220748   3.824   1.680   6.303
 6617SOL     OW20749   3.581   0.483   3.943
 6617SOL    HW120750   3.568   0.402   4.000
 6617SOL    HW220751   3.645   0.462   3.869
 6618SOL     OW20752   6.005   2.756   3.949
 6618SOL    HW120753   6.095   2.786   3.917
 6618SOL    HW220754   6.002   2.656   3.951
 6619SOL     OW20755   4.615   5.877   4.234
 6619SOL    HW120756   4.630   5.961   4.286
 6619SOL    HW220757   4.698   5.855   4.182
 6620SOL     OW20758   1.036   3.035   3.363
 6620SOL    HW120759   0.991   2.953   3.327
 6620SOL    HW220760   0.985   3.116   3.334
 6621SOL     OW20761   3.646   3.470   4.382
 6621SOL    HW120762   3.701   3.392   4.352
 6621SOL    HW220763   3.706   3.547   4.404
 6622SOL     OW20764   0.782   5.197   0.976
 6622SOL    HW120765   0.877   5.223   0.993
 6622SOL    HW220766   0.721   5.266   1.015
 6623SOL     OW20767   3.015   4.055   4.975
 6623SOL    HW120768   2.973   4.100   4.896
 6623SOL    HW220769   3.020   3.957   4.959
 6624SOL     OW20770   2.432   1.586   2.980
 6624SOL    HW120771   2.524   1.606   3.014
 6624SOL    HW220772   2.394   1.667   2.937
 6625SOL     OW20773   5.865   4.271   5.776
 6625SOL    HW120774   5.905   4.250   5.866
 6625SOL    HW220775   5.822   4.188   5.739
 6626SOL     OW20776   3.156   6.034   5.148
 6626SOL    HW120777   3.140   5.942   5.114
 6626SOL    HW220778   3.225   6.080   5.092
 6627SOL     OW20779   2.226   6.343   4.592
 6627SOL    HW120780   2.131   6.334   4.561
 6627SOL    HW220781   2.278   6.397   4.526
 6628SOL     OW20782   3.776   5.837   4.714
 6628SOL    HW120783   3.835   5.903   4.761
 6628SOL    HW220784   3.831   5.766   4.671
 6629SOL     OW20785   5.066   6.169   6.321
 6629SOL    HW120786   5.111   6.213   6.399
 6629SOL    HW220787   5.111   6.082   6.301
 6630SOL     OW20788   1.941   0.902   0.172
 6630SOL    HW120789   2.035   0.879   0.147
 6630SOL    HW220790   1.907   0.975   0.113
 6631SOL     OW20791   1.696   3.671   6.046
 6631SOL    HW120792   1.613   3.658   6.100
 6631SOL    HW220793   1.772   3.624   6.092
 6632SOL     OW20794   1.898   0.041   0.395
 6632SOL    HW120795   1.805   0.071   0.376
 6632SOL    HW220796   1.906   6.967   0.377
 6633SOL     OW20797   3.897   5.452   5.796
 6633SOL    HW120798   3.829   5.484   5.863
 6633SOL    HW220799   3.861   5.464   5.704
 6634SOL     OW20800   3.511   1.844   3.835
 6634SOL    HW120801   3.561   1.919   3.791
 6634SOL    HW220802   3.518   1.762   3.779
 6635SOL     OW20803   4.981   4.863   4.444
 6635SOL    HW120804   4.986   4.855   4.344
 6635SOL    HW220805   4.890   4.836   4.476
 6636SOL     OW20806   3.981   0.688   0.103
 6636SOL    HW120807   4.034   0.761   0.146
 6636SOL    HW220808   3.910   0.657   0.166
 6637SOL     OW20809   0.533   2.260   0.763
 6637SOL    HW120810   0.531   2.181   0.702
 6637SOL    HW220811   0.627   2.284   0.785
 6638SOL     OW20812   3.084   3.425   3.882
 6638SOL    HW120813   3.040   3.420   3.793
 6638SOL    HW220814   3.052   3.349   3.939
 6639SOL     OW20815   4.711   2.910   0.842
 6639SOL    HW120816   4.712   2.905   0.942
 6639SOL    HW220817   4.715   3.006   0.813
 6640SOL     OW20818   1.650   4.186   4.713
 6640SOL    HW120819   1.630   4.228   4.625
 6640SOL    HW220820   1.742   4.146   4.711
 6641SOL     OW20821   5.220   2.152   1.083
 6641SOL    HW120822   5.181   2.132   1.173
 6641SOL    HW220823   5.317   2.173   1.092
 6642SOL     OW20824   1.849   5.672   0.227
 6642SOL    HW120825   1.918   5.611   0.190
 6642SOL    HW220826   1.777   5.686   0.158
 6643SOL     OW20827   3.750   5.883   6.008
 6643SOL    HW120828   3.786   5.975   5.991
 6643SOL    HW220829   3.824   5.823   6.039
 6644SOL     OW20830   2.475   6.482   3.779
 6644SOL    HW120831   2.452   6.574   3.746
 6644SOL    HW220832   2.391   6.436   3.809
 6645SOL     OW20833   6.005   2.107   6.928
 6645SOL    HW120834   6.052   2.023   6.898
 6645SOL    HW220835   6.044   2.185   6.880
 6646SOL     OW20836   4.117   6.983   5.568
 6646SOL    HW120837   4.151   6.899   5.610
 6646SOL    HW220838   4.195   0.017   5.545
 6647SOL     OW20839   4.079   4.907   0.665
 6647SOL    HW120840   3.987   4.940   0.684
 6647SOL    HW220841   4.140   4.934   0.741
 6648SOL     OW20842   3.114   6.546   5.465
 6648SOL    HW120843   3.133   6.450   5.446
 6648SOL    HW220844   3.036   6.576   5.410
 6649SOL     OW20845   5.123   2.756   6.613
 6649SOL    HW120846   5.124   2.665   6.572
 6649SOL    HW220847   5.097   2.823   6.543
 6650SOL     OW20848   2.174   1.684   4.535
 6650SOL    HW120849   2.083   1.702   4.498
 6650SOL    HW220850   2.181   1.724   4.627
 6651SOL     OW20851   6.694   1.783   6.135
 6651SOL    HW120852   6.613   1.841   6.124
 6651SOL    HW220853   6.729   1.792   6.229
 6652SOL     OW20854   6.814   4.232   0.370
 6652SOL    HW120855   6.808   4.156   0.435
 6652SOL    HW220856   6.899   4.283   0.385
 6653SOL     OW20857   5.587   4.678   0.271
 6653SOL    HW120858   5.686   4.670   0.289
 6653SOL    HW220859   5.571   4.755   0.209
 6654SOL     OW20860   6.500   4.052   3.369
 6654SOL    HW120861   6.587   4.057   3.321
 6654SOL    HW220862   6.431   4.014   3.308
 6655SOL     OW20863   0.375   5.296   1.814
 6655SOL    HW120864   0.357   5.296   1.913
 6655SOL    HW220865   0.470   5.269   1.798
 6656SOL     OW20866   4.463   1.593   3.385
 6656SOL    HW120867   4.377   1.631   3.417
 6656SOL    HW220868   4.499   1.529   3.452
 6657SOL     OW20869   6.083   1.943   3.661
 6657SOL    HW120870   6.050   1.923   3.754
 6657SOL    HW220871   6.008   1.983   3.607
 6658SOL     OW20872   6.812   5.786   5.223
 6658SOL    HW120873   6.719   5.750   5.223
 6658SOL    HW220874   6.813   5.875   5.270
 6659SOL     OW20875   0.780   4.937   1.723
 6659SOL    HW120876   0.731   5.016   1.760
 6659SOL    HW220877   0.739   4.853   1.758
 6660SOL     OW20878   6.601   6.400   4.211
 6660SOL    HW120879   6.634   6.492   4.191
 6660SOL    HW220880   6.508   6.406   4.247
 6661SOL     OW20881   3.824   5.983   3.973
 6661SOL    HW120882   3.883   6.005   4.051
 6661SOL    HW220883   3.768   5.904   3.996
 6662SOL     OW20884   4.132   6.517   2.471
 6662SOL    HW120885   4.111   6.552   2.562
 6662SOL    HW220886   4.117   6.589   2.403
 6663SOL     OW20887   0.781   3.898   5.902
 6663SOL    HW120888   0.770   3.997   5.912
 6663SOL    HW220889   0.717   3.865   5.832
 6664SOL     OW20890   3.137   7.023   1.192
 6664SOL    HW120891   3.233   0.027   1.190
 6664SOL    HW220892   3.111   7.004   1.287
 6665SOL     OW20893   2.517   0.774   6.366
 6665SOL    HW120894   2.428   0.813   6.388
 6665SOL    HW220895   2.542   0.706   6.435
 6666SOL     OW20896   4.010   6.562   5.791
 6666SOL    HW120897   3.935   6.607   5.743
 6666SOL    HW220898   4.095   6.612   5.773
 6667SOL     OW20899   1.031   6.153   6.725
 6667SOL    HW120900   0.932   6.161   6.716
 6667SOL    HW220901   1.052   6.097   6.805
 6668SOL     OW20902   7.016   4.579   0.643
 6668SOL    HW120903   6.986   4.542   0.555
 6668SOL    HW220904   0.018   4.675   0.632
 6669SOL     OW20905   1.048   1.900   3.218
 6669SOL    HW120906   1.036   1.855   3.130
 6669SOL    HW220907   1.146   1.913   3.236
 6670SOL     OW20908   4.062   2.903   0.590
 6670SOL    HW120909   4.012   2.817   0.581
 6670SOL    HW220910   4.117   2.901   0.674
 6671SOL     OW20911   4.174   5.362   0.523
 6671SOL    HW120912   4.097   5.356   0.459
 6671SOL    HW220913   4.235   5.436   0.496
 6672SOL     OW20914   1.574   2.937   1.581
 6672SOL    HW120915   1.604   2.921   1.675
 6672SOL    HW220916   1.601   3.030   1.552
 6673SOL     OW20917   6.448   3.535   3.751
 6673SOL    HW120918   6.487   3.494   3.833
 6673SOL    HW220919   6.462   3.474   3.673
 6674SOL     OW20920   0.409   1.371   0.273
 6674SOL    HW120921   0.401   1.366   0.373
 6674SOL    HW220922   0.363   1.453   0.240
 6675SOL     OW20923   4.670   0.994   6.280
 6675SOL    HW120924   4.699   0.903   6.249
 6675SOL    HW220925   4.751   1.047   6.306
 6676SOL     OW20926   1.312   4.308   4.170
 6676SOL    HW120927   1.346   4.388   4.219
 6676SOL    HW220928   1.219   4.325   4.138
 6677SOL     OW20929   0.985   1.263   6.749
 6677SOL    HW120930   1.024   1.236   6.837
 6677SOL    HW220931   0.928   1.344   6.761
 6678SOL     OW20932   2.577   4.474   6.326
 6678SOL    HW120933   2.635   4.459   6.406
 6678SOL    HW220934   2.499   4.411   6.329
 6679SOL     OW20935   1.534   1.322   3.824
 6679SOL    HW120936   1.595   1.354   3.896
 6679SOL    HW220937   1.439   1.341   3.849
 6680SOL     OW20938   6.146   6.569   1.418
 6680SOL    HW120939   6.196   6.618   1.489
 6680SOL    HW220940   6.051   6.598   1.417
 6681SOL     OW20941   3.506   5.894   1.720
 6681SOL    HW120942   3.474   5.885   1.814
 6681SOL    HW220943   3.434   5.862   1.657
 6682SOL     OW20944   3.431   5.618   5.563
 6682SOL    HW120945   3.470   5.681   5.631
 6682SOL    HW220946   3.393   5.539   5.610
 6683SOL     OW20947   6.765   4.212   6.294
 6683SOL    HW120948   6.783   4.263   6.209
 6683SOL    HW220949   6.850   4.204   6.346
 6684SOL     OW20950   3.164   5.649   0.175
 6684SOL    HW120951   3.207   5.589   0.242
 6684SOL    HW220952   3.190   5.621   0.083
 6685SOL     OW20953   4.996   2.988   6.918
 6685SOL    HW120954   4.986   3.061   6.986
 6685SOL    HW220955   5.023   3.028   6.830
 6686SOL     OW20956   5.059   5.171   4.286
 6686SOL    HW120957   5.119   5.182   4.365
 6686SOL    HW220958   5.001   5.251   4.277
 6687SOL     OW20959   6.394   1.888   2.005
 6687SOL    HW120960   6.310   1.845   1.974
 6687SOL    HW220961   6.418   1.963   1.943
 6688SOL     OW20962   4.563   4.787   0.712
 6688SOL    HW120963   4.591   4.852   0.782
 6688SOL    HW220964   4.633   4.716   0.703
 6689SOL     OW20965   2.304   4.684   5.818
 6689SOL    HW120966   2.225   4.656   5.763
 6689SOL    HW220967   2.359   4.604   5.840
 6690SOL     OW20968   0.609   6.967   5.960
 6690SOL    HW120969   0.515   6.964   5.926
 6690SOL    HW220970   0.637   0.038   5.972
 6691SOL     OW20971   3.208   2.103   2.563
 6691SOL    HW120972   3.209   2.005   2.581
 6691SOL    HW220973   3.239   2.120   2.469
 6692SOL     OW20974   4.315   5.251   2.339
 6692SOL    HW120975   4.218   5.272   2.346
 6692SOL    HW220976   4.366   5.306   2.405
 6693SOL     OW20977   3.681   1.818   4.767
 6693SOL    HW120978   3.631   1.819   4.853
 6693SOL    HW220979   3.622   1.783   4.694
 6694SOL     OW20980   3.420   4.089   1.802
 6694SOL    HW120981   3.424   4.020   1.729
 6694SOL    HW220982   3.333   4.139   1.795
 6695SOL     OW20983   2.377   1.904   0.059
 6695SOL    HW120984   2.436   1.953   7.018
 6695SOL    HW220985   2.319   1.841   0.009
 6696SOL     OW20986   4.097   3.502   4.414
 6696SOL    HW120987   4.098   3.513   4.315
 6696SOL    HW220988   4.146   3.578   4.457
 6697SOL     OW20989   4.334   2.363   2.278
 6697SOL    HW120990   4.341   2.338   2.375
 6697SOL    HW220991   4.389   2.445   2.262
 6698SOL     OW20992   3.269   4.074   1.442
 6698SOL    HW120993   3.359   4.055   1.481
 6698SOL    HW220994   3.223   3.987   1.421
 6699SOL     OW20995   1.220   3.994   5.802
 6699SOL    HW120996   1.274   4.052   5.863
 6699SOL    HW220997   1.220   4.033   5.710
 6700SOL     OW20998   5.737   0.149   6.862
 6700SOL    HW120999   5.835   0.168   6.868
 6700SOL    HW221000   5.714   0.074   6.924
 6701SOL     OW21001   6.406   0.234   1.158
 6701SOL    HW121002   6.364   0.216   1.069
 6701SOL    HW221003   6.501   0.263   1.145
 6702SOL     OW21004   3.205   2.741   1.271
 6702SOL    HW121005   3.197   2.840   1.262
 6702SOL    HW221006   3.124   2.704   1.317
 6703SOL     OW21007   0.116   1.051   0.308
 6703SOL    HW121008   0.125   1.139   0.355
 6703SOL    HW221009   0.089   0.981   0.374
 6704SOL     OW21010   3.090   0.090   6.133
 6704SOL    HW121011   3.017   0.024   6.151
 6704SOL    HW221012   3.074   0.136   6.046
 6705SOL     OW21013   6.797   4.334   2.329
 6705SOL    HW121014   6.754   4.254   2.288
 6705SOL    HW221015   6.841   4.308   2.415
 6706SOL     OW21016   0.307   6.653   1.449
 6706SOL    HW121017   0.211   6.626   1.459
 6706SOL    HW221018   0.354   6.588   1.389
 6707SOL     OW21019   5.167   1.104   2.204
 6707SOL    HW121020   5.239   1.040   2.178
 6707SOL    HW221021   5.078   1.064   2.185
 6708SOL     OW21022   0.670   3.687   1.099
 6708SOL    HW121023   0.722   3.738   1.167
 6708SOL    HW221024   0.665   3.740   1.014
 6709SOL     OW21025   1.989   4.136   2.359
 6709SOL    HW121026   1.916   4.070   2.339
 6709SOL    HW221027   2.072   4.108   2.312
 6710SOL     OW21028   5.248   1.699   0.967
 6710SOL    HW121029   5.164   1.680   1.018
 6710SOL    HW221030   5.251   1.796   0.942
 6711SOL     OW21031   3.619   6.269   6.604
 6711SOL    HW121032   3.609   6.316   6.516
 6711SOL    HW221033   3.715   6.264   6.628
 6712SOL     OW21034   5.554   3.884   1.687
 6712SOL    HW121035   5.591   3.829   1.761
 6712SOL    HW221036   5.536   3.825   1.608
 6713SOL     OW21037   1.502   5.254   5.065
 6713SOL    HW121038   1.441   5.323   5.103
 6713SOL    HW221039   1.551   5.292   4.987
 6714SOL     OW21040   4.842   1.420   1.366
 6714SOL    HW121041   4.757   1.429   1.418
 6714SOL    HW221042   4.821   1.392   1.272
 6715SOL     OW21043   1.447   0.532   6.974
 6715SOL    HW121044   1.349   0.537   6.994
 6715SOL    HW221045   1.495   0.494   0.028
 6716SOL     OW21046   0.108   6.077   2.643
 6716SOL    HW121047   0.194   6.115   2.611
 6716SOL    HW221048   0.086   6.115   2.733
 6717SOL     OW21049   5.675   2.019   5.392
 6717SOL    HW121050   5.675   2.043   5.490
 6717SOL    HW221051   5.711   2.096   5.339
 6718SOL     OW21052   3.817   1.061   1.375
 6718SOL    HW121053   3.847   0.966   1.361
 6718SOL    HW221054   3.894   1.116   1.408
 6719SOL     OW21055   2.166   1.081   0.310
 6719SOL    HW121056   2.210   0.993   0.293
 6719SOL    HW221057   2.143   1.124   0.223
 6720SOL     OW21058   1.832   0.576   6.210
 6720SOL    HW121059   1.782   0.544   6.129
 6720SOL    HW221060   1.810   0.672   6.227
 6721SOL     OW21061   6.044   0.621   0.449
 6721SOL    HW121062   6.133   0.644   0.488
 6721SOL    HW221063   5.996   0.705   0.424
 6722SOL     OW21064   5.787   3.259   6.792
 6722SOL    HW121065   5.886   3.255   6.802
 6722SOL    HW221066   5.757   3.354   6.781
 6723SOL     OW21067   0.992   2.308   5.827
 6723SOL    HW121068   1.066   2.373   5.817
 6723SOL    HW221069   0.957   2.283   5.737
 6724SOL     OW21070   2.164   3.575   4.935
 6724SOL    HW121071   2.247   3.600   4.886
 6724SOL    HW221072   2.153   3.635   5.014
 6725SOL     OW21073   5.382   2.754   3.178
 6725SOL    HW121074   5.368   2.820   3.252
 6725SOL    HW221075   5.479   2.728   3.175
 6726SOL     OW21076   0.573   0.429   5.223
 6726SOL    HW121077   0.622   0.474   5.148
 6726SOL    HW221078   0.563   0.332   5.202
 6727SOL     OW21079   1.359   5.098   5.354
 6727SOL    HW121080   1.335   5.033   5.426
 6727SOL    HW221081   1.422   5.055   5.290
 6728SOL     OW21082   3.278   1.831   2.966
 6728SOL    HW121083   3.188   1.790   2.949
 6728SOL    HW221084   3.273   1.929   2.948
 6729SOL     OW21085   4.320   1.048   2.500
 6729SOL    HW121086   4.227   1.021   2.525
 6729SOL    HW221087   4.348   1.000   2.417
 6730SOL     OW21088   0.604   0.931   1.370
 6730SOL    HW121089   0.699   0.963   1.372
 6730SOL    HW221090   0.602   0.837   1.336
 6731SOL     OW21091   3.596   0.146   6.129
 6731SOL    HW121092   3.582   0.071   6.064
 6731SOL    HW221093   3.563   0.120   6.219
 6732SOL     OW21094   6.897   5.567   4.854
 6732SOL    HW121095   6.803   5.541   4.834
 6732SOL    HW221096   6.959   5.518   4.792
 6733SOL     OW21097   4.972   4.946   6.284
 6733SOL    HW121098   4.974   4.847   6.280
 6733SOL    HW221099   5.052   4.984   6.237
 6734SOL     OW21100   6.525   2.082   4.360
 6734SOL    HW121101   6.554   2.033   4.441
 6734SOL    HW221102   6.565   2.039   4.279
 6735SOL     OW21103   6.172   2.734   3.324
 6735SOL    HW121104   6.090   2.705   3.274
 6735SOL    HW221105   6.247   2.748   3.259
 6736SOL     OW21106   3.352   3.710   0.686
 6736SOL    HW121107   3.376   3.613   0.685
 6736SOL    HW221108   3.325   3.739   0.594
 6737SOL     OW21109   6.976   3.432   0.380
 6737SOL    HW121110   0.010   3.377   0.320
 6737SOL    HW221111   0.006   3.505   0.422
 6738SOL     OW21112   1.077   5.803   3.594
 6738SOL    HW121113   1.132   5.837   3.518
 6738SOL    HW221114   1.106   5.849   3.678
 6739SOL     OW21115   6.923   0.135   4.757
 6739SOL    HW121116   7.005   0.126   4.813
 6739SOL    HW221117   6.901   0.046   4.717
 6740SOL     OW21118   0.741   6.583   3.110
 6740SOL    HW121119   0.665   6.647   3.105
 6740SOL    HW221120   0.816   6.624   3.162
 6741SOL     OW21121   3.938   1.726   6.811
 6741SOL    HW121122   4.010   1.796   6.809
 6741SOL    HW221123   3.878   1.743   6.889
 6742SOL     OW21124   5.406   4.867   3.721
 6742SOL    HW121125   5.407   4.882   3.623
 6742SOL    HW221126   5.314   4.839   3.750
 6743SOL     OW21127   4.106   4.047   0.799
 6743SOL    HW121128   4.149   3.961   0.827
 6743SOL    HW221129   4.105   4.054   0.700
 6744SOL     OW21130   0.175   6.503   5.924
 6744SOL    HW121131   0.088   6.531   5.964
 6744SOL    HW221132   0.246   6.504   5.994
 6745SOL     OW21133   0.139   4.497   5.257
 6745SOL    HW121134   0.210   4.473   5.192
 6745SOL    HW221135   0.138   4.430   5.331
 6746SOL     OW21136   0.963   2.341   2.248
 6746SOL    HW121137   0.991   2.332   2.343
 6746SOL    HW221138   0.993   2.260   2.197
 6747SOL     OW21139   1.865   6.221   5.835
 6747SOL    HW121140   1.811   6.137   5.838
 6747SOL    HW221141   1.937   6.212   5.766
 6748SOL     OW21142   1.915   0.981   4.714
 6748SOL    HW121143   1.882   0.963   4.621
 6748SOL    HW221144   1.897   1.076   4.738
 6749SOL     OW21145   3.764   5.191   1.399
 6749SOL    HW121146   3.776   5.179   1.300
 6749SOL    HW221147   3.717   5.112   1.437
 6750SOL     OW21148   3.592   1.246   5.071
 6750SOL    HW121149   3.558   1.222   4.980
 6750SOL    HW221150   3.521   1.294   5.122
 6751SOL     OW21151   4.996   6.970   4.273
 6751SOL    HW121152   4.906   7.014   4.272
 6751SOL    HW221153   5.062   0.005   4.318
 6752SOL     OW21154   2.210   5.240   1.961
 6752SOL    HW121155   2.115   5.234   1.931
 6752SOL    HW221156   2.213   5.258   2.059
 6753SOL     OW21157   3.602   3.357   5.859
 6753SOL    HW121158   3.635   3.344   5.765
 6753SOL    HW221159   3.614   3.272   5.910
 6754SOL     OW21160   6.450   1.855   0.921
 6754SOL    HW121161   6.403   1.818   0.841
 6754SOL    HW221162   6.431   1.798   1.000
 6755SOL     OW21163   2.837   5.732   6.104
 6755SOL    HW121164   2.898   5.811   6.113
 6755SOL    HW221165   2.852   5.669   6.180
 6756SOL     OW21166   2.274   2.055   5.234
 6756SOL    HW121167   2.211   1.980   5.256
 6756SOL    HW221168   2.236   2.141   5.268
 6757SOL     OW21169   4.034   6.677   0.575
 6757SOL    HW121170   4.111   6.636   0.526
 6757SOL    HW221171   4.055   6.682   0.673
 6758SOL     OW21172   5.423   1.751   3.046
 6758SOL    HW121173   5.516   1.776   3.021
 6758SOL    HW221174   5.358   1.802   2.990
 6759SOL     OW21175   0.897   2.580   2.436
 6759SOL    HW121176   0.922   2.504   2.376
 6759SOL    HW221177   0.805   2.566   2.472
 6760SOL     OW21178   5.134   2.863   3.578
 6760SOL    HW121179   5.118   2.766   3.565
 6760SOL    HW221180   5.047   2.912   3.581
 6761SOL     OW21181   4.056   1.972   4.579
 6761SOL    HW121182   4.059   2.037   4.656
 6761SOL    HW221183   4.018   1.885   4.611
 6762SOL     OW21184   6.935   5.503   3.743
 6762SOL    HW121185   6.973   5.425   3.791
 6762SOL    HW221186   6.841   5.483   3.715
 6763SOL     OW21187   5.289   5.439   5.346
 6763SOL    HW121188   5.205   5.414   5.393
 6763SOL    HW221189   5.267   5.496   5.267
 6764SOL     OW21190   1.841   5.578   0.962
 6764SOL    HW121191   1.893   5.617   0.886
 6764SOL    HW221192   1.787   5.500   0.929
 6765SOL     OW21193   6.834   5.203   2.825
 6765SOL    HW121194   6.863   5.109   2.844
 6765SOL    HW221195   6.745   5.201   2.779
 6766SOL     OW21196   6.206   0.517   0.847
 6766SOL    HW121197   6.157   0.603   0.835
 6766SOL    HW221198   6.304   0.532   0.833
 6767SOL     OW21199   2.949   0.383   0.459
 6767SOL    HW121200   2.971   0.453   0.391
 6767SOL    HW221201   2.937   0.295   0.414
 6768SOL     OW21202   1.985   0.745   0.711
 6768SOL    HW121203   2.056   0.679   0.735
 6768SOL    HW221204   2.021   0.810   0.644
 6769SOL     OW21205   4.209   2.944   1.723
 6769SOL    HW121206   4.250   2.863   1.681
 6769SOL    HW221207   4.274   3.020   1.721
 6770SOL     OW21208   0.191   0.244   1.523
 6770SOL    HW121209   0.278   0.198   1.508
 6770SOL    HW221210   0.119   0.195   1.474
 6771SOL     OW21211   4.010   2.201   3.271
 6771SOL    HW121212   4.014   2.283   3.215
 6771SOL    HW221213   3.985   2.123   3.214
 6772SOL     OW21214   3.076   1.477   2.814
 6772SOL    HW121215   3.076   1.496   2.716
 6772SOL    HW221216   3.131   1.396   2.833
 6773SOL     OW21217   0.295   4.289   2.012
 6773SOL    HW121218   0.255   4.199   2.030
 6773SOL    HW221219   0.390   4.289   2.043
 6774SOL     OW21220   0.907   1.616   7.023
 6774SOL    HW121221   0.965   1.576   0.070
 6774SOL    HW221222   0.822   1.647   0.040
 6775SOL     OW21223   2.591   4.703   0.642
 6775SOL    HW121224   2.645   4.680   0.561
 6775SOL    HW221225   2.494   4.689   0.623
 6776SOL     OW21226   6.234   5.411   0.009
 6776SOL    HW121227   6.176   5.446   0.083
 6776SOL    HW221228   6.326   5.447   0.019
 6777SOL     OW21229   4.438   4.724   6.713
 6777SOL    HW121230   4.411   4.785   6.639
 6777SOL    HW221231   4.361   4.711   6.776
 6778SOL     OW21232   0.854   5.633   2.894
 6778SOL    HW121233   0.935   5.576   2.894
 6778SOL    HW221234   0.856   5.696   2.972
 6779SOL     OW21235   6.995   4.426   0.411
 6779SOL    HW121236   6.986   4.434   0.311
 6779SOL    HW221237   0.056   4.377   0.432
 6780SOL     OW21238   0.370   2.198   1.763
 6780SOL    HW121239   0.384   2.287   1.807
 6780SOL    HW221240   0.375   2.209   1.664
 6781SOL     OW21241   5.387   5.761   5.615
 6781SOL    HW121242   5.417   5.770   5.520
 6781SOL    HW221243   5.466   5.772   5.676
 6782SOL     OW21244   6.018   1.548   3.042
 6782SOL    HW121245   6.116   1.553   3.023
 6782SOL    HW221246   5.984   1.458   3.015
 6783SOL     OW21247   0.279   6.156   6.662
 6783SOL    HW121248   0.207   6.112   6.717
 6783SOL    HW221249   0.259   6.254   6.656
 6784SOL     OW21250   3.236   3.290   0.491
 6784SOL    HW121251   3.271   3.358   0.426
 6784SOL    HW221252   3.300   3.281   0.567
 6785SOL     OW21253   5.608   5.988   2.293
 6785SOL    HW121254   5.588   6.029   2.204
 6785SOL    HW221255   5.690   6.031   2.332
 6786SOL     OW21256   1.653   2.852   5.857
 6786SOL    HW121257   1.659   2.905   5.941
 6786SOL    HW221258   1.651   2.914   5.778
 6787SOL     OW21259   1.507   3.654   2.299
 6787SOL    HW121260   1.525   3.630   2.204
 6787SOL    HW221261   1.555   3.589   2.359
 6788SOL     OW21262   3.023   3.671   0.883
 6788SOL    HW121263   3.029   3.588   0.826
 6788SOL    HW221264   3.111   3.717   0.883
 6789SOL     OW21265   0.535   6.098   2.450
 6789SOL    HW121266   0.602   6.162   2.411
 6789SOL    HW221267   0.507   6.131   2.541
 6790SOL     OW21268   1.771   2.920   0.155
 6790SOL    HW121269   1.836   2.848   0.130
 6790SOL    HW221270   1.811   2.977   0.227
 6791SOL     OW21271   4.308   3.148   6.167
 6791SOL    HW121272   4.388   3.121   6.222
 6791SOL    HW221273   4.326   3.236   6.123
 6792SOL     OW21274   6.801   5.888   0.736
 6792SOL    HW121275   6.764   5.956   0.799
 6792SOL    HW221276   6.747   5.804   0.741
 6793SOL     OW21277   0.647   2.825   1.298
 6793SOL    HW121278   0.631   2.790   1.390
 6793SOL    HW221279   0.688   2.752   1.242
 6794SOL     OW21280   4.951   1.656   5.259
 6794SOL    HW121281   5.048   1.653   5.237
 6794SOL    HW221282   4.899   1.686   5.179
 6795SOL     OW21283   2.893   6.169   6.840
 6795SOL    HW121284   2.826   6.213   6.899
 6795SOL    HW221285   2.874   6.071   6.835
 6796SOL     OW21286   4.622   1.507   3.038
 6796SOL    HW121287   4.721   1.517   3.051
 6796SOL    HW221288   4.575   1.584   3.079
 6797SOL     OW21289   5.720   3.341   2.309
 6797SOL    HW121290   5.743   3.380   2.398
 6797SOL    HW221291   5.740   3.409   2.237
 6798SOL     OW21292   5.428   6.323   2.599
 6798SOL    HW121293   5.369   6.307   2.679
 6798SOL    HW221294   5.423   6.244   2.538
 6799SOL     OW21295   5.536   6.872   0.484
 6799SOL    HW121296   5.469   6.800   0.503
 6799SOL    HW221297   5.614   6.833   0.434
 6800SOL     OW21298   2.196   4.974   6.992
 6800SOL    HW121299   2.248   4.980   6.906
 6800SOL    HW221300   2.103   4.943   6.973
 6801SOL     OW21301   1.614   2.313   2.305
 6801SOL    HW121302   1.607   2.409   2.278
 6801SOL    HW221303   1.679   2.304   2.380
 6802SOL     OW21304   2.386   6.172   1.989
 6802SOL    HW121305   2.473   6.216   2.015
 6802SOL    HW221306   2.403   6.077   1.965
 6803SOL     OW21307   5.225   1.909   6.989
 6803SOL    HW121308   5.129   1.932   7.006
 6803SOL    HW221309   5.284   1.971   0.016
 6804SOL     OW21310   1.625   5.913   3.569
 6804SOL    HW121311   1.715   5.911   3.612
 6804SOL    HW221312   1.576   5.995   3.597
 6805SOL     OW21313   6.018   0.497   4.744
 6805SOL    HW121314   5.963   0.519   4.825
 6805SOL    HW221315   6.011   0.399   4.725
 6806SOL     OW21316   4.607   0.968   5.313
 6806SOL    HW121317   4.687   1.017   5.346
 6806SOL    HW221318   4.562   1.022   5.242
 6807SOL     OW21319   2.896   3.013   0.373
 6807SOL    HW121320   2.923   3.065   0.454
 6807SOL    HW221321   2.955   2.933   0.364
 6808SOL     OW21322   1.001   2.627   6.044
 6808SOL    HW121323   0.949   2.566   6.104
 6808SOL    HW221324   0.937   2.687   5.995
 6809SOL     OW21325   2.626   3.883   6.642
 6809SOL    HW121326   2.574   3.850   6.563
 6809SOL    HW221327   2.710   3.928   6.610
 6810SOL     OW21328   6.053   1.106   2.315
 6810SOL    HW121329   6.064   1.076   2.410
 6810SOL    HW221330   5.963   1.147   2.303
 6811SOL     OW21331   5.640   5.096   1.413
 6811SOL    HW121332   5.644   5.168   1.344
 6811SOL    HW221333   5.730   5.055   1.425
 6812SOL     OW21334   3.376   3.298   3.057
 6812SOL    HW121335   3.394   3.385   3.011
 6812SOL    HW221336   3.349   3.315   3.152
 6813SOL     OW21337   4.287   3.323   0.860
 6813SOL    HW121338   4.360   3.369   0.809
 6813SOL    HW221339   4.303   3.333   0.958
 6814SOL     OW21340   2.171   3.313   0.759
 6814SOL    HW121341   2.073   3.332   0.769
 6814SOL    HW221342   2.223   3.389   0.797
 6815SOL     OW21343   2.258   0.377   1.997
 6815SOL    HW121344   2.232   0.467   2.032
 6815SOL    HW221345   2.194   0.349   1.926
 6816SOL     OW21346   6.606   4.818   0.618
 6816SOL    HW121347   6.549   4.861   0.548
 6816SOL    HW221348   6.697   4.860   0.618
 6817SOL     OW21349   0.201   1.320   6.058
 6817SOL    HW121350   0.157   1.342   5.971
 6817SOL    HW221351   0.276   1.383   6.075
 6818SOL     OW21352   3.746   6.162   2.944
 6818SOL    HW121353   3.655   6.196   2.920
 6818SOL    HW221354   3.785   6.113   2.865
 6819SOL     OW21355   3.599   1.305   3.861
 6819SOL    HW121356   3.579   1.297   3.764
 6819SOL    HW221357   3.673   1.243   3.886
 6820SOL     OW21358   1.051   4.263   3.323
 6820SOL    HW121359   1.055   4.269   3.423
 6820SOL    HW221360   1.139   4.288   3.284
 6821SOL     OW21361   2.371   2.204   4.402
 6821SOL    HW121362   2.439   2.191   4.474
 6821SOL    HW221363   2.412   2.186   4.313
 6822SOL     OW21364   5.311   1.974   5.765
 6822SOL    HW121365   5.390   1.928   5.725
 6822SOL    HW221366   5.307   2.069   5.732
 6823SOL     OW21367   3.099   3.072   3.115
 6823SOL    HW121368   3.119   3.044   3.021
 6823SOL    HW221369   3.019   3.133   3.115
 6824SOL     OW21370   0.927   4.452   7.008
 6824SOL    HW121371   0.916   4.414   6.916
 6824SOL    HW221372   0.953   4.379   0.047
 6825SOL     OW21373   5.009   0.005   2.359
 6825SOL    HW121374   5.029   6.988   2.447
 6825SOL    HW221375   5.093   0.014   2.305
 6826SOL     OW21376   1.459   3.361   2.971
 6826SOL    HW121377   1.475   3.263   2.984
 6826SOL    HW221378   1.522   3.395   2.901
 6827SOL     OW21379   6.053   5.477   6.054
 6827SOL    HW121380   5.999   5.536   6.113
 6827SOL    HW221381   6.151   5.493   6.071
 6828SOL     OW21382   1.118   2.395   1.210
 6828SOL    HW121383   1.195   2.373   1.271
 6828SOL    HW221384   1.032   2.382   1.259
 6829SOL     OW21385   4.701   6.136   3.763
 6829SOL    HW121386   4.714   6.073   3.687
 6829SOL    HW221387   4.705   6.085   3.849
 6830SOL     OW21388   5.189   2.280   3.683
 6830SOL    HW121389   5.230   2.217   3.617
 6830SOL    HW221390   5.091   2.289   3.666
 6831SOL     OW21391   0.464   0.597   5.957
 6831SOL    HW121392   0.534   0.531   5.930
 6831SOL    HW221393   0.491   0.689   5.929
 6832SOL     OW21394   3.266   5.211   2.149
 6832SOL    HW121395   3.282   5.127   2.200
 6832SOL    HW221396   3.355   5.252   2.124
 6833SOL     OW21397   3.822   4.944   0.417
 6833SOL    HW121398   3.891   4.899   0.475
 6833SOL    HW221399   3.786   5.024   0.465
 6834SOL     OW21400   4.172   5.924   2.087
 6834SOL    HW121401   4.158   5.826   2.073
 6834SOL    HW221402   4.187   5.941   2.184
 6835SOL     OW21403   3.761   0.287   5.097
 6835SOL    HW121404   3.723   0.198   5.072
 6835SOL    HW221405   3.740   0.354   5.026
 6836SOL     OW21406   3.502   6.389   0.063
 6836SOL    HW121407   3.433   6.317   0.077
 6836SOL    HW221408   3.529   6.390   6.991
 6837SOL     OW21409   1.617   3.223   2.111
 6837SOL    HW121410   1.682   3.153   2.083
 6837SOL    HW221411   1.666   3.300   2.152
 6838SOL     OW21412   2.738   1.175   0.316
 6838SOL    HW121413   2.782   1.256   0.356
 6838SOL    HW221414   2.680   1.132   0.385
 6839SOL     OW21415   4.118   1.204   0.874
 6839SOL    HW121416   4.191   1.158   0.925
 6839SOL    HW221417   4.159   1.261   0.802
 6840SOL     OW21418   1.187   1.676   6.100
 6840SOL    HW121419   1.197   1.688   6.001
 6840SOL    HW221420   1.212   1.582   6.124
 6841SOL     OW21421   6.543   3.067   6.375
 6841SOL    HW121422   6.618   3.076   6.309
 6841SOL    HW221423   6.524   3.156   6.416
 6842SOL     OW21424   2.246   4.772   3.092
 6842SOL    HW121425   2.298   4.738   3.170
 6842SOL    HW221426   2.280   4.862   3.065
 6843SOL     OW21427   4.825   6.792   6.678
 6843SOL    HW121428   4.875   6.723   6.730
 6843SOL    HW221429   4.745   6.823   6.730
 6844SOL     OW21430   5.217   0.755   5.438
 6844SOL    HW121431   5.205   0.820   5.363
 6844SOL    HW221432   5.128   0.739   5.482
 6845SOL     OW21433   4.924   1.724   2.208
 6845SOL    HW121434   4.868   1.806   2.202
 6845SOL    HW221435   4.976   1.713   2.123
 6846SOL     OW21436   2.374   3.728   0.019
 6846SOL    HW121437   2.276   3.713   0.021
 6846SOL    HW221438   2.407   3.729   6.949
 6847SOL     OW21439   6.481   3.794   4.068
 6847SOL    HW121440   6.569   3.764   4.104
 6847SOL    HW221441   6.436   3.716   4.023
 6848SOL     OW21442   5.938   5.101   3.405
 6848SOL    HW121443   5.932   5.142   3.496
 6848SOL    HW221444   5.848   5.102   3.361
 6849SOL     OW21445   3.621   4.376   6.671
 6849SOL    HW121446   3.622   4.412   6.764
 6849SOL    HW221447   3.699   4.314   6.658
 6850SOL     OW21448   3.844   1.941   3.624
 6850SOL    HW121449   3.865   1.880   3.700
 6850SOL    HW221450   3.806   1.888   3.548
 6851SOL     OW21451   1.826   3.192   3.739
 6851SOL    HW121452   1.825   3.230   3.647
 6851SOL    HW221453   1.910   3.140   3.753
 6852SOL     OW21454   2.720   4.990   0.109
 6852SOL    HW121455   2.770   5.065   0.065
 6852SOL    HW221456   2.676   4.934   0.039
 6853SOL     OW21457   4.819   3.396   6.843
 6853SOL    HW121458   4.776   3.462   6.904
 6853SOL    HW221459   4.909   3.431   6.815
 6854SOL     OW21460   5.358   6.438   6.252
 6854SOL    HW121461   5.303   6.395   6.181
 6854SOL    HW221462   5.379   6.532   6.227
 6855SOL     OW21463   3.910   5.485   4.019
 6855SOL    HW121464   3.977   5.411   4.027
 6855SOL    HW221465   3.948   5.569   4.057
 6856SOL     OW21466   1.052   1.661   6.736
 6856SOL    HW121467   1.022   1.687   6.828
 6856SOL    HW221468   1.090   1.742   6.689
 6857SOL     OW21469   0.928   3.748   5.701
 6857SOL    HW121470   0.862   3.802   5.754
 6857SOL    HW221471   0.927   3.777   5.605
 6858SOL     OW21472   2.359   3.899   1.567
 6858SOL    HW121473   2.386   3.989   1.599
 6858SOL    HW221474   2.384   3.888   1.471
 6859SOL     OW21475   0.673   1.403   2.540
 6859SOL    HW121476   0.604   1.471   2.563
 6859SOL    HW221477   0.682   1.396   2.440
 6860SOL     OW21478   0.573   6.780   2.239
 6860SOL    HW121479   0.598   6.842   2.313
 6860SOL    HW221480   0.641   6.708   2.230
 6861SOL     OW21481   5.456   2.854   5.117
 6861SOL    HW121482   5.404   2.769   5.120
 6861SOL    HW221483   5.536   2.843   5.058
 6862SOL     OW21484   0.794   4.443   5.469
 6862SOL    HW121485   0.850   4.375   5.424
 6862SOL    HW221486   0.707   4.453   5.420
 6863SOL     OW21487   6.203   0.034   5.770
 6863SOL    HW121488   6.232   0.035   5.866
 6863SOL    HW221489   6.136   6.986   5.756
 6864SOL     OW21490   1.150   3.700   6.290
 6864SOL    HW121491   1.101   3.616   6.267
 6864SOL    HW221492   1.228   3.678   6.348
 6865SOL     OW21493   2.415   0.038   3.961
 6865SOL    HW121494   2.456   0.094   4.034
 6865SOL    HW221495   2.316   0.055   3.959
 6866SOL     OW21496   0.912   4.386   1.242
 6866SOL    HW121497   0.928   4.421   1.150
 6866SOL    HW221498   0.927   4.459   1.309
 6867SOL     OW21499   2.145   3.797   6.688
 6867SOL    HW121500   2.143   3.871   6.621
 6867SOL    HW221501   2.147   3.836   6.780
 6868SOL     OW21502   2.416   5.055   4.402
 6868SOL    HW121503   2.486   5.067   4.472
 6868SOL    HW221504   2.409   4.959   4.378
 6869SOL     OW21505   3.324   0.553   6.278
 6869SOL    HW121506   3.254   0.601   6.225
 6869SOL    HW221507   3.377   0.494   6.216
 6870SOL     OW21508   6.363   2.391   0.786
 6870SOL    HW121509   6.417   2.410   0.703
 6870SOL    HW221510   6.382   2.299   0.818
 6871SOL     OW21511   0.903   4.015   2.322
 6871SOL    HW121512   0.940   3.982   2.409
 6871SOL    HW221513   0.845   3.944   2.282
 6872SOL     OW21514   1.870   3.727   0.907
 6872SOL    HW121515   1.838   3.649   0.962
 6872SOL    HW221516   1.874   3.701   0.811
 6873SOL     OW21517   0.931   4.506   3.874
 6873SOL    HW121518   0.847   4.483   3.825
 6873SOL    HW221519   0.909   4.531   3.968
 6874SOL     OW21520   5.314   6.775   3.445
 6874SOL    HW121521   5.263   6.797   3.528
 6874SOL    HW221522   5.307   6.677   3.427
 6875SOL     OW21523   1.602   2.272   0.533
 6875SOL    HW121524   1.584   2.228   0.621
 6875SOL    HW221525   1.518   2.316   0.500
 6876SOL     OW21526   4.654   5.718   3.509
 6876SOL    HW121527   4.675   5.627   3.474
 6876SOL    HW221528   4.557   5.723   3.534
 6877SOL     OW21529   1.593   3.740   2.606
 6877SOL    HW121530   1.592   3.816   2.541
 6877SOL    HW221531   1.589   3.653   2.557
 6878SOL     OW21532   2.069   0.451   4.591
 6878SOL    HW121533   2.056   0.391   4.670
 6878SOL    HW221534   2.153   0.426   4.544
 6879SOL     OW21535   1.949   2.054   0.492
 6879SOL    HW121536   1.880   2.106   0.441
 6879SOL    HW221537   1.905   2.001   0.564
 6880SOL     OW21538   1.368   5.391   6.779
 6880SOL    HW121539   1.388   5.488   6.761
 6880SOL    HW221540   1.310   5.355   6.706
 6881SOL     OW21541   1.252   3.155   0.100
 6881SOL    HW121542   1.198   3.147   0.184
 6881SOL    HW221543   1.331   3.095   0.105
 6882SOL     OW21544   2.746   6.842   6.469
 6882SOL    HW121545   2.667   6.795   6.429
 6882SOL    HW221546   2.780   6.789   6.547
 6883SOL     OW21547   5.082   0.230   6.984
 6883SOL    HW121548   5.003   0.198   6.932
 6883SOL    HW221549   5.138   0.290   6.927
 6884SOL     OW21550   2.056   4.280   2.990
 6884SOL    HW121551   2.014   4.249   2.904
 6884SOL    HW221552   2.104   4.204   3.033
 6885SOL     OW21553   5.611   5.527   5.016
 6885SOL    HW121554   5.669   5.523   5.097
 6885SOL    HW221555   5.576   5.435   4.996
 6886SOL     OW21556   4.886   1.573   6.455
 6886SOL    HW121557   4.969   1.545   6.504
 6886SOL    HW221558   4.869   1.670   6.472
 6887SOL     OW21559   5.507   6.059   6.249
 6887SOL    HW121560   5.513   6.131   6.318
 6887SOL    HW221561   5.473   6.097   6.163
 6888SOL     OW21562   6.204   5.046   6.712
 6888SOL    HW121563   6.252   5.055   6.799
 6888SOL    HW221564   6.272   5.043   6.638
 6889SOL     OW21565   0.545   2.122   6.757
 6889SOL    HW121566   0.608   2.112   6.835
 6889SOL    HW221567   0.585   2.183   6.689
 6890SOL     OW21568   4.653   4.750   2.905
 6890SOL    HW121569   4.561   4.789   2.903
 6890SOL    HW221570   4.661   4.677   2.837
 6891SOL     OW21571   1.520   1.095   0.755
 6891SOL    HW121572   1.589   1.088   0.827
 6891SOL    HW221573   1.499   1.003   0.721
 6892SOL     OW21574   2.615   1.135   4.786
 6892SOL    HW121575   2.539   1.124   4.723
 6892SOL    HW221576   2.599   1.217   4.843
 6893SOL     OW21577   6.044   3.308   0.533
 6893SOL    HW121578   6.143   3.297   0.534
 6893SOL    HW221579   6.008   3.281   0.444
 6894SOL     OW21580   5.553   5.526   0.784
 6894SOL    HW121581   5.582   5.621   0.789
 6894SOL    HW221582   5.632   5.466   0.792
 6895SOL     OW21583   0.636   6.761   1.503
 6895SOL    HW121584   0.537   6.763   1.511
 6895SOL    HW221585   0.676   6.828   1.566
 6896SOL     OW21586   4.225   2.267   4.661
 6896SOL    HW121587   4.133   2.255   4.697
 6896SOL    HW221588   4.221   2.283   4.563
 6897SOL     OW21589   4.828   3.399   5.311
 6897SOL    HW121590   4.816   3.419   5.408
 6897SOL    HW221591   4.777   3.466   5.257
 6898SOL     OW21592   2.466   1.019   1.503
 6898SOL    HW121593   2.508   0.928   1.500
 6898SOL    HW221594   2.461   1.057   1.411
 6899SOL     OW21595   6.210   6.215   2.416
 6899SOL    HW121596   6.299   6.261   2.422
 6899SOL    HW221597   6.147   6.271   2.363
 6900SOL     OW21598   6.272   3.873   5.396
 6900SOL    HW121599   6.332   3.942   5.438
 6900SOL    HW221600   6.279   3.880   5.296
 6901SOL     OW21601   4.932   4.480   6.851
 6901SOL    HW121602   4.951   4.578   6.844
 6901SOL    HW221603   4.851   4.465   6.908
 6902SOL     OW21604   0.729   5.922   5.705
 6902SOL    HW121605   0.815   5.910   5.656
 6902SOL    HW221606   0.670   5.842   5.691
 6903SOL     OW21607   1.621   5.796   4.768
 6903SOL    HW121608   1.660   5.818   4.678
 6903SOL    HW221609   1.682   5.830   4.840
 6904SOL     OW21610   6.249   6.587   5.311
 6904SOL    HW121611   6.343   6.562   5.287
 6904SOL    HW221612   6.194   6.593   5.228
 6905SOL     OW21613   4.835   5.969   6.044
 6905SOL    HW121614   4.879   5.896   6.097
 6905SOL    HW221615   4.760   5.931   5.990
 6906SOL     OW21616   3.393   1.824   3.510
 6906SOL    HW121617   3.430   1.733   3.493
 6906SOL    HW221618   3.306   1.835   3.463
 6907SOL     OW21619   5.855   2.231   0.557
 6907SOL    HW121620   5.806   2.241   0.470
 6907SOL    HW221621   5.849   2.135   0.587
 6908SOL     OW21622   2.823   4.242   0.049
 6908SOL    HW121623   2.916   4.248   0.085
 6908SOL    HW221624   2.787   4.335   0.037
 6909SOL     OW21625   5.812   5.629   2.107
 6909SOL    HW121626   5.876   5.577   2.164
 6909SOL    HW221627   5.719   5.617   2.142
 6910SOL     OW21628   1.092   3.273   2.964
 6910SOL    HW121629   1.008   3.325   2.981
 6910SOL    HW221630   1.107   3.209   3.039
 6911SOL     OW21631   1.974   6.702   5.635
 6911SOL    HW121632   1.879   6.672   5.630
 6911SOL    HW221633   1.979   6.801   5.618
 6912SOL     OW21634   2.556   3.674   6.809
 6912SOL    HW121635   2.579   3.756   6.757
 6912SOL    HW221636   2.582   3.593   6.756
 6913SOL     OW21637   5.240   6.551   5.946
 6913SOL    HW121638   5.160   6.501   5.978
 6913SOL    HW221639   5.211   6.637   5.904
 6914SOL     OW21640   6.453   2.585   2.173
 6914SOL    HW121641   6.368   2.542   2.204
 6914SOL    HW221642   6.432   2.670   2.124
 6915SOL     OW21643   0.635   3.202   2.984
 6915SOL    HW121644   0.665   3.130   3.046
 6915SOL    HW221645   0.662   3.179   2.890
 6916SOL     OW21646   5.078   6.031   6.966
 6916SOL    HW121647   5.068   5.935   6.941
 6916SOL    HW221648   5.072   6.040   0.041
 6917SOL     OW21649   4.987   5.505   1.332
 6917SOL    HW121650   4.959   5.597   1.306
 6917SOL    HW221651   5.043   5.465   1.259
 6918SOL     OW21652   2.270   3.574   1.403
 6918SOL    HW121653   2.288   3.663   1.360
 6918SOL    HW221654   2.333   3.561   1.480
 6919SOL     OW21655   6.222   6.194   3.449
 6919SOL    HW121656   6.185   6.218   3.538
 6919SOL    HW221657   6.231   6.094   3.443
 6920SOL     OW21658   6.051   0.717   6.005
 6920SOL    HW121659   6.091   0.631   5.974
 6920SOL    HW221660   6.080   0.792   5.945
 6921SOL     OW21661   4.322   0.460   4.271
 6921SOL    HW121662   4.419   0.454   4.296
 6921SOL    HW221663   4.281   0.369   4.273
 6922SOL     OW21664   1.476   4.392   6.202
 6922SOL    HW121665   1.387   4.437   6.209
 6922SOL    HW221666   1.534   4.444   6.138
 6923SOL     OW21667   6.211   6.858   2.726
 6923SOL    HW121668   6.235   6.791   2.797
 6923SOL    HW221669   6.175   6.940   2.769
 6924SOL     OW21670   3.151   6.115   1.167
 6924SOL    HW121671   3.066   6.064   1.156
 6924SOL    HW221672   3.145   6.174   1.248
 6925SOL     OW21673   6.003   6.264   5.790
 6925SOL    HW121674   5.943   6.304   5.721
 6925SOL    HW221675   5.953   6.195   5.842
 6926SOL     OW21676   3.120   1.954   0.444
 6926SOL    HW121677   3.023   1.977   0.442
 6926SOL    HW221678   3.151   1.950   0.539
 6927SOL     OW21679   4.950   0.816   0.708
 6927SOL    HW121680   4.994   0.895   0.748
 6927SOL    HW221681   4.992   0.795   0.620
 6928SOL     OW21682   4.956   5.008   1.103
 6928SOL    HW121683   5.008   5.080   1.058
 6928SOL    HW221684   5.016   4.931   1.124
 6929SOL     OW21685   6.409   5.108   1.298
 6929SOL    HW121686   6.498   5.120   1.342
 6929SOL    HW221687   6.407   5.158   1.211
 6930SOL     OW21688   1.463   0.303   1.154
 6930SOL    HW121689   1.551   0.255   1.150
 6930SOL    HW221690   1.478   0.397   1.186
 6931SOL     OW21691   2.786   3.284   0.869
 6931SOL    HW121692   2.756   3.380   0.868
 6931SOL    HW221693   2.838   3.266   0.952
 6932SOL     OW21694   4.864   5.965   0.200
 6932SOL    HW121695   4.823   5.898   0.138
 6932SOL    HW221696   4.845   5.939   0.295
 6933SOL     OW21697   3.514   5.814   6.399
 6933SOL    HW121698   3.588   5.750   6.420
 6933SOL    HW221699   3.432   5.788   6.448
 6934SOL     OW21700   4.860   3.683   0.174
 6934SOL    HW121701   4.940   3.687   0.234
 6934SOL    HW221702   4.807   3.768   0.184
 6935SOL     OW21703   4.882   5.975   1.432
 6935SOL    HW121704   4.927   6.025   1.506
 6935SOL    HW221705   4.783   5.988   1.439
 6936SOL     OW21706   0.716   1.891   5.198
 6936SOL    HW121707   0.675   1.972   5.241
 6936SOL    HW221708   0.814   1.906   5.188
 6937SOL     OW21709   5.313   5.700   7.022
 6937SOL    HW121710   5.224   5.664   6.993
 6937SOL    HW221711   5.375   5.704   6.943
 6938SOL     OW21712   1.402   0.577   4.813
 6938SOL    HW121713   1.380   0.549   4.720
 6938SOL    HW221714   1.494   0.616   4.815
 6939SOL     OW21715   6.021   3.870   3.282
 6939SOL    HW121716   6.082   3.949   3.287
 6939SOL    HW221717   5.947   3.881   3.349
 6940SOL     OW21718   3.373   5.951   0.734
 6940SOL    HW121719   3.351   6.008   0.655
 6940SOL    HW221720   3.339   5.858   0.718
 6941SOL     OW21721   3.274   3.818   2.624
 6941SOL    HW121722   3.191   3.808   2.680
 6941SOL    HW221723   3.309   3.911   2.635
 6942SOL     OW21724   6.570   6.308   1.795
 6942SOL    HW121725   6.490   6.268   1.749
 6942SOL    HW221726   6.598   6.391   1.747
 6943SOL     OW21727   4.372   5.035   6.581
 6943SOL    HW121728   4.437   5.083   6.639
 6943SOL    HW221729   4.281   5.076   6.591
 6944SOL     OW21730   1.213   4.316   5.397
 6944SOL    HW121731   1.278   4.245   5.370
 6944SOL    HW221732   1.123   4.296   5.358
 6945SOL     OW21733   5.445   1.906   0.650
 6945SOL    HW121734   5.403   1.817   0.669
 6945SOL    HW221735   5.497   1.900   0.565
 6946SOL     OW21736   4.338   5.269   3.200
 6946SOL    HW121737   4.322   5.368   3.206
 6946SOL    HW221738   4.327   5.239   3.105
 6947SOL     OW21739   5.515   4.759   5.065
 6947SOL    HW121740   5.453   4.685   5.038
 6947SOL    HW221741   5.532   4.755   5.164
 6948SOL     OW21742   6.963   4.481   0.128
 6948SOL    HW121743   6.993   4.546   0.059
 6948SOL    HW221744   6.893   4.421   0.089
 6949SOL     OW21745   2.396   1.546   3.857
 6949SOL    HW121746   2.310   1.570   3.903
 6949SOL    HW221747   2.396   1.584   3.765
 6950SOL     OW21748   0.299   0.590   4.108
 6950SOL    HW121749   0.274   0.577   4.204
 6950SOL    HW221750   0.244   0.664   4.069
 6951SOL     OW21751   0.310   4.667   6.486
 6951SOL    HW121752   0.391   4.634   6.536
 6951SOL    HW221753   0.284   4.600   6.417
 6952SOL     OW21754   4.403   5.694   3.620
 6952SOL    HW121755   4.357   5.715   3.534
 6952SOL    HW221756   4.364   5.611   3.660
 6953SOL     OW21757   5.587   1.317   1.001
 6953SOL    HW121758   5.657   1.316   1.073
 6953SOL    HW221759   5.573   1.411   0.970
 6954SOL     OW21760   5.906   4.144   0.033
 6954SOL    HW121761   5.966   4.077   0.077
 6954SOL    HW221762   5.960   4.200   6.994
 6955SOL     OW21763   4.586   6.500   2.335
 6955SOL    HW121764   4.660   6.434   2.322
 6955SOL    HW221765   4.542   6.518   2.247
 6956SOL     OW21766   5.614   5.440   2.468
 6956SOL    HW121767   5.694   5.400   2.423
 6956SOL    HW221768   5.583   5.519   2.416
 6957SOL     OW21769   5.579   5.839   5.785
 6957SOL    HW121770   5.544   5.927   5.818
 6957SOL    HW221771   5.679   5.841   5.784
 6958SOL     OW21772   2.995   3.825   3.396
 6958SOL    HW121773   2.921   3.842   3.461
 6958SOL    HW221774   3.081   3.858   3.434
 6959SOL     OW21775   0.791   4.207   2.917
 6959SOL    HW121776   0.872   4.260   2.891
 6959SOL    HW221777   0.819   4.129   2.974
 6960SOL     OW21778   3.303   4.281   0.256
 6960SOL    HW121779   3.269   4.194   0.293
 6960SOL    HW221780   3.400   4.291   0.277
 6961SOL     OW21781   5.018   2.663   5.074
 6961SOL    HW121782   5.047   2.629   4.984
 6961SOL    HW221783   4.931   2.711   5.065
 6962SOL     OW21784   2.428   6.370   6.299
 6962SOL    HW121785   2.442   6.299   6.231
 6962SOL    HW221786   2.363   6.438   6.264
 6963SOL     OW21787   5.600   6.440   1.094
 6963SOL    HW121788   5.582   6.538   1.096
 6963SOL    HW221789   5.568   6.402   1.007
 6964SOL     OW21790   1.293   0.381   5.257
 6964SOL    HW121791   1.283   0.456   5.191
 6964SOL    HW221792   1.213   0.322   5.252
 6965SOL     OW21793   0.663   1.716   0.395
 6965SOL    HW121794   0.580   1.672   0.430
 6965SOL    HW221795   0.742   1.659   0.418
 6966SOL     OW21796   1.308   6.556   1.339
 6966SOL    HW121797   1.334   6.539   1.244
 6966SOL    HW221798   1.357   6.493   1.399
 6967SOL     OW21799   3.999   1.408   6.410
 6967SOL    HW121800   4.031   1.444   6.498
 6967SOL    HW221801   3.920   1.348   6.425
 6968SOL     OW21802   3.718   6.557   2.847
 6968SOL    HW121803   3.724   6.623   2.922
 6968SOL    HW221804   3.638   6.498   2.861
 6969SOL     OW21805   2.073   2.194   1.843
 6969SOL    HW121806   2.127   2.142   1.909
 6969SOL    HW221807   2.133   2.236   1.776
 6970SOL     OW21808   4.056   5.602   5.405
 6970SOL    HW121809   4.008   5.525   5.447
 6970SOL    HW221810   3.990   5.667   5.368
 6971SOL     OW21811   6.724   4.292   0.099
 6971SOL    HW121812   6.777   4.224   0.148
 6971SOL    HW221813   6.651   4.247   0.046
 6972SOL     OW21814   5.198   3.506   1.772
 6972SOL    HW121815   5.150   3.544   1.851
 6972SOL    HW221816   5.174   3.560   1.691
 6973SOL     OW21817   1.891   2.766   3.102
 6973SOL    HW121818   1.874   2.767   3.201
 6973SOL    HW221819   1.950   2.688   3.080
 6974SOL     OW21820   3.764   3.624   3.290
 6974SOL    HW121821   3.848   3.661   3.250
 6974SOL    HW221822   3.736   3.542   3.240
 6975SOL     OW21823   2.778   5.187   4.476
 6975SOL    HW121824   2.710   5.235   4.420
 6975SOL    HW221825   2.744   5.095   4.497
 6976SOL     OW21826   4.583   4.142   5.973
 6976SOL    HW121827   4.646   4.202   6.025
 6976SOL    HW221828   4.605   4.047   5.993
 6977SOL     OW21829   4.130   4.823   1.077
 6977SOL    HW121830   4.101   4.902   1.131
 6977SOL    HW221831   4.180   4.855   0.997
 6978SOL     OW21832   6.524   3.750   2.040
 6978SOL    HW121833   6.615   3.758   2.001
 6978SOL    HW221834   6.470   3.830   2.015
 6979SOL     OW21835   1.743   2.987   1.809
 6979SOL    HW121836   1.729   3.005   1.907
 6979SOL    HW221837   1.732   3.073   1.758
 6980SOL     OW21838   1.613   5.544   2.417
 6980SOL    HW121839   1.533   5.491   2.389
 6980SOL    HW221840   1.589   5.601   2.495
 6981SOL     OW21841   3.962   2.955   6.913
 6981SOL    HW121842   3.966   3.042   6.963
 6981SOL    HW221843   3.876   2.907   6.936
 6982SOL     OW21844   1.532   0.863   3.009
 6982SOL    HW121845   1.489   0.902   3.090
 6982SOL    HW221846   1.475   0.882   2.929
 6983SOL     OW21847   4.790   0.903   4.150
 6983SOL    HW121848   4.743   0.839   4.210
 6983SOL    HW221849   4.838   0.972   4.205
 6984SOL     OW21850   0.614   2.498   3.298
 6984SOL    HW121851   0.691   2.497   3.234
 6984SOL    HW221852   0.644   2.465   3.387
 6985SOL     OW21853   5.748   3.666   7.007
 6985SOL    HW121854   5.690   3.606   0.039
 6985SOL    HW221855   5.832   3.687   0.032
 6986SOL     OW21856   4.966   4.856   5.520
 6986SOL    HW121857   5.035   4.794   5.555
 6986SOL    HW221858   4.918   4.900   5.596
 6987SOL     OW21859   0.383   1.272   6.445
 6987SOL    HW121860   0.289   1.246   6.468
 6987SOL    HW221861   0.440   1.190   6.436
 6988SOL     OW21862   3.500   1.540   6.593
 6988SOL    HW121863   3.591   1.575   6.615
 6988SOL    HW221864   3.455   1.602   6.529
 6989SOL     OW21865   0.851   5.334   2.003
 6989SOL    HW121866   0.810   5.418   2.036
 6989SOL    HW221867   0.912   5.296   2.073
 6990SOL     OW21868   3.906   3.119   1.272
 6990SOL    HW121869   3.979   3.089   1.333
 6990SOL    HW221870   3.877   3.042   1.215
 6991SOL     OW21871   6.406   3.352   2.536
 6991SOL    HW121872   6.473   3.329   2.606
 6991SOL    HW221873   6.454   3.374   2.451
 6992SOL     OW21874   1.050   5.985   0.281
 6992SOL    HW121875   0.981   5.973   0.210
 6992SOL    HW221876   1.074   5.895   0.319
 6993SOL     OW21877   4.942   1.654   1.032
 6993SOL    HW121878   4.908   1.730   0.977
 6993SOL    HW221879   4.873   1.581   1.033
 6994SOL     OW21880   2.535   0.532   3.153
 6994SOL    HW121881   2.596   0.457   3.127
 6994SOL    HW221882   2.582   0.619   3.138
 6995SOL     OW21883   0.437   3.904   1.588
 6995SOL    HW121884   0.418   3.991   1.633
 6995SOL    HW221885   0.534   3.899   1.565
 6996SOL     OW21886   1.249   0.894   6.750
 6996SOL    HW121887   1.158   0.868   6.785
 6996SOL    HW221888   1.242   0.915   6.653
 6997SOL     OW21889   5.442   5.463   6.112
 6997SOL    HW121890   5.487   5.499   6.030
 6997SOL    HW221891   5.424   5.365   6.101
 6998SOL     OW21892   6.340   1.206   0.074
 6998SOL    HW121893   6.399   1.162   0.006
 6998SOL    HW221894   6.397   1.257   0.139
 6999SOL     OW21895   0.397   2.955   6.888
 6999SOL    HW121896   0.401   2.862   6.851
 6999SOL    HW221897   0.331   3.009   6.837
 7000SOL     OW21898   6.819   6.450   3.520
 7000SOL    HW121899   6.768   6.364   3.507
 7000SOL    HW221900   6.832   6.494   3.432
 7001SOL     OW21901   0.555   2.315   4.161
 7001SOL    HW121902   0.539   2.413   4.147
 7001SOL    HW221903   0.555   2.268   4.073
 7002SOL     OW21904   0.741   5.317   2.979
 7002SOL    HW121905   0.693   5.318   3.067
 7002SOL    HW221906   0.815   5.384   2.981
 7003SOL     OW21907   6.865   4.010   0.528
 7003SOL    HW121908   6.929   3.935   0.546
 7003SOL    HW221909   6.790   4.006   0.594
 7004SOL     OW21910   1.610   6.431   0.942
 7004SOL    HW121911   1.669   6.350   0.946
 7004SOL    HW221912   1.570   6.438   0.851
 7005SOL     OW21913   0.806   6.271   1.298
 7005SOL    HW121914   0.775   6.365   1.311
 7005SOL    HW221915   0.779   6.239   1.208
 7006SOL     OW21916   1.509   6.943   4.212
 7006SOL    HW121917   1.520   7.016   4.145
 7006SOL    HW221918   1.569   6.959   4.290
 7007SOL     OW21919   2.237   0.367   5.747
 7007SOL    HW121920   2.146   0.358   5.788
 7007SOL    HW221921   2.297   0.296   5.783
 7008SOL     OW21922   5.628   3.883   2.754
 7008SOL    HW121923   5.597   3.933   2.673
 7008SOL    HW221924   5.597   3.788   2.746
 7009SOL     OW21925   4.742   5.878   1.837
 7009SOL    HW121926   4.664   5.850   1.893
 7009SOL    HW221927   4.773   5.800   1.783
 7010SOL     OW21928   5.254   3.252   1.846
 7010SOL    HW121929   5.226   3.185   1.777
 7010SOL    HW221930   5.253   3.344   1.806
 7011SOL     OW21931   3.335   6.247   6.873
 7011SOL    HW121932   3.406   6.177   6.868
 7011SOL    HW221933   3.301   6.253   6.967
 7012SOL     OW21934   6.610   2.615   0.203
 7012SOL    HW121935   6.560   2.535   0.235
 7012SOL    HW221936   6.669   2.649   0.276
 7013SOL     OW21937   2.843   1.862   0.300
 7013SOL    HW121938   2.769   1.894   0.360
 7013SOL    HW221939   2.857   1.764   0.315
 7014SOL     OW21940   6.276   3.064   1.158
 7014SOL    HW121941   6.340   3.037   1.230
 7014SOL    HW221942   6.182   3.053   1.191
 7015SOL     OW21943   5.318   6.345   1.050
 7015SOL    HW121944   5.343   6.440   1.071
 7015SOL    HW221945   5.222   6.341   1.021
 7016SOL     OW21946   3.091   5.054   1.024
 7016SOL    HW121947   3.013   5.113   1.001
 7016SOL    HW221948   3.158   5.107   1.075
 7017SOL     OW21949   5.922   4.963   4.916
 7017SOL    HW121950   5.938   4.868   4.941
 7017SOL    HW221951   6.009   5.012   4.914
 7018SOL     OW21952   5.464   3.414   4.415
 7018SOL    HW121953   5.489   3.321   4.442
 7018SOL    HW221954   5.483   3.477   4.491
 7019SOL     OW21955   4.307   5.619   2.250
 7019SOL    HW121956   4.359   5.687   2.199
 7019SOL    HW221957   4.370   5.554   2.293
 7020SOL     OW21958   0.609   3.047   6.492
 7020SOL    HW121959   0.700   3.087   6.506
 7020SOL    HW221960   0.588   2.987   6.569
 7021SOL     OW21961   0.917   2.116   5.173
 7021SOL    HW121962   0.887   2.166   5.092
 7021SOL    HW221963   1.016   2.103   5.169
 7022SOL     OW21964   3.134   2.045   0.714
 7022SOL    HW121965   3.107   2.139   0.734
 7022SOL    HW221966   3.058   1.983   0.734
 7023SOL     OW21967   0.449   2.441   0.562
 7023SOL    HW121968   0.455   2.409   0.657
 7023SOL    HW221969   0.357   2.473   0.543
 7024SOL     OW21970   4.023   3.265   4.281
 7024SOL    HW121971   4.070   3.344   4.320
 7024SOL    HW221972   3.929   3.262   4.316
 7025SOL     OW21973   3.744   6.863   1.035
 7025SOL    HW121974   3.821   6.891   1.092
 7025SOL    HW221975   3.742   6.919   0.952
 7026SOL     OW21976   3.228   2.519   1.047
 7026SOL    HW121977   3.172   2.445   1.084
 7026SOL    HW221978   3.227   2.596   1.110
 7027SOL     OW21979   2.508   5.314   2.940
 7027SOL    HW121980   2.450   5.336   2.861
 7027SOL    HW221981   2.452   5.276   3.013
 7028SOL     OW21982   2.878   0.180   3.569
 7028SOL    HW121983   2.800   0.177   3.507
 7028SOL    HW221984   2.956   0.135   3.527
 7029SOL     OW21985   3.505   3.579   4.151
 7029SOL    HW121986   3.423   3.635   4.163
 7029SOL    HW221987   3.553   3.570   4.238
 7030SOL     OW21988   6.507   1.301   5.110
 7030SOL    HW121989   6.502   1.289   5.011
 7030SOL    HW221990   6.454   1.230   5.156
 7031SOL     OW21991   4.456   6.704   0.538
 7031SOL    HW121992   4.548   6.689   0.504
 7031SOL    HW221993   4.417   6.785   0.494
 7032SOL     OW21994   4.061   6.101   4.539
 7032SOL    HW121995   4.155   6.111   4.507
 7032SOL    HW221996   4.031   6.187   4.581
 7033SOL     OW21997   1.739   1.800   5.061
 7033SOL    HW121998   1.786   1.888   5.060
 7033SOL    HW221999   1.784   1.737   4.998
 7034SOL     OW22000   6.510   0.578   3.769
 7034SOL    HW122001   6.474   0.639   3.840
 7034SOL    HW222002   6.521   0.629   3.684
 7035SOL     OW22003   1.854   0.634   0.094
 7035SOL    HW122004   1.821   0.566   0.159
 7035SOL    HW222005   1.871   0.721   0.141
 7036SOL     OW22006   6.502   1.273   2.513
 7036SOL    HW122007   6.517   1.188   2.462
 7036SOL    HW222008   6.565   1.277   2.590
 7037SOL     OW22009   0.978   0.751   6.168
 7037SOL    HW122010   0.953   0.755   6.265
 7037SOL    HW222011   1.044   0.823   6.147
 7038SOL     OW22012   1.674   4.108   6.855
 7038SOL    HW122013   1.584   4.098   6.896
 7038SOL    HW222014   1.711   4.199   6.876
 7039SOL     OW22015   0.730   6.252   2.312
 7039SOL    HW122016   0.753   6.270   2.216
 7039SOL    HW222017   0.800   6.194   2.353
 7040SOL     OW22018   4.875   3.319   4.451
 7040SOL    HW122019   4.824   3.254   4.506
 7040SOL    HW222020   4.897   3.400   4.505
 7041SOL     OW22021   1.789   6.957   4.132
 7041SOL    HW122022   1.747   0.009   4.083
 7041SOL    HW222023   1.768   6.872   4.083
 7042SOL     OW22024   4.659   6.215   5.590
 7042SOL    HW122025   4.623   6.270   5.515
 7042SOL    HW222026   4.754   6.190   5.571
 7043SOL     OW22027   2.571   4.947   1.278
 7043SOL    HW122028   2.665   4.969   1.253
 7043SOL    HW222029   2.520   4.922   1.196
 7044SOL     OW22030   4.950   6.525   5.099
 7044SOL    HW122031   4.901   6.472   5.168
 7044SOL    HW222032   4.994   6.463   5.034
 7045SOL     OW22033   6.411   6.553   2.076
 7045SOL    HW122034   6.496   6.606   2.076
 7045SOL    HW222035   6.358   6.576   1.994
 7046SOL     OW22036   2.815   2.028   4.687
 7046SOL    HW122037   2.858   1.958   4.743
 7046SOL    HW222038   2.834   2.119   4.726
 7047SOL     OW22039   1.171   6.052   0.965
 7047SOL    HW122040   1.178   6.054   0.865
 7047SOL    HW222041   1.106   6.122   0.995
 7048SOL     OW22042   6.802   6.160   4.952
 7048SOL    HW122043   6.794   6.084   4.887
 7048SOL    HW222044   6.868   6.135   5.023
 7049SOL     OW22045   3.561   1.126   2.790
 7049SOL    HW122046   3.570   1.180   2.873
 7049SOL    HW222047   3.499   1.173   2.727
 7050SOL     OW22048   4.213   3.825   0.956
 7050SOL    HW122049   4.284   3.756   0.968
 7050SOL    HW222050   4.126   3.789   0.990
 7051SOL     OW22051   0.564   0.790   2.151
 7051SOL    HW122052   0.479   0.769   2.103
 7051SOL    HW222053   0.558   0.881   2.191
 7052SOL     OW22054   4.954   0.013   2.830
 7052SOL    HW122055   4.862   0.038   2.861
 7052SOL    HW222056   4.977   6.946   2.865
 7053SOL     OW22057   2.185   3.443   3.317
 7053SOL    HW122058   2.267   3.410   3.364
 7053SOL    HW222059   2.171   3.540   3.338
 7054SOL     OW22060   6.457   0.882   0.272
 7054SOL    HW122061   6.378   0.942   0.271
 7054SOL    HW222062   6.439   0.803   0.330
 7055SOL     OW22063   2.950   1.125   0.143
 7055SOL    HW122064   2.866   1.128   0.197
 7055SOL    HW222065   3.027   1.157   0.199
 7056SOL     OW22066   0.507   5.252   1.381
 7056SOL    HW122067   0.524   5.331   1.440
 7056SOL    HW222068   0.519   5.168   1.433
 7057SOL     OW22069   2.916   5.095   4.279
 7057SOL    HW122070   2.853   5.063   4.209
 7057SOL    HW222071   2.869   5.162   4.337
 7058SOL     OW22072   5.414   2.957   6.148
 7058SOL    HW122073   5.471   3.023   6.099
 7058SOL    HW222074   5.389   2.882   6.086
 7059SOL     OW22075   2.097   0.034   5.092
 7059SOL    HW122076   2.032   0.109   5.084
 7059SOL    HW222077   2.067   6.995   5.163
 7060SOL     OW22078   3.917   0.820   1.273
 7060SOL    HW122079   4.008   0.812   1.314
 7060SOL    HW222080   3.924   0.863   1.183
 7061SOL     OW22081   0.605   1.624   1.338
 7061SOL    HW122082   0.670   1.656   1.269
 7061SOL    HW222083   0.512   1.650   1.311
 7062SOL     OW22084   3.433   1.149   3.247
 7062SOL    HW122085   3.352   1.118   3.197
 7062SOL    HW222086   3.456   1.083   3.318
 7063SOL     OW22087   0.902   0.833   1.538
 7063SOL    HW122088   0.999   0.838   1.564
 7063SOL    HW222089   0.845   0.851   1.618
 7064SOL     OW22090   4.112   1.440   5.218
 7064SOL    HW122091   4.200   1.472   5.252
 7064SOL    HW222092   4.044   1.513   5.227
 7065SOL     OW22093   3.972   5.243   5.552
 7065SOL    HW122094   3.883   5.278   5.581
 7065SOL    HW222095   3.975   5.239   5.452
 7066SOL     OW22096   3.825   0.321   0.177
 7066SOL    HW122097   3.809   0.289   0.083
 7066SOL    HW222098   3.745   0.302   0.233
 7067SOL     OW22099   1.838   3.692   6.999
 7067SOL    HW122100   1.837   3.728   6.905
 7067SOL    HW222101   1.925   3.645   7.015
 7068SOL     OW22102   5.172   3.240   4.028
 7068SOL    HW122103   5.083   3.196   4.022
 7068SOL    HW222104   5.169   3.312   4.098
 7069SOL     OW22105   5.981   0.415   6.637
 7069SOL    HW122106   6.024   0.326   6.623
 7069SOL    HW222107   5.997   0.473   6.557
 7070SOL     OW22108   0.195   6.870   4.939
 7070SOL    HW122109   0.224   6.819   4.858
 7070SOL    HW222110   0.147   6.809   5.002
 7071SOL     OW22111   4.863   5.555   6.823
 7071SOL    HW122112   4.948   5.508   6.848
 7071SOL    HW222113   4.821   5.508   6.745
 7072SOL     OW22114   0.576   3.656   6.374
 7072SOL    HW122115   0.565   3.557   6.383
 7072SOL    HW222116   0.645   3.675   6.305
 7073SOL     OW22117   4.923   1.408   3.522
 7073SOL    HW122118   4.889   1.494   3.560
 7073SOL    HW222119   4.906   1.333   3.586
 7074SOL     OW22120   5.771   4.412   2.806
 7074SOL    HW122121   5.784   4.320   2.769
 7074SOL    HW222122   5.782   4.409   2.906
 7075SOL     OW22123   3.297   4.933   3.438
 7075SOL    HW122124   3.396   4.930   3.455
 7075SOL    HW222125   3.280   4.932   3.340
 7076SOL     OW22126   5.581   2.128   2.072
 7076SOL    HW122127   5.567   2.064   2.148
 7076SOL    HW222128   5.493   2.167   2.045
 7077SOL     OW22129   3.622   5.466   1.449
 7077SOL    HW122130   3.641   5.369   1.429
 7077SOL    HW222131   3.529   5.488   1.421
 7078SOL     OW22132   5.575   0.864   7.022
 7078SOL    HW122133   5.664   0.819   7.015
 7078SOL    HW222134   5.502   0.796   7.021
 7079SOL     OW22135   1.268   6.322   5.083
 7079SOL    HW122136   1.252   6.400   5.144
 7079SOL    HW222137   1.324   6.350   5.006
 7080SOL     OW22138   4.227   2.151   5.554
 7080SOL    HW122139   4.243   2.095   5.635
 7080SOL    HW222140   4.303   2.137   5.489
 7081SOL     OW22141   1.641   0.165   0.436
 7081SOL    HW122142   1.564   0.108   0.410
 7081SOL    HW222143   1.628   0.198   0.530
 7082SOL     OW22144   7.010   4.324   3.138
 7082SOL    HW122145   6.919   4.330   3.096
 7082SOL    HW222146   0.010   4.413   3.177
 7083SOL     OW22147   6.083   2.799   2.514
 7083SOL    HW122148   6.082   2.704   2.545
 7083SOL    HW222149   5.996   2.821   2.470
 7084SOL     OW22150   0.734   5.770   6.940
 7084SOL    HW122151   0.680   5.796   6.860
 7084SOL    HW222152   0.793   5.693   6.916
 7085SOL     OW22153   0.213   3.587   2.401
 7085SOL    HW122154   0.281   3.578   2.473
 7085SOL    HW222155   0.220   3.679   2.361
 7086SOL     OW22156   5.569   0.997   3.784
 7086SOL    HW122157   5.506   1.070   3.757
 7086SOL    HW222158   5.574   0.929   3.711
 7087SOL     OW22159   5.257   3.819   2.585
 7087SOL    HW122160   5.206   3.766   2.517
 7087SOL    HW222161   5.256   3.770   2.672
 7088SOL     OW22162   6.054   1.992   5.205
 7088SOL    HW122163   5.964   2.009   5.245
 7088SOL    HW222164   6.053   2.019   5.108
 7089SOL     OW22165   3.032   5.954   1.908
 7089SOL    HW122166   3.004   6.019   1.979
 7089SOL    HW222167   2.961   5.950   1.837
 7090SOL     OW22168   4.281   2.871   0.949
 7090SOL    HW122169   4.211   2.925   0.901
 7090SOL    HW222170   4.310   2.920   1.031
 7091SOL     OW22171   0.055   6.035   0.274
 7091SOL    HW122172   0.126   5.981   0.318
 7091SOL    HW222173   7.010   6.061   0.341
 7092SOL     OW22174   3.916   1.070   6.284
 7092SOL    HW122175   3.923   1.101   6.379
 7092SOL    HW222176   3.820   1.058   6.260
 7093SOL     OW22177   2.581   2.834   1.206
 7093SOL    HW122178   2.642   2.842   1.285
 7093SOL    HW222179   2.624   2.877   1.127
 7094SOL     OW22180   2.926   0.355   5.637
 7094SOL    HW122181   2.846   0.295   5.645
 7094SOL    HW222182   2.896   0.451   5.640
 7095SOL     OW22183   2.572   4.737   4.742
 7095SOL    HW122184   2.525   4.717   4.828
 7095SOL    HW222185   2.670   4.743   4.759
 7096SOL     OW22186   0.249   0.834   1.512
 7096SOL    HW122187   0.289   0.906   1.455
 7096SOL    HW222188   0.252   0.862   1.608
 7097SOL     OW22189   4.304   1.198   1.914
 7097SOL    HW122190   4.378   1.243   1.964
 7097SOL    HW222191   4.341   1.160   1.829
 7098SOL     OW22192   1.450   6.833   3.819
 7098SOL    HW122193   1.541   6.831   3.859
 7098SOL    HW222194   1.443   6.910   3.755
 7099SOL     OW22195   2.821   2.366   3.943
 7099SOL    HW122196   2.800   2.312   4.025
 7099SOL    HW222197   2.891   2.319   3.890
 7100SOL     OW22198   5.968   3.801   1.688
 7100SOL    HW122199   5.970   3.898   1.662
 7100SOL    HW222200   6.048   3.780   1.743
 7101SOL     OW22201   2.654   6.314   5.509
 7101SOL    HW122202   2.750   6.336   5.525
 7101SOL    HW222203   2.616   6.269   5.590
 7102SOL     OW22204   5.418   0.956   1.924
 7102SOL    HW122205   5.403   0.882   1.860
 7102SOL    HW222206   5.389   1.043   1.883
 7103SOL     OW22207   4.900   3.849   3.017
 7103SOL    HW122208   4.857   3.822   2.931
 7103SOL    HW222209   4.946   3.770   3.058
 7104SOL     OW22210   5.253   3.153   3.278
 7104SOL    HW122211   5.290   3.068   3.316
 7104SOL    HW222212   5.171   3.178   3.329
 7105SOL     OW22213   3.263   4.106   3.796
 7105SOL    HW122214   3.265   4.031   3.861
 7105SOL    HW222215   3.169   4.133   3.777
 7106SOL     OW22216   2.847   2.503   1.168
 7106SOL    HW122217   2.852   2.536   1.074
 7106SOL    HW222218   2.922   2.438   1.185
 7107SOL     OW22219   3.539   0.673   6.404
 7107SOL    HW122220   3.454   0.648   6.359
 7107SOL    HW222221   3.576   0.594   6.454
 7108SOL     OW22222   4.939   0.963   2.122
 7108SOL    HW122223   4.872   0.890   2.136
 7108SOL    HW222224   4.977   0.957   2.030
 7109SOL     OW22225   3.179   5.475   6.352
 7109SOL    HW122226   3.105   5.421   6.391
 7109SOL    HW222227   3.265   5.424   6.358
 7110SOL     OW22228   3.654   6.783   4.289
 7110SOL    HW122229   3.632   6.729   4.208
 7110SOL    HW222230   3.674   6.722   4.366
 7111SOL     OW22231   6.845   0.942   5.212
 7111SOL    HW122232   6.935   0.937   5.255
 7111SOL    HW222233   6.844   1.017   5.146
 7112SOL     OW22234   1.455   5.098   4.758
 7112SOL    HW122235   1.430   5.164   4.829
 7112SOL    HW222236   1.438   5.006   4.792
 7113SOL     OW22237   3.703   6.473   5.283
 7113SOL    HW122238   3.679   6.408   5.211
 7113SOL    HW222239   3.625   6.483   5.346
 7114SOL     OW22240   5.824   4.294   0.519
 7114SOL    HW122241   5.809   4.212   0.464
 7114SOL    HW222242   5.781   4.373   0.475
 7115SOL     OW22243   5.704   4.313   6.135
 7115SOL    HW122244   5.757   4.397   6.121
 7115SOL    HW222245   5.733   4.268   6.219
 7116SOL     OW22246   6.173   3.822   3.850
 7116SOL    HW122247   6.168   3.789   3.945
 7116SOL    HW222248   6.127   3.910   3.844
 7117SOL     OW22249   5.792   0.507   2.954
 7117SOL    HW122250   5.783   0.553   3.043
 7117SOL    HW222251   5.742   0.421   2.957
 7118SOL     OW22252   4.212   4.356   5.563
 7118SOL    HW122253   4.198   4.450   5.530
 7118SOL    HW222254   4.166   4.346   5.652
 7119SOL     OW22255   3.244   6.941   4.978
 7119SOL    HW122256   3.287   7.017   4.929
 7119SOL    HW222257   3.291   6.926   5.065
 7120SOL     OW22258   4.509   0.425   0.402
 7120SOL    HW122259   4.483   0.438   0.497
 7120SOL    HW222260   4.462   0.493   0.345
 7121SOL     OW22261   1.937   5.780   2.178
 7121SOL    HW122262   1.914   5.770   2.275
 7121SOL    HW222263   2.026   5.823   2.169
 7122SOL     OW22264   3.424   1.878   0.166
 7122SOL    HW122265   3.465   1.917   0.248
 7122SOL    HW222266   3.371   1.947   0.118
 7123SOL     OW22267   5.351   5.203   6.012
 7123SOL    HW122268   5.321   5.154   5.929
 7123SOL    HW222269   5.450   5.194   6.022
 7124SOL     OW22270   1.107   2.189   1.516
 7124SOL    HW122271   1.057   2.113   1.556
 7124SOL    HW222272   1.045   2.265   1.496
 7125SOL     OW22273   0.506   6.381   1.937
 7125SOL    HW122274   0.485   6.387   2.034
 7125SOL    HW222275   0.605   6.368   1.925
 7126SOL     OW22276   3.133   5.321   1.130
 7126SOL    HW122277   3.137   5.418   1.154
 7126SOL    HW222278   3.121   5.312   1.031
 7127SOL     OW22279   2.414   6.598   5.937
 7127SOL    HW122280   2.425   6.518   5.878
 7127SOL    HW222281   2.374   6.673   5.884
 7128SOL     OW22282   4.287   4.187   6.483
 7128SOL    HW122283   4.298   4.287   6.479
 7128SOL    HW222284   4.269   4.152   6.391
 7129SOL     OW22285   0.693   6.941   0.713
 7129SOL    HW122286   0.715   0.011   0.688
 7129SOL    HW222287   0.599   6.937   0.748
 7130SOL     OW22288   3.294   6.648   3.927
 7130SOL    HW122289   3.217   6.671   3.987
 7130SOL    HW222290   3.377   6.640   3.983
 7131SOL     OW22291   2.839   1.379   2.101
 7131SOL    HW122292   2.910   1.324   2.056
 7131SOL    HW222293   2.859   1.385   2.199
 7132SOL     OW22294   5.443   4.719   0.497
 7132SOL    HW122295   5.366   4.762   0.449
 7132SOL    HW222296   5.511   4.689   0.430
 7133SOL     OW22297   5.189   5.630   2.840
 7133SOL    HW122298   5.156   5.599   2.929
 7133SOL    HW222299   5.248   5.559   2.800
 7134SOL     OW22300   4.626   5.112   0.146
 7134SOL    HW122301   4.630   5.113   0.046
 7134SOL    HW222302   4.628   5.018   0.179
 7135SOL     OW22303   1.855   3.378   0.921
 7135SOL    HW122304   1.852   3.457   0.982
 7135SOL    HW222305   1.836   3.295   0.973
 7136SOL     OW22306   1.805   1.732   1.894
 7136SOL    HW122307   1.816   1.652   1.836
 7136SOL    HW222308   1.821   1.707   1.989
 7137SOL     OW22309   2.645   1.810   1.653
 7137SOL    HW122310   2.737   1.797   1.689
 7137SOL    HW222311   2.578   1.777   1.720
 7138SOL     OW22312   0.977   2.508   0.410
 7138SOL    HW122313   1.012   2.594   0.446
 7138SOL    HW222314   0.893   2.526   0.357
 7139SOL     OW22315   6.047   6.580   0.732
 7139SOL    HW122316   6.002   6.514   0.672
 7139SOL    HW222317   6.051   6.544   0.825
 7140SOL     OW22318   6.360   3.539   6.993
 7140SOL    HW122319   6.334   3.544   6.897
 7140SOL    HW222320   6.285   3.499   0.021
 7141SOL     OW22321   3.549   0.358   0.816
 7141SOL    HW122322   3.454   0.390   0.813
 7141SOL    HW222323   3.599   0.397   0.738
 7142SOL     OW22324   3.434   0.452   4.818
 7142SOL    HW122325   3.337   0.452   4.843
 7142SOL    HW222326   3.485   0.511   4.880
 7143SOL     OW22327   2.737   4.454   6.551
 7143SOL    HW122328   2.813   4.485   6.494
 7143SOL    HW222329   2.767   4.379   6.609
 7144SOL     OW22330   6.777   0.872   6.056
 7144SOL    HW122331   6.804   0.781   6.026
 7144SOL    HW222332   6.677   0.879   6.056
 7145SOL     OW22333   5.075   2.285   6.211
 7145SOL    HW122334   5.166   2.244   6.213
 7145SOL    HW222335   5.008   2.215   6.189
 7146SOL     OW22336   1.309   2.144   5.665
 7146SOL    HW122337   1.267   2.233   5.646
 7146SOL    HW222338   1.299   2.084   5.586
 7147SOL     OW22339   6.308   6.735   2.281
 7147SOL    HW122340   6.375   6.685   2.225
 7147SOL    HW222341   6.287   6.822   2.237
 7148SOL     OW22342   6.224   0.144   0.940
 7148SOL    HW122343   6.198   0.052   0.914
 7148SOL    HW222344   6.168   0.210   0.889
 7149SOL     OW22345   5.576   4.651   5.696
 7149SOL    HW122346   5.578   4.579   5.765
 7149SOL    HW222347   5.669   4.674   5.668
 7150SOL     OW22348   3.302   3.582   6.906
 7150SOL    HW122349   3.257   3.505   6.951
 7150SOL    HW222350   3.319   3.559   6.810
 7151SOL     OW22351   3.731   1.335   0.657
 7151SOL    HW122352   3.800   1.336   0.585
 7151SOL    HW222353   3.772   1.303   0.743
 7152SOL     OW22354   6.612   1.291   6.631
 7152SOL    HW122355   6.711   1.302   6.625
 7152SOL    HW222356   6.567   1.379   6.616
 7153SOL     OW22357   3.757   5.684   0.550
 7153SOL    HW122358   3.683   5.712   0.610
 7153SOL    HW222359   3.720   5.660   0.460
 7154SOL     OW22360   3.864   1.927   2.022
 7154SOL    HW122361   3.811   1.999   2.068
 7154SOL    HW222362   3.947   1.967   1.983
 7155SOL     OW22363   1.437   1.352   1.872
 7155SOL    HW122364   1.459   1.355   1.775
 7155SOL    HW222365   1.339   1.334   1.883
 7156SOL     OW22366   5.762   3.417   5.650
 7156SOL    HW122367   5.705   3.431   5.732
 7156SOL    HW222368   5.743   3.490   5.584
 7157SOL     OW22369   6.897   3.986   5.751
 7157SOL    HW122370   6.834   3.921   5.708
 7157SOL    HW222371   6.982   3.940   5.776
 7158SOL     OW22372   4.577   0.267   3.975
 7158SOL    HW122373   4.492   0.302   4.015
 7158SOL    HW222374   4.646   0.340   3.975
 7159SOL     OW22375   0.466   6.240   3.198
 7159SOL    HW122376   0.403   6.315   3.178
 7159SOL    HW222377   0.423   6.176   3.262
 7160SOL     OW22378   6.806   0.392   3.543
 7160SOL    HW122379   6.812   0.474   3.600
 7160SOL    HW222380   6.857   0.318   3.585
 7161SOL     OW22381   4.019   3.135   3.158
 7161SOL    HW122382   4.078   3.203   3.114
 7161SOL    HW222383   4.021   3.148   3.257
 7162SOL     OW22384   0.732   5.794   1.775
 7162SOL    HW122385   0.658   5.734   1.803
 7162SOL    HW222386   0.735   5.799   1.675
 7163SOL     OW22387   0.066   1.120   1.677
 7163SOL    HW122388   0.027   1.187   1.613
 7163SOL    HW222389   0.013   1.036   1.672
 7164SOL     OW22390   2.250   1.219   6.622
 7164SOL    HW122391   2.268   1.317   6.610
 7164SOL    HW222392   2.152   1.202   6.615
 7165SOL     OW22393   6.017   1.609   0.593
 7165SOL    HW122394   6.013   1.707   0.615
 7165SOL    HW222395   5.940   1.563   0.637
 7166SOL     OW22396   6.626   5.305   6.167
 7166SOL    HW122397   6.537   5.259   6.163
 7166SOL    HW222398   6.626   5.381   6.102
 7167SOL     OW22399   6.299   2.743   4.890
 7167SOL    HW122400   6.295   2.643   4.877
 7167SOL    HW222401   6.353   2.764   4.972
 7168SOL     OW22402   2.348   1.001   1.985
 7168SOL    HW122403   2.286   1.048   1.922
 7168SOL    HW222404   2.395   1.069   2.041
 7169SOL     OW22405   2.112   4.000   6.142
 7169SOL    HW122406   2.200   3.982   6.098
 7169SOL    HW222407   2.038   3.977   6.079
 7170SOL     OW22408   3.704   1.633   0.652
 7170SOL    HW122409   3.698   1.662   0.748
 7170SOL    HW222410   3.678   1.537   0.645
 7171SOL     OW22411   6.993   3.782   0.642
 7171SOL    HW122412   6.915   3.724   0.620
 7171SOL    HW222413   0.016   3.746   0.723
 7172SOL     OW22414   1.205   2.522   3.871
 7172SOL    HW122415   1.154   2.459   3.929
 7172SOL    HW222416   1.303   2.513   3.891
 7173SOL     OW22417   4.967   5.628   5.900
 7173SOL    HW122418   4.883   5.608   5.850
 7173SOL    HW222419   4.964   5.585   5.990
 7174SOL     OW22420   6.373   4.273   1.938
 7174SOL    HW122421   6.364   4.322   1.851
 7174SOL    HW222422   6.318   4.319   2.008
 7175SOL     OW22423   6.689   3.524   6.005
 7175SOL    HW122424   6.670   3.492   6.097
 7175SOL    HW222425   6.786   3.547   5.996
 7176SOL     OW22426   0.578   0.441   5.546
 7176SOL    HW122427   0.641   0.503   5.591
 7176SOL    HW222428   0.594   0.442   5.447
 7177SOL     OW22429   1.329   5.989   3.786
 7177SOL    HW122430   1.402   5.988   3.854
 7177SOL    HW222431   1.245   5.954   3.827
 7178SOL     OW22432   1.993   6.789   5.010
 7178SOL    HW122433   1.900   6.782   4.973
 7178SOL    HW222434   1.990   6.836   5.098
 7179SOL     OW22435   3.549   5.296   5.890
 7179SOL    HW122436   3.599   5.382   5.896
 7179SOL    HW222437   3.527   5.276   5.795
 7180SOL     OW22438   1.916   2.975   1.460
 7180SOL    HW122439   1.890   3.067   1.431
 7180SOL    HW222440   1.850   2.942   1.529
 7181SOL     OW22441   2.539   1.310   6.116
 7181SOL    HW122442   2.493   1.257   6.187
 7181SOL    HW222443   2.557   1.251   6.037
 7182SOL     OW22444   1.655   1.909   3.941
 7182SOL    HW122445   1.671   1.990   3.997
 7182SOL    HW222446   1.618   1.936   3.852
 7183SOL     OW22447   0.431   6.974   1.760
 7183SOL    HW122448   0.434   6.946   1.855
 7183SOL    HW222449   0.525   6.980   1.724
 7184SOL     OW22450   6.707   0.344   4.155
 7184SOL    HW122451   6.661   0.322   4.068
 7184SOL    HW222452   6.658   0.300   4.230
 7185SOL     OW22453   4.360   1.027   4.587
 7185SOL    HW122454   4.288   1.045   4.654
 7185SOL    HW222455   4.329   1.059   4.497
 7186SOL     OW22456   0.069   0.785   6.698
 7186SOL    HW122457   0.012   0.722   6.645
 7186SOL    HW222458   0.014   0.863   6.728
 7187SOL     OW22459   3.414   3.237   4.027
 7187SOL    HW122460   3.440   3.301   3.954
 7187SOL    HW222461   3.494   3.213   4.081
 7188SOL     OW22462   4.346   4.164   0.075
 7188SOL    HW122463   4.285   4.241   0.091
 7188SOL    HW222464   4.400   4.180   7.016
 7189SOL     OW22465   6.603   2.485   5.920
 7189SOL    HW122466   6.608   2.483   6.020
 7189SOL    HW222467   6.508   2.498   5.891
 7190SOL     OW22468   5.680   4.973   0.777
 7190SOL    HW122469   5.582   4.962   0.762
 7190SOL    HW222470   5.713   4.902   0.839
 7191SOL     OW22471   6.738   5.161   3.925
 7191SOL    HW122472   6.685   5.225   3.980
 7191SOL    HW222473   6.681   5.128   3.849
 7192SOL     OW22474   3.069   4.612   6.672
 7192SOL    HW122475   3.016   4.695   6.655
 7192SOL    HW222476   3.117   4.586   6.588
 7193SOL     OW22477   2.914   2.161   2.616
 7193SOL    HW122478   2.894   2.170   2.713
 7193SOL    HW222479   3.013   2.150   2.603
 7194SOL     OW22480   3.036   2.816   5.963
 7194SOL    HW122481   2.946   2.849   5.937
 7194SOL    HW222482   3.043   2.718   5.944
 7195SOL     OW22483   0.778   4.746   4.800
 7195SOL    HW122484   0.689   4.739   4.844
 7195SOL    HW222485   0.850   4.731   4.867
 7196SOL     OW22486   3.315   4.024   2.045
 7196SOL    HW122487   3.376   4.029   1.966
 7196SOL    HW222488   3.260   3.941   2.040
 7197SOL     OW22489   3.320   4.739   6.376
 7197SOL    HW122490   3.229   4.781   6.372
 7197SOL    HW222491   3.316   4.659   6.436
 7198SOL     OW22492   0.731   0.540   2.059
 7198SOL    HW122493   0.726   0.640   2.049
 7198SOL    HW222494   0.642   0.501   2.037
 7199SOL     OW22495   6.354   1.012   2.441
 7199SOL    HW122496   6.354   1.004   2.541
 7199SOL    HW222497   6.260   1.012   2.407
 7200SOL     OW22498   1.096   2.274   0.540
 7200SOL    HW122499   1.048   2.353   0.502
 7200SOL    HW222500   1.040   2.192   0.528
 7201SOL     OW22501   5.056   5.414   3.896
 7201SOL    HW122502   5.025   5.454   3.982
 7201SOL    HW222503   5.154   5.397   3.899
 7202SOL     OW22504   5.040   0.792   6.016
 7202SOL    HW122505   5.071   0.874   5.968
 7202SOL    HW222506   5.012   0.816   6.108
 7203SOL     OW22507   0.258   1.209   1.037
 7203SOL    HW122508   0.167   1.191   1.073
 7203SOL    HW222509   0.281   1.306   1.051
 7204SOL     OW22510   6.160   0.154   2.215
 7204SOL    HW122511   6.244   0.194   2.252
 7204SOL    HW222512   6.111   0.223   2.161
 7205SOL     OW22513   2.873   1.731   3.906
 7205SOL    HW122514   2.934   1.731   3.986
 7205SOL    HW222515   2.911   1.791   3.836
 7206SOL     OW22516   2.116   3.427   0.447
 7206SOL    HW122517   2.076   3.390   0.531
 7206SOL    HW222518   2.045   3.432   0.376
 7207SOL     OW22519   1.940   1.167   3.715
 7207SOL    HW122520   1.915   1.258   3.682
 7207SOL    HW222521   1.872   1.101   3.683
 7208SOL     OW22522   2.585   0.779   4.547
 7208SOL    HW122523   2.514   0.776   4.477
 7208SOL    HW222524   2.670   0.812   4.506
 7209SOL     OW22525   3.441   1.127   2.062
 7209SOL    HW122526   3.439   1.207   2.122
 7209SOL    HW222527   3.522   1.072   2.083
 7210SOL     OW22528   2.793   1.747   3.325
 7210SOL    HW122529   2.839   1.686   3.390
 7210SOL    HW222530   2.695   1.749   3.346
 7211SOL     OW22531   4.551   6.295   4.758
 7211SOL    HW122532   4.506   6.340   4.835
 7211SOL    HW222533   4.635   6.345   4.735
 7212SOL     OW22534   7.000   4.397   5.790
 7212SOL    HW122535   0.069   4.388   5.756
 7212SOL    HW222536   6.953   4.469   5.738
 7213SOL     OW22537   3.540   2.087   6.727
 7213SOL    HW122538   3.568   2.138   6.808
 7213SOL    HW222539   3.478   2.143   6.672
 7214SOL     OW22540   6.789   0.674   6.380
 7214SOL    HW122541   6.765   0.732   6.458
 7214SOL    HW222542   6.855   0.723   6.322
 7215SOL     OW22543   6.219   2.471   2.234
 7215SOL    HW122544   6.160   2.540   2.191
 7215SOL    HW222545   6.162   2.394   2.265
 7216SOL     OW22546   3.439   6.264   3.699
 7216SOL    HW122547   3.511   6.225   3.755
 7216SOL    HW222548   3.388   6.332   3.753
 7217SOL     OW22549   1.624   3.158   3.066
 7217SOL    HW122550   1.604   3.216   3.144
 7217SOL    HW222551   1.692   3.201   3.008
 7218SOL     OW22552   6.088   3.518   4.539
 7218SOL    HW122553   6.069   3.542   4.634
 7218SOL    HW222554   6.164   3.452   4.535
 7219SOL     OW22555   3.432   5.967   2.811
 7219SOL    HW122556   3.468   6.030   2.742
 7219SOL    HW222557   3.400   5.883   2.766
 7220SOL     OW22558   6.460   4.867   4.377
 7220SOL    HW122559   6.387   4.848   4.312
 7220SOL    HW222560   6.549   4.843   4.337
 7221SOL     OW22561   3.951   5.893   3.731
 7221SOL    HW122562   3.873   5.831   3.719
 7221SOL    HW222563   3.928   5.963   3.798
 7222SOL     OW22564   6.901   5.779   4.581
 7222SOL    HW122565   6.976   5.774   4.516
 7222SOL    HW222566   6.836   5.705   4.563
 7223SOL     OW22567   6.775   3.769   1.924
 7223SOL    HW122568   6.759   3.820   1.839
 7223SOL    HW222569   6.866   3.789   1.959
 7224SOL     OW22570   3.928   1.978   3.124
 7224SOL    HW122571   3.865   1.900   3.130
 7224SOL    HW222572   3.899   2.038   3.050
 7225SOL     OW22573   1.629   6.216   1.172
 7225SOL    HW122574   1.532   6.193   1.162
 7225SOL    HW222575   1.674   6.211   1.083
 7226SOL     OW22576   6.384   6.677   0.566
 7226SOL    HW122577   6.420   6.770   0.573
 7226SOL    HW222578   6.303   6.668   0.625
 7227SOL     OW22579   2.064   0.780   2.223
 7227SOL    HW122580   2.081   0.844   2.148
 7227SOL    HW222581   2.070   0.829   2.310
 7228SOL     OW22582   6.913   2.988   2.309
 7228SOL    HW122583   6.950   3.066   2.258
 7228SOL    HW222584   6.815   2.980   2.292
 7229SOL     OW22585   6.634   0.917   5.653
 7229SOL    HW122586   6.682   0.861   5.586
 7229SOL    HW222587   6.622   0.864   5.737
 7230SOL     OW22588   1.931   5.315   4.429
 7230SOL    HW122589   1.873   5.312   4.510
 7230SOL    HW222590   2.022   5.279   4.452
 7231SOL     OW22591   4.240   2.168   6.774
 7231SOL    HW122592   4.258   2.163   6.676
 7231SOL    HW222593   4.186   2.088   6.802
 7232SOL     OW22594   5.477   0.078   3.308
 7232SOL    HW122595   5.444   0.040   3.395
 7232SOL    HW222596   5.428   0.162   3.287
 7233SOL     OW22597   6.901   1.152   4.774
 7233SOL    HW122598   6.848   1.156   4.858
 7233SOL    HW222599   6.853   1.202   4.701
 7234SOL     OW22600   5.055   4.236   2.997
 7234SOL    HW122601   5.094   4.164   2.940
 7234SOL    HW222602   5.069   4.325   2.954
 7235SOL     OW22603   0.016   5.532   1.681
 7235SOL    HW122604   6.949   5.522   1.721
 7235SOL    HW222605   0.008   5.574   1.591
 7236SOL     OW22606   1.620   3.096   2.786
 7236SOL    HW122607   1.700   3.147   2.818
 7236SOL    HW222608   1.591   3.032   2.857
 7237SOL     OW22609   5.314   1.017   0.282
 7237SOL    HW122610   5.306   1.003   0.381
 7237SOL    HW222611   5.230   1.058   0.247
 7238SOL     OW22612   3.716   3.288   0.542
 7238SOL    HW122613   3.648   3.239   0.597
 7238SOL    HW222614   3.799   3.232   0.535
 7239SOL     OW22615   0.194   2.377   2.104
 7239SOL    HW122616   0.162   2.285   2.079
 7239SOL    HW222617   0.201   2.383   2.204
 7240SOL     OW22618   6.871   1.986   6.630
 7240SOL    HW122619   6.804   1.921   6.594
 7240SOL    HW222620   6.915   1.948   6.711
 7241SOL     OW22621   1.959   1.258   1.333
 7241SOL    HW122622   1.928   1.223   1.245
 7241SOL    HW222623   2.050   1.297   1.323
 7242SOL     OW22624   6.482   5.077   4.520
 7242SOL    HW122625   6.484   5.000   4.455
 7242SOL    HW222626   6.417   5.146   4.489
 7243SOL     OW22627   6.308   4.322   6.416
 7243SOL    HW122628   6.253   4.402   6.396
 7243SOL    HW222629   6.254   4.239   6.399
 7244SOL     OW22630   0.468   5.739   0.030
 7244SOL    HW122631   0.395   5.750   6.987
 7244SOL    HW222632   0.556   5.759   7.012
 7245SOL     OW22633   1.052   3.579   0.295
 7245SOL    HW122634   1.069   3.639   0.216
 7245SOL    HW222635   0.965   3.605   0.337
 7246SOL     OW22636   3.567   6.659   4.047
 7246SOL    HW122637   3.576   6.560   4.036
 7246SOL    HW222638   3.635   6.705   3.991
 7247SOL     OW22639   3.301   3.742   5.360
 7247SOL    HW122640   3.250   3.825   5.341
 7247SOL    HW222641   3.252   3.663   5.325
 7248SOL     OW22642   3.497   1.105   4.836
 7248SOL    HW122643   3.553   1.063   4.765
 7248SOL    HW222644   3.455   1.188   4.800
 7249SOL     OW22645   4.050   5.340   2.332
 7249SOL    HW122646   3.995   5.324   2.414
 7249SOL    HW222647   4.009   5.415   2.278
 7250SOL     OW22648   5.192   5.599   5.701
 7250SOL    HW122649   5.115   5.658   5.677
 7250SOL    HW222650   5.277   5.652   5.697
 7251SOL     OW22651   6.795   5.527   5.439
 7251SOL    HW122652   6.733   5.548   5.363
 7251SOL    HW222653   6.811   5.609   5.492
 7252SOL     OW22654   3.350   4.122   2.284
 7252SOL    HW122655   3.341   4.086   2.192
 7252SOL    HW222656   3.304   4.211   2.290
 7253SOL     OW22657   1.804   5.813   5.268
 7253SOL    HW122658   1.747   5.895   5.273
 7253SOL    HW222659   1.896   5.839   5.240
 7254SOL     OW22660   5.019   3.870   3.961
 7254SOL    HW122661   4.957   3.844   3.888
 7254SOL    HW222662   5.102   3.815   3.955
 7255SOL     OW22663   5.218   3.180   6.166
 7255SOL    HW122664   5.200   3.224   6.255
 7255SOL    HW222665   5.280   3.103   6.180
 7256SOL     OW22666   3.354   6.638   5.573
 7256SOL    HW122667   3.413   6.717   5.555
 7256SOL    HW222668   3.266   6.651   5.527
 7257SOL     OW22669   0.831   1.829   4.571
 7257SOL    HW122670   0.840   1.824   4.472
 7257SOL    HW222671   0.878   1.911   4.605
 7258SOL     OW22672   6.289   2.106   3.165
 7258SOL    HW122673   6.332   2.080   3.251
 7258SOL    HW222674   6.348   2.079   3.088
 7259SOL     OW22675   1.313   4.468   2.940
 7259SOL    HW122676   1.351   4.559   2.923
 7259SOL    HW222677   1.310   4.452   3.039
 7260SOL     OW22678   5.522   3.027   1.473
 7260SOL    HW122679   5.426   3.002   1.461
 7260SOL    HW222680   5.528   3.106   1.534
 7261SOL     OW22681   6.974   4.202   6.480
 7261SOL    HW122682   0.030   4.218   6.537
 7261SOL    HW222683   6.909   4.143   6.529
 7262SOL     OW22684   6.458   1.454   5.788
 7262SOL    HW122685   6.372   1.500   5.768
 7262SOL    HW222686   6.521   1.463   5.710
 7263SOL     OW22687   0.411   5.103   0.050
 7263SOL    HW122688   0.398   5.004   0.045
 7263SOL    HW222689   0.322   5.149   0.053
 7264SOL     OW22690   6.193   1.614   0.843
 7264SOL    HW122691   6.163   1.538   0.786
 7264SOL    HW222692   6.183   1.700   0.793
 7265SOL     OW22693   4.515   5.559   5.627
 7265SOL    HW122694   4.427   5.606   5.616
 7265SOL    HW222695   4.500   5.461   5.637
 7266SOL     OW22696   0.280   0.954   3.934
 7266SOL    HW122697   0.317   0.926   4.023
 7266SOL    HW222698   0.300   0.884   3.866
 7267SOL     OW22699   6.266   5.501   4.326
 7267SOL    HW122700   6.182   5.537   4.366
 7267SOL    HW222701   6.282   5.408   4.361
 7268SOL     OW22702   6.218   6.214   4.218
 7268SOL    HW122703   6.122   6.242   4.214
 7268SOL    HW222704   6.235   6.164   4.303
 7269SOL     OW22705   2.607   4.700   5.173
 7269SOL    HW122706   2.584   4.625   5.235
 7269SOL    HW222707   2.702   4.691   5.144
 7270SOL     OW22708   0.761   1.688   4.306
 7270SOL    HW122709   0.768   1.599   4.353
 7270SOL    HW222710   0.665   1.707   4.285
 7271SOL     OW22711   0.746   4.169   3.809
 7271SOL    HW122712   0.689   4.234   3.759
 7271SOL    HW222713   0.750   4.196   3.906
 7272SOL     OW22714   5.800   5.528   3.113
 7272SOL    HW122715   5.887   5.572   3.135
 7272SOL    HW222716   5.814   5.430   3.100
 7273SOL     OW22717   0.124   2.469   5.684
 7273SOL    HW122718   0.069   2.552   5.676
 7273SOL    HW222719   0.077   2.405   5.744
 7274SOL     OW22720   0.410   4.254   6.987
 7274SOL    HW122721   0.481   4.190   7.017
 7274SOL    HW222722   0.333   4.253   0.027
 7275SOL     OW22723   6.570   0.410   2.969
 7275SOL    HW122724   6.574   0.351   2.888
 7275SOL    HW222725   6.660   0.410   3.013
 7276SOL     OW22726   4.552   7.000   3.951
 7276SOL    HW122727   4.555   0.075   3.950
 7276SOL    HW222728   4.461   6.969   3.924
 7277SOL     OW22729   4.282   0.564   5.689
 7277SOL    HW122730   4.365   0.583   5.741
 7277SOL    HW222731   4.202   0.581   5.746
 7278SOL     OW22732   2.925   3.574   2.748
 7278SOL    HW122733   2.905   3.537   2.657
 7278SOL    HW222734   2.968   3.503   2.804
 7279SOL     OW22735   3.616   6.168   6.310
 7279SOL    HW122736   3.568   6.082   6.293
 7279SOL    HW222737   3.562   6.244   6.275
 7280SOL     OW22738   4.379   1.150   5.968
 7280SOL    HW122739   4.306   1.090   5.935
 7280SOL    HW222740   4.344   1.243   5.974
 7281SOL     OW22741   4.185   1.095   0.023
 7281SOL    HW122742   4.228   1.181   0.050
 7281SOL    HW222743   4.086   1.101   0.035
 7282SOL     OW22744   6.345   5.383   1.939
 7282SOL    HW122745   6.352   5.409   1.843
 7282SOL    HW222746   6.299   5.294   1.947
 7283SOL     OW22747   2.372   0.956   3.681
 7283SOL    HW122748   2.371   0.857   3.667
 7283SOL    HW222749   2.453   0.982   3.733
 7284SOL     OW22750   6.994   3.717   5.400
 7284SOL    HW122751   6.972   3.641   5.338
 7284SOL    HW222752   7.007   3.682   5.493
 7285SOL     OW22753   5.222   5.701   2.202
 7285SOL    HW122754   5.304   5.750   2.175
 7285SOL    HW222755   5.158   5.695   2.125
 7286SOL     OW22756   2.355   3.003   1.253
 7286SOL    HW122757   2.444   2.958   1.251
 7286SOL    HW222758   2.300   2.972   1.176
 7287SOL     OW22759   6.462   0.927   6.452
 7287SOL    HW122760   6.389   0.984   6.488
 7287SOL    HW222761   6.432   0.883   6.368
 7288SOL     OW22762   3.939   0.250   6.639
 7288SOL    HW122763   3.902   0.193   6.565
 7288SOL    HW222764   3.979   0.334   6.600
 7289SOL     OW22765   5.121   2.012   3.106
 7289SOL    HW122766   5.188   2.081   3.130
 7289SOL    HW222767   5.103   1.953   3.184
 7290SOL     OW22768   2.259   4.765   4.709
 7290SOL    HW122769   2.241   4.745   4.805
 7290SOL    HW222770   2.353   4.798   4.698
 7291SOL     OW22771   2.877   5.903   1.649
 7291SOL    HW122772   2.813   5.972   1.683
 7291SOL    HW222773   2.876   5.903   1.549
 7292SOL     OW22774   2.585   6.810   3.925
 7292SOL    HW122775   2.512   6.829   3.860
 7292SOL    HW222776   2.666   6.779   3.876
 7293SOL     OW22777   1.995   1.936   5.301
 7293SOL    HW122778   2.016   1.838   5.296
 7293SOL    HW222779   2.023   1.972   5.390
 7294SOL     OW22780   2.916   4.904   0.515
 7294SOL    HW122781   2.997   4.861   0.554
 7294SOL    HW222782   2.915   4.889   0.416
 7295SOL     OW22783   7.015   0.950   0.971
 7295SOL    HW122784   0.002   0.904   1.059
 7295SOL    HW222785   6.926   0.995   0.967
 7296SOL     OW22786   3.252   4.972   0.818
 7296SOL    HW122787   3.190   5.006   0.890
 7296SOL    HW222788   3.342   4.957   0.858
 7297SOL     OW22789   4.833   6.839   1.205
 7297SOL    HW122790   4.800   6.863   1.114
 7297SOL    HW222791   4.771   6.772   1.246
 7298SOL     OW22792   6.158   3.769   4.318
 7298SOL    HW122793   6.139   3.784   4.221
 7298SOL    HW222794   6.095   3.699   4.353
 7299SOL     OW22795   6.182   3.391   0.123
 7299SOL    HW122796   6.103   3.410   0.181
 7299SOL    HW222797   6.258   3.357   0.180
 7300SOL     OW22798   5.217   5.244   0.898
 7300SOL    HW122799   5.248   5.323   0.845
 7300SOL    HW222800   5.206   5.270   0.994
 7301SOL     OW22801   6.751   6.892   6.183
 7301SOL    HW122802   6.746   6.845   6.272
 7301SOL    HW222803   6.664   6.884   6.136
 7302SOL     OW22804   6.165   0.795   6.803
 7302SOL    HW122805   6.120   0.883   6.818
 7302SOL    HW222806   6.117   0.723   6.852
 7303SOL     OW22807   3.120   0.572   0.118
 7303SOL    HW122808   3.117   0.472   0.106
 7303SOL    HW222809   3.046   0.600   0.180
 7304SOL     OW22810   4.623   3.749   5.885
 7304SOL    HW122811   4.547   3.790   5.835
 7304SOL    HW222812   4.705   3.805   5.871
 7305SOL     OW22813   4.729   1.334   0.496
 7305SOL    HW122814   4.720   1.250   0.443
 7305SOL    HW222815   4.763   1.312   0.588
 7306SOL     OW22816   4.641   5.075   1.693
 7306SOL    HW122817   4.698   5.120   1.625
 7306SOL    HW222818   4.548   5.111   1.689
 7307SOL     OW22819   3.907   6.712   1.859
 7307SOL    HW122820   3.845   6.635   1.874
 7307SOL    HW222821   3.993   6.678   1.820
 7308SOL     OW22822   6.670   3.148   4.847
 7308SOL    HW122823   6.623   3.130   4.934
 7308SOL    HW222824   6.602   3.164   4.775
 7309SOL     OW22825   4.989   6.659   1.014
 7309SOL    HW122826   5.051   6.584   1.035
 7309SOL    HW222827   4.941   6.687   1.098
 7310SOL     OW22828   2.933   5.199   1.283
 7310SOL    HW122829   3.021   5.242   1.264
 7310SOL    HW222830   2.932   5.162   1.376
 7311SOL     OW22831   2.698   2.154   1.953
 7311SOL    HW122832   2.767   2.204   2.006
 7311SOL    HW222833   2.624   2.216   1.929
 7312SOL     OW22834   6.529   1.845   5.671
 7312SOL    HW122835   6.611   1.892   5.703
 7312SOL    HW222836   6.508   1.769   5.734
 7313SOL     OW22837   3.688   2.485   6.347
 7313SOL    HW122838   3.707   2.519   6.439
 7313SOL    HW222839   3.598   2.516   6.318
 7314SOL     OW22840   0.280   3.350   4.760
 7314SOL    HW122841   0.208   3.370   4.827
 7314SOL    HW222842   0.368   3.380   4.797
 7315SOL     OW22843   0.054   0.082   3.870
 7315SOL    HW122844   0.132   0.144   3.857
 7315SOL    HW222845   6.993   0.131   3.853
 7316SOL     OW22846   3.598   3.630   5.821
 7316SOL    HW122847   3.518   3.650   5.765
 7316SOL    HW222848   3.605   3.532   5.837
 7317SOL     OW22849   3.182   1.084   3.109
 7317SOL    HW122850   3.083   1.091   3.098
 7317SOL    HW222851   3.208   0.989   3.122
 7318SOL     OW22852   1.311   2.351   1.477
 7318SOL    HW122853   1.354   2.402   1.551
 7318SOL    HW222854   1.251   2.281   1.515
 7319SOL     OW22855   6.199   4.416   6.674
 7319SOL    HW122856   6.205   4.516   6.668
 7319SOL    HW222857   6.260   4.375   6.607
 7320SOL     OW22858   0.238   3.332   2.281
 7320SOL    HW122859   0.242   3.430   2.300
 7320SOL    HW222860   0.254   3.282   2.366
 7321SOL     OW22861   2.246   1.464   4.316
 7321SOL    HW122862   2.190   1.498   4.241
 7321SOL    HW222863   2.218   1.508   4.402
 7322SOL     OW22864   0.872   3.965   3.066
 7322SOL    HW122865   0.968   3.985   3.086
 7322SOL    HW222866   0.835   3.904   3.136
 7323SOL     OW22867   1.901   2.496   3.466
 7323SOL    HW122868   1.816   2.451   3.491
 7323SOL    HW222869   1.962   2.499   3.546
 7324SOL     OW22870   6.239   0.884   3.421
 7324SOL    HW122871   6.147   0.900   3.456
 7324SOL    HW222872   6.286   0.972   3.408
 7325SOL     OW22873   3.064   6.794   6.601
 7325SOL    HW122874   3.042   6.747   6.516
 7325SOL    HW222875   3.103   6.729   6.666
 7326SOL     OW22876   2.555   7.016   5.690
 7326SOL    HW122877   2.496   6.945   5.651
 7326SOL    HW222878   2.516   0.024   5.776
 7327SOL     OW22879   1.766   2.720   6.412
 7327SOL    HW122880   1.731   2.727   6.319
 7327SOL    HW222881   1.767   2.811   6.454
 7328SOL     OW22882   2.511   6.773   6.773
 7328SOL    HW122883   2.597   6.748   6.818
 7328SOL    HW222884   2.453   6.692   6.766
 7329SOL     OW22885   4.076   3.595   1.059
 7329SOL    HW122886   4.103   3.517   1.115
 7329SOL    HW222887   4.052   3.564   0.967
 7330SOL     OW22888   3.493   1.321   6.751
 7330SOL    HW122889   3.477   1.408   6.703
 7330SOL    HW222890   3.578   1.328   6.804
 7331SOL     OW22891   4.913   0.668   2.363
 7331SOL    HW122892   4.838   0.649   2.426
 7331SOL    HW222893   4.986   0.716   2.412
 7332SOL     OW22894   3.110   5.644   0.523
 7332SOL    HW122895   3.103   5.546   0.509
 7332SOL    HW222896   3.200   5.676   0.495
 7333SOL     OW22897   1.049   4.766   2.900
 7333SOL    HW122898   0.970   4.816   2.864
 7333SOL    HW222899   1.019   4.706   2.975
 7334SOL     OW22900   3.936   6.005   5.129
 7334SOL    HW122901   3.872   6.037   5.059
 7334SOL    HW222902   3.953   6.079   5.195
 7335SOL     OW22903   1.691   1.804   2.728
 7335SOL    HW122904   1.702   1.728   2.665
 7335SOL    HW222905   1.757   1.795   2.803
 7336SOL     OW22906   2.247   5.993   4.401
 7336SOL    HW122907   2.308   5.982   4.480
 7336SOL    HW222908   2.298   5.977   4.317
 7337SOL     OW22909   0.020   3.176   2.181
 7337SOL    HW122910   0.113   3.205   2.205
 7337SOL    HW222911   6.992   3.256   2.150
 7338SOL     OW22912   6.657   2.222   0.976
 7338SOL    HW122913   6.727   2.154   0.955
 7338SOL    HW222914   6.643   2.224   1.075
 7339SOL     OW22915   6.692   5.610   4.504
 7339SOL    HW122916   6.731   5.539   4.445
 7339SOL    HW222917   6.670   5.571   4.593
 7340SOL     OW22918   2.110   6.737   6.983
 7340SOL    HW122919   2.025   6.723   0.009
 7340SOL    HW222920   2.168   6.803   0.007
 7341SOL     OW22921   6.295   2.517   6.514
 7341SOL    HW122922   6.282   2.594   6.577
 7341SOL    HW222923   6.384   2.474   6.531
 7342SOL     OW22924   0.064   6.704   2.668
 7342SOL    HW122925   0.071   6.682   2.766
 7342SOL    HW222926   0.042   6.621   2.617
 7343SOL     OW22927   5.570   3.645   0.597
 7343SOL    HW122928   5.635   3.614   0.667
 7343SOL    HW222929   5.562   3.745   0.600
 7344SOL     OW22930   1.342   5.825   6.467
 7344SOL    HW122931   1.420   5.885   6.484
 7344SOL    HW222932   1.366   5.761   6.393
 7345SOL     OW22933   3.892   4.431   5.743
 7345SOL    HW122934   3.857   4.452   5.652
 7345SOL    HW222935   3.825   4.459   5.812
 7346SOL     OW22936   4.665   5.069   3.016
 7346SOL    HW122937   4.736   5.052   3.084
 7346SOL    HW222938   4.595   4.998   3.021
 7347SOL     OW22939   6.045   2.446   6.406
 7347SOL    HW122940   6.141   2.472   6.422
 7347SOL    HW222941   5.993   2.526   6.377
 7348SOL     OW22942   1.118   4.371   2.037
 7348SOL    HW122943   1.177   4.423   1.975
 7348SOL    HW222944   1.022   4.391   2.016
 7349SOL     OW22945   3.568   1.289   1.405
 7349SOL    HW122946   3.483   1.274   1.353
 7349SOL    HW222947   3.556   1.257   1.499
 7350SOL     OW22948   3.073   0.691   5.595
 7350SOL    HW122949   2.980   0.655   5.599
 7350SOL    HW222950   3.092   0.724   5.503
 7351SOL     OW22951   3.889   5.039   4.316
 7351SOL    HW122952   3.903   5.137   4.301
 7351SOL    HW222953   3.791   5.018   4.308
 7352SOL     OW22954   0.008   2.731   3.264
 7352SOL    HW122955   0.050   2.640   3.260
 7352SOL    HW222956   6.992   2.752   3.175
 7353SOL     OW22957   6.342   0.355   6.569
 7353SOL    HW122958   6.365   0.390   6.478
 7353SOL    HW222959   6.341   0.431   6.635
 7354SOL     OW22960   1.079   0.982   2.582
 7354SOL    HW122961   1.140   0.936   2.517
 7354SOL    HW222962   1.048   1.069   2.542
 7355SOL     OW22963   0.831   2.036   6.597
 7355SOL    HW122964   0.780   2.114   6.633
 7355SOL    HW222965   0.872   1.985   6.673
 7356SOL     OW22966   4.252   3.615   5.871
 7356SOL    HW122967   4.333   3.668   5.845
 7356SOL    HW222968   4.170   3.664   5.842
 7357SOL     OW22969   5.400   6.114   2.455
 7357SOL    HW122970   5.317   6.060   2.470
 7357SOL    HW222971   5.469   6.058   2.409
 7358SOL     OW22972   5.382   1.708   3.302
 7358SOL    HW122973   5.374   1.610   3.322
 7358SOL    HW222974   5.377   1.722   3.203
 7359SOL     OW22975   4.726   0.111   6.575
 7359SOL    HW122976   4.677   0.189   6.616
 7359SOL    HW222977   4.661   0.054   6.525
 7360SOL     OW22978   2.903   3.221   5.147
 7360SOL    HW122979   2.949   3.150   5.199
 7360SOL    HW222980   2.905   3.198   5.050
 7361SOL     OW22981   5.010   0.554   2.765
 7361SOL    HW122982   5.045   0.647   2.773
 7361SOL    HW222983   5.062   0.492   2.824
 7362SOL     OW22984   3.714   5.525   6.941
 7362SOL    HW122985   3.808   5.491   6.956
 7362SOL    HW222986   3.716   5.623   6.925
 7363SOL     OW22987   3.776   0.212   1.429
 7363SOL    HW122988   3.725   0.138   1.384
 7363SOL    HW222989   3.842   0.250   1.364
 7364SOL     OW22990   5.436   0.057   1.553
 7364SOL    HW122991   5.528   0.092   1.567
 7364SOL    HW222992   5.387   0.116   1.488
 7365SOL     OW22993   5.701   4.985   2.108
 7365SOL    HW122994   5.608   4.980   2.145
 7365SOL    HW222995   5.718   5.078   2.075
 7366SOL     OW22996   1.978   1.244   4.121
 7366SOL    HW122997   1.917   1.173   4.087
 7366SOL    HW222998   2.019   1.215   4.208
 7367SOL     OW22999   4.469   0.601   6.314
 7367SOL    HW123000   4.388   0.660   6.312
 7367SOL    HW223001   4.547   0.650   6.277
 7368SOL     OW23002   4.108   3.466   3.290
 7368SOL    HW123003   4.087   3.562   3.271
 7368SOL    HW223004   4.067   3.408   3.219
 7369SOL     OW23005   6.019   2.312   1.163
 7369SOL    HW123006   5.968   2.334   1.080
 7369SOL    HW223007   5.980   2.230   1.206
 7370SOL     OW23008   2.155   2.073   4.540
 7370SOL    HW123009   2.076   2.056   4.482
 7370SOL    HW223010   2.226   2.122   4.488
 7371SOL     OW23011   3.978   0.517   3.603
 7371SOL    HW123012   4.066   0.554   3.574
 7371SOL    HW223013   3.910   0.529   3.530
 7372SOL     OW23014   4.972   0.188   4.699
 7372SOL    HW123015   4.924   0.271   4.728
 7372SOL    HW223016   4.972   0.183   4.599
 7373SOL     OW23017   5.508   3.148   4.469
 7373SOL    HW123018   5.541   3.096   4.547
 7373SOL    HW223019   5.409   3.135   4.460
 7374SOL     OW23020   6.968   1.899   5.802
 7374SOL    HW123021   6.947   1.857   5.890
 7374SOL    HW223022   6.884   1.935   5.761
 7375SOL     OW23023   1.986   3.200   2.346
 7375SOL    HW123024   2.020   3.120   2.296
 7375SOL    HW223025   1.987   3.182   2.444
 7376SOL     OW23026   0.389   4.030   0.379
 7376SOL    HW123027   0.477   4.074   0.363
 7376SOL    HW223028   0.323   4.064   0.311
 7377SOL     OW23029   3.161   5.988   0.211
 7377SOL    HW123030   3.098   5.928   0.163
 7377SOL    HW223031   3.228   5.933   0.261
 7378SOL     OW23032   1.299   6.030   4.168
 7378SOL    HW123033   1.302   6.128   4.146
 7378SOL    HW223034   1.257   6.018   4.258
 7379SOL     OW23035   4.161   0.778   0.637
 7379SOL    HW123036   4.114   0.694   0.609
 7379SOL    HW223037   4.224   0.756   0.712
 7380SOL     OW23038   5.386   3.383   2.742
 7380SOL    HW123039   5.315   3.425   2.799
 7380SOL    HW223040   5.363   3.396   2.645
 7381SOL     OW23041   3.799   0.928   0.552
 7381SOL    HW123042   3.880   0.955   0.603
 7381SOL    HW223043   3.718   0.972   0.592
 7382SOL     OW23044   6.664   1.214   6.356
 7382SOL    HW123045   6.621   1.232   6.444
 7382SOL    HW223046   6.598   1.171   6.294
 7383SOL     OW23047   2.456   6.560   0.915
 7383SOL    HW123048   2.488   6.499   0.987
 7383SOL    HW223049   2.507   6.544   0.831
 7384SOL     OW23050   0.439   6.957   0.844
 7384SOL    HW123051   0.414   6.969   0.940
 7384SOL    HW223052   0.358   6.933   0.791
 7385SOL     OW23053   5.501   4.702   2.682
 7385SOL    HW123054   5.576   4.767   2.699
 7385SOL    HW223055   5.476   4.657   2.767
 7386SOL     OW23056   6.322   3.820   0.273
 7386SOL    HW123057   6.355   3.728   0.249
 7386SOL    HW223058   6.330   3.833   0.372
 7387SOL     OW23059   6.414   5.555   5.557
 7387SOL    HW123060   6.476   5.590   5.627
 7387SOL    HW223061   6.343   5.501   5.600
 7388SOL     OW23062   1.993   5.579   2.642
 7388SOL    HW123063   2.023   5.667   2.680
 7388SOL    HW223064   2.072   5.532   2.602
 7389SOL     OW23065   5.829   3.483   0.461
 7389SOL    HW123066   5.774   3.446   0.386
 7389SOL    HW223067   5.880   3.408   0.505
 7390SOL     OW23068   2.316   1.792   2.819
 7390SOL    HW123069   2.348   1.868   2.761
 7390SOL    HW223070   2.307   1.709   2.764
 7391SOL     OW23071   3.775   3.351   3.164
 7391SOL    HW123072   3.715   3.272   3.151
 7391SOL    HW223073   3.832   3.336   3.245
 7392SOL     OW23074   3.042   6.124   6.588
 7392SOL    HW123075   3.132   6.168   6.598
 7392SOL    HW223076   2.983   6.151   6.663
 7393SOL     OW23077   5.305   5.637   4.248
 7393SOL    HW123078   5.282   5.695   4.326
 7393SOL    HW223079   5.244   5.658   4.172
 7394SOL     OW23080   1.924   1.873   6.004
 7394SOL    HW123081   1.945   1.901   6.098
 7394SOL    HW223082   1.938   1.951   5.943
 7395SOL     OW23083   3.005   5.540   0.760
 7395SOL    HW123084   2.907   5.533   0.776
 7395SOL    HW223085   3.024   5.616   0.698
 7396SOL     OW23086   2.559   5.085   2.174
 7396SOL    HW123087   2.468   5.092   2.214
 7396SOL    HW223088   2.552   5.061   2.077
 7397SOL     OW23089   5.704   4.009   3.877
 7397SOL    HW123090   5.608   3.988   3.856
 7397SOL    HW223091   5.710   4.052   3.967
 7398SOL     OW23092   2.279   4.259   2.552
 7398SOL    HW123093   2.225   4.176   2.568
 7398SOL    HW223094   2.347   4.241   2.480
 7399SOL     OW23095   5.125   2.172   4.790
 7399SOL    HW123096   5.059   2.247   4.788
 7399SOL    HW223097   5.081   2.090   4.826
 7400SOL     OW23098   5.549   2.879   5.782
 7400SOL    HW123099   5.606   2.958   5.805
 7400SOL    HW223100   5.457   2.910   5.760
 7401SOL     OW23101   1.378   2.891   3.902
 7401SOL    HW123102   1.416   2.954   3.970
 7401SOL    HW223103   1.331   2.816   3.949
 7402SOL     OW23104   3.221   6.295   5.403
 7402SOL    HW123105   3.146   6.230   5.408
 7402SOL    HW223106   3.299   6.261   5.456
 7403SOL     OW23107   1.408   3.231   4.707
 7403SOL    HW123108   1.331   3.265   4.761
 7403SOL    HW223109   1.455   3.308   4.664
 7404SOL     OW23110   3.037   3.888   0.626
 7404SOL    HW123111   2.982   3.964   0.593
 7404SOL    HW223112   3.031   3.812   0.560
 7405SOL     OW23113   3.362   6.446   4.754
 7405SOL    HW123114   3.317   6.519   4.805
 7405SOL    HW223115   3.445   6.418   4.801
 7406SOL     OW23116   1.082   1.105   4.814
 7406SOL    HW123117   1.161   1.150   4.855
 7406SOL    HW223118   1.053   1.029   4.872
 7407SOL     OW23119   0.817   5.576   5.508
 7407SOL    HW123120   0.742   5.620   5.558
 7407SOL    HW223121   0.779   5.513   5.440
 7408SOL     OW23122   3.552   4.291   5.331
 7408SOL    HW123123   3.644   4.296   5.291
 7408SOL    HW223124   3.507   4.379   5.321
 7409SOL     OW23125   6.381   3.872   0.530
 7409SOL    HW123126   6.468   3.890   0.576
 7409SOL    HW223127   6.356   3.776   0.544
 7410SOL     OW23128   0.099   0.210   1.165
 7410SOL    HW123129   0.163   0.287   1.156
 7410SOL    HW223130   0.022   0.238   1.223
 7411SOL     OW23131   1.423   2.264   5.013
 7411SOL    HW123132   1.347   2.267   4.948
 7411SOL    HW223133   1.452   2.169   5.026
 7412SOL     OW23134   4.502   6.543   6.777
 7412SOL    HW123135   4.476   6.511   6.686
 7412SOL    HW223136   4.580   6.489   6.810
 7413SOL     OW23137   4.033   6.636   3.029
 7413SOL    HW123138   4.106   6.675   3.085
 7413SOL    HW223139   4.008   6.547   3.065
 7414SOL     OW23140   2.583   1.864   4.190
 7414SOL    HW123141   2.613   1.817   4.107
 7414SOL    HW223142   2.570   1.797   4.263
 7415SOL     OW23143   3.698   6.425   6.403
 7415SOL    HW123144   3.782   6.460   6.444
 7415SOL    HW223145   3.719   6.384   6.314
 7416SOL     OW23146   1.031   1.437   2.174
 7416SOL    HW123147   0.961   1.441   2.245
 7416SOL    HW223148   0.989   1.454   2.085
 7417SOL     OW23149   0.601   1.456   3.554
 7417SOL    HW123150   0.691   1.494   3.575
 7417SOL    HW223151   0.604   1.356   3.560
 7418SOL     OW23152   1.854   3.897   6.034
 7418SOL    HW123153   1.810   3.808   6.047
 7418SOL    HW223154   1.789   3.961   5.995
 7419SOL     OW23155   6.810   3.641   4.108
 7419SOL    HW123156   6.888   3.689   4.149
 7419SOL    HW223157   6.791   3.680   4.018
 7420SOL     OW23158   6.494   7.004   1.231
 7420SOL    HW123159   6.509   6.957   1.144
 7420SOL    HW223160   6.457   0.071   1.214
 7421SOL     OW23161   4.822   4.010   1.921
 7421SOL    HW123162   4.778   3.986   1.835
 7421SOL    HW223163   4.922   4.003   1.910
 7422SOL     OW23164   5.355   2.235   2.714
 7422SOL    HW123165   5.342   2.142   2.681
 7422SOL    HW223166   5.304   2.248   2.799
 7423SOL     OW23167   5.669   2.029   5.956
 7423SOL    HW123168   5.608   1.954   5.984
 7423SOL    HW223169   5.715   2.066   6.037
 7424SOL     OW23170   1.051   1.881   3.599
 7424SOL    HW123171   1.004   1.811   3.546
 7424SOL    HW223172   0.989   1.957   3.616
 7425SOL     OW23173   5.873   0.564   0.199
 7425SOL    HW123174   5.856   0.662   0.193
 7425SOL    HW223175   5.941   0.546   0.269
 7426SOL     OW23176   3.803   3.269   6.118
 7426SOL    HW123177   3.857   3.211   6.179
 7426SOL    HW223178   3.745   3.211   6.060
 7427SOL     OW23179   3.147   1.196   3.915
 7427SOL    HW123180   3.096   1.110   3.912
 7427SOL    HW223181   3.209   1.201   3.837
 7428SOL     OW23182   4.454   6.042   5.519
 7428SOL    HW123183   4.370   6.078   5.559
 7428SOL    HW223184   4.527   6.111   5.527
 7429SOL     OW23185   1.465   6.700   2.448
 7429SOL    HW123186   1.532   6.768   2.477
 7429SOL    HW223187   1.404   6.678   2.524
 7430SOL     OW23188   6.969   5.382   2.485
 7430SOL    HW123189   6.914   5.299   2.483
 7430SOL    HW223190   6.988   5.408   2.579
 7431SOL     OW23191   1.738   1.667   3.786
 7431SOL    HW123192   1.731   1.749   3.842
 7431SOL    HW223193   1.652   1.653   3.736
 7432SOL     OW23194   2.200   0.040   3.283
 7432SOL    HW123195   2.196   0.015   3.380
 7432SOL    HW223196   2.215   6.983   3.228
 7433SOL     OW23197   2.727   0.086   6.600
 7433SOL    HW123198   2.648   0.135   6.562
 7433SOL    HW223199   2.753   0.012   6.537
 7434SOL     OW23200   3.952   6.412   5.389
 7434SOL    HW123201   4.022   6.483   5.389
 7434SOL    HW223202   3.872   6.444   5.338
 7435SOL     OW23203   4.874   4.942   3.152
 7435SOL    HW123204   4.873   4.913   3.248
 7435SOL    HW223205   4.932   4.880   3.099
 7436SOL     OW23206   5.105   2.814   6.185
 7436SOL    HW123207   5.125   2.858   6.098
 7436SOL    HW223208   5.131   2.717   6.180
 7437SOL     OW23209   3.877   6.607   1.003
 7437SOL    HW123210   3.854   6.510   1.006
 7437SOL    HW223211   3.808   6.659   1.054
 7438SOL     OW23212   2.360   0.535   0.315
 7438SOL    HW123213   2.339   0.631   0.297
 7438SOL    HW223214   2.315   0.478   0.246
 7439SOL     OW23215   1.193   4.388   6.032
 7439SOL    HW123216   1.116   4.356   5.977
 7439SOL    HW223217   1.171   4.377   6.129
 7440SOL     OW23218   5.451   3.720   4.352
 7440SOL    HW123219   5.463   3.684   4.444
 7440SOL    HW223220   5.400   3.806   4.356
 7441SOL     OW23221   5.848   5.825   1.420
 7441SOL    HW123222   5.854   5.915   1.376
 7441SOL    HW223223   5.939   5.783   1.421
 7442SOL     OW23224   5.218   1.256   5.435
 7442SOL    HW123225   5.207   1.245   5.534
 7442SOL    HW223226   5.159   1.190   5.388
 7443SOL     OW23227   0.082   0.469   1.990
 7443SOL    HW123228   0.026   0.549   2.013
 7443SOL    HW223229   0.114   0.478   1.895
 7444SOL     OW23230   1.576   6.230   6.807
 7444SOL    HW123231   1.546   6.299   6.742
 7444SOL    HW223232   1.625   6.274   6.882
 7445SOL     OW23233   4.732   6.354   1.141
 7445SOL    HW123234   4.743   6.269   1.090
 7445SOL    HW223235   4.679   6.419   1.086
 7446SOL     OW23236   5.425   3.946   0.189
 7446SOL    HW123237   5.496   3.915   0.253
 7446SOL    HW223238   5.442   4.041   0.165
 7447SOL     OW23239   0.698   4.606   1.109
 7447SOL    HW123240   0.756   4.649   1.178
 7447SOL    HW223241   0.705   4.657   1.024
 7448SOL     OW23242   4.609   5.171   6.510
 7448SOL    HW123243   4.650   5.237   6.573
 7448SOL    HW223244   4.665   5.164   6.428
 7449SOL     OW23245   0.602   4.391   6.814
 7449SOL    HW123246   0.701   4.378   6.812
 7449SOL    HW223247   0.567   4.361   6.903
 7450SOL     OW23248   5.366   2.223   4.901
 7450SOL    HW123249   5.395   2.137   4.941
 7450SOL    HW223250   5.271   2.214   4.868
 7451SOL     OW23251   5.374   4.887   3.441
 7451SOL    HW123252   5.286   4.881   3.394
 7451SOL    HW223253   5.416   4.975   3.420
 7452SOL     OW23254   6.188   5.407   5.360
 7452SOL    HW123255   6.220   5.492   5.318
 7452SOL    HW223256   6.258   5.336   5.349
 7453SOL     OW23257   3.902   6.204   6.306
 7453SOL    HW123258   3.816   6.164   6.338
 7453SOL    HW223259   3.976   6.139   6.322
 7454SOL     OW23260   4.032   2.403   0.893
 7454SOL    HW123261   4.124   2.418   0.858
 7454SOL    HW223262   4.023   2.443   0.984
 7455SOL     OW23263   6.674   3.014   3.535
 7455SOL    HW123264   6.585   3.040   3.497
 7455SOL    HW223265   6.667   3.011   3.635
 7456SOL     OW23266   3.240   2.191   5.673
 7456SOL    HW123267   3.230   2.284   5.638
 7456SOL    HW223268   3.174   2.131   5.628
 7457SOL     OW23269   2.589   0.107   2.806
 7457SOL    HW123270   2.688   0.113   2.815
 7457SOL    HW223271   2.550   0.199   2.802
 7458SOL     OW23272   1.494   5.279   5.519
 7458SOL    HW123273   1.481   5.195   5.466
 7458SOL    HW223274   1.430   5.282   5.595
 7459SOL     OW23275   5.908   0.641   2.730
 7459SOL    HW123276   5.870   0.599   2.813
 7459SOL    HW223277   5.902   0.576   2.654
 7460SOL     OW23278   1.667   6.642   1.153
 7460SOL    HW123279   1.648   6.583   1.074
 7460SOL    HW223280   1.766   6.642   1.171
 7461SOL     OW23281   1.509   5.311   6.369
 7461SOL    HW123282   1.443   5.255   6.420
 7461SOL    HW223283   1.547   5.257   6.294
 7462SOL     OW23284   1.281   4.848   0.574
 7462SOL    HW123285   1.275   4.900   0.489
 7462SOL    HW223286   1.203   4.786   0.582
 7463SOL     OW23287   3.492   5.141   1.194
 7463SOL    HW123288   3.421   5.210   1.207
 7463SOL    HW223289   3.499   5.085   1.276
 7464SOL     OW23290   6.319   5.930   5.609
 7464SOL    HW123291   6.417   5.916   5.595
 7464SOL    HW223292   6.294   5.903   5.702
 7465SOL     OW23293   1.628   5.095   0.480
 7465SOL    HW123294   1.552   5.120   0.540
 7465SOL    HW223295   1.674   5.178   0.449
 7466SOL     OW23296   0.651   6.722   4.896
 7466SOL    HW123297   0.601   6.778   4.829
 7466SOL    HW223298   0.736   6.690   4.855
 7467SOL     OW23299   0.194   2.748   6.022
 7467SOL    HW123300   0.218   2.845   6.021
 7467SOL    HW223301   0.249   2.699   5.954
 7468SOL     OW23302   5.884   3.809   5.922
 7468SOL    HW123303   5.897   3.906   5.902
 7468SOL    HW223304   5.889   3.756   5.837
 7469SOL     OW23305   6.327   2.210   1.402
 7469SOL    HW123306   6.244   2.199   1.456
 7469SOL    HW223307   6.309   2.186   1.307
 7470SOL     OW23308   5.864   2.999   3.866
 7470SOL    HW123309   5.902   3.090   3.849
 7470SOL    HW223310   5.933   2.942   3.912
 7471SOL     OW23311   4.618   6.367   5.794
 7471SOL    HW123312   4.632   6.306   5.716
 7471SOL    HW223313   4.629   6.315   5.879
 7472SOL     OW23314   6.000   6.166   5.425
 7472SOL    HW123315   6.087   6.183   5.471
 7472SOL    HW223316   5.994   6.069   5.399
 7473SOL     OW23317   4.325   5.888   4.004
 7473SOL    HW123318   4.263   5.832   3.949
 7473SOL    HW223319   4.419   5.876   3.972
 7474SOL     OW23320   6.126   2.019   5.697
 7474SOL    HW123321   6.198   2.019   5.767
 7474SOL    HW223322   6.165   1.987   5.610
 7475SOL     OW23323   4.610   2.752   0.453
 7475SOL    HW123324   4.631   2.730   0.358
 7475SOL    HW223325   4.541   2.824   0.457
 7476SOL     OW23326   1.547   0.704   2.616
 7476SOL    HW123327   1.645   0.687   2.606
 7476SOL    HW223328   1.502   0.693   2.527
 7477SOL     OW23329   0.807   4.391   4.860
 7477SOL    HW123330   0.886   4.331   4.852
 7477SOL    HW223331   0.736   4.362   4.795
 7478SOL     OW23332   0.727   0.715   5.502
 7478SOL    HW123333   0.804   0.763   5.543
 7478SOL    HW223334   0.642   0.746   5.545
 7479SOL     OW23335   5.908   3.193   0.259
 7479SOL    HW123336   5.816   3.154   0.250
 7479SOL    HW223337   5.974   3.120   0.276
 7480SOL     OW23338   3.548   5.055   2.674
 7480SOL    HW123339   3.466   5.020   2.628
 7480SOL    HW223340   3.520   5.115   2.749
 7481SOL     OW23341   0.351   4.086   6.407
 7481SOL    HW123342   0.392   4.154   6.467
 7481SOL    HW223343   0.423   4.030   6.366
 7482SOL     OW23344   4.078   1.989   2.715
 7482SOL    HW123345   4.088   1.915   2.782
 7482SOL    HW223346   4.150   1.981   2.646
 7483SOL     OW23347   5.076   2.389   5.682
 7483SOL    HW123348   5.000   2.451   5.664
 7483SOL    HW223349   5.126   2.372   5.597
 7484SOL     OW23350   3.362   6.869   4.128
 7484SOL    HW123351   3.342   6.907   4.218
 7484SOL    HW223352   3.446   6.815   4.133
 7485SOL     OW23353   3.186   0.053   5.276
 7485SOL    HW123354   3.152   0.139   5.237
 7485SOL    HW223355   3.133   0.030   5.357
 7486SOL     OW23356   2.648   6.626   1.402
 7486SOL    HW123357   2.698   6.561   1.460
 7486SOL    HW223358   2.630   6.710   1.454
 7487SOL     OW23359   4.372   6.837   4.310
 7487SOL    HW123360   4.395   6.753   4.260
 7487SOL    HW223361   4.278   6.864   4.287
 7488SOL     OW23362   1.076   5.894   3.869
 7488SOL    HW123363   1.115   5.815   3.917
 7488SOL    HW223364   0.982   5.874   3.844
 7489SOL     OW23365   5.753   3.094   6.550
 7489SOL    HW123366   5.769   3.151   6.631
 7489SOL    HW223367   5.667   3.120   6.507
 7490SOL     OW23368   1.192   2.174   2.144
 7490SOL    HW123369   1.250   2.114   2.089
 7490SOL    HW223370   1.244   2.254   2.173
 7491SOL     OW23371   4.228   2.910   6.894
 7491SOL    HW123372   4.287   2.926   6.973
 7491SOL    HW223373   4.140   2.957   6.908
 7492SOL     OW23374   1.560   0.308   4.240
 7492SOL    HW123375   1.635   0.330   4.302
 7492SOL    HW223376   1.497   0.245   4.284
 7493SOL     OW23377   6.886   4.031   5.082
 7493SOL    HW123378   6.884   4.128   5.108
 7493SOL    HW223379   6.890   3.975   5.164
 7494SOL     OW23380   6.266   0.734   2.416
 7494SOL    HW123381   6.227   0.749   2.325
 7494SOL    HW223382   6.315   0.816   2.445
 7495SOL     OW23383   1.390   3.478   5.492
 7495SOL    HW123384   1.384   3.568   5.535
 7495SOL    HW223385   1.476   3.434   5.518
 7496SOL     OW23386   5.812   4.616   2.432
 7496SOL    HW123387   5.740   4.552   2.458
 7496SOL    HW223388   5.884   4.616   2.501
 7497SOL     OW23389   0.205   6.436   0.298
 7497SOL    HW123390   0.236   6.379   0.222
 7497SOL    HW223391   0.129   6.392   0.345
 7498SOL     OW23392   2.838   6.586   3.021
 7498SOL    HW123393   2.895   6.668   3.025
 7498SOL    HW223394   2.819   6.563   2.926
 7499SOL     OW23395   3.712   2.150   3.849
 7499SOL    HW123396   3.734   2.100   3.766
 7499SOL    HW223397   3.795   2.194   3.884
 7500SOL     OW23398   3.633   6.771   3.063
 7500SOL    HW123399   3.730   6.796   3.065
 7500SOL    HW223400   3.600   6.759   3.157
 7501SOL     OW23401   6.143   2.317   5.027
 7501SOL    HW123402   6.110   2.330   5.121
 7501SOL    HW223403   6.211   2.244   5.026
 7502SOL     OW23404   4.329   0.746   4.555
 7502SOL    HW123405   4.315   0.743   4.456
 7502SOL    HW223406   4.338   0.841   4.584
 7503SOL     OW23407   1.696   6.519   1.658
 7503SOL    HW123408   1.739   6.608   1.675
 7503SOL    HW223409   1.720   6.488   1.566
 7504SOL     OW23410   6.113   6.599   4.019
 7504SOL    HW123411   6.059   6.671   3.976
 7504SOL    HW223412   6.161   6.636   4.099
 7505SOL     OW23413   0.800   6.429   5.149
 7505SOL    HW123414   0.705   6.453   5.129
 7505SOL    HW223415   0.849   6.511   5.180
 7506SOL     OW23416   3.063   2.149   3.081
 7506SOL    HW123417   2.998   2.076   3.102
 7506SOL    HW223418   3.122   2.121   3.005
 7507SOL     OW23419   6.443   4.006   5.098
 7507SOL    HW123420   6.383   3.927   5.084
 7507SOL    HW223421   6.403   4.065   5.169
 7508SOL     OW23422   2.598   5.732   6.814
 7508SOL    HW123423   2.596   5.830   6.794
 7508SOL    HW223424   2.585   5.718   6.912
 7509SOL     OW23425   6.000   4.502   0.888
 7509SOL    HW123426   6.090   4.460   0.886
 7509SOL    HW223427   5.953   4.476   0.973
 7510SOL     OW23428   3.714   3.425   3.711
 7510SOL    HW123429   3.724   3.464   3.803
 7510SOL    HW223430   3.617   3.419   3.688
 7511SOL     OW23431   3.951   6.488   3.674
 7511SOL    HW123432   4.043   6.480   3.636
 7511SOL    HW223433   3.884   6.462   3.605
 7512SOL     OW23434   3.710   0.465   6.507
 7512SOL    HW123435   3.736   0.477   6.603
 7512SOL    HW223436   3.792   0.455   6.451
 7513SOL     OW23437   1.110   1.998   2.507
 7513SOL    HW123438   1.083   1.945   2.588
 7513SOL    HW223439   1.203   1.971   2.480
 7514SOL     OW23440   1.286   4.003   1.746
 7514SOL    HW123441   1.199   3.955   1.760
 7514SOL    HW223442   1.330   4.018   1.834
 7515SOL     OW23443   0.107   5.012   4.688
 7515SOL    HW123444   0.116   4.990   4.590
 7515SOL    HW223445   0.142   5.104   4.705
 7516SOL     OW23446   1.536   6.471   4.982
 7516SOL    HW123447   1.552   6.377   5.015
 7516SOL    HW223448   1.602   6.532   5.024
 7517SOL     OW23449   0.516   1.405   6.677
 7517SOL    HW123450   0.511   1.398   6.578
 7517SOL    HW223451   0.506   1.314   6.718
 7518SOL     OW23452   4.655   2.576   3.325
 7518SOL    HW123453   4.608   2.523   3.254
 7518SOL    HW223454   4.724   2.634   3.283
 7519SOL     OW23455   3.799   6.118   4.464
 7519SOL    HW123456   3.861   6.079   4.532
 7519SOL    HW223457   3.731   6.175   4.509
 7520SOL     OW23458   1.574   2.426   0.853
 7520SOL    HW123459   1.639   2.451   0.924
 7520SOL    HW223460   1.564   2.326   0.850
 7521SOL     OW23461   3.655   1.653   5.260
 7521SOL    HW123462   3.649   1.697   5.350
 7521SOL    HW223463   3.564   1.619   5.234
 7522SOL     OW23464   2.293   0.005   3.543
 7522SOL    HW123465   2.235   7.010   3.622
 7522SOL    HW223466   2.366   6.962   3.537
 7523SOL     OW23467   5.556   1.076   0.176
 7523SOL    HW123468   5.563   1.020   0.093
 7523SOL    HW223469   5.470   1.057   0.223
 7524SOL     OW23470   0.143   3.194   4.393
 7524SOL    HW123471   0.179   3.196   4.486
 7524SOL    HW223472   0.046   3.171   4.395
 7525SOL     OW23473   4.707   5.789   6.586
 7525SOL    HW123474   4.800   5.790   6.550
 7525SOL    HW223475   4.643   5.814   6.513
 7526SOL     OW23476   2.459   3.349   1.626
 7526SOL    HW123477   2.392   3.330   1.697
 7526SOL    HW223478   2.479   3.447   1.625
 7527SOL     OW23479   4.084   4.817   3.597
 7527SOL    HW123480   4.170   4.795   3.550
 7527SOL    HW223481   4.026   4.736   3.600
 7528SOL     OW23482   6.252   3.335   6.633
 7528SOL    HW123483   6.231   3.287   6.718
 7528SOL    HW223484   6.211   3.427   6.636
 7529SOL     OW23485   5.909   3.041   4.316
 7529SOL    HW123486   5.931   3.065   4.410
 7529SOL    HW223487   5.858   2.955   4.315
 7530SOL     OW23488   6.971   1.963   1.842
 7530SOL    HW123489   6.917   1.897   1.895
 7530SOL    HW223490   6.962   2.054   1.883
 7531SOL     OW23491   4.204   2.000   3.372
 7531SOL    HW123492   4.284   2.021   3.315
 7531SOL    HW223493   4.132   2.066   3.352
 7532SOL     OW23494   4.716   5.446   6.589
 7532SOL    HW123495   4.769   5.453   6.505
 7532SOL    HW223496   4.628   5.491   6.577
 7533SOL     OW23497   4.651   4.203   1.399
 7533SOL    HW123498   4.646   4.234   1.304
 7533SOL    HW223499   4.641   4.281   1.461
 7534SOL     OW23500   4.286   0.326   4.590
 7534SOL    HW123501   4.225   0.264   4.541
 7534SOL    HW223502   4.233   0.400   4.630
 7535SOL     OW23503   0.653   5.646   3.736
 7535SOL    HW123504   0.604   5.640   3.649
 7535SOL    HW223505   0.709   5.564   3.749
 7536SOL     OW23506   4.965   6.254   4.919
 7536SOL    HW123507   4.907   6.312   4.861
 7536SOL    HW223508   4.910   6.219   4.995
 7537SOL     OW23509   2.892   6.429   3.444
 7537SOL    HW123510   2.984   6.435   3.481
 7537SOL    HW223511   2.831   6.488   3.496
 7538SOL     OW23512   0.688   3.868   0.882
 7538SOL    HW123513   0.706   3.949   0.938
 7538SOL    HW223514   0.712   3.887   0.787
 7539SOL     OW23515   0.500   6.595   3.721
 7539SOL    HW123516   0.404   6.590   3.750
 7539SOL    HW223517   0.504   6.596   3.621
 7540SOL     OW23518   6.435   5.357   2.665
 7540SOL    HW123519   6.373   5.316   2.598
 7540SOL    HW223520   6.450   5.453   2.641
 7541SOL     OW23521   1.532   4.481   7.006
 7541SOL    HW123522   1.478   4.397   7.005
 7541SOL    HW223523   1.469   4.560   7.011
 7542SOL     OW23524   5.930   5.918   5.337
 7542SOL    HW123525   5.928   5.831   5.387
 7542SOL    HW223526   5.966   5.903   5.245
 7543SOL     OW23527   2.484   1.047   6.781
 7543SOL    HW123528   2.473   1.140   6.747
 7543SOL    HW223529   2.514   1.049   6.876
 7544SOL     OW23530   6.672   2.721   4.245
 7544SOL    HW123531   6.657   2.647   4.311
 7544SOL    HW223532   6.741   2.784   4.281
 7545SOL     OW23533   0.931   4.974   6.480
 7545SOL    HW123534   0.897   5.019   6.563
 7545SOL    HW223535   0.884   4.887   6.469
 7546SOL     OW23536   2.731   2.870   1.442
 7546SOL    HW123537   2.704   2.961   1.474
 7546SOL    HW223538   2.710   2.802   1.513
 7547SOL     OW23539   4.982   0.390   1.672
 7547SOL    HW123540   4.961   0.293   1.662
 7547SOL    HW223541   4.897   0.440   1.692
 7548SOL     OW23542   3.784   2.081   6.464
 7548SOL    HW123543   3.796   2.161   6.521
 7548SOL    HW223544   3.762   2.001   6.521
 7549SOL     OW23545   5.103   2.295   4.072
 7549SOL    HW123546   5.051   2.333   3.995
 7549SOL    HW223547   5.170   2.363   4.103
 7550SOL     OW23548   2.520   4.514   4.597
 7550SOL    HW123549   2.448   4.473   4.653
 7550SOL    HW223550   2.567   4.585   4.650
 7551SOL     OW23551   6.004   2.570   6.041
 7551SOL    HW123552   6.045   2.655   6.007
 7551SOL    HW223553   5.959   2.587   6.129
 7552SOL     OW23554   2.786   5.939   5.245
 7552SOL    HW123555   2.845   6.019   5.248
 7552SOL    HW223556   2.744   5.931   5.155
 7553SOL     OW23557   5.936   6.458   6.118
 7553SOL    HW123558   6.031   6.459   6.149
 7553SOL    HW223559   5.892   6.545   6.138
 7554SOL     OW23560   4.921   0.932   1.124
 7554SOL    HW123561   4.955   0.840   1.103
 7554SOL    HW223562   4.996   0.987   1.161
 7555SOL     OW23563   3.757   4.768   5.333
 7555SOL    HW123564   3.676   4.748   5.277
 7555SOL    HW223565   3.728   4.816   5.416
 7556SOL     OW23566   0.469   6.550   0.722
 7556SOL    HW123567   0.410   6.616   0.769
 7556SOL    HW223568   0.430   6.458   0.731
 7557SOL     OW23569   4.832   0.250   0.122
 7557SOL    HW123570   4.904   0.222   0.185
 7557SOL    HW223571   4.804   0.344   0.143
 7558SOL     OW23572   1.554   1.659   4.367
 7558SOL    HW123573   1.502   1.692   4.288
 7558SOL    HW223574   1.606   1.734   4.407
 7559SOL     OW23575   3.328   1.330   4.790
 7559SOL    HW123576   3.384   1.412   4.781
 7559SOL    HW223577   3.265   1.341   4.867
 7560SOL     OW23578   0.662   1.117   5.357
 7560SOL    HW123579   0.580   1.151   5.310
 7560SOL    HW223580   0.700   1.189   5.414
 7561SOL     OW23581   5.802   2.244   5.211
 7561SOL    HW123582   5.834   2.192   5.131
 7561SOL    HW223583   5.878   2.298   5.247
 7562SOL     OW23584   1.339   5.180   3.996
 7562SOL    HW123585   1.425   5.133   4.013
 7562SOL    HW223586   1.315   5.172   3.899
 7563SOL     OW23587   3.308   5.218   2.443
 7563SOL    HW123588   3.224   5.245   2.396
 7563SOL    HW223589   3.288   5.143   2.506
 7564SOL     OW23590   3.928   1.904   5.132
 7564SOL    HW123591   3.880   1.932   5.215
 7564SOL    HW223592   4.023   1.882   5.153
 7565SOL     OW23593   6.130   4.113   6.324
 7565SOL    HW123594   6.129   4.019   6.358
 7565SOL    HW223595   6.188   4.118   6.243
 7566SOL     OW23596   4.458   4.514   1.178
 7566SOL    HW123597   4.465   4.512   1.278
 7566SOL    HW223598   4.532   4.459   1.139
 7567SOL     OW23599   1.733   0.628   4.595
 7567SOL    HW123600   1.829   0.612   4.570
 7567SOL    HW223601   1.728   0.703   4.661
 7568SOL     OW23602   5.996   5.239   1.783
 7568SOL    HW123603   5.948   5.300   1.846
 7568SOL    HW223604   5.982   5.144   1.811
 7569SOL     OW23605   4.447   3.854   0.240
 7569SOL    HW123606   4.376   3.828   0.305
 7569SOL    HW223607   4.407   3.872   0.151
 7570SOL     OW23608   0.283   2.572   2.692
 7570SOL    HW123609   0.299   2.671   2.684
 7570SOL    HW223610   0.196   2.549   2.651
 7571SOL     OW23611   4.415   1.999   3.192
 7571SOL    HW123612   4.485   1.948   3.242
 7571SOL    HW223613   4.436   1.998   3.095
 7572SOL     OW23614   4.380   6.924   2.581
 7572SOL    HW123615   4.426   6.974   2.507
 7572SOL    HW223616   4.317   6.985   2.629
 7573SOL     OW23617   5.141   6.572   5.423
 7573SOL    HW123618   5.163   6.639   5.352
 7573SOL    HW223619   5.226   6.535   5.462
 7574SOL     OW23620   0.431   1.567   3.747
 7574SOL    HW123621   0.361   1.553   3.818
 7574SOL    HW223622   0.417   1.500   3.674
 7575SOL     OW23623   6.952   6.951   1.865
 7575SOL    HW123624   6.969   6.952   1.963
 7575SOL    HW223625   6.982   0.013   1.824
 7576SOL     OW23626   5.578   3.107   0.867
 7576SOL    HW123627   5.664   3.157   0.872
 7576SOL    HW223628   5.596   3.011   0.845
 7577SOL     OW23629   1.557   6.928   0.879
 7577SOL    HW123630   1.516   6.951   0.967
 7577SOL    HW223631   1.607   7.007   0.844
 7578SOL     OW23632   6.887   5.749   3.311
 7578SOL    HW123633   6.933   5.804   3.241
 7578SOL    HW223634   6.956   5.699   3.364
 7579SOL     OW23635   0.344   1.113   0.179
 7579SOL    HW123636   0.271   1.084   0.241
 7579SOL    HW223637   0.382   1.200   0.210
 7580SOL     OW23638   2.268   4.782   3.478
 7580SOL    HW123639   2.365   4.781   3.456
 7580SOL    HW223640   2.255   4.780   3.577
 7581SOL     OW23641   6.900   1.013   2.631
 7581SOL    HW123642   6.887   1.112   2.622
 7581SOL    HW223643   6.881   0.985   2.725
 7582SOL     OW23644   3.061   1.529   5.749
 7582SOL    HW123645   3.111   1.553   5.833
 7582SOL    HW223646   3.040   1.612   5.698
 7583SOL     OW23647   5.066   3.239   2.292
 7583SOL    HW123648   5.034   3.244   2.386
 7583SOL    HW223649   5.014   3.170   2.242
 7584SOL     OW23650   0.035   1.216   3.400
 7584SOL    HW123651   0.027   1.247   3.494
 7584SOL    HW223652   6.986   1.151   3.380
 7585SOL     OW23653   1.330   1.103   0.118
 7585SOL    HW123654   1.309   1.007   0.098
 7585SOL    HW223655   1.339   1.115   0.217
 7586SOL     OW23656   0.982   1.262   2.539
 7586SOL    HW123657   0.957   1.333   2.473
 7586SOL    HW223658   0.959   1.293   2.631
 7587SOL     OW23659   3.549   0.561   1.078
 7587SOL    HW123660   3.593   0.476   1.107
 7587SOL    HW223661   3.455   0.541   1.051
 7588SOL     OW23662   1.684   2.481   4.378
 7588SOL    HW123663   1.699   2.580   4.383
 7588SOL    HW223664   1.773   2.435   4.379
 7589SOL     OW23665   0.316   0.816   3.192
 7589SOL    HW123666   0.233   0.857   3.230
 7589SOL    HW223667   0.366   0.769   3.265
 7590SOL     OW23668   6.959   1.261   6.957
 7590SOL    HW123669   0.034   1.249   6.952
 7590SOL    HW223670   6.934   1.298   0.022
 7591SOL     OW23671   4.112   3.177   5.325
 7591SOL    HW123672   4.037   3.203   5.385
 7591SOL    HW223673   4.103   3.223   5.237
 7592SOL     OW23674   0.089   6.402   5.148
 7592SOL    HW123675   0.026   6.411   5.072
 7592SOL    HW223676   0.040   6.412   5.234
 7593SOL     OW23677   1.185   1.191   6.083
 7593SOL    HW123678   1.150   1.276   6.123
 7593SOL    HW223679   1.244   1.212   6.005
 7594SOL     OW23680   0.184   4.696   6.942
 7594SOL    HW123681   0.229   4.612   6.913
 7594SOL    HW223682   0.085   4.687   6.931
 7595SOL     OW23683   0.433   3.027   6.196
 7595SOL    HW123684   0.345   3.041   6.151
 7595SOL    HW223685   0.432   3.072   6.286
 7596SOL     OW23686   3.167   1.069   5.549
 7596SOL    HW123687   3.240   1.015   5.507
 7596SOL    HW223688   3.110   1.109   5.477
 7597SOL     OW23689   2.074   4.422   2.234
 7597SOL    HW123690   2.087   4.472   2.319
 7597SOL    HW223691   2.160   4.378   2.208
 7598SOL     OW23692   6.483   1.271   2.976
 7598SOL    HW123693   6.390   1.234   2.973
 7598SOL    HW223694   6.489   1.342   3.046
 7599SOL     OW23695   3.441   3.471   0.701
 7599SOL    HW123696   3.428   3.478   0.800
 7599SOL    HW223697   3.537   3.452   0.681
 7600SOL     OW23698   1.467   6.852   4.702
 7600SOL    HW123699   1.427   6.934   4.744
 7600SOL    HW223700   1.399   6.809   4.643
 7601SOL     OW23701   3.242   6.285   2.544
 7601SOL    HW123702   3.289   6.276   2.457
 7601SOL    HW223703   3.307   6.313   2.615
 7602SOL     OW23704   0.126   1.300   0.485
 7602SOL    HW123705   0.095   1.375   0.427
 7602SOL    HW223706   0.050   1.269   0.542
 7603SOL     OW23707   3.363   0.190   5.516
 7603SOL    HW123708   3.338   0.279   5.554
 7603SOL    HW223709   3.285   0.127   5.526
 7604SOL     OW23710   0.615   2.292   5.119
 7604SOL    HW123711   0.568   2.245   5.194
 7604SOL    HW223712   0.551   2.308   5.044
 7605SOL     OW23713   2.168   6.811   0.449
 7605SOL    HW123714   2.166   6.798   0.548
 7605SOL    HW223715   2.173   6.909   0.428
 7606SOL     OW23716   6.628   1.515   3.111
 7606SOL    HW123717   6.547   1.571   3.121
 7606SOL    HW223718   6.710   1.571   3.123
 7607SOL     OW23719   2.570   6.191   5.731
 7607SOL    HW123720   2.650   6.210   5.788
 7607SOL    HW223721   2.490   6.236   5.770
 7608SOL     OW23722   5.727   2.803   6.139
 7608SOL    HW123723   5.646   2.768   6.092
 7608SOL    HW223724   5.742   2.899   6.113
 7609SOL     OW23725   0.599   1.744   4.728
 7609SOL    HW123726   0.665   1.749   4.653
 7609SOL    HW223727   0.642   1.776   4.812
 7610SOL     OW23728   3.989   5.047   5.158
 7610SOL    HW123729   4.042   4.971   5.120
 7610SOL    HW223730   3.895   5.043   5.123
 7611SOL     OW23731   4.956   3.575   0.709
 7611SOL    HW123732   4.906   3.643   0.657
 7611SOL    HW223733   5.026   3.533   0.651
 7612SOL     OW23734   3.171   1.736   3.215
 7612SOL    HW123735   3.089   1.789   3.194
 7612SOL    HW223736   3.251   1.780   3.175
 7613SOL     OW23737   0.592   1.230   1.908
 7613SOL    HW123738   0.531   1.304   1.880
 7613SOL    HW223739   0.597   1.161   1.836
 7614SOL     OW23740   4.558   3.918   0.712
 7614SOL    HW123741   4.476   3.885   0.758
 7614SOL    HW223742   4.630   3.935   0.779
 7615SOL     OW23743   5.879   3.658   4.977
 7615SOL    HW123744   5.800   3.615   4.934
 7615SOL    HW223745   5.963   3.626   4.933
 7616SOL     OW23746   6.840   0.284   3.263
 7616SOL    HW123747   6.810   0.306   3.356
 7616SOL    HW223748   6.841   0.367   3.207
 7617SOL     OW23749   5.189   5.064   3.847
 7617SOL    HW123750   5.219   4.971   3.869
 7617SOL    HW223751   5.200   5.123   3.927
 7618SOL     OW23752   2.526   2.378   0.383
 7618SOL    HW123753   2.581   2.460   0.368
 7618SOL    HW223754   2.447   2.401   0.440
 7619SOL     OW23755   1.044   1.650   4.398
 7619SOL    HW123756   0.945   1.634   4.404
 7619SOL    HW223757   1.093   1.568   4.428
 7620SOL     OW23758   4.110   4.366   1.243
 7620SOL    HW123759   4.202   4.334   1.222
 7620SOL    HW223760   4.047   4.289   1.241
 7621SOL     OW23761   6.164   4.169   0.117
 7621SOL    HW123762   6.247   4.155   0.170
 7621SOL    HW223763   6.186   4.222   0.035
 7622SOL     OW23764   3.145   3.812   1.402
 7622SOL    HW123765   3.095   3.773   1.325
 7622SOL    HW223766   3.091   3.803   1.486
 7623SOL     OW23767   4.767   4.620   0.689
 7623SOL    HW123768   4.816   4.638   0.774
 7623SOL    HW223769   4.829   4.573   0.625
 7624SOL     OW23770   0.547   3.021   2.337
 7624SOL    HW123771   0.495   3.044   2.419
 7624SOL    HW223772   0.616   3.091   2.319
 7625SOL     OW23773   5.577   0.764   1.036
 7625SOL    HW123774   5.577   0.824   0.956
 7625SOL    HW223775   5.671   0.749   1.066
 7626SOL     OW23776   4.766   1.294   5.261
 7626SOL    HW123777   4.730   1.387   5.255
 7626SOL    HW223778   4.765   1.264   5.356
 7627SOL     OW23779   3.998   2.614   6.803
 7627SOL    HW123780   4.055   2.549   6.753
 7627SOL    HW223781   4.040   2.633   6.892
 7628SOL     OW23782   3.508   2.677   0.237
 7628SOL    HW123783   3.504   2.726   0.150
 7628SOL    HW223784   3.416   2.645   0.260
 7629SOL     OW23785   6.285   3.215   3.601
 7629SOL    HW123786   6.187   3.231   3.588
 7629SOL    HW223787   6.313   3.137   3.545
 7630SOL     OW23788   1.224   6.483   5.303
 7630SOL    HW123789   1.297   6.541   5.338
 7630SOL    HW223790   1.137   6.530   5.311
 7631SOL     OW23791   1.391   0.457   5.859
 7631SOL    HW123792   1.325   0.526   5.890
 7631SOL    HW223793   1.391   0.380   5.923
 7632SOL     OW23794   5.053   5.984   0.496
 7632SOL    HW123795   5.131   5.931   0.462
 7632SOL    HW223796   4.969   5.932   0.481
 7633SOL     OW23797   6.463   1.347   1.326
 7633SOL    HW123798   6.512   1.432   1.349
 7633SOL    HW223799   6.384   1.337   1.387
 7634SOL     OW23800   6.778   2.223   0.379
 7634SOL    HW123801   6.700   2.285   0.379
 7634SOL    HW223802   6.862   2.276   0.367
 7635SOL     OW23803   2.321   3.966   5.609
 7635SOL    HW123804   2.342   4.001   5.701
 7635SOL    HW223805   2.406   3.940   5.563
 7636SOL     OW23806   0.202   3.969   4.269
 7636SOL    HW123807   0.182   3.984   4.365
 7636SOL    HW223808   0.183   4.053   4.217
 7637SOL     OW23809   0.610   6.391   4.308
 7637SOL    HW123810   0.531   6.380   4.248
 7637SOL    HW223811   0.639   6.487   4.308
 7638SOL     OW23812   0.445   6.166   1.640
 7638SOL    HW123813   0.429   6.174   1.542
 7638SOL    HW223814   0.537   6.200   1.662
 7639SOL     OW23815   1.819   0.619   6.846
 7639SOL    HW123816   1.823   0.646   6.942
 7639SOL    HW223817   1.897   0.657   6.797
 7640SOL     OW23818   3.080   0.783   0.364
 7640SOL    HW123819   3.152   0.845   0.332
 7640SOL    HW223820   3.032   0.744   0.285
 7641SOL     OW23821   0.426   4.288   3.583
 7641SOL    HW123822   0.407   4.234   3.665
 7641SOL    HW223823   0.355   4.271   3.515
 7642SOL     OW23824   5.831   1.143   3.312
 7642SOL    HW123825   5.737   1.148   3.347
 7642SOL    HW223826   5.872   1.234   3.314
 7643SOL     OW23827   5.347   3.633   3.021
 7643SOL    HW123828   5.345   3.643   3.121
 7643SOL    HW223829   5.440   3.614   2.991
 7644SOL     OW23830   5.441   3.656   1.080
 7644SOL    HW123831   5.396   3.624   0.997
 7644SOL    HW223832   5.528   3.608   1.091
 7645SOL     OW23833   3.402   4.923   6.146
 7645SOL    HW123834   3.418   4.865   6.226
 7645SOL    HW223835   3.376   4.867   6.068
 7646SOL     OW23836   6.810   2.134   1.408
 7646SOL    HW123837   6.878   2.062   1.398
 7646SOL    HW223838   6.811   2.169   1.501
 7647SOL     OW23839   6.868   2.660   5.396
 7647SOL    HW123840   6.840   2.655   5.301
 7647SOL    HW223841   6.808   2.602   5.452
 7648SOL     OW23842   2.631   1.404   1.765
 7648SOL    HW123843   2.720   1.442   1.739
 7648SOL    HW223844   2.625   1.309   1.734
 7649SOL     OW23845   4.627   1.556   5.274
 7649SOL    HW123846   4.664   1.648   5.274
 7649SOL    HW223847   4.535   1.557   5.314
 7650SOL     OW23848   3.793   2.075   0.571
 7650SOL    HW123849   3.767   2.082   0.474
 7650SOL    HW223850   3.801   2.167   0.610
 7651SOL     OW23851   3.156   4.794   5.864
 7651SOL    HW123852   3.176   4.738   5.944
 7651SOL    HW223853   3.058   4.794   5.846
 7652SOL     OW23854   0.434   1.172   4.194
 7652SOL    HW123855   0.412   1.184   4.097
 7652SOL    HW223856   0.388   1.090   4.229
 7653SOL     OW23857   0.899   1.048   6.347
 7653SOL    HW123858   0.903   1.043   6.447
 7653SOL    HW223859   0.984   1.011   6.308
 7654SOL     OW23860   5.432   2.055   6.619
 7654SOL    HW123861   5.483   1.991   6.561
 7654SOL    HW223862   5.438   2.147   6.580
 7655SOL     OW23863   2.995   1.738   2.938
 7655SOL    HW123864   2.939   1.757   2.858
 7655SOL    HW223865   2.993   1.639   2.957
 7656SOL     OW23866   0.009   3.386   6.219
 7656SOL    HW123867   7.001   3.319   6.153
 7656SOL    HW223868   0.062   3.341   6.291
 7657SOL     OW23869   1.029   4.350   4.169
 7657SOL    HW123870   1.032   4.295   4.252
 7657SOL    HW223871   1.033   4.447   4.193
 7658SOL     OW23872   2.378   1.036   0.992
 7658SOL    HW123873   2.366   1.126   1.034
 7658SOL    HW223874   2.289   1.004   0.957
 7659SOL     OW23875   4.775   3.930   5.661
 7659SOL    HW123876   4.834   3.946   5.582
 7659SOL    HW223877   4.681   3.956   5.638
 7660SOL     OW23878   0.211   5.294   4.634
 7660SOL    HW123879   0.131   5.338   4.594
 7660SOL    HW223880   0.246   5.348   4.711
 7661SOL     OW23881   4.672   2.346   5.418
 7661SOL    HW123882   4.748   2.281   5.420
 7661SOL    HW223883   4.694   2.420   5.355
 7662SOL     OW23884   6.921   0.675   1.111
 7662SOL    HW123885   7.014   0.678   1.147
 7662SOL    HW223886   6.920   0.621   1.026
 7663SOL     OW23887   6.937   5.759   5.542
 7663SOL    HW123888   6.974   5.737   5.452
 7663SOL    HW223889   6.948   5.856   5.561
 7664SOL     OW23890   4.115   2.106   2.324
 7664SOL    HW123891   4.034   2.146   2.369
 7664SOL    HW223892   4.166   2.052   2.391
 7665SOL     OW23893   4.669   0.599   5.137
 7665SOL    HW123894   4.595   0.655   5.175
 7665SOL    HW223895   4.657   0.592   5.038
 7666SOL     OW23896   5.422   4.096   3.924
 7666SOL    HW123897   5.453   4.121   4.016
 7666SOL    HW223898   5.403   4.179   3.871
 7667SOL     OW23899   4.172   5.797   1.601
 7667SOL    HW123900   4.165   5.712   1.547
 7667SOL    HW223901   4.081   5.821   1.636
 7668SOL     OW23902   2.218   5.900   0.393
 7668SOL    HW123903   2.208   5.956   0.476
 7668SOL    HW223904   2.257   5.812   0.418
 7669SOL     OW23905   2.260   0.579   5.486
 7669SOL    HW123906   2.250   0.615   5.393
 7669SOL    HW223907   2.248   0.653   5.552
 7670SOL     OW23908   0.966   6.700   0.267
 7670SOL    HW123909   0.952   6.601   0.277
 7670SOL    HW223910   1.038   6.717   0.200
 7671SOL     OW23911   3.936   6.803   1.507
 7671SOL    HW123912   3.856   6.843   1.553
 7671SOL    HW223913   3.922   6.705   1.495
 7672SOL     OW23914   4.678   4.970   2.753
 7672SOL    HW123915   4.698   4.873   2.764
 7672SOL    HW223916   4.675   5.014   2.843
 7673SOL     OW23917   1.799   6.274   4.805
 7673SOL    HW123918   1.749   6.298   4.722
 7673SOL    HW223919   1.743   6.296   4.885
 7674SOL     OW23920   4.251   6.184   4.313
 7674SOL    HW123921   4.312   6.232   4.250
 7674SOL    HW223922   4.160   6.227   4.310
 7675SOL     OW23923   4.816   6.643   3.551
 7675SOL    HW123924   4.787   6.635   3.647
 7675SOL    HW223925   4.782   6.728   3.512
 7676SOL     OW23926   3.320   2.944   5.611
 7676SOL    HW123927   3.348   2.939   5.515
 7676SOL    HW223928   3.345   3.033   5.649
 7677SOL     OW23929   5.656   4.551   0.584
 7677SOL    HW123930   5.742   4.597   0.602
 7677SOL    HW223931   5.584   4.589   0.642
 7678SOL     OW23932   1.843   0.930   5.002
 7678SOL    HW123933   1.888   1.019   4.993
 7678SOL    HW223934   1.898   0.859   4.958
 7679SOL     OW23935   2.857   5.578   5.398
 7679SOL    HW123936   2.845   5.479   5.388
 7679SOL    HW223937   2.782   5.626   5.352
 7680SOL     OW23938   2.261   6.939   5.306
 7680SOL    HW123939   2.320   7.008   5.263
 7680SOL    HW223940   2.253   6.860   5.245
 7681SOL     OW23941   2.909   3.381   6.650
 7681SOL    HW123942   3.000   3.341   6.656
 7681SOL    HW223943   2.891   3.410   6.556
 7682SOL     OW23944   2.519   1.516   2.539
 7682SOL    HW123945   2.558   1.589   2.595
 7682SOL    HW223946   2.452   1.555   2.476
 7683SOL     OW23947   0.618   6.704   4.132
 7683SOL    HW123948   0.519   6.710   4.123
 7683SOL    HW223949   0.656   6.660   4.051
 7684SOL     OW23950   4.084   2.934   1.394
 7684SOL    HW123951   4.105   2.837   1.398
 7684SOL    HW223952   4.036   2.961   1.478
 7685SOL     OW23953   2.660   0.299   0.140
 7685SOL    HW123954   2.732   0.242   0.180
 7685SOL    HW223955   2.643   0.378   0.199
 7686SOL     OW23956   6.108   0.228   4.687
 7686SOL    HW123957   6.018   0.189   4.665
 7686SOL    HW223958   6.180   0.170   4.649
 7687SOL     OW23959   6.004   4.667   5.339
 7687SOL    HW123960   5.967   4.760   5.337
 7687SOL    HW223961   5.972   4.618   5.258
 7688SOL     OW23962   0.228   4.484   6.262
 7688SOL    HW123963   0.167   4.522   6.192
 7688SOL    HW223964   0.212   4.385   6.269
 7689SOL     OW23965   4.695   0.338   1.518
 7689SOL    HW123966   4.737   0.413   1.569
 7689SOL    HW223967   4.599   0.328   1.545
 7690SOL     OW23968   6.008   5.315   1.149
 7690SOL    HW123969   5.941   5.384   1.174
 7690SOL    HW223970   6.077   5.356   1.088
 7691SOL     OW23971   4.605   4.401   3.111
 7691SOL    HW123972   4.513   4.433   3.087
 7691SOL    HW223973   4.643   4.347   3.036
 7692SOL     OW23974   2.336   6.912   2.639
 7692SOL    HW123975   2.359   7.005   2.610
 7692SOL    HW223976   2.376   6.894   2.729
 7693SOL     OW23977   2.076   1.623   0.932
 7693SOL    HW123978   2.138   1.583   0.864
 7693SOL    HW223979   2.118   1.707   0.969
 7694SOL     OW23980   5.409   1.511   5.513
 7694SOL    HW123981   5.508   1.518   5.502
 7694SOL    HW223982   5.370   1.465   5.433
 7695SOL     OW23983   4.803   0.436   3.867
 7695SOL    HW123984   4.876   0.368   3.865
 7695SOL    HW223985   4.741   0.419   3.790
 7696SOL     OW23986   1.136   2.799   6.211
 7696SOL    HW123987   1.065   2.744   6.167
 7696SOL    HW223988   1.093   2.863   6.276
 7697SOL     OW23989   4.641   7.020   3.156
 7697SOL    HW123990   4.648   0.041   3.067
 7697SOL    HW223991   4.553   0.017   3.198
 7698SOL     OW23992   6.532   2.356   0.355
 7698SOL    HW123993   6.503   2.391   0.444
 7698SOL    HW223994   6.463   2.295   0.319
 7699SOL     OW23995   4.290   5.817   6.183
 7699SOL    HW123996   4.346   5.853   6.258
 7699SOL    HW223997   4.314   5.864   6.098
 7700SOL     OW23998   5.365   6.265   2.906
 7700SOL    HW123999   5.448   6.241   2.957
 7700SOL    HW224000   5.298   6.192   2.916
 7701SOL     OW24001   0.939   2.334   6.463
 7701SOL    HW124002   0.931   2.292   6.373
 7701SOL    HW224003   1.016   2.294   6.512
 7702SOL     OW24004   4.559   0.313   4.501
 7702SOL    HW124005   4.608   0.226   4.512
 7702SOL    HW224006   4.464   0.301   4.532
 7703SOL     OW24007   6.412   6.792   5.086
 7703SOL    HW124008   6.434   6.695   5.089
 7703SOL    HW224009   6.409   6.828   5.179
 7704SOL     OW24010   0.319   1.529   5.073
 7704SOL    HW124011   0.297   1.540   5.170
 7704SOL    HW224012   0.308   1.616   5.026
 7705SOL     OW24013   0.839   5.065   6.722
 7705SOL    HW124014   0.811   5.160   6.734
 7705SOL    HW224015   0.758   5.007   6.716
 7706SOL     OW24016   3.631   2.868   2.380
 7706SOL    HW124017   3.692   2.800   2.420
 7706SOL    HW224018   3.552   2.881   2.441
 7707SOL     OW24019   6.575   4.023   6.386
 7707SOL    HW124020   6.538   3.937   6.349
 7707SOL    HW224021   6.566   4.095   6.316
 7708SOL     OW24022   2.594   0.191   4.525
 7708SOL    HW124023   2.582   0.093   4.509
 7708SOL    HW224024   2.691   0.214   4.526
 7709SOL     OW24025   0.085   4.846   1.419
 7709SOL    HW124026   0.088   4.920   1.352
 7709SOL    HW224027   0.166   4.850   1.477
 7710SOL     OW24028   6.912   2.961   1.069
 7710SOL    HW124029   6.964   3.009   1.140
 7710SOL    HW224030   6.968   2.889   1.029
 7711SOL     OW24031   0.375   4.467   5.090
 7711SOL    HW124032   0.471   4.489   5.069
 7711SOL    HW224033   0.324   4.458   5.004
 7712SOL     OW24034   0.031   4.855   5.517
 7712SOL    HW124035   0.053   4.911   5.596
 7712SOL    HW224036   0.097   4.874   5.444
 7713SOL     OW24037   1.739   4.641   0.084
 7713SOL    HW124038   1.654   4.588   0.075
 7713SOL    HW224039   1.797   4.598   0.154
 7714SOL     OW24040   6.044   1.088   5.575
 7714SOL    HW124041   6.107   1.033   5.630
 7714SOL    HW224042   5.970   1.121   5.634
 7715SOL     OW24043   3.315   3.344   5.885
 7715SOL    HW124044   3.393   3.388   5.930
 7715SOL    HW224045   3.270   3.283   5.951
 7716SOL     OW24046   1.325   6.061   5.922
 7716SOL    HW124047   1.348   6.005   6.002
 7716SOL    HW224048   1.369   6.023   5.841
 7717SOL     OW24049   0.447   1.630   6.807
 7717SOL    HW124050   0.483   1.556   6.749
 7717SOL    HW224051   0.442   1.714   6.753
 7718SOL     OW24052   1.155   3.795   2.991
 7718SOL    HW124053   1.076   3.797   2.930
 7718SOL    HW224054   1.136   3.734   3.068
 7719SOL     OW24055   2.114   4.704   5.005
 7719SOL    HW124056   2.211   4.702   5.030
 7719SOL    HW224057   2.086   4.615   4.970
 7720SOL     OW24058   4.530   1.199   7.017
 7720SOL    HW124059   4.569   1.230   6.930
 7720SOL    HW224060   4.496   1.106   7.007
 7721SOL     OW24061   0.584   0.942   2.811
 7721SOL    HW124062   0.642   0.872   2.771
 7721SOL    HW224063   0.533   0.988   2.738
 7722SOL     OW24064   1.492   6.146   3.632
 7722SOL    HW124065   1.522   6.219   3.693
 7722SOL    HW224066   1.408   6.105   3.667
 7723SOL     OW24067   4.847   4.081   0.342
 7723SOL    HW124068   4.785   4.160   0.351
 7723SOL    HW224069   4.795   4.002   0.310
 7724SOL     OW24070   1.918   3.955   1.495
 7724SOL    HW124071   1.942   4.036   1.443
 7724SOL    HW224072   1.984   3.941   1.569
 7725SOL     OW24073   5.320   2.900   3.393
 7725SOL    HW124074   5.379   2.839   3.445
 7725SOL    HW224075   5.240   2.923   3.448
 7726SOL     OW24076   0.942   3.130   6.054
 7726SOL    HW124077   0.986   3.145   6.142
 7726SOL    HW224078   0.978   3.194   5.986
 7727SOL     OW24079   4.425   0.970   2.263
 7727SOL    HW124080   4.428   0.876   2.228
 7727SOL    HW224081   4.512   1.016   2.242
 7728SOL     OW24082   2.046   3.461   4.602
 7728SOL    HW124083   2.051   3.361   4.603
 7728SOL    HW224084   2.000   3.493   4.684
 7729SOL     OW24085   6.962   2.290   3.745
 7729SOL    HW124086   0.025   2.305   3.699
 7729SOL    HW224087   6.888   2.296   3.677
 7730SOL     OW24088   6.361   4.528   5.096
 7730SOL    HW124089   6.442   4.488   5.053
 7730SOL    HW224090   6.387   4.567   5.185
 7731SOL     OW24091   6.699   6.393   6.946
 7731SOL    HW124092   6.654   6.305   6.932
 7731SOL    HW224093   6.724   6.433   6.858
 7732SOL     OW24094   4.182   0.068   6.620
 7732SOL    HW124095   4.087   0.081   6.648
 7732SOL    HW224096   4.239   0.138   6.661
 7733SOL     OW24097   6.128   5.584   1.966
 7733SOL    HW124098   6.206   5.523   1.981
 7733SOL    HW224099   6.147   5.644   1.888
 7734SOL     OW24100   3.324   3.805   4.937
 7734SOL    HW124101   3.271   3.844   4.862
 7734SOL    HW224102   3.366   3.878   4.991
 7735SOL     OW24103   6.639   5.939   0.465
 7735SOL    HW124104   6.655   5.883   0.547
 7735SOL    HW224105   6.727   5.967   0.427
 7736SOL     OW24106   1.919   2.659   0.158
 7736SOL    HW124107   1.921   2.650   0.257
 7736SOL    HW224108   2.009   2.687   0.126
 7737SOL     OW24109   3.992   5.328   1.010
 7737SOL    HW124110   4.087   5.329   1.041
 7737SOL    HW224111   3.989   5.320   0.910
 7738SOL     OW24112   1.919   0.440   5.457
 7738SOL    HW124113   2.009   0.439   5.414
 7738SOL    HW224114   1.874   0.351   5.443
 7739SOL     OW24115   1.532   2.098   0.751
 7739SOL    HW124116   1.625   2.065   0.771
 7739SOL    HW224117   1.493   2.041   0.679
 7740SOL     OW24118   1.653   0.872   4.721
 7740SOL    HW124119   1.711   0.952   4.735
 7740SOL    HW224120   1.557   0.901   4.716
 7741SOL     OW24121   1.578   4.414   6.475
 7741SOL    HW124122   1.542   4.383   6.387
 7741SOL    HW224123   1.652   4.353   6.504
 7742SOL     OW24124   4.353   1.987   4.225
 7742SOL    HW124125   4.255   1.990   4.210
 7742SOL    HW224126   4.373   2.010   4.320
 7743SOL     OW24127   5.036   1.995   5.598
 7743SOL    HW124128   5.024   2.021   5.694
 7743SOL    HW224129   4.973   1.921   5.575
 7744SOL     OW24130   0.647   6.058   4.809
 7744SOL    HW124131   0.592   6.085   4.888
 7744SOL    HW224132   0.630   6.122   4.733
 7745SOL     OW24133   2.600   6.807   0.911
 7745SOL    HW124134   2.612   6.845   1.003
 7745SOL    HW224135   2.542   6.726   0.916
 7746SOL     OW24136   1.159   5.768   0.969
 7746SOL    HW124137   1.066   5.744   0.938
 7746SOL    HW224138   1.173   5.866   0.959
 7747SOL     OW24139   0.861   5.999   0.051
 7747SOL    HW124140   0.808   5.938   7.017
 7747SOL    HW224141   0.952   6.012   0.012
 7748SOL     OW24142   4.613   2.133   5.659
 7748SOL    HW124143   4.631   2.188   5.578
 7748SOL    HW224144   4.557   2.185   5.723
 7749SOL     OW24145   3.880   4.075   4.396
 7749SOL    HW124146   3.834   4.062   4.484
 7749SOL    HW224147   3.833   4.146   4.344
 7750SOL     OW24148   5.863   4.341   5.350
 7750SOL    HW124149   5.886   4.409   5.420
 7750SOL    HW224150   5.918   4.357   5.268
 7751SOL     OW24151   6.846   1.222   5.369
 7751SOL    HW124152   6.900   1.235   5.286
 7751SOL    HW224153   6.785   1.143   5.358
 7752SOL     OW24154   6.550   5.660   5.348
 7752SOL    HW124155   6.507   5.615   5.426
 7752SOL    HW224156   6.498   5.742   5.323
 7753SOL     OW24157   2.333   1.276   4.700
 7753SOL    HW124158   2.294   1.235   4.782
 7753SOL    HW224159   2.347   1.374   4.715
 7754SOL     OW24160   6.207   0.390   1.819
 7754SOL    HW124161   6.244   0.482   1.815
 7754SOL    HW224162   6.274   0.329   1.862
 7755SOL     OW24163   1.183   5.691   5.536
 7755SOL    HW124164   1.259   5.709   5.473
 7755SOL    HW224165   1.155   5.595   5.528
 7756SOL     OW24166   3.795   5.693   2.289
 7756SOL    HW124167   3.717   5.632   2.275
 7756SOL    HW224168   3.880   5.642   2.272
 7757SOL     OW24169   4.822   6.563   5.800
 7757SOL    HW124170   4.751   6.504   5.762
 7757SOL    HW224171   4.837   6.641   5.740
 7758SOL     OW24172   2.205   2.298   5.323
 7758SOL    HW124173   2.127   2.332   5.272
 7758SOL    HW224174   2.262   2.374   5.353
 7759SOL     OW24175   1.961   0.720   5.370
 7759SOL    HW124176   1.869   0.693   5.397
 7759SOL    HW224177   1.972   0.819   5.383
 7760SOL     OW24178   5.008   2.935   2.449
 7760SOL    HW124179   4.970   2.946   2.357
 7760SOL    HW224180   5.102   2.902   2.441
 7761SOL     OW24181   3.560   0.244   6.659
 7761SOL    HW124182   3.482   0.300   6.687
 7761SOL    HW224183   3.631   0.303   6.622
 7762SOL     OW24184   3.272   1.481   0.646
 7762SOL    HW124185   3.314   1.413   0.706
 7762SOL    HW224186   3.275   1.571   0.690
 7763SOL     OW24187   1.783   1.929   0.704
 7763SOL    HW124188   1.790   1.864   0.779
 7763SOL    HW224189   1.738   1.886   0.626
 7764SOL     OW24190   3.410   2.925   2.519
 7764SOL    HW124191   3.345   2.947   2.591
 7764SOL    HW224192   3.364   2.928   2.430
 7765SOL     OW24193   6.757   2.546   2.569
 7765SOL    HW124194   6.752   2.596   2.656
 7765SOL    HW224195   6.692   2.586   2.504
 7766SOL     OW24196   6.944   2.625   6.448
 7766SOL    HW124197   7.014   2.677   6.400
 7766SOL    HW224198   6.987   2.549   6.498
 7767SOL     OW24199   4.916   5.177   4.848
 7767SOL    HW124200   4.927   5.187   4.749
 7767SOL    HW224201   4.886   5.264   4.887
 7768SOL     OW24202   3.264   4.986   2.583
 7768SOL    HW124203   3.165   4.980   2.593
 7768SOL    HW224204   3.290   4.957   2.491
 7769SOL     OW24205   5.951   2.039   1.663
 7769SOL    HW124206   5.892   1.973   1.618
 7769SOL    HW224207   5.912   2.063   1.752
 7770SOL     OW24208   3.576   5.339   1.023
 7770SOL    HW124209   3.613   5.271   1.085
 7770SOL    HW224210   3.556   5.423   1.073
 7771SOL     OW24211   2.329   1.578   5.508
 7771SOL    HW124212   2.371   1.657   5.553
 7771SOL    HW224213   2.280   1.523   5.575
 7772SOL     OW24214   5.403   1.673   4.599
 7772SOL    HW124215   5.312   1.663   4.561
 7772SOL    HW224216   5.444   1.758   4.566
 7773SOL     OW24217   4.150   4.280   5.891
 7773SOL    HW124218   4.151   4.370   5.935
 7773SOL    HW224219   4.129   4.210   5.959
 7774SOL     OW24220   4.578   1.546   6.408
 7774SOL    HW124221   4.538   1.469   6.459
 7774SOL    HW224222   4.677   1.548   6.424
 7775SOL     OW24223   2.611   6.907   2.373
 7775SOL    HW124224   2.625   6.809   2.386
 7775SOL    HW224225   2.671   6.958   2.434
 7776SOL     OW24226   3.768   3.745   6.928
 7776SOL    HW124227   3.764   3.845   6.934
 7776SOL    HW224228   3.682   3.706   6.962
 7777SOL     OW24229   1.995   1.366   6.840
 7777SOL    HW124230   2.008   1.426   6.761
 7777SOL    HW224231   1.997   1.271   6.809
 7778SOL     OW24232   5.833   0.843   0.325
 7778SOL    HW124233   5.743   0.804   0.308
 7778SOL    HW224234   5.829   0.907   0.401
 7779SOL     OW24235   3.670   3.339   7.005
 7779SOL    HW124236   3.664   3.317   0.077
 7779SOL    HW224237   3.659   3.256   6.951
 7780SOL     OW24238   1.721   6.810   4.621
 7780SOL    HW124239   1.773   6.839   4.702
 7780SOL    HW224240   1.624   6.808   4.643
 7781SOL     OW24241   1.522   4.614   4.718
 7781SOL    HW124242   1.536   4.604   4.816
 7781SOL    HW224243   1.449   4.552   4.687
 7782SOL     OW24244   3.336   4.517   6.510
 7782SOL    HW124245   3.354   4.500   6.607
 7782SOL    HW224246   3.408   4.474   6.454
 7783SOL     OW24247   3.396   5.309   6.340
 7783SOL    HW124248   3.471   5.252   6.374
 7783SOL    HW224249   3.388   5.297   6.241
 7784SOL     OW24250   0.445   2.754   0.080
 7784SOL    HW124251   0.354   2.782   0.049
 7784SOL    HW224252   0.438   2.707   0.167
 7785SOL     OW24253   2.773   5.754   4.260
 7785SOL    HW124254   2.677   5.757   4.288
 7785SOL    HW224255   2.803   5.659   4.253
 7786SOL     OW24256   2.983   4.198   5.214
 7786SOL    HW124257   3.011   4.135   5.142
 7786SOL    HW224258   2.952   4.283   5.173
 7787SOL     OW24259   2.707   2.566   5.207
 7787SOL    HW124260   2.627   2.623   5.228
 7787SOL    HW224261   2.784   2.594   5.264
 7788SOL     OW24262   1.084   1.475   0.163
 7788SOL    HW124263   1.142   1.467   0.082
 7788SOL    HW224264   1.016   1.402   0.163
 7789SOL     OW24265   2.302   0.607   1.299
 7789SOL    HW124266   2.350   0.690   1.267
 7789SOL    HW224267   2.254   0.627   1.384
 7790SOL     OW24268   5.456   3.141   2.571
 7790SOL    HW124269   5.407   3.154   2.485
 7790SOL    HW224270   5.391   3.135   2.647
 7791SOL     OW24271   1.738   4.836   5.242
 7791SOL    HW124272   1.813   4.853   5.177
 7791SOL    HW224273   1.750   4.894   5.323
 7792SOL     OW24274   2.577   5.462   6.115
 7792SOL    HW124275   2.522   5.452   6.198
 7792SOL    HW224276   2.673   5.469   6.139
 7793SOL     OW24277   1.142   0.987   6.251
 7793SOL    HW124278   1.209   0.968   6.323
 7793SOL    HW224279   1.175   1.063   6.195
 7794SOL     OW24280   5.473   5.851   3.840
 7794SOL    HW124281   5.390   5.906   3.837
 7794SOL    HW224282   5.450   5.755   3.822
 7795SOL     OW24283   2.568   4.385   5.236
 7795SOL    HW124284   2.523   4.324   5.301
 7795SOL    HW224285   2.650   4.424   5.278
 7796SOL     OW24286   3.951   3.879   3.436
 7796SOL    HW124287   3.902   3.806   3.484
 7796SOL    HW224288   4.019   3.919   3.497
 7797SOL     OW24289   0.554   0.234   2.654
 7797SOL    HW124290   0.649   0.201   2.647
 7797SOL    HW224291   0.535   0.262   2.748
 7798SOL     OW24292   3.538   5.422   0.121
 7798SOL    HW124293   3.509   5.496   0.181
 7798SOL    HW224294   3.599   5.458   0.051
 7799SOL     OW24295   0.231   5.405   1.603
 7799SOL    HW124296   0.155   5.458   1.639
 7799SOL    HW224297   0.276   5.354   1.677
 7800SOL     OW24298   0.834   5.832   2.219
 7800SOL    HW124299   0.823   5.912   2.160
 7800SOL    HW224300   0.759   5.829   2.285
 7801SOL     OW24301   3.555   2.452   6.695
 7801SOL    HW124302   3.563   2.384   6.621
 7801SOL    HW224303   3.464   2.493   6.693
 7802SOL     OW24304   5.830   2.049   1.927
 7802SOL    HW124305   5.802   1.978   1.863
 7802SOL    HW224306   5.751   2.081   1.979
 7803SOL     OW24307   4.293   4.261   5.318
 7803SOL    HW124308   4.251   4.289   5.405
 7803SOL    HW224309   4.269   4.326   5.247
 7804SOL     OW24310   4.609   1.922   6.065
 7804SOL    HW124311   4.538   1.900   5.999
 7804SOL    HW224312   4.596   2.016   6.098
 7805SOL     OW24313   5.047   3.643   1.967
 7805SOL    HW124314   5.005   3.728   2.001
 7805SOL    HW224315   4.976   3.581   1.936
 7806SOL     OW24316   5.347   2.624   6.318
 7806SOL    HW124317   5.411   2.623   6.241
 7806SOL    HW224318   5.295   2.710   6.317
 7807SOL     OW24319   0.407   4.323   6.601
 7807SOL    HW124320   0.421   4.371   6.514
 7807SOL    HW224321   0.496   4.296   6.638
 7808SOL     OW24322   0.285   1.591   5.333
 7808SOL    HW124323   0.292   1.522   5.406
 7808SOL    HW224324   0.352   1.663   5.350
 7809SOL     OW24325   2.692   5.404   4.888
 7809SOL    HW124326   2.638   5.488   4.894
 7809SOL    HW224327   2.759   5.412   4.814
 7810SOL     OW24328   2.765   0.842   6.820
 7810SOL    HW124329   2.707   0.838   6.738
 7810SOL    HW224330   2.774   0.936   6.850
 7811SOL     OW24331   6.528   4.772   3.857
 7811SOL    HW124332   6.551   4.703   3.925
 7811SOL    HW224333   6.549   4.736   3.765
 7812SOL     OW24334   1.548   2.004   3.702
 7812SOL    HW124335   1.505   1.980   3.615
 7812SOL    HW224336   1.560   2.103   3.707
 7813SOL     OW24337   6.675   3.203   0.197
 7813SOL    HW124338   6.752   3.250   0.153
 7813SOL    HW224339   6.620   3.270   0.248
 7814SOL     OW24340   0.816   3.414   2.972
 7814SOL    HW124341   0.761   3.478   3.024
 7814SOL    HW224342   0.769   3.326   2.966
 7815SOL     OW24343   6.588   1.674   5.918
 7815SOL    HW124344   6.637   1.701   6.001
 7815SOL    HW224345   6.584   1.574   5.913
 7816SOL     OW24346   1.292   4.072   4.978
 7816SOL    HW124347   1.361   4.141   4.997
 7816SOL    HW224348   1.323   4.013   4.903
 7817SOL     OW24349   5.608   4.010   4.656
 7817SOL    HW124350   5.665   3.932   4.627
 7817SOL    HW224351   5.526   4.013   4.599
 7818SOL     OW24352   5.146   6.200   1.993
 7818SOL    HW124353   5.064   6.228   2.043
 7818SOL    HW224354   5.227   6.236   2.041
 7819SOL     OW24355   6.747   1.763   1.697
 7819SOL    HW124356   6.791   1.717   1.774
 7819SOL    HW224357   6.814   1.780   1.625
 7820SOL     OW24358   1.626   0.487   6.731
 7820SOL    HW124359   1.706   0.543   6.752
 7820SOL    HW224360   1.557   0.499   6.803
 7821SOL     OW24361   3.065   5.399   2.148
 7821SOL    HW124362   3.059   5.418   2.050
 7821SOL    HW224363   3.132   5.327   2.164
 7822SOL     OW24364   1.525   5.988   5.069
 7822SOL    HW124365   1.449   5.953   5.015
 7822SOL    HW224366   1.490   6.027   5.154
 7823SOL     OW24367   1.591   4.703   5.033
 7823SOL    HW124368   1.641   4.762   5.097
 7823SOL    HW224369   1.513   4.754   4.995
 7824SOL     OW24370   0.336   2.606   5.802
 7824SOL    HW124371   0.409   2.663   5.764
 7824SOL    HW224372   0.277   2.573   5.728
 7825SOL     OW24373   3.109   1.291   6.715
 7825SOL    HW124374   3.035   1.345   6.675
 7825SOL    HW224375   3.194   1.305   6.663
 7826SOL     OW24376   0.384   3.221   6.420
 7826SOL    HW124377   0.431   3.304   6.391
 7826SOL    HW224378   0.437   3.174   6.490
 7827SOL     OW24379   6.672   6.095   4.493
 7827SOL    HW124380   6.678   6.178   4.548
 7827SOL    HW224381   6.585   6.093   4.444
 7828SOL     OW24382   0.646   4.830   6.962
 7828SOL    HW124383   0.584   4.751   6.966
 7828SOL    HW224384   0.643   4.870   6.871
 7829SOL     OW24385   4.146   3.092   0.842
 7829SOL    HW124386   4.049   3.116   0.844
 7829SOL    HW224387   4.201   3.174   0.831
 7830SOL     OW24388   2.719   5.019   4.121
 7830SOL    HW124389   2.622   5.045   4.113
 7830SOL    HW224390   2.727   4.920   4.124
 7831SOL     OW24391   1.813   1.300   0.156
 7831SOL    HW124392   1.903   1.268   0.123
 7831SOL    HW224393   1.826   1.358   0.236
 7832SOL     OW24394   6.429   0.923   4.689
 7832SOL    HW124395   6.365   0.919   4.612
 7832SOL    HW224396   6.500   0.853   4.677
 7833SOL     OW24397   1.829   0.657   4.245
 7833SOL    HW124398   1.885   0.682   4.167
 7833SOL    HW224399   1.870   0.578   4.292
 7834SOL     OW24400   6.368   3.122   4.732
 7834SOL    HW124401   6.355   3.203   4.673
 7834SOL    HW224402   6.281   3.072   4.739
 7835SOL     OW24403   4.084   2.251   5.341
 7835SOL    HW124404   4.125   2.334   5.302
 7835SOL    HW224405   4.121   2.236   5.433
 7836SOL     OW24406   3.667   3.499   4.672
 7836SOL    HW124407   3.668   3.465   4.578
 7836SOL    HW224408   3.725   3.581   4.679
 7837SOL     OW24409   6.733   5.738   6.490
 7837SOL    HW124410   6.811   5.773   6.437
 7837SOL    HW224411   6.650   5.745   6.434
 7838SOL     OW24412   4.738   5.386   1.247
 7838SOL    HW124413   4.705   5.378   1.341
 7838SOL    HW224414   4.824   5.437   1.247
 7839SOL     OW24415   5.796   3.286   4.350
 7839SOL    HW124416   5.838   3.199   4.326
 7839SOL    HW224417   5.802   3.300   4.449
 7840SOL     OW24418   1.851   3.059   4.073
 7840SOL    HW124419   1.933   3.102   4.036
 7840SOL    HW224420   1.873   3.019   4.163
 7841SOL     OW24421   4.555   2.188   6.084
 7841SOL    HW124422   4.495   2.248   6.031
 7841SOL    HW224423   4.602   2.241   6.154
 7842SOL     OW24424   1.639   0.750   2.132
 7842SOL    HW124425   1.729   0.759   2.176
 7842SOL    HW224426   1.599   0.841   2.120
 7843SOL     OW24427   0.295   6.417   3.165
 7843SOL    HW124428   0.312   6.506   3.123
 7843SOL    HW224429   0.196   6.406   3.180
 7844SOL     OW24430   3.434   1.274   2.633
 7844SOL    HW124431   3.496   1.351   2.650
 7844SOL    HW224432   3.437   1.251   2.536
 7845SOL     OW24433   6.596   3.173   1.484
 7845SOL    HW124434   6.665   3.233   1.444
 7845SOL    HW224435   6.640   3.111   1.549
 7846SOL     OW24436   1.102   2.061   0.257
 7846SOL    HW124437   1.180   2.123   0.258
 7846SOL    HW224438   1.018   2.111   0.279
 7847SOL     OW24439   5.527   3.448   5.201
 7847SOL    HW124440   5.539   3.381   5.127
 7847SOL    HW224441   5.456   3.416   5.264
 7848SOL     OW24442   3.401   4.259   0.932
 7848SOL    HW124443   3.472   4.329   0.935
 7848SOL    HW224444   3.324   4.286   0.989
 7849SOL     OW24445   4.679   4.404   6.955
 7849SOL    HW124446   4.708   4.314   6.989
 7849SOL    HW224447   4.580   4.405   6.943
 7850SOL     OW24448   0.011   1.279   3.685
 7850SOL    HW124449   7.023   1.182   3.707
 7850SOL    HW224450   0.040   1.329   3.767
 7851SOL     OW24451   0.601   4.257   2.033
 7851SOL    HW124452   0.668   4.305   1.976
 7851SOL    HW224453   0.645   4.224   2.116
 7852SOL     OW24454   1.051   2.560   6.576
 7852SOL    HW124455   0.996   2.483   6.542
 7852SOL    HW224456   1.006   2.599   6.656
 7853SOL     OW24457   3.937   2.899   1.750
 7853SOL    HW124458   3.902   2.944   1.832
 7853SOL    HW224459   4.036   2.907   1.747
 7854SOL     OW24460   4.779   2.485   6.748
 7854SOL    HW124461   4.722   2.416   6.705
 7854SOL    HW224462   4.735   2.518   6.832
 7855SOL     OW24463   5.197   0.045   4.731
 7855SOL    HW124464   5.104   0.081   4.720
 7855SOL    HW224465   5.262   0.108   4.688
 7856SOL     OW24466   2.260   6.402   4.843
 7856SOL    HW124467   2.179   6.456   4.862
 7856SOL    HW224468   2.260   6.374   4.748
 7857SOL     OW24469   5.991   4.416   1.186
 7857SOL    HW124470   6.070   4.367   1.149
 7857SOL    HW224471   5.974   4.385   1.280
 7858SOL     OW24472   0.529   4.353   5.676
 7858SOL    HW124473   0.529   4.377   5.578
 7858SOL    HW224474   0.602   4.403   5.722
 7859SOL     OW24475   5.472   2.478   0.200
 7859SOL    HW124476   5.383   2.432   0.198
 7859SOL    HW224477   5.473   2.544   0.275
 7860SOL     OW24478   2.469   1.149   4.496
 7860SOL    HW124479   2.411   1.183   4.570
 7860SOL    HW224480   2.437   1.058   4.468
 7861SOL     OW24481   2.503   6.361   1.074
 7861SOL    HW124482   2.520   6.363   1.172
 7861SOL    HW224483   2.554   6.285   1.033
 7862SOL     OW24484   2.670   5.895   0.244
 7862SOL    HW124485   2.697   5.988   0.218
 7862SOL    HW224486   2.740   5.856   0.303
 7863SOL     OW24487   6.785   4.528   3.449
 7863SOL    HW124488   6.802   4.435   3.416
 7863SOL    HW224489   6.694   4.532   3.490
 7864SOL     OW24490   2.001   6.233   5.392
 7864SOL    HW124491   2.009   6.331   5.404
 7864SOL    HW224492   2.013   6.187   5.481
 7865SOL     OW24493   5.683   5.064   3.301
 7865SOL    HW124494   5.624   5.115   3.363
 7865SOL    HW224495   5.628   5.005   3.243
 7866SOL     OW24496   0.844   6.970   5.808
 7866SOL    HW124497   0.758   6.939   5.850
 7866SOL    HW224498   0.921   6.926   5.855
 7867SOL     OW24499   5.778   6.033   3.748
 7867SOL    HW124500   5.851   6.065   3.688
 7867SOL    HW224501   5.695   6.019   3.694
 7868SOL     OW24502   3.275   6.061   1.578
 7868SOL    HW124503   3.301   6.142   1.524
 7868SOL    HW224504   3.230   6.091   1.662
 7869SOL     OW24505   5.923   5.114   5.640
 7869SOL    HW124506   5.871   5.063   5.709
 7869SOL    HW224507   5.963   5.050   5.575
 7870SOL     OW24508   5.701   6.058   4.611
 7870SOL    HW124509   5.783   6.002   4.600
 7870SOL    HW224510   5.716   6.147   4.567
 7871SOL     OW24511   5.594   1.308   1.841
 7871SOL    HW124512   5.557   1.299   1.933
 7871SOL    HW224513   5.694   1.314   1.846
 7872SOL     OW24514   1.786   5.621   2.825
 7872SOL    HW124515   1.788   5.537   2.878
 7872SOL    HW224516   1.864   5.623   2.762
 7873SOL     OW24517   6.021   1.479   6.992
 7873SOL    HW124518   6.038   1.433   6.905
 7873SOL    HW224519   6.072   1.433   0.040
 7874SOL     OW24520   5.497   2.292   0.864
 7874SOL    HW124521   5.587   2.308   0.825
 7874SOL    HW224522   5.464   2.375   0.908
 7875SOL     OW24523   5.592   4.507   6.666
 7875SOL    HW124524   5.669   4.552   6.710
 7875SOL    HW224525   5.625   4.448   6.592
 7876SOL     OW24526   1.190   6.805   2.921
 7876SOL    HW124527   1.269   6.857   2.953
 7876SOL    HW224528   1.108   6.835   2.970
 7877SOL     OW24529   6.712   2.141   2.815
 7877SOL    HW124530   6.791   2.203   2.811
 7877SOL    HW224531   6.648   2.164   2.742
 7878SOL     OW24532   3.957   4.807   2.759
 7878SOL    HW124533   3.896   4.837   2.685
 7878SOL    HW224534   3.915   4.828   2.847
 7879SOL     OW24535   3.007   4.854   3.108
 7879SOL    HW124536   3.090   4.862   3.052
 7879SOL    HW224537   2.939   4.799   3.060
 7880SOL     OW24538   1.728   4.098   1.904
 7880SOL    HW124539   1.634   4.093   1.870
 7880SOL    HW224540   1.754   4.009   1.942
 7881SOL     OW24541   5.288   4.421   4.401
 7881SOL    HW124542   5.268   4.371   4.486
 7881SOL    HW224543   5.220   4.397   4.331
 7882SOL     OW24544   1.516   3.628   0.592
 7882SOL    HW124545   1.489   3.700   0.657
 7882SOL    HW224546   1.460   3.547   0.608
 7883SOL     OW24547   0.900   0.539   5.379
 7883SOL    HW124548   0.981   0.595   5.394
 7883SOL    HW224549   0.818   0.593   5.399
 7884SOL     OW24550   0.834   2.765   4.264
 7884SOL    HW124551   0.782   2.812   4.192
 7884SOL    HW224552   0.774   2.703   4.314
 7885SOL     OW24553   6.528   5.583   6.326
 7885SOL    HW124554   6.492   5.668   6.289
 7885SOL    HW224555   6.453   5.520   6.345
 7886SOL     OW24556   4.587   4.830   0.167
 7886SOL    HW124557   4.611   4.830   0.070
 7886SOL    HW224558   4.513   4.764   0.183
 7887SOL     OW24559   4.741   2.082   6.712
 7887SOL    HW124560   4.671   2.021   6.676
 7887SOL    HW224561   4.715   2.177   6.696
 7888SOL     OW24562   5.365   0.851   4.890
 7888SOL    HW124563   5.307   0.774   4.864
 7888SOL    HW224564   5.346   0.929   4.831
 7889SOL     OW24565   1.085   5.977   2.603
 7889SOL    HW124566   1.005   6.017   2.648
 7889SOL    HW224567   1.164   6.036   2.619
 7890SOL     OW24568   1.831   3.233   2.872
 7890SOL    HW124569   1.883   3.150   2.891
 7890SOL    HW224570   1.892   3.312   2.879
 7891SOL     OW24571   1.505   4.702   3.124
 7891SOL    HW124572   1.584   4.666   3.174
 7891SOL    HW224573   1.462   4.775   3.178
 7892SOL     OW24574   2.125   2.494   5.756
 7892SOL    HW124575   2.050   2.449   5.805
 7892SOL    HW224576   2.202   2.431   5.749
 7893SOL     OW24577   6.031   6.118   1.556
 7893SOL    HW124578   6.085   6.202   1.555
 7893SOL    HW224579   5.968   6.118   1.478
 7894SOL     OW24580   2.903   0.131   2.072
 7894SOL    HW124581   2.808   0.107   2.056
 7894SOL    HW224582   2.913   0.172   2.163
 7895SOL     OW24583   6.695   1.732   3.347
 7895SOL    HW124584   6.653   1.792   3.279
 7895SOL    HW224585   6.794   1.745   3.346
 7896SOL     OW24586   4.695   1.904   5.282
 7896SOL    HW124587   4.753   1.871   5.356
 7896SOL    HW224588   4.615   1.951   5.320
 7897SOL     OW24589   3.006   3.201   6.105
 7897SOL    HW124590   3.102   3.203   6.135
 7897SOL    HW224591   2.989   3.279   6.044
 7898SOL     OW24592   4.294   2.359   3.421
 7898SOL    HW124593   4.220   2.320   3.476
 7898SOL    HW224594   4.268   2.358   3.325
 7899SOL     OW24595   5.327   1.082   2.707
 7899SOL    HW124596   5.343   1.066   2.804
 7899SOL    HW224597   5.244   1.034   2.678
 7900SOL     OW24598   1.539   5.841   0.794
 7900SOL    HW124599   1.505   5.819   0.885
 7900SOL    HW224600   1.636   5.866   0.800
 7901SOL     OW24601   6.115   5.844   0.235
 7901SOL    HW124602   6.062   5.899   0.171
 7901SOL    HW224603   6.068   5.757   0.250
 7902SOL     OW24604   4.955   3.812   6.939
 7902SOL    HW124605   4.951   3.912   6.946
 7902SOL    HW224606   4.944   3.772   0.006
 7903SOL     OW24607   0.200   2.069   6.823
 7903SOL    HW124608   0.233   2.024   6.739
 7903SOL    HW224609   0.130   2.136   6.800
 7904SOL     OW24610   6.240   0.767   2.963
 7904SOL    HW124611   6.184   0.759   3.046
 7904SOL    HW224612   6.184   0.749   2.883
 7905SOL     OW24613   3.349   1.337   0.878
 7905SOL    HW124614   3.391   1.412   0.930
 7905SOL    HW224615   3.398   1.252   0.898
 7906SOL     OW24616   6.148   5.868   6.739
 7906SOL    HW124617   6.171   5.779   6.700
 7906SOL    HW224618   6.112   5.856   6.832
 7907SOL     OW24619   6.809   3.057   1.987
 7907SOL    HW124620   6.817   2.987   1.917
 7907SOL    HW224621   6.774   3.017   2.071
 7908SOL     OW24622   6.343   1.835   3.573
 7908SOL    HW124623   6.254   1.869   3.605
 7908SOL    HW224624   6.404   1.821   3.651
 7909SOL     OW24625   4.676   4.729   5.217
 7909SOL    HW124626   4.748   4.703   5.281
 7909SOL    HW224627   4.717   4.774   5.138
 7910SOL     OW24628   5.650   3.522   6.170
 7910SOL    HW124629   5.606   3.494   6.256
 7910SOL    HW224630   5.666   3.621   6.172
 7911SOL     OW24631   5.772   5.031   0.145
 7911SOL    HW124632   5.819   4.984   0.221
 7911SOL    HW224633   5.838   5.048   0.072
 7912SOL     OW24634   6.588   5.026   5.929
 7912SOL    HW124635   6.567   4.941   5.881
 7912SOL    HW224636   6.657   5.009   5.999
 7913SOL     OW24637   0.307   5.650   6.612
 7913SOL    HW124638   0.225   5.594   6.619
 7913SOL    HW224639   0.341   5.647   6.518
 7914SOL     OW24640   6.810   3.481   2.345
 7914SOL    HW124641   6.881   3.467   2.275
 7914SOL    HW224642   6.825   3.569   2.390
 7915SOL     OW24643   4.534   2.058   2.523
 7915SOL    HW124644   4.618   2.076   2.575
 7915SOL    HW224645   4.479   2.141   2.519
 7916SOL     OW24646   4.919   3.477   5.551
 7916SOL    HW124647   4.959   3.523   5.629
 7916SOL    HW224648   4.953   3.383   5.546
 7917SOL     OW24649   3.104   3.935   4.227
 7917SOL    HW124650   3.019   3.884   4.242
 7917SOL    HW224651   3.116   4.003   4.299
 7918SOL     OW24652   6.374   1.946   2.553
 7918SOL    HW124653   6.344   1.929   2.460
 7918SOL    HW224654   6.317   1.894   2.617
 7919SOL     OW24655   5.737   5.069   1.712
 7919SOL    HW124656   5.651   5.112   1.740
 7919SOL    HW224657   5.795   5.138   1.669
 7920SOL     OW24658   1.017   5.678   1.802
 7920SOL    HW124659   1.074   5.711   1.877
 7920SOL    HW224660   0.941   5.742   1.787
 7921SOL     OW24661   3.628   6.799   1.976
 7921SOL    HW124662   3.641   6.701   1.965
 7921SOL    HW224663   3.642   6.824   2.072
 7922SOL     OW24664   0.602   5.269   6.878
 7922SOL    HW124665   0.553   5.255   6.792
 7922SOL    HW224666   0.552   5.222   6.952
 7923SOL     OW24667   1.308   1.498   2.999
 7923SOL    HW124668   1.256   1.418   3.030
 7923SOL    HW224669   1.286   1.517   2.903
 7924SOL     OW24670   2.258   0.317   4.146
 7924SOL    HW124671   2.212   0.305   4.234
 7924SOL    HW224672   2.346   0.363   4.160
 7925SOL     OW24673   0.010   0.360   6.804
 7925SOL    HW124674   0.095   0.379   6.754
 7925SOL    HW224675   0.012   0.266   6.838
 7926SOL     OW24676   3.007   0.304   1.750
 7926SOL    HW124677   2.909   0.287   1.740
 7926SOL    HW224678   3.038   0.364   1.677
 7927SOL     OW24679   4.571   4.510   4.496
 7927SOL    HW124680   4.550   4.415   4.519
 7927SOL    HW224681   4.669   4.527   4.510
 7928SOL     OW24682   1.548   5.169   1.164
 7928SOL    HW124683   1.555   5.078   1.124
 7928SOL    HW224684   1.592   5.170   1.254
 7929SOL     OW24685   3.839   4.057   3.995
 7929SOL    HW124686   3.819   4.114   3.916
 7929SOL    HW224687   3.799   4.099   4.077
 7930SOL     OW24688   5.432   5.982   4.592
 7930SOL    HW124689   5.401   6.028   4.509
 7930SOL    HW224690   5.525   6.009   4.613
 7931SOL     OW24691   1.702   2.988   0.819
 7931SOL    HW124692   1.628   2.981   0.885
 7931SOL    HW224693   1.789   2.969   0.865
 7932SOL     OW24694   3.291   6.979   0.919
 7932SOL    HW124695   3.258   0.026   0.857
 7932SOL    HW224696   3.226   6.903   0.919
 7933SOL     OW24697   1.518   0.485   0.240
 7933SOL    HW124698   1.433   0.486   0.292
 7933SOL    HW224699   1.570   0.568   0.258
 7934SOL     OW24700   3.097   3.641   5.838
 7934SOL    HW124701   3.099   3.705   5.914
 7934SOL    HW224702   3.188   3.636   5.797
 7935SOL     OW24703   4.437   6.262   1.475
 7935SOL    HW124704   4.390   6.331   1.529
 7935SOL    HW224705   4.534   6.286   1.466
 7936SOL     OW24706   4.484   5.722   3.014
 7936SOL    HW124707   4.412   5.754   2.952
 7936SOL    HW224708   4.507   5.627   2.993
 7937SOL     OW24709   6.261   6.388   5.748
 7937SOL    HW124710   6.256   6.487   5.758
 7937SOL    HW224711   6.169   6.349   5.757
 7938SOL     OW24712   5.724   4.301   4.794
 7938SOL    HW124713   5.715   4.202   4.801
 7938SOL    HW224714   5.821   4.326   4.796
 7939SOL     OW24715   0.859   0.509   4.530
 7939SOL    HW124716   0.915   0.558   4.463
 7939SOL    HW224717   0.852   0.413   4.504
 7940SOL     OW24718   1.869   5.885   0.798
 7940SOL    HW124719   1.912   5.956   0.742
 7940SOL    HW224720   1.920   5.800   0.788
 7941SOL     OW24721   0.240   0.362   0.409
 7941SOL    HW124722   0.335   0.367   0.440
 7941SOL    HW224723   0.237   0.329   0.315
 7942SOL     OW24724   1.409   0.906   1.131
 7942SOL    HW124725   1.372   0.986   1.083
 7942SOL    HW224726   1.459   0.849   1.066
 7943SOL     OW24727   5.518   2.089   1.100
 7943SOL    HW124728   5.497   1.992   1.114
 7943SOL    HW224729   5.531   2.106   1.003
 7944SOL     OW24730   0.704   4.189   2.289
 7944SOL    HW124731   0.775   4.121   2.305
 7944SOL    HW224732   0.672   4.225   2.377
 7945SOL     OW24733   5.267   6.529   1.622
 7945SOL    HW124734   5.302   6.518   1.529
 7945SOL    HW224735   5.239   6.440   1.657
 7946SOL     OW24736   1.655   1.826   5.642
 7946SOL    HW124737   1.580   1.766   5.616
 7946SOL    HW224738   1.673   1.891   5.568
 7947SOL     OW24739   3.843   3.915   6.340
 7947SOL    HW124740   3.796   3.875   6.261
 7947SOL    HW224741   3.779   3.972   6.392
 7948SOL     OW24742   0.741   5.525   0.214
 7948SOL    HW124743   0.715   5.509   0.119
 7948SOL    HW224744   0.807   5.455   0.243
 7949SOL     OW24745   6.213   4.307   4.400
 7949SOL    HW124746   6.211   4.404   4.425
 7949SOL    HW224747   6.234   4.299   4.303
 7950SOL     OW24748   3.018   5.147   4.579
 7950SOL    HW124749   3.061   5.227   4.620
 7950SOL    HW224750   2.934   5.174   4.533
 7951SOL     OW24751   2.702   3.181   1.179
 7951SOL    HW124752   2.640   3.255   1.203
 7951SOL    HW224753   2.763   3.162   1.256
 7952SOL     OW24754   5.084   4.143   0.233
 7952SOL    HW124755   4.991   4.127   0.265
 7952SOL    HW224756   5.147   4.086   0.285
 7953SOL     OW24757   2.233   2.963   2.491
 7953SOL    HW124758   2.258   2.938   2.584
 7953SOL    HW224759   2.315   2.991   2.440
 7954SOL     OW24760   5.008   5.655   5.200
 7954SOL    HW124761   5.019   5.556   5.194
 7954SOL    HW224762   4.979   5.691   5.112
 7955SOL     OW24763   0.936   6.206   5.769
 7955SOL    HW124764   0.890   6.291   5.746
 7955SOL    HW224765   1.009   6.189   5.703
 7956SOL     OW24766   5.961   6.994   3.546
 7956SOL    HW124767   5.976   0.063   3.578
 7956SOL    HW224768   5.880   6.956   3.591
 7957SOL     OW24769   0.855   3.096   1.183
 7957SOL    HW124770   0.840   3.102   1.282
 7957SOL    HW224771   0.800   3.021   1.146
 7958SOL     OW24772   2.426   5.366   2.682
 7958SOL    HW124773   2.411   5.273   2.648
 7958SOL    HW224774   2.519   5.395   2.660
 7959SOL     OW24775   5.408   4.989   0.874
 7959SOL    HW124776   5.430   5.080   0.907
 7959SOL    HW224777   5.429   4.921   0.945
 7960SOL     OW24778   2.471   2.158   0.909
 7960SOL    HW124779   2.403   2.098   0.866
 7960SOL    HW224780   2.562   2.118   0.896
 7961SOL     OW24781   1.952   5.437   6.542
 7961SOL    HW124782   1.912   5.347   6.528
 7961SOL    HW224783   2.031   5.449   6.482
 7962SOL     OW24784   1.467   0.487   2.233
 7962SOL    HW124785   1.525   0.567   2.219
 7962SOL    HW224786   1.445   0.447   2.144
 7963SOL     OW24787   0.656   0.472   4.756
 7963SOL    HW124788   0.683   0.530   4.679
 7963SOL    HW224789   0.726   0.478   4.828
 7964SOL     OW24790   6.377   5.716   3.013
 7964SOL    HW124791   6.378   5.663   3.097
 7964SOL    HW224792   6.413   5.808   3.031
 7965SOL     OW24793   5.565   1.930   0.399
 7965SOL    HW124794   5.536   1.838   0.370
 7965SOL    HW224795   5.507   1.998   0.355
 7966SOL     OW24796   0.382   4.845   3.812
 7966SOL    HW124797   0.431   4.931   3.824
 7966SOL    HW224798   0.349   4.838   3.718
 7967SOL     OW24799   2.771   6.146   2.550
 7967SOL    HW124800   2.868   6.140   2.573
 7967SOL    HW224801   2.723   6.197   2.621
 7968SOL     OW24802   1.740   1.066   1.482
 7968SOL    HW124803   1.803   1.117   1.540
 7968SOL    HW224804   1.647   1.074   1.519
 7969SOL     OW24805   3.216   2.096   2.852
 7969SOL    HW124806   3.169   2.069   2.768
 7969SOL    HW224807   3.294   2.155   2.829
 7970SOL     OW24808   0.763   4.799   3.279
 7970SOL    HW124809   0.736   4.708   3.248
 7970SOL    HW224810   0.861   4.812   3.263
 7971SOL     OW24811   2.647   1.134   1.671
 7971SOL    HW124812   2.576   1.107   1.607
 7971SOL    HW224813   2.640   1.079   1.754
 7972SOL     OW24814   0.420   4.824   2.143
 7972SOL    HW124815   0.370   4.757   2.198
 7972SOL    HW224816   0.363   4.906   2.130
 7973SOL     OW24817   4.342   2.320   2.818
 7973SOL    HW124818   4.249   2.358   2.814
 7973SOL    HW224819   4.399   2.376   2.877
 7974SOL     OW24820   5.200   0.381   4.327
 7974SOL    HW124821   5.237   0.443   4.258
 7974SOL    HW224822   5.241   0.401   4.416
 7975SOL     OW24823   2.777   1.213   3.601
 7975SOL    HW124824   2.696   1.214   3.543
 7975SOL    HW224825   2.780   1.297   3.655
 7976SOL     OW24826   0.541   5.331   6.567
 7976SOL    HW124827   0.446   5.303   6.561
 7976SOL    HW224828   0.592   5.293   6.489
 7977SOL     OW24829   5.225   6.220   1.365
 7977SOL    HW124830   5.292   6.175   1.424
 7977SOL    HW224831   5.230   6.183   1.273
 7978SOL     OW24832   4.459   2.451   5.591
 7978SOL    HW124833   4.388   2.389   5.558
 7978SOL    HW224834   4.546   2.431   5.545
 7979SOL     OW24835   3.714   0.000   4.154
 7979SOL    HW124836   3.735   6.931   4.181
 7979SOL    HW224837   3.797   0.043   4.116
 7980SOL     OW24838   2.818   6.612   2.078
 7980SOL    HW124839   2.827   6.635   2.175
 7980SOL    HW224840   2.868   6.528   2.058
 7981SOL     OW24841   1.192   5.414   3.324
 7981SOL    HW124842   1.179   5.328   3.275
 7981SOL    HW224843   1.136   5.485   3.282
 7982SOL     OW24844   6.223   2.628   0.432
 7982SOL    HW124845   6.173   2.609   0.347
 7982SOL    HW224846   6.186   2.711   0.474
 7983SOL     OW24847   5.188   2.599   2.148
 7983SOL    HW124848   5.102   2.649   2.155
 7983SOL    HW224849   5.184   2.537   2.069
 7984SOL     OW24850   0.512   0.870   0.953
 7984SOL    HW124851   0.512   0.843   1.049
 7984SOL    HW224852   0.520   0.970   0.947
 7985SOL     OW24853   0.401   1.372   1.737
 7985SOL    HW124854   0.452   1.407   1.658
 7985SOL    HW224855   0.399   1.272   1.734
 7986SOL     OW24856   3.969   1.550   0.717
 7986SOL    HW124857   3.891   1.607   0.690
 7986SOL    HW224858   4.039   1.552   0.646
 7987SOL     OW24859   0.642   2.952   4.671
 7987SOL    HW124860   0.612   3.029   4.727
 7987SOL    HW224861   0.563   2.908   4.629
 7988SOL     OW24862   2.808   1.509   5.632
 7988SOL    HW124863   2.899   1.498   5.672
 7988SOL    HW224864   2.808   1.589   5.571
 7989SOL     OW24865   2.973   3.034   5.310
 7989SOL    HW124866   2.882   2.993   5.312
 7989SOL    HW224867   2.998   3.064   5.402
 7990SOL     OW24868   1.998   2.584   4.985
 7990SOL    HW124869   1.978   2.552   4.892
 7990SOL    HW224870   2.020   2.682   4.983
 7991SOL     OW24871   0.434   3.094   5.532
 7991SOL    HW124872   0.510   3.064   5.474
 7991SOL    HW224873   0.349   3.051   5.499
 7992SOL     OW24874   2.650   0.736   0.603
 7992SOL    HW124875   2.704   0.785   0.535
 7992SOL    HW224876   2.655   0.784   0.691
 7993SOL     OW24877   1.973   6.959   6.558
 7993SOL    HW124878   1.897   6.962   6.623
 7993SOL    HW224879   2.028   6.877   6.574
 7994SOL     OW24880   5.717   0.873   3.567
 7994SOL    HW124881   5.689   0.779   3.582
 7994SOL    HW224882   5.816   0.882   3.581
 7995SOL     OW24883   3.823   4.916   2.993
 7995SOL    HW124884   3.747   4.976   3.019
 7995SOL    HW224885   3.851   4.861   3.072
 7996SOL     OW24886   3.581   0.611   5.047
 7996SOL    HW124887   3.546   0.690   4.997
 7996SOL    HW224888   3.658   0.572   4.998
 7997SOL     OW24889   6.052   2.684   1.660
 7997SOL    HW124890   6.112   2.755   1.624
 7997SOL    HW224891   6.021   2.626   1.585
 7998SOL     OW24892   6.316   5.143   6.944
 7998SOL    HW124893   6.268   5.229   6.929
 7998SOL    HW224894   6.314   5.121   0.017
 7999SOL     OW24895   1.692   0.522   5.357
 7999SOL    HW124896   1.771   0.495   5.412
 7999SOL    HW224897   1.663   0.446   5.299
 8000SOL     OW24898   6.397   6.685   5.793
 8000SOL    HW124899   6.480   6.640   5.826
 8000SOL    HW224900   6.319   6.657   5.849
 8001SOL     OW24901   2.316   0.107   1.366
 8001SOL    HW124902   2.309   0.079   1.270
 8001SOL    HW224903   2.231   0.087   1.413
 8002SOL     OW24904   5.660   3.166   5.690
 8002SOL    HW124905   5.601   3.130   5.617
 8002SOL    HW224906   5.710   3.246   5.655
 8003SOL     OW24907   3.620   5.093   3.090
 8003SOL    HW124908   3.636   5.055   3.181
 8003SOL    HW224909   3.635   5.192   3.091
 8004SOL     OW24910   1.881   3.987   2.966
 8004SOL    HW124911   1.853   4.059   2.903
 8004SOL    HW224912   1.964   3.943   2.932
 8005SOL     OW24913   3.101   1.094   1.570
 8005SOL    HW124914   3.170   1.150   1.616
 8005SOL    HW224915   3.011   1.135   1.583
 8006SOL     OW24916   3.411   5.948   0.319
 8006SOL    HW124917   3.354   6.005   0.379
 8006SOL    HW224918   3.459   6.006   0.254
 8007SOL     OW24919   0.126   1.192   4.600
 8007SOL    HW124920   0.045   1.171   4.654
 8007SOL    HW224921   0.204   1.142   4.636
 8008SOL     OW24922   6.394   6.142   0.856
 8008SOL    HW124923   6.441   6.176   0.775
 8008SOL    HW224924   6.428   6.191   0.937
 8009SOL     OW24925   6.722   6.670   3.618
 8009SOL    HW124926   6.630   6.675   3.579
 8009SOL    HW224927   6.773   6.595   3.576
 8010SOL     OW24928   2.447   2.804   6.720
 8010SOL    HW124929   2.353   2.777   6.701
 8010SOL    HW224930   2.506   2.723   6.721
 8011SOL     OW24931   2.674   2.331   0.626
 8011SOL    HW124932   2.684   2.291   0.717
 8011SOL    HW224933   2.595   2.290   0.580
 8012SOL     OW24934   2.881   6.733   2.746
 8012SOL    HW124935   2.930   6.794   2.684
 8012SOL    HW224936   2.939   6.655   2.769
 8013SOL     OW24937   6.043   4.337   5.146
 8013SOL    HW124938   6.072   4.243   5.126
 8013SOL    HW224939   6.060   4.394   5.066
 8014SOL     OW24940   2.214   6.740   6.727
 8014SOL    HW124941   2.155   6.697   6.659
 8014SOL    HW224942   2.168   6.741   6.816
 8015SOL     OW24943   1.862   2.327   0.065
 8015SOL    HW124944   1.918   2.346   7.008
 8015SOL    HW224945   1.821   2.412   0.097
 8016SOL     OW24946   3.529   6.353   1.647
 8016SOL    HW124947   3.563   6.259   1.645
 8016SOL    HW224948   3.606   6.416   1.640
 8017SOL     OW24949   5.893   4.476   4.529
 8017SOL    HW124950   5.937   4.411   4.591
 8017SOL    HW224951   5.928   4.463   4.436
 8018SOL     OW24952   5.584   2.287   4.732
 8018SOL    HW124953   5.665   2.234   4.757
 8018SOL    HW224954   5.511   2.268   4.797
 8019SOL     OW24955   2.780   5.648   1.063
 8019SOL    HW124956   2.806   5.735   1.104
 8019SOL    HW224957   2.806   5.646   0.967
 8020SOL     OW24958   5.731   5.765   6.761
 8020SOL    HW124959   5.747   5.810   6.673
 8020SOL    HW224960   5.727   5.833   6.834
 8021SOL     OW24961   1.105   0.653   0.913
 8021SOL    HW124962   1.099   0.737   0.966
 8021SOL    HW224963   1.036   0.588   0.944
 8022SOL     OW24964   4.699   6.197   3.059
 8022SOL    HW124965   4.776   6.155   3.106
 8022SOL    HW224966   4.617   6.140   3.071
 8023SOL     OW24967   6.556   6.887   3.239
 8023SOL    HW124968   6.520   6.847   3.323
 8023SOL    HW224969   6.558   6.987   3.248
 8024SOL     OW24970   4.638   5.219   5.062
 8024SOL    HW124971   4.551   5.184   5.027
 8024SOL    HW224972   4.676   5.285   4.998
 8025SOL     OW24973   3.848   5.544   0.209
 8025SOL    HW124974   3.749   5.536   0.222
 8025SOL    HW224975   3.866   5.573   0.115
 8026SOL     OW24976   1.148   2.847   0.444
 8026SOL    HW124977   1.102   2.899   0.516
 8026SOL    HW224978   1.246   2.861   0.451
 8027SOL     OW24979   5.273   2.970   5.649
 8027SOL    HW124980   5.193   2.946   5.593
 8027SOL    HW224981   5.245   3.036   5.719
 8028SOL     OW24982   5.820   4.581   6.787
 8028SOL    HW124983   5.848   4.546   6.876
 8028SOL    HW224984   5.871   4.664   6.765
 8029SOL     OW24985   2.982   4.115   0.880
 8029SOL    HW124986   3.067   4.093   0.833
 8029SOL    HW224987   2.918   4.039   0.872
 8030SOL     OW24988   5.986   3.984   6.722
 8030SOL    HW124989   5.970   4.081   6.741
 8030SOL    HW224990   5.899   3.939   6.704
 8031SOL     OW24991   3.788   5.684   1.443
 8031SOL    HW124992   3.871   5.685   1.388
 8031SOL    HW224993   3.737   5.599   1.427
 8032SOL     OW24994   4.900   4.184   6.069
 8032SOL    HW124995   4.998   4.189   6.052
 8032SOL    HW224996   4.877   4.238   6.151
 8033SOL     OW24997   5.667   2.671   0.411
 8033SOL    HW124998   5.704   2.621   0.333
 8033SOL    HW224999   5.583   2.627   0.443
 8034SOL     OW25000   5.824   1.181   5.743
 8034SOL    HW125001   5.775   1.168   5.829
 8034SOL    HW225002   5.811   1.275   5.710
 8035SOL     OW25003   5.614   6.573   6.903
 8035SOL    HW125004   5.553   6.568   6.982
 8035SOL    HW225005   5.631   6.668   6.879
 8036SOL     OW25006   1.946   4.222   1.805
 8036SOL    HW125007   1.850   4.193   1.814
 8036SOL    HW225008   2.005   4.159   1.855
 8037SOL     OW25009   1.367   3.431   1.791
 8037SOL    HW125010   1.341   3.505   1.852
 8037SOL    HW225011   1.436   3.463   1.726
 8038SOL     OW25012   7.003   2.183   4.383
 8038SOL    HW125013   6.975   2.090   4.356
 8038SOL    HW225014   7.016   2.239   4.302
 8039SOL     OW25015   2.397   6.654   4.105
 8039SOL    HW125016   2.457   6.668   4.026
 8039SOL    HW225017   2.412   6.727   4.171
 8040SOL     OW25018   0.147   5.735   0.791
 8040SOL    HW125019   0.098   5.821   0.780
 8040SOL    HW225020   0.156   5.713   0.888
 8041SOL     OW25021   4.818   1.835   0.837
 8041SOL    HW125022   4.871   1.919   0.847
 8041SOL    HW225023   4.720   1.856   0.846
 8042SOL     OW25024   2.968   3.326   1.238
 8042SOL    HW125025   2.889   3.365   1.190
 8042SOL    HW225026   2.938   3.290   1.327
 8043SOL     OW25027   2.435   0.199   1.961
 8043SOL    HW125028   2.358   0.258   1.984
 8043SOL    HW225029   2.432   0.116   2.018
 8044SOL     OW25030   3.008   3.559   2.111
 8044SOL    HW125031   3.105   3.537   2.098
 8044SOL    HW225032   2.960   3.479   2.147
 8045SOL     OW25033   5.803   2.612   3.437
 8045SOL    HW125034   5.740   2.667   3.382
 8045SOL    HW225035   5.830   2.663   3.518
 8046SOL     OW25036   6.812   5.009   6.120
 8046SOL    HW125037   6.854   4.919   6.111
 8046SOL    HW225038   6.796   5.028   6.217
 8047SOL     OW25039   3.683   5.942   4.311
 8047SOL    HW125040   3.702   6.010   4.382
 8047SOL    HW225041   3.732   5.966   4.227
 8048SOL     OW25042   6.905   0.060   5.680
 8048SOL    HW125043   6.838   7.011   5.670
 8048SOL    HW225044   6.908   0.089   5.776
 8049SOL     OW25045   1.413   5.564   0.639
 8049SOL    HW125046   1.330   5.614   0.665
 8049SOL    HW225047   1.486   5.630   0.618
 8050SOL     OW25048   1.580   3.010   1.201
 8050SOL    HW125049   1.538   2.922   1.223
 8050SOL    HW225050   1.542   3.045   1.115
 8051SOL     OW25051   4.437   1.361   3.585
 8051SOL    HW125052   4.473   1.423   3.654
 8051SOL    HW225053   4.337   1.356   3.594
 8052SOL     OW25054   2.791   1.875   2.764
 8052SOL    HW125055   2.826   1.925   2.685
 8052SOL    HW225056   2.743   1.793   2.734
 8053SOL     OW25057   3.927   3.327   2.341
 8053SOL    HW125058   3.886   3.405   2.387
 8053SOL    HW225059   3.886   3.242   2.376
 8054SOL     OW25060   4.021   6.335   4.689
 8054SOL    HW125061   4.080   6.296   4.760
 8054SOL    HW225062   4.078   6.376   4.618
 8055SOL     OW25063   1.461   6.972   5.663
 8055SOL    HW125064   1.501   0.018   5.605
 8055SOL    HW225065   1.373   6.944   5.624
 8056SOL     OW25066   4.194   1.861   3.093
 8056SOL    HW125067   4.120   1.924   3.116
 8056SOL    HW225068   4.238   1.828   3.176
 8057SOL     OW25069   3.628   6.505   3.792
 8057SOL    HW125070   3.695   6.456   3.736
 8057SOL    HW225071   3.585   6.577   3.738
 8058SOL     OW25072   2.004   1.243   3.303
 8058SOL    HW125073   1.982   1.147   3.315
 8058SOL    HW225074   1.963   1.297   3.377
 8059SOL     OW25075   3.019   1.604   4.111
 8059SOL    HW125076   2.968   1.638   4.190
 8059SOL    HW225077   2.975   1.522   4.075
 8060SOL     OW25078   0.422   1.525   4.599
 8060SOL    HW125079   0.439   1.427   4.612
 8060SOL    HW225080   0.490   1.577   4.651
 8061SOL     OW25081   0.529   5.650   1.883
 8061SOL    HW125082   0.430   5.645   1.896
 8061SOL    HW225083   0.574   5.592   1.952
 8062SOL     OW25084   2.139   3.726   3.368
 8062SOL    HW125085   2.079   3.660   3.413
 8062SOL    HW225086   2.152   3.805   3.428
 8063SOL     OW25087   3.071   3.218   0.240
 8063SOL    HW125088   3.140   3.222   0.312
 8063SOL    HW225089   2.993   3.163   0.270
 8064SOL     OW25090   6.999   3.565   0.024
 8064SOL    HW125091   6.976   3.617   6.966
 8064SOL    HW225092   0.059   3.601   0.063
 8065SOL     OW25093   4.791   0.186   5.662
 8065SOL    HW125094   4.887   0.157   5.669
 8065SOL    HW225095   4.742   0.123   5.603
 8066SOL     OW25096   1.672   0.503   1.465
 8066SOL    HW125097   1.611   0.491   1.544
 8066SOL    HW225098   1.628   0.562   1.398
 8067SOL     OW25099   5.420   2.419   1.246
 8067SOL    HW125100   5.421   2.485   1.321
 8067SOL    HW225101   5.467   2.336   1.275
 8068SOL     OW25102   1.119   4.431   4.534
 8068SOL    HW125103   1.065   4.371   4.475
 8068SOL    HW225104   1.062   4.506   4.567
 8069SOL     OW25105   1.822   6.135   2.254
 8069SOL    HW125106   1.864   6.063   2.309
 8069SOL    HW225107   1.841   6.224   2.296
 8070SOL     OW25108   3.906   0.617   1.589
 8070SOL    HW125109   3.908   0.683   1.514
 8070SOL    HW225110   3.995   0.574   1.599
 8071SOL     OW25111   4.186   6.483   0.023
 8071SOL    HW125112   4.151   6.429   0.099
 8071SOL    HW225113   4.119   6.484   6.974
 8072SOL     OW25114   5.232   0.841   1.222
 8072SOL    HW125115   5.229   0.743   1.203
 8072SOL    HW225116   5.156   0.866   1.282
 8073SOL     OW25117   4.306   6.365   5.725
 8073SOL    HW125118   4.392   6.416   5.729
 8073SOL    HW225119   4.252   6.385   5.807
 8074SOL     OW25120   3.035   3.702   0.091
 8074SOL    HW125121   3.053   3.676   7.020
 8074SOL    HW225122   3.003   3.797   0.094
 8075SOL     OW25123   6.281   1.872   2.313
 8075SOL    HW125124   6.310   1.796   2.253
 8075SOL    HW225125   6.212   1.927   2.266
 8076SOL     OW25126   6.036   3.111   6.207
 8076SOL    HW125127   5.965   3.055   6.164
 8076SOL    HW225128   5.998   3.200   6.232
 8077SOL     OW25129   1.542   0.743   0.950
 8077SOL    HW125130   1.524   0.663   0.894
 8077SOL    HW225131   1.637   0.770   0.939
 8078SOL     OW25132   6.278   3.413   0.661
 8078SOL    HW125133   6.226   3.439   0.743
 8078SOL    HW225134   6.332   3.332   0.680
 8079SOL     OW25135   6.961   1.690   2.223
 8079SOL    HW125136   6.978   1.773   2.277
 8079SOL    HW225137   6.988   1.610   2.277
 8080SOL     OW25138   3.432   4.961   0.139
 8080SOL    HW125139   3.357   4.996   0.195
 8080SOL    HW225140   3.504   4.923   0.198
 8081SOL     OW25141   5.776   0.708   5.697
 8081SOL    HW125142   5.714   0.737   5.769
 8081SOL    HW225143   5.799   0.612   5.708
 8082SOL     OW25144   6.518   3.383   3.974
 8082SOL    HW125145   6.594   3.364   4.036
 8082SOL    HW225146   6.474   3.297   3.949
 8083SOL     OW25147   4.691   2.822   4.001
 8083SOL    HW125148   4.691   2.835   4.100
 8083SOL    HW225149   4.631   2.889   3.959
 8084SOL     OW25150   6.719   6.803   1.047
 8084SOL    HW125151   6.696   6.810   0.950
 8084SOL    HW225152   6.748   6.893   1.081
 8085SOL     OW25153   5.899   1.706   1.278
 8085SOL    HW125154   5.962   1.630   1.266
 8085SOL    HW225155   5.856   1.700   1.368
 8086SOL     OW25156   3.505   6.860   5.494
 8086SOL    HW125157   3.498   6.933   5.562
 8086SOL    HW225158   3.600   6.848   5.468
 8087SOL     OW25159   3.089   3.051   1.511
 8087SOL    HW125160   3.163   3.104   1.552
 8087SOL    HW225161   3.068   2.973   1.570
 8088SOL     OW25162   3.987   1.171   3.328
 8088SOL    HW125163   4.069   1.215   3.363
 8088SOL    HW225164   3.943   1.120   3.402
 8089SOL     OW25165   5.581   3.033   0.376
 8089SOL    HW125166   5.496   2.994   0.341
 8089SOL    HW225167   5.639   2.961   0.413
 8090SOL     OW25168   4.960   2.477   5.280
 8090SOL    HW125169   5.010   2.515   5.202
 8090SOL    HW225170   4.866   2.510   5.279
 8091SOL     OW25171   3.556   4.818   5.944
 8091SOL    HW125172   3.577   4.886   5.873
 8091SOL    HW225173   3.570   4.859   6.034
 8092SOL     OW25174   1.203   1.779   4.194
 8092SOL    HW125175   1.133   1.850   4.186
 8092SOL    HW225176   1.175   1.711   4.262
 8093SOL     OW25177   5.599   5.884   1.127
 8093SOL    HW125178   5.558   5.853   1.213
 8093SOL    HW225179   5.538   5.951   1.084
 8094SOL     OW25180   0.898   3.338   5.228
 8094SOL    HW125181   0.869   3.336   5.133
 8094SOL    HW225182   0.972   3.272   5.242
 8095SOL     OW25183   5.804   3.898   4.182
 8095SOL    HW125184   5.841   3.991   4.190
 8095SOL    HW225185   5.879   3.834   4.167
 8096SOL     OW25186   3.839   6.025   1.401
 8096SOL    HW125187   3.906   6.088   1.442
 8096SOL    HW225188   3.876   5.932   1.401
 8097SOL     OW25189   5.132   1.464   4.401
 8097SOL    HW125190   5.131   1.559   4.433
 8097SOL    HW225191   5.056   1.449   4.339
 8098SOL     OW25192   3.109   6.645   3.660
 8098SOL    HW125193   3.063   6.706   3.595
 8098SOL    HW225194   3.053   6.636   3.743
 8099SOL     OW25195   5.346   6.590   4.686
 8099SOL    HW125196   5.314   6.499   4.712
 8099SOL    HW225197   5.337   6.601   4.587
 8100SOL     OW25198   0.899   6.623   0.560
 8100SOL    HW125199   0.938   6.684   0.491
 8100SOL    HW225200   0.814   6.584   0.525
 8101SOL     OW25201   1.788   6.269   3.675
 8101SOL    HW125202   1.769   6.351   3.729
 8101SOL    HW225203   1.803   6.191   3.735
 8102SOL     OW25204   0.155   5.877   6.124
 8102SOL    HW125205   0.166   5.933   6.207
 8102SOL    HW225206   0.200   5.922   6.047
 8103SOL     OW25207   2.831   1.593   2.445
 8103SOL    HW125208   2.826   1.498   2.474
 8103SOL    HW225209   2.745   1.621   2.403
 8104SOL     OW25210   2.241   6.563   6.193
 8104SOL    HW125211   2.228   6.656   6.227
 8104SOL    HW225212   2.303   6.565   6.115
 8105SOL     OW25213   1.460   1.801   2.885
 8105SOL    HW125214   1.526   1.825   2.814
 8105SOL    HW225215   1.374   1.848   2.866
 8106SOL     OW25216   0.772   3.980   4.086
 8106SOL    HW125217   0.788   4.075   4.114
 8106SOL    HW225218   0.858   3.938   4.057
 8107SOL     OW25219   1.994   6.165   6.072
 8107SOL    HW125220   1.940   6.216   6.005
 8107SOL    HW225221   1.956   6.073   6.082
 8108SOL     OW25222   1.242   2.766   4.106
 8108SOL    HW125223   1.168   2.710   4.067
 8108SOL    HW225224   1.236   2.766   4.205
 8109SOL     OW25225   1.489   4.992   5.126
 8109SOL    HW125226   1.495   5.086   5.093
 8109SOL    HW225227   1.578   4.947   5.116
 8110SOL     OW25228   1.871   4.459   1.181
 8110SOL    HW125229   1.810   4.537   1.171
 8110SOL    HW225230   1.852   4.412   1.267
 8111SOL     OW25231   2.546   5.549   4.326
 8111SOL    HW125232   2.541   5.449   4.328
 8111SOL    HW225233   2.593   5.583   4.407
 8112SOL     OW25234   3.012   1.073   5.041
 8112SOL    HW125235   3.060   0.985   5.031
 8112SOL    HW225236   3.030   1.111   5.131
 8113SOL     OW25237   3.857   2.918   5.957
 8113SOL    HW125238   3.789   2.900   5.886
 8113SOL    HW225239   3.816   2.903   6.047
 8114SOL     OW25240   2.576   3.640   1.331
 8114SOL    HW125241   2.526   3.555   1.315
 8114SOL    HW225242   2.606   3.677   1.243
 8115SOL     OW25243   3.723   1.720   0.950
 8115SOL    HW125244   3.644   1.760   0.996
 8115SOL    HW225245   3.806   1.766   0.981
 8116SOL     OW25246   6.069   0.733   5.607
 8116SOL    HW125247   6.012   0.805   5.645
 8116SOL    HW225248   6.015   0.679   5.542
 8117SOL     OW25249   2.302   1.863   5.858
 8117SOL    HW125250   2.366   1.815   5.797
 8117SOL    HW225251   2.344   1.876   5.947
 8118SOL     OW25252   1.098   2.826   4.389
 8118SOL    HW125253   1.074   2.849   4.483
 8118SOL    HW225254   1.017   2.796   4.339
 8119SOL     OW25255   1.196   5.957   2.900
 8119SOL    HW125256   1.288   5.942   2.935
 8119SOL    HW225257   1.200   5.980   2.803
 8120SOL     OW25258   4.248   4.087   1.485
 8120SOL    HW125259   4.155   4.059   1.462
 8120SOL    HW225260   4.245   4.152   1.561
 8121SOL     OW25261   6.732   7.013   2.835
 8121SOL    HW125262   6.652   6.978   2.787
 8121SOL    HW225263   6.815   6.989   2.785
 8122SOL     OW25264   0.073   6.713   1.865
 8122SOL    HW125265   0.009   6.791   1.864
 8122SOL    HW225266   0.150   6.735   1.924
 8123SOL     OW25267   0.567   5.708   0.314
 8123SOL    HW125268   0.480   5.674   0.276
 8123SOL    HW225269   0.643   5.656   0.273
 8124SOL     OW25270   0.908   6.047   2.785
 8124SOL    HW125271   0.865   6.137   2.771
 8124SOL    HW225272   0.939   6.040   2.880
 8125SOL     OW25273   5.384   5.440   2.803
 8125SOL    HW125274   5.373   5.365   2.869
 8125SOL    HW225275   5.480   5.468   2.799
 8126SOL     OW25276   5.570   4.866   1.884
 8126SOL    HW125277   5.605   4.850   1.792
 8126SOL    HW225278   5.642   4.909   1.939
 8127SOL     OW25279   3.423   4.383   0.556
 8127SOL    HW125280   3.348   4.440   0.523
 8127SOL    HW225281   3.399   4.286   0.543
 8128SOL     OW25282   3.669   2.618   5.420
 8128SOL    HW125283   3.760   2.657   5.415
 8128SOL    HW225284   3.601   2.688   5.398
 8129SOL     OW25285   4.874   0.054   6.823
 8129SOL    HW125286   4.811   0.013   6.889
 8129SOL    HW225287   4.850   0.023   6.731
 8130SOL     OW25288   1.538   6.557   0.566
 8130SOL    HW125289   1.474   6.528   0.495
 8130SOL    HW225290   1.494   6.550   0.655
 8131SOL     OW25291   1.675   1.772   0.491
 8131SOL    HW125292   1.711   1.761   0.398
 8131SOL    HW225293   1.659   1.682   0.531
 8132SOL     OW25294   6.790   5.156   3.287
 8132SOL    HW125295   6.864   5.093   3.264
 8132SOL    HW225296   6.799   5.184   3.383
 8133SOL     OW25297   1.046   5.568   2.201
 8133SOL    HW125298   1.089   5.618   2.127
 8133SOL    HW225299   0.965   5.617   2.232
 8134SOL     OW25300   2.181   2.340   2.298
 8134SOL    HW125301   2.115   2.415   2.308
 8134SOL    HW225302   2.131   2.256   2.274
 8135SOL     OW25303   4.362   6.198   1.795
 8135SOL    HW125304   4.372   6.118   1.736
 8135SOL    HW225305   4.280   6.188   1.851
 8136SOL     OW25306   4.077   6.135   1.154
 8136SOL    HW125307   4.060   6.126   1.056
 8136SOL    HW225308   4.171   6.107   1.174
 8137SOL     OW25309   2.609   3.931   5.769
 8137SOL    HW125310   2.706   3.913   5.788
 8137SOL    HW225311   2.588   3.903   5.675
 8138SOL     OW25312   4.671   0.846   3.490
 8138SOL    HW125313   4.636   0.801   3.408
 8138SOL    HW225314   4.758   0.891   3.469
 8139SOL     OW25315   1.799   2.826   3.943
 8139SOL    HW125316   1.843   2.910   3.975
 8139SOL    HW225317   1.726   2.849   3.879
 8140SOL     OW25318   4.341   0.721   0.822
 8140SOL    HW125319   4.380   0.808   0.852
 8140SOL    HW225320   4.315   0.666   0.901
 8141SOL     OW25321   5.578   0.639   5.285
 8141SOL    HW125322   5.634   0.702   5.338
 8141SOL    HW225323   5.574   0.669   5.190
 8142SOL     OW25324   2.307   5.713   1.417
 8142SOL    HW125325   2.266   5.631   1.378
 8142SOL    HW225326   2.245   5.752   1.485
 8143SOL     OW25327   6.400   5.410   0.858
 8143SOL    HW125328   6.430   5.503   0.837
 8143SOL    HW225329   6.309   5.412   0.897
 8144SOL     OW25330   0.069   4.956   0.247
 8144SOL    HW125331   7.015   4.895   0.238
 8144SOL    HW225332   0.044   5.035   0.303
 8145SOL     OW25333   5.426   5.349   6.890
 8145SOL    HW125334   5.405   5.443   6.917
 8145SOL    HW225335   5.459   5.298   6.969
 8146SOL     OW25336   6.106   0.055   3.878
 8146SOL    HW125337   6.076   0.129   3.819
 8146SOL    HW225338   6.197   0.023   3.849
 8147SOL     OW25339   2.195   0.722   6.435
 8147SOL    HW125340   2.097   0.709   6.448
 8147SOL    HW225341   2.219   0.818   6.454
 8148SOL     OW25342   4.417   4.663   0.348
 8148SOL    HW125343   4.346   4.612   0.396
 8148SOL    HW225344   4.453   4.734   0.409
 8149SOL     OW25345   0.529   6.207   5.027
 8149SOL    HW125346   0.570   6.255   5.105
 8149SOL    HW225347   0.509   6.272   4.955
 8150SOL     OW25348   0.332   3.886   1.251
 8150SOL    HW125349   0.349   3.936   1.165
 8150SOL    HW225350   0.390   3.923   1.323
 8151SOL     OW25351   6.734   6.210   2.674
 8151SOL    HW125352   6.819   6.224   2.723
 8151SOL    HW225353   6.695   6.121   2.699
 8152SOL     OW25354   4.505   1.260   3.137
 8152SOL    HW125355   4.518   1.359   3.129
 8152SOL    HW225356   4.575   1.213   3.085
 8153SOL     OW25357   0.362   1.315   2.290
 8153SOL    HW125358   0.293   1.366   2.239
 8153SOL    HW225359   0.445   1.371   2.300
 8154SOL     OW25360   1.947   0.148   3.273
 8154SOL    HW125361   1.887   0.071   3.294
 8154SOL    HW225362   2.031   0.114   3.231
 8155SOL     OW25363   2.090   5.373   3.351
 8155SOL    HW125364   2.039   5.361   3.266
 8155SOL    HW225365   2.081   5.291   3.407
 8156SOL     OW25366   0.558   5.110   1.607
 8156SOL    HW125367   0.519   5.066   1.688
 8156SOL    HW225368   0.600   5.197   1.633
 8157SOL     OW25369   0.452   3.341   4.539
 8157SOL    HW125370   0.372   3.336   4.598
 8157SOL    HW225371   0.441   3.416   4.474
 8158SOL     OW25372   6.027   5.464   6.816
 8158SOL    HW125373   6.096   5.445   6.885
 8158SOL    HW225374   5.944   5.499   6.860
 8159SOL     OW25375   3.383   6.906   5.247
 8159SOL    HW125376   3.423   6.867   5.331
 8159SOL    HW225377   3.308   6.967   5.272
 8160SOL     OW25378   5.260   1.226   2.411
 8160SOL    HW125379   5.220   1.185   2.329
 8160SOL    HW225380   5.354   1.195   2.422
 8161SOL     OW25381   5.490   3.210   1.673
 8161SOL    HW125382   5.586   3.225   1.699
 8161SOL    HW225383   5.436   3.193   1.756
 8162SOL     OW25384   0.355   5.314   5.793
 8162SOL    HW125385   0.301   5.367   5.729
 8162SOL    HW225386   0.350   5.356   5.884
 8163SOL     OW25387   4.564   4.341   5.227
 8163SOL    HW125388   4.638   4.286   5.265
 8163SOL    HW225389   4.476   4.301   5.253
 8164SOL     OW25390   5.304   1.642   1.372
 8164SOL    HW125391   5.206   1.658   1.364
 8164SOL    HW225392   5.319   1.560   1.429
 8165SOL     OW25393   0.111   1.095   0.769
 8165SOL    HW125394   0.091   1.036   0.848
 8165SOL    HW225395   0.199   1.068   0.729
 8166SOL     OW25396   1.472   1.557   5.303
 8166SOL    HW125397   1.467   1.479   5.366
 8166SOL    HW225398   1.414   1.631   5.337
 8167SOL     OW25399   1.491   3.034   4.127
 8167SOL    HW125400   1.412   3.072   4.176
 8167SOL    HW225401   1.524   2.953   4.175
 8168SOL     OW25402   2.246   1.150   2.320
 8168SOL    HW125403   2.321   1.182   2.261
 8168SOL    HW225404   2.165   1.132   2.264
 8169SOL     OW25405   4.896   2.840   0.214
 8169SOL    HW125406   4.982   2.827   0.164
 8169SOL    HW225407   4.819   2.839   0.150
 8170SOL     OW25408   6.658   5.084   2.447
 8170SOL    HW125409   6.751   5.052   2.463
 8170SOL    HW225410   6.613   5.023   2.381
 8171SOL     OW25411   2.039   1.089   0.830
 8171SOL    HW125412   2.029   1.058   0.735
 8171SOL    HW225413   2.061   1.010   0.888
 8172SOL     OW25414   0.841   2.537   0.724
 8172SOL    HW125415   0.883   2.576   0.806
 8172SOL    HW225416   0.853   2.437   0.725
 8173SOL     OW25417   5.730   0.996   1.330
 8173SOL    HW125418   5.762   1.049   1.252
 8173SOL    HW225419   5.638   0.962   1.312
 8174SOL     OW25420   2.860   5.094   3.060
 8174SOL    HW125421   2.911   5.165   3.011
 8174SOL    HW225422   2.912   5.009   3.060
 8175SOL     OW25423   0.466   1.315   5.411
 8175SOL    HW125424   0.370   1.291   5.395
 8175SOL    HW225425   0.497   1.275   5.496
 8176SOL     OW25426   2.586   4.334   0.322
 8176SOL    HW125427   2.555   4.308   0.230
 8176SOL    HW225428   2.508   4.334   0.385
 8177SOL     OW25429   3.450   0.944   3.426
 8177SOL    HW125430   3.358   0.940   3.467
 8177SOL    HW225431   3.500   0.861   3.448
 8178SOL     OW25432   2.545   6.856   1.518
 8178SOL    HW125433   2.544   6.952   1.545
 8178SOL    HW225434   2.451   6.824   1.502
 8179SOL     OW25435   5.513   1.263   3.393
 8179SOL    HW125436   5.573   1.298   3.466
 8179SOL    HW225437   5.518   1.163   3.391
 8180SOL     OW25438   5.291   6.778   0.153
 8180SOL    HW125439   5.191   6.771   0.157
 8180SOL    HW225440   5.317   6.869   0.121
 8181SOL     OW25441   0.592   0.564   0.655
 8181SOL    HW125442   0.544   0.497   0.711
 8181SOL    HW225443   0.691   0.552   0.666
 8182SOL     OW25444   2.985   3.732   4.654
 8182SOL    HW125445   3.080   3.702   4.647
 8182SOL    HW225446   2.953   3.764   4.565
 8183SOL     OW25447   0.065   0.128   4.969
 8183SOL    HW125448   0.076   0.029   4.977
 8183SOL    HW225449   7.018   0.159   5.030
 8184SOL     OW25450   0.544   6.066   6.736
 8184SOL    HW125451   0.451   6.102   6.740
 8184SOL    HW225452   0.542   5.971   6.706
 8185SOL     OW25453   0.316   6.248   6.084
 8185SOL    HW125454   0.332   6.238   6.182
 8185SOL    HW225455   0.219   6.239   6.065
 8186SOL     OW25456   1.625   5.690   6.735
 8186SOL    HW125457   1.526   5.679   6.729
 8186SOL    HW225458   1.649   5.787   6.725
 8187SOL     OW25459   0.860   0.737   5.909
 8187SOL    HW125460   0.774   0.787   5.908
 8187SOL    HW225461   0.915   0.766   5.988
 8188SOL     OW25462   2.055   3.223   3.524
 8188SOL    HW125463   1.960   3.246   3.503
 8188SOL    HW225464   2.109   3.308   3.528
 8189SOL     OW25465   5.543   5.531   3.736
 8189SOL    HW125466   5.601   5.502   3.811
 8189SOL    HW225467   5.598   5.581   3.668
 8190SOL     OW25468   6.958   3.979   3.230
 8190SOL    HW125469   0.029   4.006   3.219
 8190SOL    HW225470   6.953   3.895   3.284
 8191SOL     OW25471   3.626   5.797   0.776
 8191SOL    HW125472   3.533   5.833   0.774
 8191SOL    HW225473   3.627   5.708   0.820
 8192SOL     OW25474   0.510   4.924   3.409
 8192SOL    HW125475   0.573   4.897   3.336
 8192SOL    HW225476   0.561   4.966   3.483
 8193SOL     OW25477   0.550   4.299   4.737
 8193SOL    HW125478   0.520   4.382   4.690
 8193SOL    HW225479   0.526   4.219   4.683
 8194SOL     OW25480   4.601   6.588   1.574
 8194SOL    HW125481   4.598   6.671   1.631
 8194SOL    HW225482   4.562   6.609   1.485
 8195SOL     OW25483   6.126   6.387   2.931
 8195SOL    HW125484   6.177   6.360   2.850
 8195SOL    HW225485   6.102   6.307   2.985
 8196SOL     OW25486   4.731   0.840   0.898
 8196SOL    HW125487   4.780   0.861   0.982
 8196SOL    HW225488   4.795   0.805   0.829
 8197SOL     OW25489   3.924   1.613   2.605
 8197SOL    HW125490   3.917   1.600   2.704
 8197SOL    HW225491   3.903   1.708   2.582
 8198SOL     OW25492   1.470   0.221   2.066
 8198SOL    HW125493   1.566   0.239   2.089
 8198SOL    HW225494   1.439   0.140   2.115
 8199SOL     OW25495   5.350   2.841   6.773
 8199SOL    HW125496   5.397   2.885   6.697
 8199SOL    HW225497   5.273   2.787   6.738
 8200SOL     OW25498   4.564   3.177   0.565
 8200SOL    HW125499   4.638   3.211   0.506
 8200SOL    HW225500   4.585   3.200   0.660
 8201SOL     OW25501   6.092   6.472   5.491
 8201SOL    HW125502   6.158   6.525   5.437
 8201SOL    HW225503   6.062   6.393   5.438
 8202SOL     OW25504   0.632   0.131   1.965
 8202SOL    HW125505   0.573   0.051   1.975
 8202SOL    HW225506   0.717   0.105   1.919
 8203SOL     OW25507   0.973   3.686   1.668
 8203SOL    HW125508   0.927   3.664   1.582
 8203SOL    HW225509   0.991   3.602   1.719
 8204SOL     OW25510   2.961   2.669   1.368
 8204SOL    HW125511   2.921   2.616   1.294
 8204SOL    HW225512   2.890   2.725   1.411
 8205SOL     OW25513   1.145   3.863   0.392
 8205SOL    HW125514   1.226   3.861   0.451
 8205SOL    HW225515   1.067   3.823   0.440
 8206SOL     OW25516   3.749   0.338   0.535
 8206SOL    HW125517   3.709   0.295   0.454
 8206SOL    HW225518   3.746   0.437   0.525
 8207SOL     OW25519   4.172   3.665   4.906
 8207SOL    HW125520   4.257   3.667   4.958
 8207SOL    HW225521   4.099   3.623   4.960
 8208SOL     OW25522   2.665   0.449   0.614
 8208SOL    HW125523   2.754   0.407   0.632
 8208SOL    HW225524   2.675   0.548   0.612
 8209SOL     OW25525   5.990   1.054   5.274
 8209SOL    HW125526   5.973   1.079   5.369
 8209SOL    HW225527   6.083   1.080   5.248
 8210SOL     OW25528   1.691   2.914   6.807
 8210SOL    HW125529   1.640   2.852   6.867
 8210SOL    HW225530   1.784   2.925   6.841
 8211SOL     OW25531   3.379   4.335   1.518
 8211SOL    HW125532   3.338   4.281   1.445
 8211SOL    HW225533   3.473   4.304   1.534
 8212SOL     OW25534   1.572   3.062   3.557
 8212SOL    HW125535   1.640   3.105   3.498
 8212SOL    HW225536   1.519   3.133   3.604
 8213SOL     OW25537   7.013   5.309   1.399
 8213SOL    HW125538   0.087   5.294   1.403
 8213SOL    HW225539   6.988   5.346   1.309
 8214SOL     OW25540   5.575   4.195   3.403
 8214SOL    HW125541   5.630   4.265   3.448
 8214SOL    HW225542   5.620   4.106   3.412
 8215SOL     OW25543   3.689   5.758   4.056
 8215SOL    HW125544   3.590   5.744   4.056
 8215SOL    HW225545   3.731   5.701   4.126
 8216SOL     OW25546   5.391   4.118   3.581
 8216SOL    HW125547   5.344   4.197   3.621
 8216SOL    HW225548   5.447   4.148   3.504
 8217SOL     OW25549   2.377   6.194   0.111
 8217SOL    HW125550   2.459   6.192   0.053
 8217SOL    HW225551   2.328   6.280   0.096
 8218SOL     OW25552   0.060   1.652   0.103
 8218SOL    HW125553   0.153   1.666   0.138
 8218SOL    HW225554   0.021   1.740   0.075
 8219SOL     OW25555   6.368   2.080   6.666
 8219SOL    HW125556   6.458   2.044   6.690
 8219SOL    HW225557   6.357   2.079   6.566
 8220SOL     OW25558   3.505   3.470   2.480
 8220SOL    HW125559   3.461   3.385   2.509
 8220SOL    HW225560   3.440   3.546   2.489
 8221SOL     OW25561   5.055   5.596   3.680
 8221SOL    HW125562   5.084   5.580   3.585
 8221SOL    HW225563   5.064   5.512   3.732
 8222SOL     OW25564   5.589   1.693   1.451
 8222SOL    HW125565   5.498   1.683   1.491
 8222SOL    HW225566   5.589   1.658   1.357
 8223SOL     OW25567   0.433   4.696   5.778
 8223SOL    HW125568   0.403   4.790   5.765
 8223SOL    HW225569   0.354   4.635   5.773
 8224SOL     OW25570   0.978   2.921   3.782
 8224SOL    HW125571   1.053   2.875   3.734
 8224SOL    HW225572   0.997   3.019   3.786
 8225SOL     OW25573   4.712   1.279   0.177
 8225SOL    HW125574   4.729   1.197   0.232
 8225SOL    HW225575   4.627   1.269   0.126
 8226SOL     OW25576   5.158   0.368   0.869
 8226SOL    HW125577   5.200   0.458   0.864
 8226SOL    HW225578   5.060   0.377   0.889
 8227SOL     OW25579   6.448   3.404   3.527
 8227SOL    HW125580   6.417   3.447   3.442
 8227SOL    HW225581   6.401   3.317   3.540
 8228SOL     OW25582   6.283   2.808   5.675
 8228SOL    HW125583   6.192   2.807   5.716
 8228SOL    HW225584   6.276   2.784   5.578
 8229SOL     OW25585   3.894   4.908   0.163
 8229SOL    HW125586   3.908   5.006   0.151
 8229SOL    HW225587   3.854   4.890   0.253
 8230SOL     OW25588   5.580   0.895   4.255
 8230SOL    HW125589   5.612   0.929   4.167
 8230SOL    HW225590   5.649   0.914   4.325
 8231SOL     OW25591   5.041   6.340   0.984
 8231SOL    HW125592   5.008   6.355   0.891
 8231SOL    HW225593   5.000   6.257   1.021
 8232SOL     OW25594   3.420   2.588   6.108
 8232SOL    HW125595   3.512   2.547   6.104
 8232SOL    HW225596   3.411   2.655   6.034
 8233SOL     OW25597   0.314   4.848   0.098
 8233SOL    HW125598   0.244   4.891   0.155
 8233SOL    HW225599   0.271   4.783   0.035
 8234SOL     OW25600   3.171   2.671   6.463
 8234SOL    HW125601   3.078   2.649   6.493
 8234SOL    HW225602   3.166   2.721   6.376
 8235SOL     OW25603   3.847   3.729   1.173
 8235SOL    HW125604   3.806   3.798   1.113
 8235SOL    HW225605   3.906   3.669   1.119
 8236SOL     OW25606   6.244   2.965   0.284
 8236SOL    HW125607   6.169   2.936   0.225
 8236SOL    HW225608   6.221   2.944   0.379
 8237SOL     OW25609   4.253   6.348   5.424
 8237SOL    HW125610   4.224   6.430   5.375
 8237SOL    HW225611   4.269   6.369   5.520
 8238SOL     OW25612   1.844   2.154   6.670
 8238SOL    HW125613   1.925   2.121   6.718
 8238SOL    HW225614   1.762   2.115   6.712
 8239SOL     OW25615   0.549   1.623   5.842
 8239SOL    HW125616   0.458   1.638   5.802
 8239SOL    HW225617   0.618   1.666   5.783
 8240SOL     OW25618   3.700   4.070   3.324
 8240SOL    HW125619   3.650   4.047   3.407
 8240SOL    HW225620   3.796   4.041   3.334
 8241SOL     OW25621   3.916   6.662   0.223
 8241SOL    HW125622   3.937   6.694   0.130
 8241SOL    HW225623   3.987   6.695   0.286
 8242SOL     OW25624   1.079   4.312   5.787
 8242SOL    HW125625   1.121   4.372   5.719
 8242SOL    HW225626   1.001   4.265   5.745
 8243SOL     OW25627   0.883   3.628   5.237
 8243SOL    HW125628   0.909   3.656   5.144
 8243SOL    HW225629   0.887   3.529   5.244
 8244SOL     OW25630   0.370   6.719   4.050
 8244SOL    HW125631   0.384   6.678   3.960
 8244SOL    HW225632   0.286   6.682   4.091
 8245SOL     OW25633   3.558   2.546   1.125
 8245SOL    HW125634   3.607   2.503   1.201
 8245SOL    HW225635   3.483   2.487   1.096
 8246SOL     OW25636   5.465   3.606   5.609
 8246SOL    HW125637   5.429   3.590   5.701
 8246SOL    HW225638   5.412   3.678   5.564
 8247SOL     OW25639   1.045   0.299   1.480
 8247SOL    HW125640   1.122   0.343   1.434
 8247SOL    HW225641   0.959   0.326   1.436
 8248SOL     OW25642   5.664   4.576   3.484
 8248SOL    HW125643   5.701   4.669   3.498
 8248SOL    HW225644   5.578   4.582   3.435
 8249SOL     OW25645   2.487   4.862   3.811
 8249SOL    HW125646   2.501   4.793   3.883
 8249SOL    HW225647   2.398   4.848   3.769
 8250SOL     OW25648   3.936   3.735   2.619
 8250SOL    HW125649   3.990   3.662   2.662
 8250SOL    HW225650   3.869   3.769   2.685
 8251SOL     OW25651   6.116   2.115   4.688
 8251SOL    HW125652   6.019   2.112   4.666
 8251SOL    HW225653   6.160   2.186   4.633
 8252SOL     OW25654   1.698   2.901   5.213
 8252SOL    HW125655   1.734   2.991   5.238
 8252SOL    HW225656   1.771   2.833   5.218
 8253SOL     OW25657   3.336   2.849   5.090
 8253SOL    HW125658   3.399   2.878   5.018
 8253SOL    HW225659   3.247   2.890   5.074
 8254SOL     OW25660   3.740   5.730   3.757
 8254SOL    HW125661   3.747   5.726   3.857
 8254SOL    HW225662   3.650   5.699   3.729
 8255SOL     OW25663   4.478   5.598   4.143
 8255SOL    HW125664   4.571   5.613   4.108
 8255SOL    HW225665   4.458   5.667   4.214
 8256SOL     OW25666   6.997   1.722   4.516
 8256SOL    HW125667   6.956   1.632   4.506
 8256SOL    HW225668   0.063   1.714   4.557
 8257SOL     OW25669   6.314   4.821   3.288
 8257SOL    HW125670   6.335   4.907   3.241
 8257SOL    HW225671   6.218   4.821   3.317
 8258SOL     OW25672   3.953   1.498   0.092
 8258SOL    HW125673   4.012   1.578   0.099
 8258SOL    HW225674   4.000   1.419   0.132
 8259SOL     OW25675   3.891   2.165   2.452
 8259SOL    HW125676   3.799   2.127   2.441
 8259SOL    HW225677   3.893   2.258   2.415
 8260SOL     OW25678   2.671   6.324   0.424
 8260SOL    HW125679   2.696   6.325   0.521
 8260SOL    HW225680   2.619   6.240   0.404
 8261SOL     OW25681   5.275   1.184   1.817
 8261SOL    HW125682   5.320   1.245   1.751
 8261SOL    HW225683   5.242   1.238   1.894
 8262SOL     OW25684   0.856   2.630   1.816
 8262SOL    HW125685   0.842   2.615   1.914
 8262SOL    HW225686   0.785   2.692   1.781
 8263SOL     OW25687   6.695   1.515   1.547
 8263SOL    HW125688   6.773   1.573   1.523
 8263SOL    HW225689   6.610   1.566   1.531
 8264SOL     OW25690   2.077   5.073   2.855
 8264SOL    HW125691   2.126   5.157   2.831
 8264SOL    HW225692   1.986   5.096   2.889
 8265SOL     OW25693   2.162   0.619   2.024
 8265SOL    HW125694   2.097   0.630   1.949
 8265SOL    HW225695   2.130   0.673   2.102
 8266SOL     OW25696   3.478   6.687   2.631
 8266SOL    HW125697   3.464   6.742   2.549
 8266SOL    HW225698   3.480   6.746   2.711
 8267SOL     OW25699   1.430   3.376   0.962
 8267SOL    HW125700   1.481   3.419   1.036
 8267SOL    HW225701   1.336   3.410   0.963
 8268SOL     OW25702   2.432   6.584   5.527
 8268SOL    HW125703   2.491   6.655   5.489
 8268SOL    HW225704   2.473   6.549   5.612
 8269SOL     OW25705   5.734   1.840   1.116
 8269SOL    HW125706   5.774   1.761   1.162
 8269SOL    HW225707   5.639   1.851   1.145
 8270SOL     OW25708   3.682   6.366   4.002
 8270SOL    HW125709   3.776   6.341   3.978
 8270SOL    HW225710   3.647   6.433   3.937
 8271SOL     OW25711   6.904   1.414   2.912
 8271SOL    HW125712   6.858   1.333   2.948
 8271SOL    HW225713   6.847   1.495   2.930
 8272SOL     OW25714   3.456   0.810   3.015
 8272SOL    HW125715   3.395   0.804   3.094
 8272SOL    HW225716   3.430   0.741   2.948
 8273SOL     OW25717   2.252   6.302   0.963
 8273SOL    HW125718   2.180   6.295   1.031
 8273SOL    HW225719   2.324   6.362   0.997
 8274SOL     OW25720   4.879   5.229   3.370
 8274SOL    HW125721   4.884   5.327   3.387
 8274SOL    HW225722   4.833   5.184   3.447
 8275SOL     OW25723   4.849   1.810   5.868
 8275SOL    HW125724   4.804   1.886   5.916
 8275SOL    HW225725   4.948   1.824   5.868
 8276SOL     OW25726   1.148   1.776   3.861
 8276SOL    HW125727   1.109   1.793   3.951
 8276SOL    HW225728   1.086   1.811   3.791
 8277SOL     OW25729   6.993   6.896   7.009
 8277SOL    HW125730   6.967   6.965   0.052
 8277SOL    HW225731   7.007   6.808   0.029
 8278SOL     OW25732   2.168   2.511   0.400
 8278SOL    HW125733   2.199   2.476   0.489
 8278SOL    HW225734   2.155   2.435   0.337
 8279SOL     OW25735   0.434   6.421   4.051
 8279SOL    HW125736   0.410   6.442   3.956
 8279SOL    HW225737   0.351   6.405   4.104
 8280SOL     OW25738   3.227   3.026   5.882
 8280SOL    HW125739   3.194   3.077   5.802
 8280SOL    HW225740   3.153   2.968   5.916
 8281SOL     OW25741   6.927   5.859   1.662
 8281SOL    HW125742   6.959   5.797   1.734
 8281SOL    HW225743   6.843   5.904   1.693
 8282SOL     OW25744   5.467   2.263   5.543
 8282SOL    HW125745   5.513   2.288   5.458
 8282SOL    HW225746   5.380   2.218   5.521
 8283SOL     OW25747   2.055   4.018   5.817
 8283SOL    HW125748   2.146   4.055   5.836
 8283SOL    HW225749   2.011   3.993   5.903
 8284SOL     OW25750   6.883   4.600   2.272
 8284SOL    HW125751   6.868   4.501   2.273
 8284SOL    HW225752   6.815   4.644   2.214
 8285SOL     OW25753   3.452   3.364   5.305
 8285SOL    HW125754   3.485   3.280   5.262
 8285SOL    HW225755   3.361   3.348   5.344
 8286SOL     OW25756   6.462   2.259   6.121
 8286SOL    HW125757   6.527   2.336   6.123
 8286SOL    HW225758   6.370   2.294   6.105
 8287SOL     OW25759   1.821   5.611   5.028
 8287SOL    HW125760   1.869   5.641   5.111
 8287SOL    HW225761   1.886   5.569   4.965
 8288SOL     OW25762   2.487   2.619   3.222
 8288SOL    HW125763   2.402   2.598   3.270
 8288SOL    HW225764   2.486   2.577   3.132
 8289SOL     OW25765   0.527   6.694   6.965
 8289SOL    HW125766   0.590   6.767   6.991
 8289SOL    HW225767   0.442   6.703   7.018
 8290SOL     OW25768   6.420   2.017   0.456
 8290SOL    HW125769   6.500   2.014   0.516
 8290SOL    HW225770   6.349   2.072   0.499
 8291SOL     OW25771   4.434   0.325   6.183
 8291SOL    HW125772   4.426   0.411   6.233
 8291SOL    HW225773   4.399   0.250   6.238
 8292SOL     OW25774   3.195   6.613   6.825
 8292SOL    HW125775   3.142   6.534   6.854
 8292SOL    HW225776   3.281   6.583   6.783
 8293SOL     OW25777   5.229   5.976   6.241
 8293SOL    HW125778   5.215   5.893   6.187
 8293SOL    HW225779   5.279   6.043   6.186
 8294SOL     OW25780   5.533   2.595   6.811
 8294SOL    HW125781   5.513   2.692   6.808
 8294SOL    HW225782   5.449   2.542   6.800
 8295SOL     OW25783   4.886   4.155   1.158
 8295SOL    HW125784   4.824   4.147   1.080
 8295SOL    HW225785   4.946   4.234   1.144
 8296SOL     OW25786   1.962   5.603   6.852
 8296SOL    HW125787   1.930   5.696   6.871
 8296SOL    HW225788   2.060   5.597   6.873
 8297SOL     OW25789   6.560   2.433   2.956
 8297SOL    HW125790   6.656   2.462   2.956
 8297SOL    HW225791   6.511   2.483   2.885
 8298SOL     OW25792   5.012   0.999   1.385
 8298SOL    HW125793   5.004   0.938   1.463
 8298SOL    HW225794   5.006   1.094   1.415
 8299SOL     OW25795   6.151   2.189   2.300
 8299SOL    HW125796   6.136   2.172   2.203
 8299SOL    HW225797   6.068   2.168   2.351
 8300SOL     OW25798   0.811   4.636   4.073
 8300SOL    HW125799   0.782   4.709   4.012
 8300SOL    HW225800   0.848   4.675   4.158
 8301SOL     OW25801   3.767   2.952   0.246
 8301SOL    HW125802   3.690   2.974   0.305
 8301SOL    HW225803   3.733   2.924   0.156
 8302SOL     OW25804   5.711   6.067   6.785
 8302SOL    HW125805   5.690   6.052   6.881
 8302SOL    HW225806   5.795   6.122   6.778
 8303SOL     OW25807   0.249   6.717   4.725
 8303SOL    HW125808   0.253   6.737   4.627
 8303SOL    HW225809   0.199   6.632   4.740
 8304SOL     OW25810   0.709   3.612   6.674
 8304SOL    HW125811   0.777   3.669   6.628
 8304SOL    HW225812   0.626   3.608   6.618
 8305SOL     OW25813   3.709   5.225   3.756
 8305SOL    HW125814   3.714   5.192   3.850
 8305SOL    HW225815   3.778   5.296   3.743
 8306SOL     OW25816   0.714   2.632   3.970
 8306SOL    HW125817   0.617   2.618   3.952
 8306SOL    HW225818   0.731   2.729   3.987
 8307SOL     OW25819   4.407   5.884   1.054
 8307SOL    HW125820   4.483   5.868   1.117
 8307SOL    HW225821   4.428   5.842   0.965
 8308SOL     OW25822   3.799   6.789   2.244
 8308SOL    HW125823   3.751   6.704   2.267
 8308SOL    HW225824   3.766   6.863   2.303
 8309SOL     OW25825   5.412   5.834   2.047
 8309SOL    HW125826   5.501   5.854   2.004
 8309SOL    HW225827   5.339   5.872   1.991
 8310SOL     OW25828   0.030   4.594   0.915
 8310SOL    HW125829   0.042   4.565   0.820
 8310SOL    HW225830   6.975   4.548   0.954
 8311SOL     OW25831   6.650   0.855   0.089
 8311SOL    HW125832   6.653   0.764   0.046
 8311SOL    HW225833   6.563   0.866   0.136
 8312SOL     OW25834   5.377   6.801   1.372
 8312SOL    HW125835   5.295   6.745   1.361
 8312SOL    HW225836   5.380   6.837   1.466
 8313SOL     OW25837   3.391   1.571   2.362
 8313SOL    HW125838   3.373   1.586   2.265
 8313SOL    HW225839   3.482   1.532   2.373
 8314SOL     OW25840   6.373   0.312   2.259
 8314SOL    HW125841   6.438   0.387   2.251
 8314SOL    HW225842   6.413   0.237   2.311
 8315SOL     OW25843   4.928   3.415   0.253
 8315SOL    HW125844   4.906   3.509   0.227
 8315SOL    HW225845   4.999   3.416   0.324
 8316SOL     OW25846   1.199   4.215   0.391
 8316SOL    HW125847   1.292   4.187   0.367
 8316SOL    HW225848   1.195   4.315   0.400
 8317SOL     OW25849   2.375   4.392   2.193
 8317SOL    HW125850   2.400   4.424   2.284
 8317SOL    HW225851   2.418   4.452   2.124
 8318SOL     OW25852   4.212   1.434   4.730
 8318SOL    HW125853   4.210   1.383   4.817
 8318SOL    HW225854   4.306   1.457   4.707
 8319SOL     OW25855   3.369   1.284   5.275
 8319SOL    HW125856   3.366   1.368   5.330
 8319SOL    HW225857   3.374   1.205   5.335
 8320SOL     OW25858   2.831   4.329   1.102
 8320SOL    HW125859   2.742   4.341   1.058
 8320SOL    HW225860   2.898   4.298   1.035
 8321SOL     OW25861   0.913   0.366   1.014
 8321SOL    HW125862   0.825   0.370   1.061
 8321SOL    HW225863   0.962   0.284   1.044
 8322SOL     OW25864   0.095   0.117   6.887
 8322SOL    HW125865   0.032   0.049   6.924
 8322SOL    HW225866   0.177   0.072   6.852
 8323SOL     OW25867   0.758   1.467   2.824
 8323SOL    HW125868   0.735   1.449   2.728
 8323SOL    HW225869   0.745   1.383   2.877
 8324SOL     OW25870   6.207   0.485   2.516
 8324SOL    HW125871   6.216   0.575   2.474
 8324SOL    HW225872   6.297   0.454   2.547
 8325SOL     OW25873   2.964   3.240   4.369
 8325SOL    HW125874   2.903   3.224   4.291
 8325SOL    HW225875   3.054   3.203   4.348
 8326SOL     OW25876   4.080   2.908   5.506
 8326SOL    HW125877   4.085   2.860   5.593
 8326SOL    HW225878   4.083   3.007   5.522
 8327SOL     OW25879   5.881   2.298   6.089
 8327SOL    HW125880   5.829   2.383   6.082
 8327SOL    HW225881   5.933   2.283   6.005
 8328SOL     OW25882   2.264   2.111   6.125
 8328SOL    HW125883   2.191   2.150   6.068
 8328SOL    HW225884   2.277   2.167   6.206
 8329SOL     OW25885   6.545   2.851   5.417
 8329SOL    HW125886   6.538   2.880   5.512
 8329SOL    HW225887   6.507   2.923   5.358
 8330SOL     OW25888   1.928   6.569   0.770
 8330SOL    HW125889   1.959   6.544   0.678
 8330SOL    HW225890   1.887   6.660   0.768
 8331SOL     OW25891   2.449   6.686   1.239
 8331SOL    HW125892   2.457   6.780   1.206
 8331SOL    HW225893   2.528   6.664   1.296
 8332SOL     OW25894   4.578   5.165   2.354
 8332SOL    HW125895   4.479   5.156   2.360
 8332SOL    HW225896   4.603   5.213   2.270
 8333SOL     OW25897   0.343   5.508   0.062
 8333SOL    HW125898   0.411   5.582   0.061
 8333SOL    HW225899   0.258   5.540   0.019
 8334SOL     OW25900   6.529   1.753   3.767
 8334SOL    HW125901   6.575   1.668   3.744
 8334SOL    HW225902   6.592   1.830   3.755
 8335SOL     OW25903   6.162   6.007   5.872
 8335SOL    HW125904   6.123   6.099   5.884
 8335SOL    HW225905   6.108   5.941   5.925
 8336SOL     OW25906   1.017   1.643   1.412
 8336SOL    HW125907   0.928   1.662   1.370
 8336SOL    HW225908   1.078   1.720   1.394
 8337SOL     OW25909   0.754   6.308   2.744
 8337SOL    HW125910   0.767   6.388   2.803
 8337SOL    HW225911   0.657   6.283   2.743
 8338SOL     OW25912   1.591   4.814   1.463
 8338SOL    HW125913   1.591   4.714   1.456
 8338SOL    HW225914   1.497   4.846   1.472
 8339SOL     OW25915   5.194   1.880   2.386
 8339SOL    HW125916   5.271   1.870   2.449
 8339SOL    HW225917   5.180   1.794   2.337
 8340SOL     OW25918   5.035   4.003   0.559
 8340SOL    HW125919   4.974   4.026   0.483
 8340SOL    HW225920   5.108   3.944   0.526
 8341SOL     OW25921   2.727   5.888   1.390
 8341SOL    HW125922   2.722   5.985   1.414
 8341SOL    HW225923   2.645   5.861   1.340
 8342SOL     OW25924   3.994   0.988   0.753
 8342SOL    HW125925   4.060   0.926   0.711
 8342SOL    HW225926   4.042   1.069   0.788
 8343SOL     OW25927   1.301   5.408   6.181
 8343SOL    HW125928   1.378   5.398   6.243
 8343SOL    HW225929   1.227   5.348   6.210
 8344SOL     OW25930   4.120   6.372   5.956
 8344SOL    HW125931   4.070   6.449   5.917
 8344SOL    HW225932   4.191   6.406   6.017
 8345SOL     OW25933   5.929   1.106   2.765
 8345SOL    HW125934   5.876   1.034   2.809
 8345SOL    HW225935   5.867   1.171   2.721
 8346SOL     OW25936   2.953   5.368   1.690
 8346SOL    HW125937   2.962   5.408   1.781
 8346SOL    HW225938   3.042   5.373   1.643
 8347SOL     OW25939   3.755   6.820   5.429
 8347SOL    HW125940   3.798   6.911   5.424
 8347SOL    HW225941   3.751   6.781   5.337
 8348SOL     OW25942   0.836   0.819   0.857
 8348SOL    HW125943   0.778   0.830   0.938
 8348SOL    HW225944   0.920   0.872   0.869
 8349SOL     OW25945   5.695   3.954   1.113
 8349SOL    HW125946   5.771   4.011   1.083
 8349SOL    HW225947   5.727   3.889   1.182
 8350SOL     OW25948   6.408   1.016   5.518
 8350SOL    HW125949   6.383   0.983   5.427
 8350SOL    HW225950   6.489   0.967   5.550
 8351SOL     OW25951   3.418   6.278   4.020
 8351SOL    HW125952   3.514   6.307   4.018
 8351SOL    HW225953   3.414   6.178   4.027
 8352SOL     OW25954   6.714   6.486   2.300
 8352SOL    HW125955   6.743   6.398   2.338
 8352SOL    HW225956   6.685   6.473   2.205
 8353SOL     OW25957   6.690   3.466   2.603
 8353SOL    HW125958   6.752   3.451   2.525
 8353SOL    HW225959   6.698   3.560   2.634
 8354SOL     OW25960   2.807   1.080   6.880
 8354SOL    HW125961   2.820   1.105   6.784
 8354SOL    HW225962   2.853   1.146   6.938
 8355SOL     OW25963   3.880   0.154   6.889
 8355SOL    HW125964   3.824   0.071   6.887
 8355SOL    HW225965   3.893   0.189   6.796
 8356SOL     OW25966   2.270   5.941   0.127
 8356SOL    HW125967   2.330   6.021   0.115
 8356SOL    HW225968   2.242   5.935   0.223
 8357SOL     OW25969   4.296   6.023   5.055
 8357SOL    HW125970   4.357   5.995   4.981
 8357SOL    HW225971   4.257   5.942   5.099
 8358SOL     OW25972   1.957   2.732   5.672
 8358SOL    HW125973   2.014   2.650   5.670
 8358SOL    HW225974   1.871   2.713   5.624
 8359SOL     OW25975   4.384   5.519   4.565
 8359SOL    HW125976   4.464   5.461   4.552
 8359SOL    HW225977   4.363   5.567   4.480
 8360SOL     OW25978   5.216   6.909   2.989
 8360SOL    HW125979   5.158   6.832   2.962
 8360SOL    HW225980   5.277   6.933   2.914
 8361SOL     OW25981   1.838   0.639   2.592
 8361SOL    HW125982   1.887   0.701   2.653
 8361SOL    HW225983   1.838   0.546   2.631
 8362SOL     OW25984   2.762   2.172   0.444
 8362SOL    HW125985   2.743   2.242   0.514
 8362SOL    HW225986   2.739   2.208   0.354
 8363SOL     OW25987   0.264   3.079   0.095
 8363SOL    HW125988   0.357   3.061   0.128
 8363SOL    HW225989   0.256   3.051   7.024
 8364SOL     OW25990   6.762   3.757   3.414
 8364SOL    HW125991   6.747   3.665   3.451
 8364SOL    HW225992   6.702   3.772   3.336
 8365SOL     OW25993   1.638   3.319   6.257
 8365SOL    HW125994   1.718   3.318   6.197
 8365SOL    HW225995   1.667   3.303   6.351
 8366SOL     OW25996   3.727   6.552   2.586
 8366SOL    HW125997   3.741   6.552   2.685
 8366SOL    HW225998   3.630   6.568   2.566
 8367SOL     OW25999   5.521   6.351   4.191
 8367SOL    HW126000   5.595   6.370   4.127
 8367SOL    HW226001   5.433   6.373   4.149
 8368SOL     OW26002   2.467   5.246   5.972
 8368SOL    HW126003   2.483   5.336   6.012
 8368SOL    HW226004   2.392   5.252   5.907
 8369SOL     OW26005   1.832   1.476   0.362
 8369SOL    HW126006   1.764   1.468   0.434
 8369SOL    HW226007   1.815   1.559   0.309
 8370SOL     OW26008   1.369   1.644   6.363
 8370SOL    HW126009   1.407   1.732   6.389
 8370SOL    HW226010   1.289   1.624   6.419
 8371SOL     OW26011   1.503   3.109   0.960
 8371SOL    HW126012   1.497   3.209   0.968
 8371SOL    HW226013   1.456   3.080   0.876
 8372SOL     OW26014   6.658   0.924   3.080
 8372SOL    HW126015   6.701   0.843   3.120
 8372SOL    HW226016   6.568   0.938   3.121
 8373SOL     OW26017   1.426   5.889   5.721
 8373SOL    HW126018   1.379   5.897   5.633
 8373SOL    HW226019   1.371   5.837   5.785
 8374SOL     OW26020   6.503   0.461   6.982
 8374SOL    HW126021   6.533   0.367   7.001
 8374SOL    HW226022   6.412   0.475   7.021
 8375SOL     OW26023   3.300   6.914   6.093
 8375SOL    HW126024   3.387   6.960   6.079
 8375SOL    HW226025   3.239   6.973   6.145
 8376SOL     OW26026   2.756   1.373   4.204
 8376SOL    HW126027   2.675   1.324   4.173
 8376SOL    HW226028   2.733   1.429   4.284
 8377SOL     OW26029   5.701   4.644   1.433
 8377SOL    HW126030   5.664   4.551   1.430
 8377SOL    HW226031   5.801   4.640   1.439
 8378SOL     OW26032   4.882   3.230   2.826
 8378SOL    HW126033   4.877   3.315   2.878
 8378SOL    HW226034   4.845   3.155   2.882
 8379SOL     OW26035   6.369   2.982   2.317
 8379SOL    HW126036   6.331   2.899   2.277
 8379SOL    HW226037   6.321   3.062   2.281
 8380SOL     OW26038   4.414   1.705   2.964
 8380SOL    HW126039   4.376   1.617   2.992
 8380SOL    HW226040   4.348   1.778   2.982
 8381SOL     OW26041   1.662   5.441   5.371
 8381SOL    HW126042   1.745   5.384   5.370
 8381SOL    HW226043   1.583   5.385   5.395
 8382SOL     OW26044   1.085   2.987   2.226
 8382SOL    HW126045   0.990   2.961   2.238
 8382SOL    HW226046   1.144   2.916   2.264
 8383SOL     OW26047   2.680   2.512   5.971
 8383SOL    HW126048   2.605   2.452   5.998
 8383SOL    HW226049   2.754   2.457   5.933
 8384SOL     OW26050   0.192   6.805   2.087
 8384SOL    HW126051   0.117   6.870   2.077
 8384SOL    HW226052   0.196   6.773   2.181
 8385SOL     OW26053   4.998   2.765   1.943
 8385SOL    HW126054   4.911   2.767   1.992
 8385SOL    HW226055   5.055   2.841   1.975
 8386SOL     OW26056   1.049   4.350   2.847
 8386SOL    HW126057   1.103   4.265   2.849
 8386SOL    HW226058   1.104   4.426   2.880
 8387SOL     OW26059   0.600   2.930   1.049
 8387SOL    HW126060   0.518   2.895   1.005
 8387SOL    HW226061   0.611   2.888   1.139
 8388SOL     OW26062   2.463   0.762   2.086
 8388SOL    HW126063   2.520   0.730   2.009
 8388SOL    HW226064   2.424   0.851   2.063
 8389SOL     OW26065   5.496   2.730   1.875
 8389SOL    HW126066   5.553   2.651   1.901
 8389SOL    HW226067   5.538   2.777   1.798
 8390SOL     OW26068   5.438   1.861   5.368
 8390SOL    HW126069   5.529   1.900   5.354
 8390SOL    HW226070   5.444   1.761   5.366
 8391SOL     OW26071   6.440   0.872   1.181
 8391SOL    HW126072   6.419   0.789   1.130
 8391SOL    HW226073   6.376   0.944   1.154
 8392SOL     OW26074   5.637   3.234   4.944
 8392SOL    HW126075   5.553   3.208   4.992
 8392SOL    HW226076   5.691   3.153   4.924
 8393SOL     OW26077   5.305   0.231   1.352
 8393SOL    HW126078   5.355   0.214   1.266
 8393SOL    HW226079   5.289   0.329   1.362
 8394SOL     OW26080   5.863   3.359   1.578
 8394SOL    HW126081   5.866   3.454   1.548
 8394SOL    HW226082   5.956   3.328   1.599
 8395SOL     OW26083   2.070   0.848   5.146
 8395SOL    HW126084   2.050   0.934   5.194
 8395SOL    HW226085   1.990   0.789   5.150
 8396SOL     OW26086   4.223   5.779   5.205
 8396SOL    HW126087   4.136   5.752   5.245
 8396SOL    HW226088   4.231   5.742   5.113
 8397SOL     OW26089   6.381   1.129   3.392
 8397SOL    HW126090   6.416   1.104   3.301
 8397SOL    HW226091   6.374   1.228   3.398
 8398SOL     OW26092   4.880   2.133   5.835
 8398SOL    HW126093   4.790   2.147   5.793
 8398SOL    HW226094   4.948   2.188   5.786
 8399SOL     OW26095   0.221   5.238   0.913
 8399SOL    HW126096   0.199   5.160   0.971
 8399SOL    HW226097   0.203   5.323   0.964
 8400SOL     OW26098   1.248   2.251   4.786
 8400SOL    HW126099   1.262   2.308   4.705
 8400SOL    HW226100   1.269   2.156   4.764
 8401SOL     OW26101   2.718   0.172   5.542
 8401SOL    HW126102   2.678   0.258   5.510
 8401SOL    HW226103   2.646   0.115   5.582
 8402SOL     OW26104   4.044   0.611   5.815
 8402SOL    HW126105   3.994   0.673   5.876
 8402SOL    HW226106   3.981   0.572   5.749
 8403SOL     OW26107   6.017   5.476   4.670
 8403SOL    HW126108   5.939   5.531   4.639
 8403SOL    HW226109   5.986   5.386   4.698
 8404SOL     OW26110   1.960   1.793   6.859
 8404SOL    HW126111   1.866   1.797   6.893
 8404SOL    HW226112   2.024   1.810   6.933
 8405SOL     OW26113   4.152   1.310   4.949
 8405SOL    HW126114   4.058   1.333   4.976
 8405SOL    HW226115   4.215   1.340   5.020
 8406SOL     OW26116   4.505   0.912   6.061
 8406SOL    HW126117   4.470   0.998   6.024
 8406SOL    HW226118   4.566   0.930   6.138
 8407SOL     OW26119   3.408   6.962   4.410
 8407SOL    HW126120   3.494   6.960   4.358
 8407SOL    HW226121   3.406   6.884   4.473
 8408SOL     OW26122   4.488   1.068   1.617
 8408SOL    HW126123   4.481   1.150   1.675
 8408SOL    HW226124   4.572   1.019   1.639
 8409SOL     OW26125   4.731   2.527   1.851
 8409SOL    HW126126   4.749   2.612   1.901
 8409SOL    HW226127   4.667   2.546   1.777
 8410SOL     OW26128   6.940   1.607   1.917
 8410SOL    HW126129   0.010   1.639   1.917
 8410SOL    HW226130   6.891   1.646   1.995
 8411SOL     OW26131   1.412   5.703   0.381
 8411SOL    HW126132   1.351   5.738   0.452
 8411SOL    HW226133   1.507   5.720   0.407
 8412SOL     OW26134   3.105   2.395   6.082
 8412SOL    HW126135   3.124   2.452   6.002
 8412SOL    HW226136   3.182   2.332   6.097
 8413SOL     OW26137   4.366   5.313   5.496
 8413SOL    HW126138   4.405   5.236   5.547
 8413SOL    HW226139   4.311   5.278   5.420
 8414SOL     OW26140   0.887   1.070   2.242
 8414SOL    HW126141   0.987   1.067   2.247
 8414SOL    HW226142   0.848   1.023   2.321
 8415SOL     OW26143   2.274   0.642   5.165
 8415SOL    HW126144   2.278   0.606   5.072
 8415SOL    HW226145   2.202   0.712   5.170
 8416SOL     OW26146   6.604   1.524   5.581
 8416SOL    HW126147   6.553   1.538   5.496
 8416SOL    HW226148   6.660   1.605   5.601
 8417SOL     OW26149   1.767   4.175   5.496
 8417SOL    HW126150   1.727   4.259   5.533
 8417SOL    HW226151   1.795   4.191   5.401
 8418SOL     OW26152   1.248   6.424   2.461
 8418SOL    HW126153   1.163   6.434   2.511
 8418SOL    HW226154   1.228   6.402   2.365
 8419SOL     OW26155   5.020   1.292   3.801
 8419SOL    HW126156   4.935   1.256   3.840
 8419SOL    HW226157   5.018   1.392   3.803
 8420SOL     OW26158   2.698   0.218   2.524
 8420SOL    HW126159   2.609   0.191   2.560
 8420SOL    HW226160   2.769   0.199   2.591
 8421SOL     OW26161   4.598   6.227   6.017
 8421SOL    HW126162   4.522   6.167   6.040
 8421SOL    HW226163   4.682   6.193   6.058
 8422SOL     OW26164   4.479   2.517   2.977
 8422SOL    HW126165   4.522   2.461   3.047
 8422SOL    HW226166   4.549   2.554   2.916
 8423SOL     OW26167   5.974   4.787   6.779
 8423SOL    HW126168   6.067   4.751   6.774
 8423SOL    HW226169   5.971   4.879   6.740
 8424SOL     OW26170   2.157   0.110   4.012
 8424SOL    HW126171   2.058   0.105   4.028
 8424SOL    HW226172   2.194   0.191   4.058
 8425SOL     OW26173   3.953   3.066   2.905
 8425SOL    HW126174   4.022   3.083   2.835
 8425SOL    HW226175   3.984   3.103   2.993
 8426SOL     OW26176   3.247   2.926   2.266
 8426SOL    HW126177   3.245   2.872   2.182
 8426SOL    HW226178   3.165   2.983   2.270
 8427SOL     OW26179   3.540   3.951   3.513
 8427SOL    HW126180   3.520   3.903   3.428
 8427SOL    HW226181   3.560   3.884   3.585
 8428SOL     OW26182   0.039   6.915   0.742
 8428SOL    HW126183   6.971   6.900   0.709
 8428SOL    HW226184   0.039   6.986   0.812
 8429SOL     OW26185   1.648   5.527   6.456
 8429SOL    HW126186   1.675   5.580   6.375
 8429SOL    HW226187   1.589   5.452   6.427
 8430SOL     OW26188   3.986   6.691   5.001
 8430SOL    HW126189   4.049   6.613   5.003
 8430SOL    HW226190   4.005   6.750   5.079
 8431SOL     OW26191   3.172   4.085   5.701
 8431SOL    HW126192   3.119   4.092   5.786
 8431SOL    HW226193   3.175   4.174   5.656
 8432SOL     OW26194   6.198   5.593   6.358
 8432SOL    HW126195   6.102   5.590   6.329
 8432SOL    HW226196   6.254   5.633   6.286
 8433SOL     OW26197   5.087   2.701   0.777
 8433SOL    HW126198   5.015   2.717   0.709
 8433SOL    HW226199   5.055   2.631   0.842
 8434SOL     OW26200   2.622   5.636   5.291
 8434SOL    HW126201   2.546   5.690   5.327
 8434SOL    HW226202   2.586   5.565   5.230
 8435SOL     OW26203   4.693   1.314   2.846
 8435SOL    HW126204   4.662   1.382   2.913
 8435SOL    HW226205   4.699   1.224   2.889
 8436SOL     OW26206   2.127   6.360   2.734
 8436SOL    HW126207   2.030   6.336   2.742
 8436SOL    HW226208   2.141   6.416   2.652
 8437SOL     OW26209   2.125   3.718   2.659
 8437SOL    HW126210   2.108   3.719   2.757
 8437SOL    HW226211   2.126   3.624   2.626
 8438SOL     OW26212   1.554   4.282   2.571
 8438SOL    HW126213   1.597   4.260   2.484
 8438SOL    HW226214   1.457   4.303   2.556
 8439SOL     OW26215   5.971   5.430   3.862
 8439SOL    HW126216   6.055   5.475   3.830
 8439SOL    HW226217   5.898   5.497   3.872
 8440SOL     OW26218   1.674   1.204   2.871
 8440SOL    HW126219   1.638   1.295   2.889
 8440SOL    HW226220   1.604   1.150   2.824
 8441SOL     OW26221   6.115   1.219   4.780
 8441SOL    HW126222   6.169   1.284   4.727
 8441SOL    HW226223   6.018   1.242   4.771
 8442SOL     OW26224   3.363   1.485   5.435
 8442SOL    HW126225   3.304   1.434   5.497
 8442SOL    HW226226   3.361   1.582   5.460
 8443SOL     OW26227   1.235   4.132   2.778
 8443SOL    HW126228   1.316   4.146   2.835
 8443SOL    HW226229   1.177   4.061   2.819
 8444SOL     OW26230   4.705   5.149   4.141
 8444SOL    HW126231   4.728   5.067   4.193
 8444SOL    HW226232   4.612   5.141   4.105
 8445SOL     OW26233   4.420   6.143   6.449
 8445SOL    HW126234   4.419   6.170   6.352
 8445SOL    HW226235   4.483   6.201   6.499
 8446SOL     OW26236   6.590   5.871   4.637
 8446SOL    HW126237   6.613   5.946   4.574
 8446SOL    HW226238   6.623   5.785   4.601
 8447SOL     OW26239   3.613   2.091   3.108
 8447SOL    HW126240   3.651   2.094   3.015
 8447SOL    HW226241   3.514   2.109   3.104
 8448SOL     OW26242   4.744   6.388   2.835
 8448SOL    HW126243   4.755   6.476   2.881
 8448SOL    HW226244   4.746   6.315   2.904
 8449SOL     OW26245   2.074   2.344   3.330
 8449SOL    HW126246   2.054   2.285   3.252
 8449SOL    HW226247   2.002   2.413   3.339
 8450SOL     OW26248   0.185   0.809   6.951
 8450SOL    HW126249   0.157   0.850   0.013
 8450SOL    HW226250   0.106   0.799   6.891
 8451SOL     OW26251   4.438   2.208   1.235
 8451SOL    HW126252   4.514   2.186   1.174
 8451SOL    HW226253   4.472   2.256   1.316
 8452SOL     OW26254   5.465   2.031   5.100
 8452SOL    HW126255   5.366   2.047   5.102
 8452SOL    HW226256   5.505   2.065   5.185
 8453SOL     OW26257   0.489   6.083   0.706
 8453SOL    HW126258   0.402   6.125   0.682
 8453SOL    HW226259   0.558   6.110   0.638
 8454SOL     OW26260   0.192   4.219   0.140
 8454SOL    HW126261   0.140   4.220   0.055
 8454SOL    HW226262   0.128   4.214   0.217
 8455SOL     OW26263   0.384   0.572   3.062
 8455SOL    HW126264   0.328   0.635   3.115
 8455SOL    HW226265   0.327   0.496   3.031
 8456SOL     OW26266   6.149   1.207   3.696
 8456SOL    HW126267   6.116   1.284   3.641
 8456SOL    HW226268   6.073   1.166   3.745
 8457SOL     OW26269   6.513   6.512   5.245
 8457SOL    HW126270   6.538   6.483   5.337
 8457SOL    HW226271   6.538   6.440   5.180
 8458SOL     OW26272   0.329   6.708   6.803
 8458SOL    HW126273   0.300   6.614   6.785
 8458SOL    HW226274   0.427   6.710   6.824
 8459SOL     OW26275   1.843   5.909   3.753
 8459SOL    HW126276   1.938   5.893   3.724
 8459SOL    HW226277   1.839   5.993   3.807
 8460SOL     OW26278   3.505   3.971   4.709
 8460SOL    HW126279   3.449   4.034   4.763
 8460SOL    HW226280   3.464   3.880   4.711
 8461SOL     OW26281   6.269   4.458   3.433
 8461SOL    HW126282   6.247   4.422   3.343
 8461SOL    HW226283   6.213   4.412   3.502
 8462SOL     OW26284   2.076   2.665   1.739
 8462SOL    HW126285   2.049   2.734   1.805
 8462SOL    HW226286   2.129   2.593   1.785
 8463SOL     OW26287   5.533   1.156   2.333
 8463SOL    HW126288   5.563   1.137   2.426
 8463SOL    HW226289   5.508   1.071   2.287
 8464SOL     OW26290   6.316   2.478   4.877
 8464SOL    HW126291   6.249   2.415   4.915
 8464SOL    HW226292   6.398   2.427   4.849
 8465SOL     OW26293   1.606   2.611   0.266
 8465SOL    HW126294   1.699   2.635   0.294
 8465SOL    HW226295   1.541   2.656   0.327
 8466SOL     OW26296   0.769   6.045   3.503
 8466SOL    HW126297   0.869   6.047   3.496
 8466SOL    HW226298   0.742   6.054   3.598
 8467SOL     OW26299   2.846   5.458   0.336
 8467SOL    HW126300   2.872   5.555   0.340
 8467SOL    HW226301   2.778   5.445   0.264
 8468SOL     OW26302   4.392   1.804   0.261
 8468SOL    HW126303   4.294   1.820   0.249
 8468SOL    HW226304   4.433   1.881   0.310
 8469SOL     OW26305   3.576   2.618   6.959
 8469SOL    HW126306   3.611   2.583   6.872
 8469SOL    HW226307   3.476   2.619   6.957
 8470SOL     OW26308   2.102   2.330   6.062
 8470SOL    HW126309   2.074   2.326   6.158
 8470SOL    HW226310   2.178   2.394   6.051
 8471SOL     OW26311   3.553   0.724   3.803
 8471SOL    HW126312   3.531   0.629   3.826
 8471SOL    HW226313   3.628   0.725   3.737
 8472SOL     OW26314   1.734   6.234   4.186
 8472SOL    HW126315   1.804   6.288   4.233
 8472SOL    HW226316   1.657   6.217   4.248
 8473SOL     OW26317   6.361   5.414   0.436
 8473SOL    HW126318   6.399   5.337   0.489
 8473SOL    HW226319   6.394   5.408   0.342
 8474SOL     OW26320   3.607   4.189   1.525
 8474SOL    HW126321   3.639   4.199   1.619
 8474SOL    HW226322   3.620   4.095   1.495
 8475SOL     OW26323   5.193   1.213   3.105
 8475SOL    HW126324   5.222   1.178   3.194
 8475SOL    HW226325   5.215   1.310   3.099
 8476SOL     OW26326   4.584   0.230   2.324
 8476SOL    HW126327   4.565   0.318   2.368
 8476SOL    HW226328   4.683   0.219   2.313
 8477SOL     OW26329   3.288   1.278   1.222
 8477SOL    HW126330   3.203   1.229   1.241
 8477SOL    HW226331   3.310   1.272   1.125
 8478SOL     OW26332   1.161   0.176   5.511
 8478SOL    HW126333   1.131   0.226   5.430
 8478SOL    HW226334   1.134   0.227   5.593
 8479SOL     OW26335   5.560   0.784   1.552
 8479SOL    HW126336   5.531   0.825   1.465
 8479SOL    HW226337   5.658   0.800   1.565
 8480SOL     OW26338   1.883   1.330   1.594
 8480SOL    HW126339   1.968   1.379   1.616
 8480SOL    HW226340   1.889   1.294   1.501
 8481SOL     OW26341   3.854   0.265   4.403
 8481SOL    HW126342   3.852   0.274   4.304
 8481SOL    HW226343   3.853   0.356   4.445
 8482SOL     OW26344   0.844   7.002   2.308
 8482SOL    HW126345   0.792   6.950   2.376
 8482SOL    HW226346   0.784   0.046   2.266
 8483SOL     OW26347   4.156   5.613   1.405
 8483SOL    HW126348   4.075   5.557   1.386
 8483SOL    HW226349   4.158   5.692   1.344
 8484SOL     OW26350   1.005   4.638   4.665
 8484SOL    HW126351   1.067   4.640   4.743
 8484SOL    HW226352   0.911   4.655   4.696
 8485SOL     OW26353   2.437   3.240   6.514
 8485SOL    HW126354   2.463   3.259   6.420
 8485SOL    HW226355   2.498   3.288   6.577
 8486SOL     OW26356   4.507   1.010   2.723
 8486SOL    HW126357   4.417   0.971   2.703
 8486SOL    HW226358   4.516   1.098   2.678
 8487SOL     OW26359   4.253   0.187   1.058
 8487SOL    HW126360   4.353   0.181   1.053
 8487SOL    HW226361   4.226   0.283   1.060
 8488SOL     OW26362   4.977   2.714   4.431
 8488SOL    HW126363   4.992   2.813   4.430
 8488SOL    HW226364   4.997   2.676   4.341
 8489SOL     OW26365   4.080   5.173   2.118
 8489SOL    HW126366   4.070   5.227   2.202
 8489SOL    HW226367   3.991   5.165   2.072
 8490SOL     OW26368   3.898   5.405   2.777
 8490SOL    HW126369   3.808   5.361   2.783
 8490SOL    HW226370   3.964   5.353   2.831
 8491SOL     OW26371   2.287   0.722   2.587
 8491SOL    HW126372   2.386   0.718   2.570
 8491SOL    HW226373   2.242   0.769   2.511
 8492SOL     OW26374   5.831   3.036   4.928
 8492SOL    HW126375   5.792   2.964   4.985
 8492SOL    HW226376   5.929   3.044   4.946
 8493SOL     OW26377   3.804   2.331   0.731
 8493SOL    HW126378   3.803   2.371   0.639
 8493SOL    HW226379   3.891   2.354   0.776
 8494SOL     OW26380   3.899   5.926   6.667
 8494SOL    HW126381   3.951   5.868   6.603
 8494SOL    HW226382   3.962   5.982   6.720
 8495SOL     OW26383   6.906   2.644   1.014
 8495SOL    HW126384   6.964   2.564   1.029
 8495SOL    HW226385   6.815   2.627   1.052
 8496SOL     OW26386   6.927   3.102   3.050
 8496SOL    HW126387   6.902   3.102   2.953
 8496SOL    HW226388   6.850   3.134   3.104
 8497SOL     OW26389   6.186   5.947   3.343
 8497SOL    HW126390   6.181   5.892   3.260
 8497SOL    HW226391   6.115   5.919   3.407
 8498SOL     OW26392   0.308   0.794   0.802
 8498SOL    HW126393   0.391   0.832   0.843
 8498SOL    HW226394   0.305   0.816   0.705
 8499SOL     OW26395   3.425   4.223   6.544
 8499SOL    HW126396   3.489   4.289   6.583
 8499SOL    HW226397   3.398   4.158   6.615
 8500SOL     OW26398   2.828   0.672   6.150
 8500SOL    HW126399   2.851   0.700   6.243
 8500SOL    HW226400   2.728   0.674   6.139
 8501SOL     OW26401   2.086   4.026   6.519
 8501SOL    HW126402   2.064   4.081   6.600
 8501SOL    HW226403   2.004   4.013   6.464
 8502SOL     OW26404   6.555   0.532   2.294
 8502SOL    HW126405   6.553   0.521   2.393
 8502SOL    HW226406   6.591   0.623   2.272
 8503SOL     OW26407   2.784   5.507   3.083
 8503SOL    HW126408   2.803   5.443   3.157
 8503SOL    HW226409   2.707   5.474   3.028
 8504SOL     OW26410   1.500   5.743   3.846
 8504SOL    HW126411   1.531   5.789   3.763
 8504SOL    HW226412   1.542   5.653   3.851
 8505SOL     OW26413   5.021   3.259   3.420
 8505SOL    HW126414   4.989   3.244   3.326
 8505SOL    HW226415   5.056   3.352   3.428
 8506SOL     OW26416   1.310   6.475   0.433
 8506SOL    HW126417   1.278   6.474   0.338
 8506SOL    HW226418   1.240   6.515   0.492
 8507SOL     OW26419   1.337   0.959   5.201
 8507SOL    HW126420   1.342   0.868   5.243
 8507SOL    HW226421   1.414   0.970   5.138
 8508SOL     OW26422   0.910   2.092   6.353
 8508SOL    HW126423   0.887   2.059   6.445
 8508SOL    HW226424   0.950   2.017   6.300
 8509SOL     OW26425   6.574   1.857   4.878
 8509SOL    HW126426   6.478   1.875   4.902
 8509SOL    HW226427   6.600   1.766   4.909
 8510SOL     OW26428   5.664   6.752   2.336
 8510SOL    HW126429   5.589   6.806   2.298
 8510SOL    HW226430   5.652   6.744   2.435
 8511SOL     OW26431   6.228   4.465   1.742
 8511SOL    HW126432   6.234   4.554   1.787
 8511SOL    HW226433   6.208   4.477   1.645
 8512SOL     OW26434   4.363   2.034   0.049
 8512SOL    HW126435   4.382   1.951   0.100
 8512SOL    HW226436   4.264   2.051   0.048
 8513SOL     OW26437   6.580   3.937   0.964
 8513SOL    HW126438   6.575   4.030   0.929
 8513SOL    HW226439   6.676   3.910   0.973
 8514SOL     OW26440   2.636   2.183   5.636
 8514SOL    HW126441   2.554   2.175   5.580
 8514SOL    HW226442   2.611   2.191   5.732
 8515SOL     OW26443   1.126   0.677   1.264
 8515SOL    HW126444   1.044   0.622   1.277
 8515SOL    HW226445   1.159   0.709   1.352
 8516SOL     OW26446   5.469   2.391   3.314
 8516SOL    HW126447   5.438   2.457   3.382
 8516SOL    HW226448   5.569   2.387   3.314
 8517SOL     OW26449   1.816   2.108   5.188
 8517SOL    HW126450   1.874   2.038   5.228
 8517SOL    HW226451   1.870   2.191   5.172
 8518SOL     OW26452   5.201   4.770   0.061
 8518SOL    HW126453   5.270   4.698   0.049
 8518SOL    HW226454   5.186   4.817   6.999
 8519SOL     OW26455   1.253   3.675   0.746
 8519SOL    HW126456   1.234   3.581   0.774
 8519SOL    HW226457   1.199   3.739   0.801
 8520SOL     OW26458   4.222   3.462   5.290
 8520SOL    HW126459   4.185   3.381   5.336
 8520SOL    HW226460   4.239   3.534   5.357
 8521SOL     OW26461   2.104   5.888   5.914
 8521SOL    HW126462   2.012   5.890   5.951
 8521SOL    HW226463   2.147   5.978   5.924
 8522SOL     OW26464   1.023   6.151   0.488
 8522SOL    HW126465   1.029   6.248   0.466
 8522SOL    HW226466   1.033   6.097   0.404
 8523SOL     OW26467   2.587   0.808   0.179
 8523SOL    HW126468   2.572   0.880   0.112
 8523SOL    HW226469   2.608   0.723   0.132
 8524SOL     OW26470   2.097   5.699   5.123
 8524SOL    HW126471   2.182   5.646   5.126
 8524SOL    HW226472   2.109   5.783   5.176
 8525SOL     OW26473   0.066   4.572   1.414
 8525SOL    HW126474   7.005   4.559   1.464
 8525SOL    HW226475   0.091   4.669   1.415
 8526SOL     OW26476   2.236   6.139   0.522
 8526SOL    HW126477   2.264   6.137   0.618
 8526SOL    HW226478   2.303   6.190   0.469
 8527SOL     OW26479   3.189   0.693   5.836
 8527SOL    HW126480   3.174   0.702   5.737
 8527SOL    HW226481   3.154   0.775   5.882
 8528SOL     OW26482   4.858   2.396   0.288
 8528SOL    HW126483   4.847   2.297   0.273
 8528SOL    HW226484   4.913   2.435   0.214
 8529SOL     OW26485   1.426   6.385   6.645
 8529SOL    HW126486   1.386   6.465   6.600
 8529SOL    HW226487   1.386   6.302   6.606
 8530SOL     OW26488   3.343   4.000   4.362
 8530SOL    HW126489   3.381   4.011   4.270
 8530SOL    HW226490   3.380   3.916   4.403
 8531SOL     OW26491   0.020   5.601   3.491
 8531SOL    HW126492   7.002   5.553   3.567
 8531SOL    HW226493   0.112   5.565   3.476
 8532SOL     OW26494   2.668   5.618   4.572
 8532SOL    HW126495   2.754   5.569   4.581
 8532SOL    HW226496   2.640   5.652   4.662
 8533SOL     OW26497   2.077   5.906   5.318
 8533SOL    HW126498   2.062   5.903   5.416
 8533SOL    HW226499   2.155   5.966   5.298
 8534SOL     OW26500   3.414   2.053   3.623
 8534SOL    HW126501   3.413   1.955   3.603
 8534SOL    HW226502   3.490   2.096   3.574
 8535SOL     OW26503   6.073   0.810   3.198
 8535SOL    HW126504   6.006   0.869   3.153
 8535SOL    HW226505   6.115   0.860   3.274
 8536SOL     OW26506   0.261   1.001   4.353
 8536SOL    HW126507   0.327   0.981   4.426
 8536SOL    HW226508   0.173   0.960   4.377
 8537SOL     OW26509   7.020   1.079   3.074
 8537SOL    HW126510   0.053   1.158   3.052
 8537SOL    HW226511   6.927   1.110   3.093
 8538SOL     OW26512   1.454   2.622   6.914
 8538SOL    HW126513   1.379   2.649   6.973
 8538SOL    HW226514   1.432   2.647   6.819
 8539SOL     OW26515   6.318   2.548   2.495
 8539SOL    HW126516   6.286   2.546   2.400
 8539SOL    HW226517   6.239   2.553   2.557
 8540SOL     OW26518   4.333   6.931   0.458
 8540SOL    HW126519   4.397   6.996   0.417
 8540SOL    HW226520   4.266   6.980   0.514
 8541SOL     OW26521   2.051   2.536   3.688
 8541SOL    HW126522   2.056   2.635   3.688
 8541SOL    HW226523   2.106   2.499   3.763
 8542SOL     OW26524   3.996   4.142   6.778
 8542SOL    HW126525   3.977   4.140   6.876
 8542SOL    HW226526   3.986   4.236   6.744
 8543SOL     OW26527   2.168   2.799   6.739
 8543SOL    HW126528   2.078   2.755   6.745
 8543SOL    HW226529   2.172   2.854   6.655
 8544SOL     OW26530   6.518   2.650   3.815
 8544SOL    HW126531   6.593   2.620   3.756
 8544SOL    HW226532   6.446   2.691   3.759
 8545SOL     OW26533   5.762   6.918   4.510
 8545SOL    HW126534   5.774   6.861   4.590
 8545SOL    HW226535   5.667   6.910   4.477
 8546SOL     OW26536   4.411   1.696   5.011
 8546SOL    HW126537   4.333   1.752   4.984
 8546SOL    HW226538   4.490   1.717   4.953
 8547SOL     OW26539   1.376   4.120   3.621
 8547SOL    HW126540   1.298   4.078   3.667
 8547SOL    HW226541   1.428   4.050   3.572
 8548SOL     OW26542   5.689   1.470   5.733
 8548SOL    HW126543   5.591   1.456   5.749
 8548SOL    HW226544   5.728   1.520   5.810
 8549SOL     OW26545   6.124   3.555   4.908
 8549SOL    HW126546   6.142   3.470   4.956
 8549SOL    HW226547   6.208   3.589   4.867
 8550SOL     OW26548   1.065   4.246   6.566
 8550SOL    HW126549   1.161   4.220   6.556
 8550SOL    HW226550   1.007   4.173   6.532
 8551SOL     OW26551   3.584   4.279   0.235
 8551SOL    HW126552   3.597   4.373   0.264
 8551SOL    HW226553   3.669   4.227   0.249
 8552SOL     OW26554   2.696   6.542   3.928
 8552SOL    HW126555   2.614   6.509   3.880
 8552SOL    HW226556   2.683   6.532   4.026
 8553SOL     OW26557   5.816   0.037   0.194
 8553SOL    HW126558   5.768   6.995   0.251
 8553SOL    HW226559   5.795   0.130   0.225
 8554SOL     OW26560   6.280   3.591   6.740
 8554SOL    HW126561   6.267   3.689   6.755
 8554SOL    HW226562   6.364   3.576   6.688
 8555SOL     OW26563   1.608   0.115   4.026
 8555SOL    HW126564   1.540   0.153   3.962
 8555SOL    HW226565   1.624   0.180   4.100
 8556SOL     OW26566   6.295   0.500   3.401
 8556SOL    HW126567   6.353   0.572   3.440
 8556SOL    HW226568   6.211   0.540   3.366
 8557SOL     OW26569   0.327   0.596   1.374
 8557SOL    HW126570   0.346   0.645   1.458
 8557SOL    HW226571   0.363   0.502   1.381
 8558SOL     OW26572   1.493   4.862   2.059
 8558SOL    HW126573   1.571   4.852   1.997
 8558SOL    HW226574   1.490   4.956   2.093
 8559SOL     OW26575   1.271   0.299   0.383
 8559SOL    HW126576   1.259   0.305   0.284
 8559SOL    HW226577   1.310   0.210   0.407
 8560SOL     OW26578   6.011   1.730   0.087
 8560SOL    HW126579   6.024   1.643   0.039
 8560SOL    HW226580   6.072   1.799   0.048
 8561SOL     OW26581   4.461   6.470   3.816
 8561SOL    HW126582   4.406   6.513   3.889
 8561SOL    HW226583   4.405   6.460   3.734
 8562SOL     OW26584   3.410   6.712   4.577
 8562SOL    HW126585   3.374   6.626   4.540
 8562SOL    HW226586   3.503   6.697   4.610
 8563SOL     OW26587   2.303   2.616   6.050
 8563SOL    HW126588   2.375   2.550   6.030
 8563SOL    HW226589   2.285   2.671   5.969
 8564SOL     OW26590   1.198   0.391   3.709
 8564SOL    HW126591   1.243   0.343   3.634
 8564SOL    HW226592   1.176   0.484   3.680
 8565SOL     OW26593   3.348   6.597   2.274
 8565SOL    HW126594   3.249   6.597   2.260
 8565SOL    HW226595   3.377   6.688   2.304
 8566SOL     OW26596   2.067   2.939   3.490
 8566SOL    HW126597   2.104   2.882   3.564
 8566SOL    HW226598   2.056   3.033   3.522
 8567SOL     OW26599   4.902   0.470   1.201
 8567SOL    HW126600   4.901   0.370   1.214
 8567SOL    HW226601   4.814   0.499   1.165
 8568SOL     OW26602   5.032   1.213   0.238
 8568SOL    HW126603   4.960   1.253   0.294
 8568SOL    HW226604   5.101   1.282   0.218
 8569SOL     OW26605   4.237   1.694   4.424
 8569SOL    HW126606   4.160   1.672   4.485
 8569SOL    HW226607   4.285   1.775   4.459
 8570SOL     OW26608   0.308   3.886   0.076
 8570SOL    HW126609   0.294   3.902   7.003
 8570SOL    HW226610   0.224   3.910   0.126
 8571SOL     OW26611   6.620   3.948   5.316
 8571SOL    HW126612   6.698   4.002   5.349
 8571SOL    HW226613   6.610   3.961   5.217
 8572SOL     OW26614   2.856   4.801   5.304
 8572SOL    HW126615   2.862   4.716   5.253
 8572SOL    HW226616   2.760   4.830   5.309
 8573SOL     OW26617   3.507   5.996   5.380
 8573SOL    HW126618   3.579   6.056   5.413
 8573SOL    HW226619   3.442   5.978   5.454
 8574SOL     OW26620   0.632   3.773   5.198
 8574SOL    HW126621   0.573   3.789   5.277
 8574SOL    HW226622   0.709   3.714   5.224
 8575SOL     OW26623   3.120   3.382   7.008
 8575SOL    HW126624   3.037   3.424   6.973
 8575SOL    HW226625   3.105   3.351   0.078
 8576SOL     OW26626   1.934   0.184   1.279
 8576SOL    HW126627   1.847   0.171   1.231
 8576SOL    HW226628   1.985   0.098   1.279
 8577SOL     OW26629   6.515   5.949   3.055
 8577SOL    HW126630   6.559   5.982   3.138
 8577SOL    HW226631   6.469   6.026   3.010
 8578SOL     OW26632   4.163   7.022   3.646
 8578SOL    HW126633   4.146   0.092   3.618
 8578SOL    HW226634   4.086   6.965   3.617
 8579SOL     OW26635   1.132   5.182   3.173
 8579SOL    HW126636   1.125   5.135   3.261
 8579SOL    HW226637   1.121   5.116   3.099
 8580SOL     OW26638   2.542   4.622   6.649
 8580SOL    HW126639   2.596   4.539   6.636
 8580SOL    HW226640   2.592   4.701   6.613
 8581SOL     OW26641   3.088   2.245   1.451
 8581SOL    HW126642   3.181   2.215   1.429
 8581SOL    HW226643   3.074   2.241   1.549
 8582SOL     OW26644   4.027   3.943   1.393
 8582SOL    HW126645   3.964   3.878   1.437
 8582SOL    HW226646   4.098   3.892   1.344
 8583SOL     OW26647   6.277   7.016   6.385
 8583SOL    HW126648   6.285   6.925   6.426
 8583SOL    HW226649   6.180   0.014   6.374
 8584SOL     OW26650   6.476   5.404   0.194
 8584SOL    HW126651   6.456   5.494   0.157
 8584SOL    HW226652   6.557   5.366   0.149
 8585SOL     OW26653   0.045   1.696   0.722
 8585SOL    HW126654   0.030   1.789   0.689
 8585SOL    HW226655   6.983   1.659   0.757
 8586SOL     OW26656   4.153   5.731   3.848
 8586SOL    HW126657   4.180   5.641   3.814
 8586SOL    HW226658   4.092   5.775   3.782
 8587SOL     OW26659   0.022   1.933   1.389
 8587SOL    HW126660   7.011   1.862   1.450
 8587SOL    HW226661   0.120   1.945   1.405
 8588SOL     OW26662   5.039   2.453   0.068
 8588SOL    HW126663   5.010   2.415   7.005
 8588SOL    HW226664   5.099   2.531   0.052
 8589SOL     OW26665   3.050   2.135   4.467
 8589SOL    HW126666   3.143   2.127   4.431
 8589SOL    HW226667   3.054   2.146   4.566
 8590SOL     OW26668   6.226   4.630   5.525
 8590SOL    HW126669   6.152   4.606   5.462
 8590SOL    HW226670   6.307   4.658   5.473
 8591SOL     OW26671   0.870   3.363   6.644
 8591SOL    HW126672   0.772   3.341   6.647
 8591SOL    HW226673   0.887   3.432   6.574
 8592SOL     OW26674   5.769   5.396   6.963
 8592SOL    HW126675   5.791   5.337   6.885
 8592SOL    HW226676   5.692   5.357   7.013
 8593SOL     OW26677   1.501   0.317   2.812
 8593SOL    HW126678   1.448   0.398   2.786
 8593SOL    HW226679   1.599   0.340   2.815
 8594SOL     OW26680   4.097   3.555   4.139
 8594SOL    HW126681   4.070   3.487   4.071
 8594SOL    HW226682   4.132   3.636   4.092
 8595SOL     OW26683   1.859   1.999   1.900
 8595SOL    HW126684   1.941   2.027   1.850
 8595SOL    HW226685   1.855   1.899   1.904
 8596SOL     OW26686   6.276   5.319   2.399
 8596SOL    HW126687   6.245   5.413   2.386
 8596SOL    HW226688   6.375   5.315   2.384
 8597SOL     OW26689   1.576   1.296   1.300
 8597SOL    HW126690   1.619   1.385   1.314
 8597SOL    HW226691   1.628   1.226   1.349
 8598SOL     OW26692   5.100   5.091   0.692
 8598SOL    HW126693   5.072   4.999   0.718
 8598SOL    HW226694   5.138   5.139   0.771
 8599SOL     OW26695   1.720   3.055   2.541
 8599SOL    HW126696   1.653   3.107   2.593
 8599SOL    HW226697   1.769   2.993   2.602
 8600SOL     OW26698   6.400   4.176   6.639
 8600SOL    HW126699   6.493   4.205   6.663
 8600SOL    HW226700   6.367   4.232   6.563
 8601SOL     OW26701   0.108   6.875   4.248
 8601SOL    HW126702   0.138   6.798   4.191
 8601SOL    HW226703   0.126   6.961   4.201
 8602SOL     OW26704   2.988   6.162   2.087
 8602SOL    HW126705   2.916   6.177   2.154
 8602SOL    HW226706   2.984   6.233   2.016
 8603SOL     OW26707   3.942   3.528   0.809
 8603SOL    HW126708   4.012   3.497   0.744
 8603SOL    HW226709   3.852   3.522   0.767
 8604SOL     OW26710   5.198   2.690   2.726
 8604SOL    HW126711   5.197   2.642   2.813
 8604SOL    HW226712   5.257   2.771   2.732
 8605SOL     OW26713   2.249   6.853   1.550
 8605SOL    HW126714   2.275   6.942   1.588
 8605SOL    HW226715   2.169   6.818   1.599
 8606SOL     OW26716   4.208   4.633   5.606
 8606SOL    HW126717   4.146   4.679   5.542
 8606SOL    HW226718   4.300   4.629   5.566
 8607SOL     OW26719   4.444   5.818   1.780
 8607SOL    HW126720   4.400   5.883   1.718
 8607SOL    HW226721   4.378   5.748   1.808
 8608SOL     OW26722   4.879   6.136   2.105
 8608SOL    HW126723   4.906   6.043   2.128
 8608SOL    HW226724   4.849   6.140   2.009
 8609SOL     OW26725   3.856   0.834   4.945
 8609SOL    HW126726   3.803   0.799   5.022
 8609SOL    HW226727   3.937   0.882   4.978
 8610SOL     OW26728   0.267   6.554   3.863
 8610SOL    HW126729   0.223   6.558   3.953
 8610SOL    HW226730   0.198   6.546   3.792
 8611SOL     OW26731   1.914   2.088   3.490
 8611SOL    HW126732   1.912   2.010   3.554
 8611SOL    HW226733   1.968   2.063   3.410
 8612SOL     OW26734   4.332   3.032   5.449
 8612SOL    HW126735   4.284   2.944   5.455
 8612SOL    HW226736   4.294   3.085   5.373
 8613SOL     OW26737   1.337   1.147   0.381
 8613SOL    HW126738   1.432   1.134   0.410
 8613SOL    HW226739   1.276   1.133   0.460
 8614SOL     OW26740   0.696   1.846   3.180
 8614SOL    HW126741   0.653   1.786   3.247
 8614SOL    HW226742   0.780   1.803   3.146
 8615SOL     OW26743   4.224   2.776   5.308
 8615SOL    HW126744   4.151   2.809   5.368
 8615SOL    HW226745   4.193   2.695   5.258
 8616SOL     OW26746   1.361   3.799   0.231
 8616SOL    HW126747   1.423   3.866   0.189
 8616SOL    HW226748   1.299   3.847   0.294
 8617SOL     OW26749   5.850   3.198   1.118
 8617SOL    HW126750   5.772   3.259   1.129
 8617SOL    HW226751   5.914   3.237   1.052
 8618SOL     OW26752   5.202   0.543   3.596
 8618SOL    HW126753   5.193   0.618   3.530
 8618SOL    HW226754   5.170   0.573   3.686
 8619SOL     OW26755   4.555   5.707   0.117
 8619SOL    HW126756   4.536   5.648   0.195
 8619SOL    HW226757   4.471   5.754   0.089
 8620SOL     OW26758   6.341   6.720   3.118
 8620SOL    HW126759   6.300   6.659   3.186
 8620SOL    HW226760   6.410   6.777   3.162
 8621SOL     OW26761   5.864   0.960   3.118
 8621SOL    HW126762   5.797   0.887   3.134
 8621SOL    HW226763   5.851   1.033   3.185
 8622SOL     OW26764   4.996   5.162   0.146
 8622SOL    HW126765   4.933   5.227   0.104
 8622SOL    HW226766   5.020   5.193   0.238
 8623SOL     OW26767   6.377   3.700   2.726
 8623SOL    HW126768   6.305   3.663   2.667
 8623SOL    HW226769   6.466   3.690   2.681
 8624SOL     OW26770   0.661   4.613   3.004
 8624SOL    HW126771   0.737   4.572   3.055
 8624SOL    HW226772   0.575   4.598   3.053
 8625SOL     OW26773   3.721   0.560   4.613
 8625SOL    HW126774   3.738   0.658   4.612
 8625SOL    HW226775   3.629   0.542   4.577
 8626SOL     OW26776   2.870   3.534   3.021
 8626SOL    HW126777   2.918   3.608   3.068
 8626SOL    HW226778   2.866   3.553   2.923
 8627SOL     OW26779   1.753   0.034   6.732
 8627SOL    HW126780   1.786   7.017   6.816
 8627SOL    HW226781   1.772   0.133   6.734
 8628SOL     OW26782   5.084   0.772   0.010
 8628SOL    HW126783   5.019   0.736   0.076
 8628SOL    HW226784   5.042   0.772   6.943
 8629SOL     OW26785   1.392   4.578   4.222
 8629SOL    HW126786   1.435   4.664   4.195
 8629SOL    HW226787   1.297   4.596   4.249
 8630SOL     OW26788   5.647   4.549   3.981
 8630SOL    HW126789   5.652   4.631   4.038
 8630SOL    HW226790   5.689   4.472   4.029
 8631SOL     OW26791   3.699   6.101   4.991
 8631SOL    HW126792   3.618   6.043   4.985
 8631SOL    HW226793   3.729   6.125   4.899
 8632SOL     OW26794   4.275   0.610   3.547
 8632SOL    HW126795   4.201   0.654   3.495
 8632SOL    HW226796   4.348   0.583   3.484
 8633SOL     OW26797   6.267   1.322   3.925
 8633SOL    HW126798   6.204   1.322   4.002
 8633SOL    HW226799   6.241   1.249   3.861
 8634SOL     OW26800   6.620   5.342   1.885
 8634SOL    HW126801   6.603   5.295   1.972
 8634SOL    HW226802   6.584   5.286   1.810
 8635SOL     OW26803   6.113   4.080   5.047
 8635SOL    HW126804   6.020   4.053   5.023
 8635SOL    HW226805   6.175   4.055   4.974
 8636SOL     OW26806   5.920   5.577   0.810
 8636SOL    HW126807   5.853   5.623   0.867
 8636SOL    HW226808   5.960   5.643   0.746
 8637SOL     OW26809   2.533   0.762   1.518
 8637SOL    HW126810   2.522   0.715   1.606
 8637SOL    HW226811   2.627   0.796   1.510
 8638SOL     OW26812   3.566   4.878   0.364
 8638SOL    HW126813   3.665   4.885   0.377
 8638SOL    HW226814   3.533   4.794   0.407
 8639SOL     OW26815   6.660   2.978   2.220
 8639SOL    HW126816   6.576   2.999   2.169
 8639SOL    HW226817   6.636   2.933   2.306
 8640SOL     OW26818   5.178   5.795   0.896
 8640SOL    HW126819   5.102   5.755   0.845
 8640SOL    HW226820   5.184   5.892   0.876
 8641SOL     OW26821   5.769   4.835   3.480
 8641SOL    HW126822   5.710   4.905   3.440
 8641SOL    HW226823   5.782   4.855   3.577
 8642SOL     OW26824   4.593   1.438   1.464
 8642SOL    HW126825   4.570   1.447   1.367
 8642SOL    HW226826   4.546   1.508   1.517
 8643SOL     OW26827   4.752   0.712   5.923
 8643SOL    HW126828   4.852   0.711   5.919
 8643SOL    HW226829   4.718   0.798   5.885
 8644SOL     OW26830   6.430   3.388   5.154
 8644SOL    HW126831   6.419   3.421   5.248
 8644SOL    HW226832   6.480   3.457   5.101
 8645SOL     OW26833   6.030   4.745   1.717
 8645SOL    HW126834   5.945   4.692   1.722
 8645SOL    HW226835   6.055   4.759   1.621
 8646SOL     OW26836   5.108   0.822   0.500
 8646SOL    HW126837   5.171   0.758   0.546
 8646SOL    HW226838   5.066   0.776   0.422
 8647SOL     OW26839   4.471   4.898   0.489
 8647SOL    HW126840   4.491   4.852   0.575
 8647SOL    HW226841   4.382   4.944   0.495
 8648SOL     OW26842   5.493   1.946   4.247
 8648SOL    HW126843   5.562   1.881   4.280
 8648SOL    HW226844   5.467   2.007   4.321
 8649SOL     OW26845   6.901   4.272   5.191
 8649SOL    HW126846   6.884   4.322   5.106
 8649SOL    HW226847   7.000   4.256   5.201
 8650SOL     OW26848   1.975   4.752   2.556
 8650SOL    HW126849   1.988   4.850   2.545
 8650SOL    HW226850   1.890   4.735   2.606
 8651SOL     OW26851   3.116   1.238   0.795
 8651SOL    HW126852   3.049   1.259   0.866
 8651SOL    HW226853   3.199   1.293   0.810
 8652SOL     OW26854   1.237   3.294   3.904
 8652SOL    HW126855   1.175   3.271   3.829
 8652SOL    HW226856   1.294   3.372   3.877
 8653SOL     OW26857   0.038   3.319   6.799
 8653SOL    HW126858   0.008   3.308   6.893
 8653SOL    HW226859   6.983   3.329   6.739
 8654SOL     OW26860   0.925   6.727   3.276
 8654SOL    HW126861   0.932   6.787   3.196
 8654SOL    HW226862   0.891   6.779   3.354
 8655SOL     OW26863   5.936   5.895   4.185
 8655SOL    HW126864   5.929   5.985   4.229
 8655SOL    HW226865   5.847   5.871   4.145
 8656SOL     OW26866   5.897   2.053   1.146
 8656SOL    HW126867   5.974   1.995   1.119
 8656SOL    HW226868   5.814   1.999   1.151
 8657SOL     OW26869   3.426   4.047   6.766
 8657SOL    HW126870   3.380   3.966   6.803
 8657SOL    HW226871   3.500   4.074   6.829
 8658SOL     OW26872   6.740   5.165   0.362
 8658SOL    HW126873   6.692   5.094   0.311
 8658SOL    HW226874   6.822   5.192   0.312
 8659SOL     OW26875   5.502   0.786   4.488
 8659SOL    HW126876   5.402   0.783   4.497
 8659SOL    HW226877   5.526   0.818   4.396
 8660SOL     OW26878   5.657   4.252   1.187
 8660SOL    HW126879   5.693   4.209   1.104
 8660SOL    HW226880   5.703   4.213   1.267
 8661SOL     OW26881   6.690   3.878   1.694
 8661SOL    HW126882   6.602   3.917   1.720
 8661SOL    HW226883   6.676   3.809   1.623
 8662SOL     OW26884   0.239   6.723   0.769
 8662SOL    HW126885   0.147   6.762   0.770
 8662SOL    HW226886   0.247   6.658   0.693
 8663SOL     OW26887   2.621   5.454   0.130
 8663SOL    HW126888   2.635   5.553   0.119
 8663SOL    HW226889   2.636   5.408   0.043
 8664SOL     OW26890   4.388   5.550   0.538
 8664SOL    HW126891   4.472   5.505   0.569
 8664SOL    HW226892   4.331   5.572   0.617
 8665SOL     OW26893   5.546   5.361   5.434
 8665SOL    HW126894   5.526   5.270   5.471
 8665SOL    HW226895   5.462   5.401   5.397
 8666SOL     OW26896   5.333   2.943   4.397
 8666SOL    HW126897   5.254   2.890   4.367
 8666SOL    HW226898   5.383   2.976   4.317
 8667SOL     OW26899   4.590   1.587   3.962
 8667SOL    HW126900   4.560   1.647   4.035
 8667SOL    HW226901   4.689   1.595   3.950
 8668SOL     OW26902   4.063   1.948   4.198
 8668SOL    HW126903   4.045   2.022   4.263
 8668SOL    HW226904   4.000   1.872   4.215
 8669SOL     OW26905   4.168   0.360   5.291
 8669SOL    HW126906   4.073   0.379   5.315
 8669SOL    HW226907   4.211   0.444   5.256
 8670SOL     OW26908   3.888   5.309   4.324
 8670SOL    HW126909   3.812   5.374   4.335
 8670SOL    HW226910   3.955   5.324   4.396
 8671SOL     OW26911   5.787   6.694   3.358
 8671SOL    HW126912   5.869   6.751   3.354
 8671SOL    HW226913   5.707   6.749   3.334
 8672SOL     OW26914   3.557   5.059   4.820
 8672SOL    HW126915   3.475   5.003   4.809
 8672SOL    HW226916   3.630   5.024   4.760
 8673SOL     OW26917   5.804   1.837   0.519
 8673SOL    HW126918   5.847   1.903   0.580
 8673SOL    HW226919   5.736   1.883   0.462
 8674SOL     OW26920   0.523   6.865   3.080
 8674SOL    HW126921   0.600   6.878   3.016
 8674SOL    HW226922   0.554   6.883   3.173
 8675SOL     OW26923   2.120   1.331   2.650
 8675SOL    HW126924   2.037   1.317   2.705
 8675SOL    HW226925   2.094   1.347   2.555
 8676SOL     OW26926   4.488   0.409   2.912
 8676SOL    HW126927   4.489   0.353   2.829
 8676SOL    HW226928   4.446   0.358   2.987
 8677SOL     OW26929   2.818   4.316   5.796
 8677SOL    HW126930   2.903   4.328   5.744
 8677SOL    HW226931   2.779   4.405   5.818
 8678SOL     OW26932   1.008   6.637   6.227
 8678SOL    HW126933   0.945   6.699   6.273
 8678SOL    HW226934   1.043   6.570   6.293
 8679SOL     OW26935   6.920   2.516   4.976
 8679SOL    HW126936   6.942   2.431   4.928
 8679SOL    HW226937   7.004   2.559   5.008
 8680SOL     OW26938   1.303   3.298   0.389
 8680SOL    HW126939   1.266   3.383   0.427
 8680SOL    HW226940   1.376   3.319   0.324
 8681SOL     OW26941   3.301   4.131   0.611
 8681SOL    HW126942   3.318   4.033   0.609
 8681SOL    HW226943   3.352   4.172   0.686
 8682SOL     OW26944   2.180   6.221   3.050
 8682SOL    HW126945   2.244   6.214   2.973
 8682SOL    HW226946   2.120   6.299   3.037
 8683SOL     OW26947   6.880   3.314   7.019
 8683SOL    HW126948   6.921   3.399   0.027
 8683SOL    HW226949   6.798   3.335   6.966
 8684SOL     OW26950   6.301   3.143   4.357
 8684SOL    HW126951   6.244   3.146   4.275
 8684SOL    HW226952   6.383   3.090   4.339
 8685SOL     OW26953   1.404   2.383   6.016
 8685SOL    HW126954   1.350   2.445   5.960
 8685SOL    HW226955   1.395   2.290   5.980
 8686SOL     OW26956   6.568   2.539   3.534
 8686SOL    HW126957   6.650   2.578   3.493
 8686SOL    HW226958   6.592   2.454   3.581
 8687SOL     OW26959   3.412   0.138   3.428
 8687SOL    HW126960   3.474   0.118   3.352
 8687SOL    HW226961   3.444   0.220   3.475
 8688SOL     OW26962   2.506   0.390   1.757
 8688SOL    HW126963   2.480   0.336   1.838
 8688SOL    HW226964   2.447   0.365   1.680
 8689SOL     OW26965   4.659   5.750   0.648
 8689SOL    HW126966   4.596   5.719   0.719
 8689SOL    HW226967   4.638   5.702   0.562
 8690SOL     OW26968   0.353   1.549   2.963
 8690SOL    HW126969   0.404   1.615   2.908
 8690SOL    HW226970   0.401   1.462   2.964
 8691SOL     OW26971   5.208   2.298   0.252
 8691SOL    HW126972   5.200   2.333   0.345
 8691SOL    HW226973   5.132   2.333   0.197
 8692SOL     OW26974   2.112   1.597   4.127
 8692SOL    HW126975   2.090   1.526   4.060
 8692SOL    HW226976   2.080   1.686   4.093
 8693SOL     OW26977   5.340   2.154   0.669
 8693SOL    HW126978   5.389   2.069   0.649
 8693SOL    HW226979   5.384   2.200   0.746
 8694SOL     OW26980   5.042   0.099   5.959
 8694SOL    HW126981   5.113   0.160   5.995
 8694SOL    HW226982   5.054   0.087   5.861
 8695SOL     OW26983   4.519   4.397   5.679
 8695SOL    HW126984   4.446   4.344   5.723
 8695SOL    HW226985   4.586   4.334   5.639
 8696SOL     OW26986   2.298   5.511   1.814
 8696SOL    HW126987   2.313   5.442   1.884
 8696SOL    HW226988   2.382   5.526   1.762
 8697SOL     OW26989   6.239   4.338   0.931
 8697SOL    HW126990   6.291   4.323   0.847
 8697SOL    HW226991   6.264   4.269   0.998
 8698SOL     OW26992   5.388   5.696   4.575
 8698SOL    HW126993   5.453   5.678   4.501
 8698SOL    HW226994   5.389   5.793   4.597
 8699SOL     OW26995   1.246   1.626   5.109
 8699SOL    HW126996   1.148   1.637   5.090
 8699SOL    HW226997   1.273   1.689   5.182
 8700SOL     OW26998   2.838   1.200   5.835
 8700SOL    HW126999   2.892   1.265   5.888
 8700SOL    HW227000   2.893   1.118   5.817
 8701SOL     OW27001   0.445   1.917   5.088
 8701SOL    HW127002   0.529   1.895   5.136
 8701SOL    HW227003   0.432   1.854   5.011
 8702SOL     OW27004   5.089   6.098   0.226
 8702SOL    HW127005   4.996   6.062   0.236
 8702SOL    HW227006   5.135   6.096   0.315
 8703SOL     OW27007   2.408   5.770   0.809
 8703SOL    HW127008   2.475   5.742   0.740
 8703SOL    HW227009   2.446   5.843   0.865
 8704SOL     OW27010   6.953   4.577   1.822
 8704SOL    HW127011   6.956   4.517   1.902
 8704SOL    HW227012   6.970   4.671   1.849
 8705SOL     OW27013   5.165   0.554   6.001
 8705SOL    HW127014   5.255   0.581   5.967
 8705SOL    HW227015   5.110   0.636   6.018
 8706SOL     OW27016   5.399   1.485   0.192
 8706SOL    HW127017   5.384   1.394   0.153
 8706SOL    HW227018   5.425   1.549   0.120
 8707SOL     OW27019   5.210   2.540   5.845
 8707SOL    HW127020   5.160   2.472   5.792
 8707SOL    HW227021   5.308   2.523   5.839
 8708SOL     OW27022   3.890   1.385   1.649
 8708SOL    HW127023   3.865   1.372   1.554
 8708SOL    HW227024   3.957   1.460   1.656
 8709SOL     OW27025   6.884   3.972   0.981
 8709SOL    HW127026   6.929   3.887   0.953
 8709SOL    HW227027   6.922   4.002   1.069
 8710SOL     OW27028   1.774   3.282   3.428
 8710SOL    HW127029   1.790   3.294   3.330
 8710SOL    HW227030   1.736   3.365   3.467
 8711SOL     OW27031   6.610   0.890   3.610
 8711SOL    HW127032   6.611   0.858   3.705
 8711SOL    HW227033   6.612   0.990   3.609
 8712SOL     OW27034   3.215   1.788   5.045
 8712SOL    HW127035   3.206   1.707   4.987
 8712SOL    HW227036   3.125   1.827   5.063
 8713SOL     OW27037   0.312   4.640   3.568
 8713SOL    HW127038   0.272   4.553   3.596
 8713SOL    HW227039   0.408   4.626   3.544
 8714SOL     OW27040   1.587   1.334   5.420
 8714SOL    HW127041   1.595   1.354   5.518
 8714SOL    HW227042   1.508   1.275   5.404
 8715SOL     OW27043   6.090   1.714   1.546
 8715SOL    HW127044   6.099   1.785   1.476
 8715SOL    HW227045   5.995   1.711   1.578
 8716SOL     OW27046   1.074   1.817   1.023
 8716SOL    HW127047   1.161   1.779   0.994
 8716SOL    HW227048   1.048   1.892   0.963
 8717SOL     OW27049   3.832   3.734   1.434
 8717SOL    HW127050   3.848   3.749   1.336
 8717SOL    HW227051   3.902   3.671   1.469
 8718SOL     OW27052   6.032   3.105   5.363
 8718SOL    HW127053   5.996   3.021   5.403
 8718SOL    HW227054   5.969   3.181   5.379
 8719SOL     OW27055   0.157   0.343   6.054
 8719SOL    HW127056   0.195   0.299   5.972
 8719SOL    HW227057   0.149   0.276   6.127
 8720SOL     OW27058   5.089   3.960   5.561
 8720SOL    HW127059   5.098   3.897   5.638
 8720SOL    HW227060   5.101   4.054   5.592
 8721SOL     OW27061   0.039   2.552   4.052
 8721SOL    HW127062   0.092   2.557   3.967
 8721SOL    HW227063   6.968   2.575   4.034
 8722SOL     OW27064   3.990   2.582   0.633
 8722SOL    HW127065   4.027   2.568   0.541
 8722SOL    HW227066   4.060   2.564   0.701
 8723SOL     OW27067   6.677   5.136   1.405
 8723SOL    HW127068   6.727   5.221   1.416
 8723SOL    HW227069   6.740   5.062   1.381
 8724SOL     OW27070   5.406   0.609   5.913
 8724SOL    HW127071   5.482   0.640   5.970
 8724SOL    HW227072   5.433   0.612   5.817
 8725SOL     OW27073   2.828   5.770   0.625
 8725SOL    HW127074   2.795   5.694   0.680
 8725SOL    HW227075   2.814   5.750   0.528
 8726SOL     OW27076   6.337   0.219   1.433
 8726SOL    HW127077   6.243   0.190   1.453
 8726SOL    HW227078   6.346   0.240   1.336
 8727SOL     OW27079   6.530   5.900   1.342
 8727SOL    HW127080   6.622   5.927   1.372
 8727SOL    HW227081   6.462   5.961   1.383
 8728SOL     OW27082   2.829   6.946   5.404
 8728SOL    HW127083   2.921   6.982   5.396
 8728SOL    HW227084   2.762   7.017   5.379
 8729SOL     OW27085   5.275   5.957   4.196
 8729SOL    HW127086   5.261   6.053   4.220
 8729SOL    HW227087   5.373   5.939   4.191
 8730SOL     OW27088   0.266   5.614   1.926
 8730SOL    HW127089   0.275   5.708   1.959
 8730SOL    HW227090   0.195   5.567   1.978
 8731SOL     OW27091   1.266   1.287   2.611
 8731SOL    HW127092   1.174   1.252   2.628
 8731SOL    HW227093   1.279   1.301   2.513
 8732SOL     OW27094   5.520   3.695   1.480
 8732SOL    HW127095   5.450   3.719   1.412
 8732SOL    HW227096   5.497   3.608   1.523
 8733SOL     OW27097   1.074   6.594   1.550
 8733SOL    HW127098   1.138   6.574   1.624
 8733SOL    HW227099   1.120   6.581   1.462
 8734SOL     OW27100   6.664   5.557   1.270
 8734SOL    HW127101   6.762   5.578   1.277
 8734SOL    HW227102   6.624   5.552   1.362
 8735SOL     OW27103   0.031   1.839   6.810
 8735SOL    HW127104   0.097   1.888   6.867
 8735SOL    HW227105   0.076   1.762   6.765
 8736SOL     OW27106   0.565   4.608   6.613
 8736SOL    HW127107   0.647   4.639   6.566
 8736SOL    HW227108   0.590   4.540   6.682
 8737SOL     OW27109   4.165   5.588   6.267
 8737SOL    HW127110   4.187   5.508   6.211
 8737SOL    HW227111   4.210   5.668   6.228
 8738SOL     OW27112   1.056   3.863   4.352
 8738SOL    HW127113   1.090   3.795   4.417
 8738SOL    HW227114   0.987   3.920   4.396
 8739SOL     OW27115   0.320   3.066   5.093
 8739SOL    HW127116   0.242   3.005   5.097
 8739SOL    HW227117   0.303   3.147   5.149
 8740SOL     OW27118   1.989   6.316   0.832
 8740SOL    HW127119   2.073   6.298   0.885
 8740SOL    HW227120   1.986   6.413   0.808
 8741SOL     OW27121   1.412   3.557   2.742
 8741SOL    HW127122   1.480   3.630   2.736
 8741SOL    HW227123   1.406   3.526   2.837
 8742SOL     OW27124   4.517   0.103   1.827
 8742SOL    HW127125   4.432   0.068   1.865
 8742SOL    HW227126   4.591   0.090   1.893
 8743SOL     OW27127   2.449   4.914   2.499
 8743SOL    HW127128   2.351   4.916   2.519
 8743SOL    HW227129   2.498   4.966   2.570
 8744SOL     OW27130   3.893   1.950   6.103
 8744SOL    HW127131   3.794   1.957   6.090
 8744SOL    HW227132   3.930   2.039   6.128
 8745SOL     OW27133   6.878   2.355   6.200
 8745SOL    HW127134   6.924   2.397   6.121
 8745SOL    HW227135   6.942   2.294   6.246
 8746SOL     OW27136   5.294   4.832   5.733
 8746SOL    HW127137   5.392   4.842   5.714
 8746SOL    HW227138   5.252   4.775   5.663
 8747SOL     OW27139   1.922   2.314   4.157
 8747SOL    HW127140   2.013   2.310   4.115
 8747SOL    HW227141   1.930   2.355   4.248
 8748SOL     OW27142   1.789   6.697   6.750
 8748SOL    HW127143   1.735   6.748   6.684
 8748SOL    HW227144   1.731   6.668   6.827
 8749SOL     OW27145   3.691   0.529   3.469
 8749SOL    HW127146   3.749   0.467   3.416
 8749SOL    HW227147   3.613   0.478   3.506
 8750SOL     OW27148   2.126   1.583   5.007
 8750SOL    HW127149   2.141   1.615   5.100
 8750SOL    HW227150   2.034   1.609   4.978
 8751SOL     OW27151   1.344   6.949   3.078
 8751SOL    HW127152   1.341   6.930   3.176
 8751SOL    HW227153   1.336   0.023   3.063
 8752SOL     OW27154   1.672   2.432   6.077
 8752SOL    HW127155   1.706   2.363   6.141
 8752SOL    HW227156   1.574   2.419   6.062
 8753SOL     OW27157   5.152   1.722   4.477
 8753SOL    HW127158   5.138   1.776   4.395
 8753SOL    HW227159   5.121   1.773   4.557
 8754SOL     OW27160   1.453   1.678   5.575
 8754SOL    HW127161   1.391   1.693   5.498
 8754SOL    HW227162   1.422   1.597   5.627
 8755SOL     OW27163   1.817   1.728   0.871
 8755SOL    HW127164   1.902   1.681   0.893
 8755SOL    HW227165   1.740   1.680   0.913
 8756SOL     OW27166   2.174   3.251   4.261
 8756SOL    HW127167   2.218   3.179   4.315
 8756SOL    HW227168   2.157   3.330   4.320
 8757SOL     OW27169   4.862   6.152   5.156
 8757SOL    HW127170   4.879   6.115   5.247
 8757SOL    HW227171   4.780   6.111   5.117
 8758SOL     OW27172   6.268   6.288   1.218
 8758SOL    HW127173   6.212   6.269   1.299
 8758SOL    HW227174   6.208   6.315   1.142
 8759SOL     OW27175   4.956   0.603   5.490
 8759SOL    HW127176   4.985   0.553   5.572
 8759SOL    HW227177   4.873   0.655   5.511
 8760SOL     OW27178   1.601   2.190   3.991
 8760SOL    HW127179   1.572   2.242   4.071
 8760SOL    HW227180   1.688   2.227   3.957
 8761SOL     OW27181   4.460   6.840   0.217
 8761SOL    HW127182   4.404   6.765   0.181
 8761SOL    HW227183   4.440   6.923   0.165
 8762SOL     OW27184   0.554   4.212   0.715
 8762SOL    HW127185   0.514   4.129   0.754
 8762SOL    HW227186   0.651   4.216   0.738
 8763SOL     OW27187   0.179   6.449   6.305
 8763SOL    HW127188   0.136   6.429   6.217
 8763SOL    HW227189   0.250   6.380   6.323
 8764SOL     OW27190   3.945   1.849   4.844
 8764SOL    HW127191   3.949   1.886   4.937
 8764SOL    HW227192   3.851   1.824   4.822
 8765SOL     OW27193   6.381   0.374   4.276
 8765SOL    HW127194   6.460   0.415   4.320
 8765SOL    HW227195   6.391   0.275   4.274
 8766SOL     OW27196   2.165   4.634   2.421
 8766SOL    HW127197   2.097   4.678   2.479
 8766SOL    HW227198   2.247   4.613   2.475
 8767SOL     OW27199   4.314   1.370   3.983
 8767SOL    HW127200   4.365   1.298   3.936
 8767SOL    HW227201   4.331   1.458   3.938
 8768SOL     OW27202   1.345   3.527   6.919
 8768SOL    HW127203   1.437   3.543   6.956
 8768SOL    HW227204   1.351   3.471   6.837
 8769SOL     OW27205   1.520   0.177   5.485
 8769SOL    HW127206   1.532   0.217   5.395
 8769SOL    HW227207   1.422   0.172   5.507
 8770SOL     OW27208   5.227   2.700   1.593
 8770SOL    HW127209   5.165   2.662   1.524
 8770SOL    HW227210   5.231   2.638   1.671
 8771SOL     OW27211   1.134   1.541   6.490
 8771SOL    HW127212   1.129   1.441   6.494
 8771SOL    HW227213   1.106   1.580   6.577
 8772SOL     OW27214   5.155   1.086   6.984
 8772SOL    HW127215   5.185   1.075   6.889
 8772SOL    HW227216   5.105   1.005   7.013
 8773SOL     OW27217   2.548   2.494   2.990
 8773SOL    HW127218   2.572   2.524   2.897
 8773SOL    HW227219   2.591   2.405   3.008
 8774SOL     OW27220   1.264   1.130   0.654
 8774SOL    HW127221   1.353   1.136   0.698
 8774SOL    HW227222   1.197   1.185   0.706
 8775SOL     OW27223   6.946   0.185   3.604
 8775SOL    HW127224   0.007   0.199   3.553
 8775SOL    HW227225   6.930   0.087   3.615
 8776SOL     OW27226   3.342   3.155   4.750
 8776SOL    HW127227   3.381   3.173   4.660
 8776SOL    HW227228   3.376   3.067   4.784
 8777SOL     OW27229   6.641   6.351   1.469
 8777SOL    HW127230   6.658   6.445   1.499
 8777SOL    HW227231   6.697   6.289   1.524
 8778SOL     OW27232   0.190   2.197   3.286
 8778SOL    HW127233   0.125   2.128   3.317
 8778SOL    HW227234   0.283   2.162   3.296
 8779SOL     OW27235   1.085   4.625   0.542
 8779SOL    HW127236   1.039   4.681   0.473
 8779SOL    HW227237   1.172   4.591   0.506
 8780SOL     OW27238   1.178   5.838   4.699
 8780SOL    HW127239   1.092   5.793   4.675
 8780SOL    HW227240   1.255   5.783   4.665
 8781SOL     OW27241   0.432   1.776   2.284
 8781SOL    HW127242   0.349   1.821   2.317
 8781SOL    HW227243   0.454   1.809   2.193
 8782SOL     OW27244   4.293   1.508   3.129
 8782SOL    HW127245   4.290   1.562   3.213
 8782SOL    HW227246   4.200   1.494   3.095
 8783SOL     OW27247   5.652   3.498   4.884
 8783SOL    HW127248   5.654   3.400   4.903
 8783SOL    HW227249   5.557   3.526   4.867
 8784SOL     OW27250   5.548   4.756   5.345
 8784SOL    HW127251   5.508   4.673   5.382
 8784SOL    HW227252   5.496   4.835   5.377
 8785SOL     OW27253   6.158   4.512   6.295
 8785SOL    HW127254   6.234   4.521   6.232
 8785SOL    HW227255   6.120   4.603   6.314
 8786SOL     OW27256   1.836   6.725   0.034
 8786SOL    HW127257   1.764   6.656   0.031
 8786SOL    HW227258   1.861   6.742   0.130
 8787SOL     OW27259   1.054   3.658   0.976
 8787SOL    HW127260   1.069   3.751   0.943
 8787SOL    HW227261   1.051   3.659   1.076
 8788SOL     OW27262   0.985   1.646   5.044
 8788SOL    HW127263   0.929   1.563   5.047
 8788SOL    HW227264   0.947   1.710   4.977
 8789SOL     OW27265   0.248   6.672   6.443
 8789SOL    HW127266   0.199   6.599   6.395
 8789SOL    HW227267   0.181   6.736   6.482
 8790SOL     OW27268   5.747   1.486   0.068
 8790SOL    HW127269   5.833   1.516   0.026
 8790SOL    HW227270   5.702   1.564   0.111
 8791SOL     OW27271   5.021   6.724   5.632
 8791SOL    HW127272   4.946   6.742   5.568
 8791SOL    HW227273   5.099   6.688   5.582
 8792SOL     OW27274   5.161   0.115   3.115
 8792SOL    HW127275   5.061   0.113   3.121
 8792SOL    HW227276   5.194   0.027   3.081
 8793SOL     OW27277   0.950   5.710   4.213
 8793SOL    HW127278   0.875   5.717   4.147
 8793SOL    HW227279   0.942   5.625   4.265
 8794SOL     OW27280   2.051   6.684   2.419
 8794SOL    HW127281   2.071   6.586   2.408
 8794SOL    HW227282   1.952   6.698   2.412
 8795SOL     OW27283   2.086   6.152   5.656
 8795SOL    HW127284   2.072   6.062   5.615
 8795SOL    HW227285   2.150   6.144   5.733
 8796SOL     OW27286   5.447   2.439   5.043
 8796SOL    HW127287   5.368   2.482   5.086
 8796SOL    HW227288   5.417   2.368   4.980
 8797SOL     OW27289   0.503   6.596   6.520
 8797SOL    HW127290   0.557   6.678   6.538
 8797SOL    HW227291   0.410   6.621   6.495
 8798SOL     OW27292   4.585   3.720   5.363
 8798SOL    HW127293   4.640   3.771   5.429
 8798SOL    HW227294   4.645   3.657   5.313
 8799SOL     OW27295   3.234   5.383   2.730
 8799SOL    HW127296   3.156   5.343   2.778
 8799SOL    HW227297   3.315   5.326   2.747
 8800SOL     OW27298   4.496   4.898   6.919
 8800SOL    HW127299   4.409   4.944   6.937
 8800SOL    HW227300   4.484   4.832   6.845
 8801SOL     OW27301   2.611   0.671   4.992
 8801SOL    HW127302   2.590   0.769   4.984
 8801SOL    HW227303   2.580   0.624   4.910
 8802SOL     OW27304   2.628   6.642   2.463
 8802SOL    HW127305   2.605   6.545   2.468
 8802SOL    HW227306   2.643   6.678   2.555
 8803SOL     OW27307   4.149   6.315   0.608
 8803SOL    HW127308   4.168   6.216   0.607
 8803SOL    HW227309   4.055   6.331   0.636
 8804SOL     OW27310   4.611   0.465   1.071
 8804SOL    HW127311   4.664   0.492   0.991
 8804SOL    HW227312   4.576   0.546   1.117
 8805SOL     OW27313   0.585   0.285   2.926
 8805SOL    HW127314   0.582   0.252   3.021
 8805SOL    HW227315   0.623   0.378   2.924
 8806SOL     OW27316   1.901   4.838   6.940
 8806SOL    HW127317   1.860   4.783   7.012
 8806SOL    HW227318   1.861   4.814   6.852
 8807SOL     OW27319   1.229   6.169   6.528
 8807SOL    HW127320   1.203   6.102   6.458
 8807SOL    HW227321   1.178   6.151   6.612
 8808SOL     OW27322   6.022   1.198   0.983
 8808SOL    HW127323   6.028   1.290   0.942
 8808SOL    HW227324   6.062   1.131   0.920
 8809SOL     OW27325   5.795   3.757   1.266
 8809SOL    HW127326   5.775   3.703   1.348
 8809SOL    HW227327   5.885   3.799   1.276
 8810SOL     OW27328   4.453   1.767   4.133
 8810SOL    HW127329   4.372   1.712   4.152
 8810SOL    HW227330   4.438   1.861   4.163
 8811SOL     OW27331   1.054   1.126   2.824
 8811SOL    HW127332   1.089   1.061   2.756
 8811SOL    HW227333   0.957   1.106   2.841
 8812SOL     OW27334   2.471   0.381   0.914
 8812SOL    HW127335   2.385   0.424   0.942
 8812SOL    HW227336   2.544   0.411   0.975
 8813SOL     OW27337   1.940   5.754   1.800
 8813SOL    HW127338   1.965   5.759   1.704
 8813SOL    HW227339   1.841   5.752   1.809
 8814SOL     OW27340   5.948   1.019   6.316
 8814SOL    HW127341   5.994   0.943   6.363
 8814SOL    HW227342   6.003   1.101   6.325
 8815SOL     OW27343   0.663   5.865   2.427
 8815SOL    HW127344   0.607   5.948   2.435
 8815SOL    HW227345   0.695   5.838   2.518
 8816SOL     OW27346   0.900   5.831   1.318
 8816SOL    HW127347   0.983   5.887   1.316
 8816SOL    HW227348   0.841   5.854   1.241
 8817SOL     OW27349   1.802   5.197   5.680
 8817SOL    HW127350   1.857   5.263   5.629
 8817SOL    HW227351   1.732   5.245   5.732
 8818SOL     OW27352   0.433   5.427   3.959
 8818SOL    HW127353   0.419   5.524   3.980
 8818SOL    HW227354   0.345   5.380   3.961
 8819SOL     OW27355   4.873   6.462   4.041
 8819SOL    HW127356   4.809   6.477   3.965
 8819SOL    HW227357   4.906   6.550   4.075
 8820SOL     OW27358   1.158   2.603   3.601
 8820SOL    HW127359   1.154   2.702   3.589
 8820SOL    HW227360   1.175   2.582   3.698
 8821SOL     OW27361   1.927   0.951   6.046
 8821SOL    HW127362   2.018   0.914   6.062
 8821SOL    HW227363   1.912   0.961   5.948
 8822SOL     OW27364   6.831   2.506   2.999
 8822SOL    HW127365   6.867   2.599   2.987
 8822SOL    HW227366   6.896   2.440   2.962
 8823SOL     OW27367   2.079   6.109   1.772
 8823SOL    HW127368   1.980   6.111   1.756
 8823SOL    HW227369   2.098   6.120   1.869
 8824SOL     OW27370   3.670   4.131   0.703
 8824SOL    HW127371   3.618   4.166   0.782
 8824SOL    HW227372   3.637   4.039   0.681
 8825SOL     OW27373   0.875   1.281   1.426
 8825SOL    HW127374   0.844   1.276   1.331
 8825SOL    HW227375   0.973   1.261   1.430
 8826SOL     OW27376   5.070   1.433   6.656
 8826SOL    HW127377   5.148   1.455   6.714
 8826SOL    HW227378   5.017   1.359   6.699
 8827SOL     OW27379   1.326   1.909   3.532
 8827SOL    HW127380   1.236   1.889   3.572
 8827SOL    HW227381   1.320   1.902   3.432
 8828SOL     OW27382   2.628   6.676   2.820
 8828SOL    HW127383   2.570   6.738   2.873
 8828SOL    HW227384   2.710   6.725   2.791
 8829SOL     OW27385   0.270   1.981   0.482
 8829SOL    HW127386   0.206   1.933   0.422
 8829SOL    HW227387   0.221   2.050   0.535
 8830SOL     OW27388   0.716   2.626   1.120
 8830SOL    HW127389   0.648   2.565   1.080
 8830SOL    HW227390   0.784   2.652   1.051
 8831SOL     OW27391   6.498   0.664   2.858
 8831SOL    HW127392   6.417   0.707   2.897
 8831SOL    HW227393   6.536   0.598   2.923
 8832SOL     OW27394   6.335   0.976   2.761
 8832SOL    HW127395   6.267   0.907   2.784
 8832SOL    HW227396   6.388   1.000   2.843
 8833SOL     OW27397   2.243   4.582   3.999
 8833SOL    HW127398   2.174   4.557   4.068
 8833SOL    HW227399   2.321   4.519   4.006
 8834SOL     OW27400   5.817   4.043   4.959
 8834SOL    HW127401   5.733   4.000   4.990
 8834SOL    HW227402   5.844   4.004   4.871
 8835SOL     OW27403   6.830   6.374   6.591
 8835SOL    HW127404   6.879   6.337   6.670
 8835SOL    HW227405   6.833   6.473   6.594
 8836SOL     OW27406   4.905   1.662   0.647
 8836SOL    HW127407   4.886   1.728   0.719
 8836SOL    HW227408   4.857   1.688   0.564
 8837SOL     OW27409   0.287   0.907   1.950
 8837SOL    HW127410   0.324   0.816   1.965
 8837SOL    HW227411   0.190   0.909   1.975
 8838SOL     OW27412   2.509   5.643   4.056
 8838SOL    HW127413   2.504   5.596   4.144
 8838SOL    HW227414   2.417   5.650   4.016
 8839SOL     OW27415   6.333   6.536   3.848
 8839SOL    HW127416   6.389   6.458   3.875
 8839SOL    HW227417   6.252   6.540   3.906
 8840SOL     OW27418   5.097   2.095   2.219
 8840SOL    HW127419   5.119   2.018   2.280
 8840SOL    HW227420   5.062   2.171   2.273
 8841SOL     OW27421   1.647   1.149   4.671
 8841SOL    HW127422   1.707   1.211   4.621
 8841SOL    HW227423   1.552   1.181   4.664
 8842SOL     OW27424   2.165   2.941   1.933
 8842SOL    HW127425   2.171   2.984   1.843
 8842SOL    HW227426   2.237   2.871   1.940
 8843SOL     OW27427   0.076   3.146   4.750
 8843SOL    HW127428   0.094   3.052   4.722
 8843SOL    HW227429   0.161   3.199   4.747
 8844SOL     OW27430   6.667   1.575   6.792
 8844SOL    HW127431   6.579   1.565   6.836
 8844SOL    HW227432   6.737   1.527   6.845
 8845SOL     OW27433   5.550   4.447   0.046
 8845SOL    HW127434   5.476   4.438   7.003
 8845SOL    HW227435   5.517   4.499   0.125
 8846SOL     OW27436   1.909   4.755   3.704
 8846SOL    HW127437   1.842   4.759   3.779
 8846SOL    HW227438   1.922   4.660   3.677
 8847SOL     OW27439   2.795   0.379   2.880
 8847SOL    HW127440   2.721   0.413   2.823
 8847SOL    HW227441   2.769   0.384   2.976
 8848SOL     OW27442   1.679   0.625   3.075
 8848SOL    HW127443   1.688   0.547   3.013
 8848SOL    HW227444   1.599   0.679   3.047
 8849SOL     OW27445   3.072   6.827   1.001
 8849SOL    HW127446   3.048   6.739   1.042
 8849SOL    HW227447   3.103   6.889   1.073
 8850SOL     OW27448   3.693   2.899   7.019
 8850SOL    HW127449   3.619   2.837   6.991
 8850SOL    HW227450   3.676   2.990   6.982
 8851SOL     OW27451   1.327   3.470   3.203
 8851SOL    HW127452   1.358   3.400   3.138
 8851SOL    HW227453   1.232   3.453   3.228
 8852SOL     OW27454   0.920   1.576   5.799
 8852SOL    HW127455   0.918   1.499   5.864
 8852SOL    HW227456   1.015   1.599   5.778
 8853SOL     OW27457   4.799   1.203   0.724
 8853SOL    HW127458   4.766   1.114   0.693
 8853SOL    HW227459   4.879   1.190   0.783
 8854SOL     OW27460   0.528   2.565   4.585
 8854SOL    HW127461   0.605   2.580   4.523
 8854SOL    HW227462   0.559   2.569   4.680
 8855SOL     OW27463   5.552   5.205   0.952
 8855SOL    HW127464   5.608   5.143   1.006
 8855SOL    HW227465   5.610   5.255   0.888
 8856SOL     OW27466   0.154   6.519   5.480
 8856SOL    HW127467   0.061   6.486   5.466
 8856SOL    HW227468   0.210   6.446   5.519
 8857SOL     OW27469   6.383   1.610   6.156
 8857SOL    HW127470   6.399   1.705   6.182
 8857SOL    HW227471   6.290   1.601   6.119
 8858SOL     OW27472   6.170   6.187   4.490
 8858SOL    HW127473   6.113   6.111   4.458
 8858SOL    HW227474   6.145   6.209   4.584
 8859SOL     OW27475   1.221   6.672   3.871
 8859SOL    HW127476   1.261   6.754   3.829
 8859SOL    HW227477   1.123   6.687   3.886
 8860SOL     OW27478   0.602   3.907   2.551
 8860SOL    HW127479   0.577   4.003   2.565
 8860SOL    HW227480   0.528   3.848   2.583
 8861SOL     OW27481   4.491   2.722   0.821
 8861SOL    HW127482   4.554   2.796   0.800
 8861SOL    HW227483   4.421   2.754   0.884
 8862SOL     OW27484   4.763   4.627   4.775
 8862SOL    HW127485   4.751   4.684   4.856
 8862SOL    HW227486   4.723   4.537   4.792
 8863SOL     OW27487   2.177   3.964   3.553
 8863SOL    HW127488   2.157   4.058   3.581
 8863SOL    HW227489   2.179   3.905   3.634
 8864SOL     OW27490   6.244   1.636   5.225
 8864SOL    HW127491   6.244   1.727   5.183
 8864SOL    HW227492   6.318   1.581   5.186
 8865SOL     OW27493   2.870   1.565   0.346
 8865SOL    HW127494   2.966   1.547   0.366
 8865SOL    HW227495   2.813   1.505   0.402
 8866SOL     OW27496   5.727   6.498   1.860
 8866SOL    HW127497   5.772   6.410   1.876
 8866SOL    HW227498   5.745   6.559   1.938
 8867SOL     OW27499   6.385   4.224   2.871
 8867SOL    HW127500   6.447   4.183   2.938
 8867SOL    HW227501   6.316   4.157   2.844
 8868SOL     OW27502   6.809   3.248   3.707
 8868SOL    HW127503   6.740   3.249   3.779
 8868SOL    HW227504   6.831   3.153   3.683
 8869SOL     OW27505   3.681   6.749   3.348
 8869SOL    HW127506   3.646   6.814   3.416
 8869SOL    HW227507   3.780   6.743   3.356
 8870SOL     OW27508   1.243   0.737   3.318
 8870SOL    HW127509   1.315   0.805   3.304
 8870SOL    HW227510   1.182   0.735   3.238
 8871SOL     OW27511   0.033   0.529   2.839
 8871SOL    HW127512   6.999   0.549   2.760
 8871SOL    HW227513   0.058   0.614   2.885
 8872SOL     OW27514   6.297   4.827   4.005
 8872SOL    HW127515   6.265   4.752   4.063
 8872SOL    HW227516   6.365   4.792   3.941
 8873SOL     OW27517   1.984   1.572   2.777
 8873SOL    HW127518   2.045   1.614   2.844
 8873SOL    HW227519   1.946   1.487   2.815
 8874SOL     OW27520   3.429   6.359   0.920
 8874SOL    HW127521   3.455   6.270   0.881
 8874SOL    HW227522   3.431   6.428   0.848
 8875SOL     OW27523   6.795   3.371   4.056
 8875SOL    HW127524   6.773   3.461   4.093
 8875SOL    HW227525   6.890   3.349   4.074
 8876SOL     OW27526   4.082   0.527   6.282
 8876SOL    HW127527   3.993   0.571   6.285
 8876SOL    HW227528   4.124   0.542   6.192
 8877SOL     OW27529   1.275   3.891   1.254
 8877SOL    HW127530   1.270   3.913   1.352
 8877SOL    HW227531   1.353   3.831   1.238
 8878SOL     OW27532   4.732   3.632   1.132
 8878SOL    HW127533   4.826   3.611   1.105
 8878SOL    HW227534   4.691   3.552   1.176
 8879SOL     OW27535   6.598   5.047   2.984
 8879SOL    HW127536   6.602   5.092   2.896
 8879SOL    HW227537   6.678   4.988   2.995
 8880SOL     OW27538   4.089   1.152   3.813
 8880SOL    HW127539   4.170   1.156   3.872
 8880SOL    HW227540   4.104   1.087   3.739
 8881SOL     OW27541   4.348   4.966   4.566
 8881SOL    HW127542   4.387   4.949   4.475
 8881SOL    HW227543   4.341   4.880   4.616
 8882SOL     OW27544   4.369   0.500   0.646
 8882SOL    HW127545   4.390   0.568   0.716
 8882SOL    HW227546   4.273   0.508   0.619
 8883SOL     OW27547   6.567   5.929   5.000
 8883SOL    HW127548   6.661   5.895   4.990
 8883SOL    HW227549   6.556   6.012   4.946
 8884SOL     OW27550   5.186   3.170   5.223
 8884SOL    HW127551   5.139   3.254   5.197
 8884SOL    HW227552   5.146   3.093   5.173
 8885SOL     OW27553   5.827   6.014   0.560
 8885SOL    HW127554   5.862   6.051   0.475
 8885SOL    HW227555   5.784   6.088   0.613
 8886SOL     OW27556   4.352   6.212   6.182
 8886SOL    HW127557   4.321   6.155   6.106
 8886SOL    HW227558   4.316   6.305   6.171
 8887SOL     OW27559   4.596   0.824   1.929
 8887SOL    HW127560   4.658   0.817   2.007
 8887SOL    HW227561   4.502   0.839   1.962
 8888SOL     OW27562   2.511   2.133   2.762
 8888SOL    HW127563   2.548   2.079   2.837
 8888SOL    HW227564   2.560   2.220   2.756
 8889SOL     OW27565   0.848   5.956   6.349
 8889SOL    HW127566   0.866   5.887   6.278
 8889SOL    HW227567   0.925   5.960   6.412
 8890SOL     OW27568   0.722   6.472   0.133
 8890SOL    HW127569   0.638   6.457   0.185
 8890SOL    HW227570   0.700   6.516   0.045
 8891SOL     OW27571   6.323   3.904   6.600
 8891SOL    HW127572   6.353   3.999   6.602
 8891SOL    HW227573   6.259   3.887   6.675
 8892SOL     OW27574   3.222   5.390   4.374
 8892SOL    HW127575   3.277   5.471   4.352
 8892SOL    HW227576   3.125   5.415   4.374
 8893SOL     OW27577   0.935   5.035   4.868
 8893SOL    HW127578   0.851   5.070   4.909
 8893SOL    HW227579   0.919   5.013   4.772
 8894SOL     OW27580   4.970   2.083   0.761
 8894SOL    HW127581   4.951   2.093   0.664
 8894SOL    HW227582   5.057   2.035   0.773
 8895SOL     OW27583   0.097   3.683   0.406
 8895SOL    HW127584   0.036   3.722   0.475
 8895SOL    HW227585   0.100   3.742   0.326
 8896SOL     OW27586   0.283   2.417   4.481
 8896SOL    HW127587   0.373   2.450   4.507
 8896SOL    HW227588   0.216   2.491   4.491
 8897SOL     OW27589   1.649   4.179   4.329
 8897SOL    HW127590   1.697   4.126   4.260
 8897SOL    HW227591   1.697   4.265   4.344
 8898SOL     OW27592   4.595   4.480   2.684
 8898SOL    HW127593   4.512   4.536   2.681
 8898SOL    HW227594   4.675   4.538   2.665
 8899SOL     OW27595   1.124   3.347   4.552
 8899SOL    HW127596   1.209   3.359   4.500
 8899SOL    HW227597   1.128   3.262   4.603
 8900SOL     OW27598   4.836   2.426   3.586
 8900SOL    HW127599   4.756   2.484   3.601
 8900SOL    HW227600   4.816   2.360   3.513
 8901SOL     OW27601   1.507   3.543   4.574
 8901SOL    HW127602   1.468   3.483   4.504
 8901SOL    HW227603   1.606   3.531   4.578
 8902SOL     OW27604   0.373   4.564   0.394
 8902SOL    HW127605   0.319   4.648   0.405
 8902SOL    HW227606   0.376   4.515   0.481
 8903SOL     OW27607   1.264   6.316   5.531
 8903SOL    HW127608   1.237   6.353   5.442
 8903SOL    HW227609   1.229   6.223   5.541
 8904SOL     OW27610   0.469   0.667   3.358
 8904SOL    HW127611   0.521   0.700   3.437
 8904SOL    HW227612   0.524   0.600   3.307
 8905SOL     OW27613   1.255   3.809   2.693
 8905SOL    HW127614   1.237   3.760   2.778
 8905SOL    HW227615   1.281   3.744   2.621
 8906SOL     OW27616   6.321   0.072   0.069
 8906SOL    HW127617   6.303   0.007   7.020
 8906SOL    HW227618   6.413   0.110   0.059
 8907SOL     OW27619   2.824   3.492   5.139
 8907SOL    HW127620   2.814   3.506   5.040
 8907SOL    HW227621   2.843   3.395   5.156
 8908SOL     OW27622   1.682   5.126   6.994
 8908SOL    HW127623   1.769   5.175   7.003
 8908SOL    HW227624   1.687   5.040   0.020
 8909SOL     OW27625   2.192   6.643   0.884
 8909SOL    HW127626   2.124   6.585   0.838
 8909SOL    HW227627   2.282   6.601   0.875
 8910SOL     OW27628   2.091   0.499   3.413
 8910SOL    HW127629   2.170   0.438   3.406
 8910SOL    HW227630   2.017   0.463   3.355
 8911SOL     OW27631   4.142   2.308   3.904
 8911SOL    HW127632   4.149   2.406   3.890
 8911SOL    HW227633   4.226   2.274   3.946
 8912SOL     OW27634   3.670   3.859   4.319
 8912SOL    HW127635   3.757   3.893   4.356
 8912SOL    HW227636   3.688   3.783   4.256
 8913SOL     OW27637   5.563   6.777   6.385
 8913SOL    HW127638   5.549   6.812   6.292
 8913SOL    HW227639   5.499   6.702   6.402
 8914SOL     OW27640   4.767   5.144   6.270
 8914SOL    HW127641   4.682   5.116   6.224
 8914SOL    HW227642   4.834   5.071   6.264
 8915SOL     OW27643   1.330   1.318   3.354
 8915SOL    HW127644   1.387   1.330   3.435
 8915SOL    HW227645   1.374   1.254   3.291
 8916SOL     OW27646   4.660   1.427   0.823
 8916SOL    HW127647   4.622   1.447   0.733
 8916SOL    HW227648   4.734   1.360   0.815
 8917SOL     OW27649   6.203   1.855   0.705
 8917SOL    HW127650   6.236   1.820   0.617
 8917SOL    HW227651   6.178   1.951   0.695
 8918SOL     OW27652   0.899   3.662   2.892
 8918SOL    HW127653   0.849   3.576   2.897
 8918SOL    HW227654   0.878   3.708   2.806
 8919SOL     OW27655   6.357   3.647   1.526
 8919SOL    HW127656   6.450   3.675   1.552
 8919SOL    HW227657   6.361   3.557   1.483
 8920SOL     OW27658   6.494   1.391   0.237
 8920SOL    HW127659   6.441   1.470   0.204
 8920SOL    HW227660   6.576   1.381   0.180
 8921SOL     OW27661   1.966   2.525   2.312
 8921SOL    HW127662   1.980   2.506   2.215
 8921SOL    HW227663   1.985   2.622   2.331
 8922SOL     OW27664   3.981   6.570   4.353
 8922SOL    HW127665   3.882   6.557   4.357
 8922SOL    HW227666   4.012   6.614   4.437
 8923SOL     OW27667   1.963   1.763   4.394
 8923SOL    HW127668   1.977   1.766   4.295
 8923SOL    HW227669   1.950   1.856   4.428
 8924SOL     OW27670   5.955   5.329   5.220
 8924SOL    HW127671   5.879   5.388   5.244
 8924SOL    HW227672   6.026   5.335   5.291
 8925SOL     OW27673   1.132   6.319   2.815
 8925SOL    HW127674   1.203   6.249   2.827
 8925SOL    HW227675   1.105   6.355   2.904
 8926SOL     OW27676   5.328   2.147   6.228
 8926SOL    HW127677   5.377   2.197   6.299
 8926SOL    HW227678   5.328   2.050   6.251
 8927SOL     OW27679   1.212   1.094   5.604
 8927SOL    HW127680   1.284   1.127   5.544
 8927SOL    HW227681   1.204   0.994   5.596
 8928SOL     OW27682   1.454   6.148   5.296
 8928SOL    HW127683   1.517   6.175   5.224
 8928SOL    HW227684   1.410   6.229   5.335
 8929SOL     OW27685   0.092   2.599   4.527
 8929SOL    HW127686   0.029   2.675   4.539
 8929SOL    HW227687   0.046   2.513   4.550
 8930SOL     OW27688   2.393   4.381   3.721
 8930SOL    HW127689   2.408   4.380   3.622
 8930SOL    HW227690   2.324   4.313   3.745
 8931SOL     OW27691   3.812   2.638   1.038
 8931SOL    HW127692   3.899   2.590   1.051
 8931SOL    HW227693   3.738   2.583   1.077
 8932SOL     OW27694   0.396   3.559   3.301
 8932SOL    HW127695   0.413   3.491   3.372
 8932SOL    HW227696   0.415   3.650   3.338
 8933SOL     OW27697   3.494   2.086   5.234
 8933SOL    HW127698   3.472   2.181   5.214
 8933SOL    HW227699   3.580   2.062   5.188
 8934SOL     OW27700   3.795   5.880   3.363
 8934SOL    HW127701   3.774   5.894   3.266
 8934SOL    HW227702   3.750   5.951   3.417
 8935SOL     OW27703   0.056   4.335   1.287
 8935SOL    HW127704   0.139   4.305   1.240
 8935SOL    HW227705   0.078   4.414   1.344
 8936SOL     OW27706   2.282   1.997   0.789
 8936SOL    HW127707   2.334   1.912   0.792
 8936SOL    HW227708   2.196   1.985   0.840
 8937SOL     OW27709   0.231   5.500   5.413
 8937SOL    HW127710   0.151   5.441   5.403
 8937SOL    HW227711   0.253   5.542   5.325
 8938SOL     OW27712   5.330   5.414   1.252
 8938SOL    HW127713   5.348   5.337   1.313
 8938SOL    HW227714   5.411   5.472   1.248
 8939SOL     OW27715   4.962   2.610   4.810
 8939SOL    HW127716   4.879   2.665   4.805
 8939SOL    HW227717   5.022   2.634   4.734
 8940SOL     OW27718   5.811   0.881   2.839
 8940SOL    HW127719   5.849   0.792   2.814
 8940SOL    HW227720   5.839   0.904   2.933
 8941SOL     OW27721   4.866   2.121   6.124
 8941SOL    HW127722   4.895   2.097   6.032
 8941SOL    HW227723   4.767   2.115   6.131
 8942SOL     OW27724   0.691   2.546   5.898
 8942SOL    HW127725   0.678   2.503   5.809
 8942SOL    HW227726   0.676   2.645   5.889
 8943SOL     OW27727   4.972   3.982   0.820
 8943SOL    HW127728   4.975   3.992   0.720
 8943SOL    HW227729   5.003   4.067   0.863
 8944SOL     OW27730   4.437   5.701   0.830
 8944SOL    HW127731   4.480   5.645   0.901
 8944SOL    HW227732   4.345   5.666   0.812
 8945SOL     OW27733   2.263   1.068   4.017
 8945SOL    HW127734   2.264   1.167   4.025
 8945SOL    HW227735   2.226   1.041   3.928
 8946SOL     OW27736   3.538   1.698   4.564
 8946SOL    HW127737   3.626   1.678   4.522
 8946SOL    HW227738   3.473   1.728   4.494
 8947SOL     OW27739   4.401   3.981   5.346
 8947SOL    HW127740   4.358   3.895   5.318
 8947SOL    HW227741   4.342   4.057   5.320
 8948SOL     OW27742   6.167   5.351   3.132
 8948SOL    HW127743   6.127   5.442   3.132
 8948SOL    HW227744   6.265   5.357   3.153
 8949SOL     OW27745   2.066   6.269   0.202
 8949SOL    HW127746   2.102   6.224   0.284
 8949SOL    HW227747   2.088   6.215   0.122
 8950SOL     OW27748   4.737   2.709   4.603
 8950SOL    HW127749   4.668   2.707   4.532
 8950SOL    HW227750   4.821   2.667   4.569
 8951SOL     OW27751   1.853   2.475   5.373
 8951SOL    HW127752   1.816   2.555   5.420
 8951SOL    HW227753   1.917   2.427   5.433
 8952SOL     OW27754   6.629   0.790   2.646
 8952SOL    HW127755   6.640   0.888   2.624
 8952SOL    HW227756   6.582   0.781   2.734
 8953SOL     OW27757   1.167   3.673   0.046
 8953SOL    HW127758   1.208   3.613   7.002
 8953SOL    HW227759   1.239   3.724   0.094
 8954SOL     OW27760   1.892   5.896   6.097
 8954SOL    HW127761   1.895   5.801   6.065
 8954SOL    HW227762   1.803   5.914   6.139
 8955SOL     OW27763   6.283   3.949   3.191
 8955SOL    HW127764   6.282   3.872   3.255
 8955SOL    HW227765   6.275   3.914   3.097
 8956SOL     OW27766   1.238   0.677   5.997
 8956SOL    HW127767   1.303   0.648   6.067
 8956SOL    HW227768   1.234   0.777   5.995
 8957SOL     OW27769   3.173   4.937   2.079
 8957SOL    HW127770   3.116   4.890   2.011
 8957SOL    HW227771   3.265   4.952   2.041
 8958SOL     OW27772   2.022   7.022   4.786
 8958SOL    HW127773   1.975   6.958   4.846
 8958SOL    HW227774   2.056   6.973   4.705
 8959SOL     OW27775   2.040   4.611   0.611
 8959SOL    HW127776   1.952   4.635   0.652
 8959SOL    HW227777   2.094   4.559   0.676
 8960SOL     OW27778   3.960   5.819   1.240
 8960SOL    HW127779   3.910   5.890   1.191
 8960SOL    HW227780   4.054   5.849   1.256
 8961SOL     OW27781   0.815   1.986   3.679
 8961SOL    HW127782   0.748   1.912   3.681
 8961SOL    HW227783   0.782   2.058   3.618
 8962SOL     OW27784   5.740   0.192   3.349
 8962SOL    HW127785   5.675   0.150   3.285
 8962SOL    HW227786   5.833   0.180   3.315
 8963SOL     OW27787   6.119   0.983   4.320
 8963SOL    HW127788   6.044   1.032   4.275
 8963SOL    HW227789   6.113   0.997   4.419
 8964SOL     OW27790   5.655   5.134   2.817
 8964SOL    HW127791   5.634   5.232   2.808
 8964SOL    HW227792   5.681   5.114   2.911
 8965SOL     OW27793   1.736   5.222   1.773
 8965SOL    HW127794   1.712   5.167   1.692
 8965SOL    HW227795   1.712   5.318   1.757
 8966SOL     OW27796   2.431   2.711   5.562
 8966SOL    HW127797   2.402   2.803   5.589
 8966SOL    HW227798   2.506   2.682   5.621
 8967SOL     OW27799   3.969   0.508   0.355
 8967SOL    HW127800   3.915   0.435   0.313
 8967SOL    HW227801   4.026   0.551   0.285
 8968SOL     OW27802   4.816   5.648   1.733
 8968SOL    HW127803   4.783   5.678   1.643
 8968SOL    HW227804   4.858   5.558   1.724
 8969SOL     OW27805   6.593   0.832   4.227
 8969SOL    HW127806   6.650   0.750   4.228
 8969SOL    HW227807   6.497   0.805   4.217
 8970SOL     OW27808   3.781   2.303   1.560
 8970SOL    HW127809   3.730   2.221   1.583
 8970SOL    HW227810   3.754   2.378   1.620
 8971SOL     OW27811   4.045   5.734   2.518
 8971SOL    HW127812   3.953   5.733   2.556
 8971SOL    HW227813   4.045   5.787   2.433
 8972SOL     OW27814   5.898   0.247   5.105
 8972SOL    HW127815   5.886   0.344   5.081
 8972SOL    HW227816   5.810   0.200   5.099
 8973SOL     OW27817   1.662   5.698   0.004
 8973SOL    HW127818   1.641   5.682   6.932
 8973SOL    HW227819   1.578   5.694   0.057
 8974SOL     OW27820   0.838   3.118   4.580
 8974SOL    HW127821   0.849   3.114   4.481
 8974SOL    HW227822   0.773   3.048   4.609
 8975SOL     OW27823   2.948   6.897   0.226
 8975SOL    HW127824   2.867   6.869   0.278
 8975SOL    HW227825   2.988   6.818   0.181
 8976SOL     OW27826   0.686   5.685   4.184
 8976SOL    HW127827   0.665   5.587   4.176
 8976SOL    HW227828   0.620   5.737   4.130
 8977SOL     OW27829   5.993   1.805   6.290
 8977SOL    HW127830   6.074   1.768   6.335
 8977SOL    HW227831   5.957   1.882   6.344
 8978SOL     OW27832   5.739   6.462   0.713
 8978SOL    HW127833   5.648   6.423   0.727
 8978SOL    HW227834   5.804   6.390   0.691
 8979SOL     OW27835   1.961   4.209   4.902
 8979SOL    HW127836   1.961   4.127   4.960
 8979SOL    HW227837   2.053   4.224   4.866
 8980SOL     OW27838   3.906   3.028   4.444
 8980SOL    HW127839   4.000   3.023   4.410
 8980SOL    HW227840   3.901   2.989   4.536
 8981SOL     OW27841   3.571   1.824   5.041
 8981SOL    HW127842   3.479   1.803   5.073
 8981SOL    HW227843   3.638   1.769   5.090
 8982SOL     OW27844   2.995   4.380   0.649
 8982SOL    HW127845   2.924   4.379   0.720
 8982SOL    HW227846   2.952   4.365   0.559
 8983SOL     OW27847   4.396   5.260   0.238
 8983SOL    HW127848   4.466   5.207   0.190
 8983SOL    HW227849   4.349   5.201   0.304
 8984SOL     OW27850   1.663   5.772   3.177
 8984SOL    HW127851   1.630   5.792   3.085
 8984SOL    HW227852   1.622   5.838   3.241
 8985SOL     OW27853   3.628   3.115   6.431
 8985SOL    HW127854   3.712   3.078   6.472
 8985SOL    HW227855   3.578   3.042   6.386
 8986SOL     OW27856   3.810   5.730   2.687
 8986SOL    HW127857   3.815   5.701   2.782
 8986SOL    HW227858   3.745   5.672   2.637
 8987SOL     OW27859   5.352   6.315   2.146
 8987SOL    HW127860   5.339   6.276   2.237
 8987SOL    HW227861   5.365   6.414   2.154
 8988SOL     OW27862   0.669   5.388   4.723
 8988SOL    HW127863   0.737   5.347   4.663
 8988SOL    HW227864   0.712   5.419   4.807
 8989SOL     OW27865   3.414   2.934   6.448
 8989SOL    HW127866   3.447   2.841   6.434
 8989SOL    HW227867   3.357   2.938   6.530
 8990SOL     OW27868   0.304   5.849   3.824
 8990SOL    HW127869   0.252   5.766   3.846
 8990SOL    HW227870   0.342   5.841   3.732
 8991SOL     OW27871   1.194   2.129   5.198
 8991SOL    HW127872   1.259   2.204   5.186
 8991SOL    HW227873   1.223   2.050   5.144
 8992SOL     OW27874   6.229   2.037   6.429
 8992SOL    HW127875   6.212   2.042   6.331
 8992SOL    HW227876   6.142   2.025   6.477
 8993SOL     OW27877   4.465   2.538   6.573
 8993SOL    HW127878   4.456   2.598   6.653
 8993SOL    HW227879   4.543   2.568   6.518
 8994SOL     OW27880   1.534   5.146   4.224
 8994SOL    HW127881   1.616   5.106   4.265
 8994SOL    HW227882   1.562   5.208   4.150
 8995SOL     OW27883   6.873   1.706   1.179
 8995SOL    HW127884   6.951   1.667   1.131
 8995SOL    HW227885   6.847   1.793   1.136
 8996SOL     OW27886   5.196   5.017   6.175
 8996SOL    HW127887   5.168   4.953   6.103
 8996SOL    HW227888   5.281   5.062   6.147
 8997SOL     OW27889   5.140   1.340   4.643
 8997SOL    HW127890   5.224   1.298   4.678
 8997SOL    HW227891   5.157   1.379   4.553
 8998SOL     OW27892   6.633   3.636   4.306
 8998SOL    HW127893   6.707   3.626   4.239
 8998SOL    HW227894   6.638   3.726   4.348
 8999SOL     OW27895   4.308   6.775   5.857
 8999SOL    HW127896   4.309   6.807   5.952
 8999SOL    HW227897   4.384   6.712   5.843
 9000SOL     OW27898   2.146   3.550   1.750
 9000SOL    HW127899   2.070   3.600   1.791
 9000SOL    HW227900   2.212   3.524   1.821
 9001SOL     OW27901   0.656   4.917   2.256
 9001SOL    HW127902   0.649   4.936   2.354
 9001SOL    HW227903   0.565   4.898   2.219
 9002SOL     OW27904   1.226   4.418   6.847
 9002SOL    HW127905   1.175   4.496   6.810
 9002SOL    HW227906   1.208   4.409   6.945
 9003SOL     OW27907   5.496   0.870   1.273
 9003SOL    HW127908   5.521   0.804   1.203
 9003SOL    HW227909   5.397   0.883   1.272
 9004SOL     OW27910   3.963   4.672   0.469
 9004SOL    HW127911   3.954   4.652   0.371
 9004SOL    HW227912   3.966   4.586   0.520
 9005SOL     OW27913   5.512   1.206   5.613
 9005SOL    HW127914   5.565   1.288   5.635
 9005SOL    HW227915   5.421   1.212   5.654
 9006SOL     OW27916   3.460   6.242   0.642
 9006SOL    HW127917   3.516   6.300   0.583
 9006SOL    HW227918   3.518   6.173   0.685
 9007SOL     OW27919   2.874   1.133   3.136
 9007SOL    HW127920   2.792   1.094   3.092
 9007SOL    HW227921   2.857   1.228   3.161
 9008SOL     OW27922   6.925   5.902   2.582
 9008SOL    HW127923   6.966   5.818   2.547
 9008SOL    HW227924   6.988   5.979   2.566
 9009SOL     OW27925   4.224   5.541   0.764
 9009SOL    HW127926   4.250   5.481   0.840
 9009SOL    HW227927   4.124   5.544   0.757
 9010SOL     OW27928   1.755   6.650   4.371
 9010SOL    HW127929   1.846   6.691   4.378
 9010SOL    HW227930   1.702   6.674   4.452
 9011SOL     OW27931   3.886   1.290   2.438
 9011SOL    HW127932   3.924   1.376   2.404
 9011SOL    HW227933   3.950   1.248   2.503
 9012SOL     OW27934   2.090   5.980   6.950
 9012SOL    HW127935   1.996   5.952   6.974
 9012SOL    HW227936   2.145   5.984   0.009
 9013SOL     OW27937   1.653   6.521   4.069
 9013SOL    HW127938   1.683   6.519   4.164
 9013SOL    HW227939   1.568   6.573   4.062
 9014SOL     OW27940   5.414   2.322   3.064
 9014SOL    HW127941   5.492   2.350   3.008
 9014SOL    HW227942   5.434   2.342   3.160
 9015SOL     OW27943   5.404   2.079   0.227
 9015SOL    HW127944   5.343   2.158   0.220
 9015SOL    HW227945   5.454   2.069   0.141
 9016SOL     OW27946   5.538   5.577   5.903
 9016SOL    HW127947   5.572   5.540   5.817
 9016SOL    HW227948   5.538   5.677   5.899
 9017SOL     OW27949   3.224   0.726   4.805
 9017SOL    HW127950   3.319   0.738   4.835
 9017SOL    HW227951   3.218   0.740   4.706
 9018SOL     OW27952   4.297   3.638   6.155
 9018SOL    HW127953   4.267   3.652   6.060
 9018SOL    HW227954   4.271   3.546   6.185
 9019SOL     OW27955   0.108   3.156   3.278
 9019SOL    HW127956   0.037   3.123   3.216
 9019SOL    HW227957   0.075   3.152   3.372
 9020SOL     OW27958   5.675   6.185   1.649
 9020SOL    HW127959   5.748   6.124   1.683
 9020SOL    HW227960   5.615   6.210   1.725
 9021SOL     OW27961   6.976   0.936   4.071
 9021SOL    HW127962   0.016   1.012   4.078
 9021SOL    HW227963   6.916   0.950   3.992
 9022SOL     OW27964   4.424   2.772   6.177
 9022SOL    HW127965   4.506   2.814   6.139
 9022SOL    HW227966   4.417   2.794   6.274
 9023SOL     OW27967   5.139   3.759   0.977
 9023SOL    HW127968   5.181   3.680   0.931
 9023SOL    HW227969   5.153   3.841   0.921
 9024SOL     OW27970   1.883   5.188   6.470
 9024SOL    HW127971   1.958   5.123   6.464
 9024SOL    HW227972   1.800   5.141   6.502
 9025SOL     OW27973   0.686   5.539   0.960
 9025SOL    HW127974   0.609   5.532   0.897
 9025SOL    HW227975   0.693   5.456   1.015
 9026SOL     OW27976   4.140   1.569   0.303
 9026SOL    HW127977   4.194   1.557   0.387
 9026SOL    HW227978   4.061   1.627   0.322
 9027SOL     OW27979   6.927   3.965   3.523
 9027SOL    HW127980   6.937   4.035   3.453
 9027SOL    HW227981   6.861   3.896   3.493
 9028SOL     OW27982   3.346   4.288   5.518
 9028SOL    HW127983   3.434   4.301   5.472
 9028SOL    HW227984   3.273   4.330   5.463
 9029SOL     OW27985   4.354   6.796   4.988
 9029SOL    HW127986   4.303   6.858   5.047
 9029SOL    HW227987   4.347   6.827   4.893
 9030SOL     OW27988   2.541   1.753   3.443
 9030SOL    HW127989   2.459   1.774   3.390
 9030SOL    HW227990   2.530   1.665   3.488
 9031SOL     OW27991   4.533   0.573   4.618
 9031SOL    HW127992   4.451   0.621   4.587
 9031SOL    HW227993   4.527   0.477   4.594
 9032SOL     OW27994   4.726   3.959   1.674
 9032SOL    HW127995   4.637   3.988   1.637
 9032SOL    HW227996   4.739   3.862   1.655
 9033SOL     OW27997   1.550   6.062   3.182
 9033SOL    HW127998   1.643   6.092   3.160
 9033SOL    HW227999   1.501   6.137   3.226
 9034SOL     OW28000   3.581   6.332   4.553
 9034SOL    HW128001   3.519   6.269   4.506
 9034SOL    HW228002   3.531   6.379   4.626
 9035SOL     OW28003   1.229   5.050   0.414
 9035SOL    HW128004   1.290   5.128   0.427
 9035SOL    HW228005   1.140   5.083   0.383
 9036SOL     OW28006   1.393   3.553   6.342
 9036SOL    HW128007   1.359   3.473   6.292
 9036SOL    HW228008   1.478   3.529   6.389
 9037SOL     OW28009   0.606   2.299   2.866
 9037SOL    HW128010   0.578   2.337   2.778
 9037SOL    HW228011   0.706   2.303   2.873
 9038SOL     OW28012   4.194   3.143   5.659
 9038SOL    HW128013   4.265   3.112   5.595
 9038SOL    HW228014   4.215   3.236   5.690
 9039SOL     OW28015   3.251   5.432   0.346
 9039SOL    HW128016   3.181   5.374   0.388
 9039SOL    HW228017   3.320   5.456   0.414
 9040SOL     OW28018   2.096   1.895   0.998
 9040SOL    HW128019   2.111   1.918   1.095
 9040SOL    HW228020   1.998   1.900   0.978
 9041SOL     OW28021   6.913   2.195   1.144
 9041SOL    HW128022   6.886   2.202   1.241
 9041SOL    HW228023   6.949   2.283   1.114
 9042SOL     OW28024   4.095   5.788   6.469
 9042SOL    HW128025   4.119   5.724   6.396
 9042SOL    HW228026   4.099   5.882   6.433
 9043SOL     OW28027   3.163   1.759   0.220
 9043SOL    HW128028   3.107   1.811   0.284
 9043SOL    HW228029   3.254   1.799   0.215
 9044SOL     OW28030   0.950   0.733   6.458
 9044SOL    HW128031   0.955   0.819   6.508
 9044SOL    HW228032   0.869   0.682   6.486
 9045SOL     OW28033   3.884   0.846   3.144
 9045SOL    HW128034   3.836   0.848   3.056
 9045SOL    HW228035   3.822   0.877   3.216
 9046SOL     OW28036   3.062   3.956   2.954
 9046SOL    HW128037   2.994   4.027   2.972
 9046SOL    HW228038   3.054   3.924   2.859
 9047SOL     OW28039   0.879   4.191   6.297
 9047SOL    HW128040   0.792   4.186   6.249
 9047SOL    HW228041   0.950   4.144   6.244
 9048SOL     OW28042   6.277   1.772   5.899
 9048SOL    HW128043   6.356   1.732   5.945
 9048SOL    HW228044   6.276   1.871   5.913
 9049SOL     OW28045   3.055   6.613   6.358
 9049SOL    HW128046   3.145   6.651   6.335
 9049SOL    HW228047   3.042   6.526   6.310
 9050SOL     OW28048   0.484   4.699   0.987
 9050SOL    HW128049   0.535   4.649   1.058
 9050SOL    HW228050   0.543   4.715   0.908
 9051SOL     OW28051   2.466   1.583   0.976
 9051SOL    HW128052   2.565   1.597   0.972
 9051SOL    HW228053   2.426   1.610   0.888
 9052SOL     OW28054   1.450   2.910   4.957
 9052SOL    HW128055   1.521   2.981   4.949
 9052SOL    HW228056   1.490   2.828   4.997
 9053SOL     OW28057   1.613   1.480   0.576
 9053SOL    HW128058   1.561   1.438   0.502
 9053SOL    HW228059   1.678   1.414   0.613
 9054SOL     OW28060   2.474   5.674   3.620
 9054SOL    HW128061   2.415   5.610   3.669
 9054SOL    HW228062   2.420   5.725   3.553
 9055SOL     OW28063   0.279   3.930   4.672
 9055SOL    HW128064   0.237   3.840   4.667
 9055SOL    HW228065   0.312   3.946   4.765
 9056SOL     OW28066   6.545   2.161   2.605
 9056SOL    HW128067   6.536   2.220   2.524
 9056SOL    HW228068   6.501   2.073   2.586
 9057SOL     OW28069   4.685   2.213   4.199
 9057SOL    HW128070   4.699   2.208   4.100
 9057SOL    HW228071   4.747   2.282   4.238
 9058SOL     OW28072   1.728   0.831   6.184
 9058SOL    HW128073   1.809   0.867   6.137
 9058SOL    HW228074   1.654   0.818   6.118
 9059SOL     OW28075   1.387   2.200   2.781
 9059SOL    HW128076   1.350   2.110   2.756
 9059SOL    HW228077   1.332   2.272   2.739
 9060SOL     OW28078   5.459   2.573   4.759
 9060SOL    HW128079   5.443   2.655   4.704
 9060SOL    HW228080   5.505   2.504   4.703
 9061SOL     OW28081   4.368   5.634   2.591
 9061SOL    HW128082   4.338   5.696   2.518
 9061SOL    HW228083   4.292   5.576   2.620
 9062SOL     OW28084   2.019   5.661   0.768
 9062SOL    HW128085   2.118   5.655   0.783
 9062SOL    HW228086   1.996   5.615   0.682
 9063SOL     OW28087   3.310   1.608   2.116
 9063SOL    HW128088   3.229   1.649   2.159
 9063SOL    HW228089   3.283   1.555   2.036
 9064SOL     OW28090   6.091   3.267   6.889
 9064SOL    HW128091   6.116   3.317   6.972
 9064SOL    HW228092   6.126   3.173   6.894
 9065SOL     OW28093   2.347   0.799   0.340
 9065SOL    HW128094   2.344   0.836   0.433
 9065SOL    HW228095   2.442   0.792   0.309
 9066SOL     OW28096   4.726   6.828   0.238
 9066SOL    HW128097   4.761   6.772   0.312
 9066SOL    HW228098   4.628   6.814   0.228
 9067SOL     OW28099   2.047   6.430   3.292
 9067SOL    HW128100   1.998   6.367   3.352
 9067SOL    HW228101   2.028   6.407   3.196
 9068SOL     OW28102   1.928   5.932   6.639
 9068SOL    HW128103   2.014   5.984   6.641
 9068SOL    HW228104   1.897   5.916   6.733
 9069SOL     OW28105   1.537   2.267   6.651
 9069SOL    HW128106   1.547   2.322   6.569
 9069SOL    HW228107   1.508   2.325   6.727
 9070SOL     OW28108   1.597   4.335   3.700
 9070SOL    HW128109   1.563   4.428   3.714
 9070SOL    HW228110   1.519   4.272   3.694
 9071SOL     OW28111   5.756   6.837   6.794
 9071SOL    HW128112   5.672   6.881   6.825
 9071SOL    HW228113   5.737   6.779   6.714
 9072SOL     OW28114   5.927   5.050   6.605
 9072SOL    HW128115   5.833   5.069   6.576
 9072SOL    HW228116   5.969   4.987   6.540
 9073SOL     OW28117   1.963   0.688   1.824
 9073SOL    HW128118   1.884   0.645   1.869
 9073SOL    HW228119   1.931   0.751   1.754
 9074SOL     OW28120   1.055   6.397   3.096
 9074SOL    HW128121   1.005   6.335   3.156
 9074SOL    HW228122   1.144   6.419   3.136
 9075SOL     OW28123   0.225   0.900   2.677
 9075SOL    HW128124   0.295   0.972   2.675
 9075SOL    HW228125   0.145   0.929   2.624
 9076SOL     OW28126   6.253   1.232   5.480
 9076SOL    HW128127   6.162   1.199   5.506
 9076SOL    HW228128   6.322   1.163   5.502
 9077SOL     OW28129   5.906   6.052   1.799
 9077SOL    HW128130   5.928   5.964   1.841
 9077SOL    HW228131   5.962   6.065   1.717
 9078SOL     OW28132   3.403   2.882   4.674
 9078SOL    HW128133   3.444   2.874   4.584
 9078SOL    HW228134   3.310   2.846   4.673
 9079SOL     OW28135   3.392   0.534   5.962
 9079SOL    HW128136   3.390   0.439   5.932
 9079SOL    HW228137   3.303   0.577   5.946
 9080SOL     OW28138   4.956   2.069   0.472
 9080SOL    HW128139   5.051   2.071   0.442
 9080SOL    HW228140   4.895   2.077   0.393
 9081SOL     OW28141   5.522   6.911   2.186
 9081SOL    HW128142   5.560   6.970   2.115
 9081SOL    HW228143   5.466   6.966   2.249
 9082SOL     OW28144   3.225   1.544   3.636
 9082SOL    HW128145   3.167   1.567   3.715
 9082SOL    HW228146   3.290   1.617   3.620
 9083SOL     OW28147   4.224   4.711   4.607
 9083SOL    HW128148   4.127   4.705   4.628
 9083SOL    HW228149   4.277   4.672   4.683
 9084SOL     OW28150   3.477   3.512   2.932
 9084SOL    HW128151   3.577   3.510   2.928
 9084SOL    HW228152   3.447   3.568   3.010
 9085SOL     OW28153   0.915   2.061   0.543
 9085SOL    HW128154   0.875   2.030   0.456
 9085SOL    HW228155   0.946   1.981   0.595
 9086SOL     OW28156   0.094   3.788   0.906
 9086SOL    HW128157   0.145   3.710   0.944
 9086SOL    HW228158   0.144   3.873   0.926
 9087SOL     OW28159   4.488   3.954   1.467
 9087SOL    HW128160   4.397   3.992   1.481
 9087SOL    HW228161   4.550   4.027   1.436
 9088SOL     OW28162   5.204   6.777   0.502
 9088SOL    HW128163   5.287   6.730   0.532
 9088SOL    HW228164   5.145   6.711   0.454
 9089SOL     OW28165   4.376   0.522   5.441
 9089SOL    HW128166   4.392   0.423   5.441
 9089SOL    HW228167   4.325   0.547   5.523
 9090SOL     OW28168   6.353   1.323   4.270
 9090SOL    HW128169   6.361   1.224   4.254
 9090SOL    HW228170   6.432   1.370   4.231
 9091SOL     OW28171   2.750   3.027   6.829
 9091SOL    HW128172   2.787   3.078   6.906
 9091SOL    HW228173   2.653   3.048   6.818
 9092SOL     OW28174   0.168   2.863   6.604
 9092SOL    HW128175   0.222   2.800   6.660
 9092SOL    HW228176   0.143   2.943   6.658
 9093SOL     OW28177   1.702   5.985   5.861
 9093SOL    HW128178   1.644   6.002   5.941
 9093SOL    HW228179   1.752   5.899   5.873
 9094SOL     OW28180   0.498   3.668   2.132
 9094SOL    HW128181   0.548   3.597   2.082
 9094SOL    HW228182   0.452   3.729   2.066
 9095SOL     OW28183   6.420   5.872   5.198
 9095SOL    HW128184   6.487   5.885   5.125
 9095SOL    HW228185   6.379   5.959   5.222
 9096SOL     OW28186   6.853   5.817   2.894
 9096SOL    HW128187   6.772   5.769   2.860
 9096SOL    HW228188   6.912   5.840   2.816
 9097SOL     OW28189   1.403   1.889   6.016
 9097SOL    HW128190   1.409   1.876   6.115
 9097SOL    HW228191   1.481   1.845   5.972
 9098SOL     OW28192   1.765   3.770   4.069
 9098SOL    HW128193   1.686   3.712   4.051
 9098SOL    HW228194   1.832   3.720   4.124
 9099SOL     OW28195   3.038   2.731   6.785
 9099SOL    HW128196   2.956   2.775   6.747
 9099SOL    HW228197   3.017   2.635   6.804
 9100SOL     OW28198   1.109   4.572   3.373
 9100SOL    HW128199   1.049   4.538   3.445
 9100SOL    HW228200   1.192   4.516   3.369
 9101SOL     OW28201   0.957   2.399   1.471
 9101SOL    HW128202   1.000   2.488   1.489
 9101SOL    HW228203   0.863   2.413   1.440
 9102SOL     OW28204   4.256   6.712   3.169
 9102SOL    HW128205   4.318   6.656   3.114
 9102SOL    HW228206   4.309   6.766   3.235
 9103SOL     OW28207   6.215   1.055   0.798
 9103SOL    HW128208   6.181   1.074   0.705
 9103SOL    HW228209   6.305   1.096   0.809
 9104SOL     OW28210   5.793   2.229   6.429
 9104SOL    HW128211   5.853   2.289   6.376
 9104SOL    HW228212   5.784   2.263   6.522
 9105SOL     OW28213   1.555   0.835   5.942
 9105SOL    HW128214   1.613   0.844   5.861
 9105SOL    HW228215   1.461   0.857   5.919
 9106SOL     OW28216   1.412   4.173   0.639
 9106SOL    HW128217   1.492   4.190   0.582
 9106SOL    HW228218   1.408   4.242   0.711
 9107SOL     OW28219   2.386   1.293   0.498
 9107SOL    HW128220   2.293   1.258   0.490
 9107SOL    HW228221   2.395   1.378   0.446
 9108SOL     OW28222   5.664   5.507   6.268
 9108SOL    HW128223   5.591   5.467   6.213
 9108SOL    HW228224   5.635   5.510   6.364
 9109SOL     OW28225   5.116   3.612   2.441
 9109SOL    HW128226   5.064   3.583   2.521
 9109SOL    HW228227   5.064   3.591   2.358
 9110SOL     OW28228   1.507   6.202   4.329
 9110SOL    HW128229   1.488   6.111   4.366
 9110SOL    HW228230   1.422   6.253   4.318
 9111SOL     OW28231   4.621   2.378   6.261
 9111SOL    HW128232   4.537   2.431   6.274
 9111SOL    HW228233   4.685   2.431   6.205
 9112SOL     OW28234   1.368   5.313   1.632
 9112SOL    HW128235   1.463   5.343   1.633
 9112SOL    HW228236   1.333   5.307   1.726
 9113SOL     OW28237   5.602   1.155   4.038
 9113SOL    HW128238   5.526   1.195   4.089
 9113SOL    HW228239   5.566   1.108   3.957
 9114SOL     OW28240   1.614   6.139   5.596
 9114SOL    HW128241   1.675   6.095   5.662
 9114SOL    HW228242   1.547   6.072   5.563
 9115SOL     OW28243   5.253   4.637   4.240
 9115SOL    HW128244   5.158   4.610   4.224
 9115SOL    HW228245   5.300   4.565   4.291
 9116SOL     OW28246   1.507   0.339   3.179
 9116SOL    HW128247   1.547   0.344   3.271
 9116SOL    HW228248   1.566   0.283   3.121
 9117SOL     OW28249   2.909   6.340   0.101
 9117SOL    HW128250   2.963   6.372   0.023
 9117SOL    HW228251   2.924   6.400   0.180
 9118SOL     OW28252   6.236   4.366   2.154
 9118SOL    HW128253   6.303   4.332   2.220
 9118SOL    HW228254   6.226   4.464   2.163
 9119SOL     OW28255   3.381   0.176   0.160
 9119SOL    HW128256   3.342   0.184   0.069
 9119SOL    HW228257   3.313   0.137   0.222
 9120SOL     OW28258   5.932   3.959   4.707
 9120SOL    HW128259   5.927   4.040   4.649
 9120SOL    HW228260   6.020   3.914   4.693
 9121SOL     OW28261   3.105   0.795   5.038
 9121SOL    HW128262   3.188   0.775   4.985
 9121SOL    HW228263   3.029   0.742   5.002
 9122SOL     OW28264   1.548   3.577   2.020
 9122SOL    HW128265   1.552   3.657   1.959
 9122SOL    HW228266   1.623   3.515   1.997
 9123SOL     OW28267   0.098   6.638   4.090
 9123SOL    HW128268   0.041   6.610   4.168
 9123SOL    HW228269   0.042   6.686   4.023
 9124SOL     OW28270   2.724   5.571   0.773
 9124SOL    HW128271   2.651   5.577   0.706
 9124SOL    HW228272   2.705   5.496   0.837
 9125SOL     OW28273   5.094   6.439   1.235
 9125SOL    HW128274   5.041   6.398   1.161
 9125SOL    HW228275   5.146   6.368   1.282
 9126SOL     OW28276   4.079   4.466   0.918
 9126SOL    HW128277   4.024   4.483   1.000
 9126SOL    HW228278   4.028   4.409   0.855
 9127SOL     OW28279   6.677   4.781   4.536
 9127SOL    HW128280   6.757   4.778   4.476
 9127SOL    HW228281   6.597   4.812   4.484
 9128SOL     OW28282   5.628   4.412   5.861
 9128SOL    HW128283   5.640   4.350   5.939
 9128SOL    HW228284   5.691   4.387   5.788
 9129SOL     OW28285   0.982   3.217   0.961
 9129SOL    HW128286   0.964   3.145   0.894
 9129SOL    HW228287   0.937   3.195   1.047
 9130SOL     OW28288   3.037   3.782   4.988
 9130SOL    HW128289   2.985   3.707   4.949
 9130SOL    HW228290   3.128   3.750   5.014
 9131SOL     OW28291   4.652   2.538   0.195
 9131SOL    HW128292   4.559   2.522   0.228
 9131SOL    HW228293   4.716   2.481   0.247
 9132SOL     OW28294   0.368   4.063   3.727
 9132SOL    HW128295   0.382   4.058   3.826
 9132SOL    HW228296   0.452   4.035   3.680
 9133SOL     OW28297   5.780   0.601   0.761
 9133SOL    HW128298   5.805   0.576   0.855
 9133SOL    HW228299   5.810   0.530   0.698
 9134SOL     OW28300   4.663   4.929   0.921
 9134SOL    HW128301   4.739   4.940   0.985
 9134SOL    HW228302   4.667   5.002   0.853
 9135SOL     OW28303   6.198   6.522   2.419
 9135SOL    HW128304   6.242   6.595   2.365
 9135SOL    HW228305   6.118   6.488   2.369
 9136SOL     OW28306   6.518   4.185   6.995
 9136SOL    HW128307   6.464   4.103   7.013
 9136SOL    HW228308   6.457   4.265   6.990
 9137SOL     OW28309   5.135   6.185   5.722
 9137SOL    HW128310   5.128   6.109   5.658
 9137SOL    HW228311   5.074   6.170   5.800
 9138SOL     OW28312   2.416   3.502   0.237
 9138SOL    HW128313   2.464   3.485   0.323
 9138SOL    HW228314   2.422   3.599   0.214
 9139SOL     OW28315   6.631   6.929   0.353
 9139SOL    HW128316   6.699   6.968   0.414
 9139SOL    HW228317   6.547   6.912   0.404
 9140SOL     OW28318   1.952   3.609   3.536
 9140SOL    HW128319   1.927   3.666   3.614
 9140SOL    HW228320   1.873   3.599   3.475
 9141SOL     OW28321   6.893   5.195   4.989
 9141SOL    HW128322   6.825   5.219   5.059
 9141SOL    HW228323   6.846   5.159   4.908
 9142SOL     OW28324   1.361   4.384   4.644
 9142SOL    HW128325   1.275   4.427   4.615
 9142SOL    HW228326   1.407   4.344   4.565
 9143SOL     OW28327   6.606   4.139   2.240
 9143SOL    HW128328   6.559   4.085   2.170
 9143SOL    HW228329   6.539   4.183   2.300
 9144SOL     OW28330   2.879   4.712   5.568
 9144SOL    HW128331   2.965   4.660   5.563
 9144SOL    HW228332   2.860   4.753   5.479
 9145SOL     OW28333   1.642   5.910   6.171
 9145SOL    HW128334   1.549   5.876   6.163
 9145SOL    HW228335   1.643   5.991   6.229
 9146SOL     OW28336   5.666   3.056   3.137
 9146SOL    HW128337   5.664   3.098   3.046
 9146SOL    HW228338   5.746   3.090   3.187
 9147SOL     OW28339   3.990   0.172   5.177
 9147SOL    HW128340   4.061   0.237   5.207
 9147SOL    HW228341   3.912   0.222   5.141
 9148SOL     OW28342   5.548   5.756   1.374
 9148SOL    HW128343   5.517   5.722   1.463
 9148SOL    HW228344   5.646   5.740   1.365
 9149SOL     OW28345   6.936   4.117   1.227
 9149SOL    HW128346   6.990   4.047   1.272
 9149SOL    HW228347   6.966   4.207   1.257
 9150SOL     OW28348   2.465   3.115   0.194
 9150SOL    HW128349   2.471   3.172   0.112
 9150SOL    HW228350   2.424   3.168   0.269
 9151SOL     OW28351   1.661   3.230   3.959
 9151SOL    HW128352   1.648   3.160   4.028
 9151SOL    HW228353   1.706   3.190   3.878
 9152SOL     OW28354   1.646   4.154   2.796
 9152SOL    HW128355   1.621   4.212   2.718
 9152SOL    HW228356   1.580   4.168   2.870
 9153SOL     OW28357   0.625   3.367   6.358
 9153SOL    HW128358   0.613   3.314   6.442
 9153SOL    HW228359   0.721   3.394   6.349
 9154SOL     OW28360   5.810   5.262   3.050
 9154SOL    HW128361   5.786   5.253   2.953
 9154SOL    HW228362   5.868   5.185   3.077
 9155SOL     OW28363   1.365   6.186   2.665
 9155SOL    HW128364   1.457   6.177   2.702
 9155SOL    HW228365   1.359   6.270   2.611
 9156SOL     OW28366   6.807   3.968   6.138
 9156SOL    HW128367   6.731   3.940   6.079
 9156SOL    HW228368   6.771   4.023   6.214
 9157SOL     OW28369   1.938   4.518   5.920
 9157SOL    HW128370   2.022   4.475   5.885
 9157SOL    HW228371   1.940   4.616   5.902
 9158SOL     OW28372   6.743   3.932   4.647
 9158SOL    HW128373   6.777   4.018   4.610
 9158SOL    HW228374   6.694   3.949   4.733
 9159SOL     OW28375   2.051   1.416   3.938
 9159SOL    HW128376   2.025   1.357   4.014
 9159SOL    HW228377   2.032   1.369   3.851
 9160SOL     OW28378   1.166   3.910   0.892
 9160SOL    HW128379   1.123   3.980   0.949
 9160SOL    HW228380   1.191   3.949   0.804
 9161SOL     OW28381   6.430   4.294   2.372
 9161SOL    HW128382   6.420   4.206   2.420
 9161SOL    HW228383   6.476   4.360   2.433
 9162SOL     OW28384   4.385   2.290   1.877
 9162SOL    HW128385   4.308   2.272   1.939
 9162SOL    HW228386   4.418   2.203   1.841
 9163SOL     OW28387   2.340   2.290   3.597
 9163SOL    HW128388   2.287   2.369   3.564
 9163SOL    HW228389   2.436   2.316   3.608
 9164SOL     OW28390   2.595   6.470   6.499
 9164SOL    HW128391   2.515   6.482   6.558
 9164SOL    HW228392   2.574   6.405   6.426
 9165SOL     OW28393   5.871   1.919   5.689
 9165SOL    HW128394   5.961   1.962   5.681
 9165SOL    HW228395   5.799   1.988   5.678
 9166SOL     OW28396   4.945   6.475   1.815
 9166SOL    HW128397   5.015   6.404   1.823
 9166SOL    HW228398   4.990   6.563   1.796
 9167SOL     OW28399   1.827   1.250   4.477
 9167SOL    HW128400   1.822   1.333   4.422
 9167SOL    HW228401   1.913   1.203   4.460
 9168SOL     OW28402   6.258   5.983   4.876
 9168SOL    HW128403   6.242   5.973   4.975
 9168SOL    HW228404   6.341   6.037   4.861
 9169SOL     OW28405   6.872   6.223   1.577
 9169SOL    HW128406   6.950   6.163   1.597
 9169SOL    HW228407   6.905   6.316   1.564
 9170SOL     OW28408   1.148   0.932   5.949
 9170SOL    HW128409   1.160   1.015   6.004
 9170SOL    HW228410   1.086   0.952   5.874
 9171SOL     OW28411   4.196   5.421   6.486
 9171SOL    HW128412   4.198   5.471   6.400
 9171SOL    HW228413   4.262   5.460   6.549
 9172SOL     OW28414   4.775   1.794   5.059
 9172SOL    HW128415   4.729   1.839   5.136
 9172SOL    HW228416   4.707   1.774   4.988
 9173SOL     OW28417   5.437   3.716   5.209
 9173SOL    HW128418   5.503   3.788   5.228
 9173SOL    HW228419   5.485   3.629   5.197
 9174SOL     OW28420   6.856   5.287   1.598
 9174SOL    HW128421   6.909   5.289   1.513
 9174SOL    HW228422   6.828   5.380   1.622
 9175SOL     OW28423   2.495   6.965   0.460
 9175SOL    HW128424   2.528   6.986   0.552
 9175SOL    HW228425   2.396   6.958   0.461
 9176SOL     OW28426   1.355   1.935   2.446
 9176SOL    HW128427   1.445   1.962   2.482
 9176SOL    HW228428   1.368   1.876   2.366
 9177SOL     OW28429   0.417   5.618   3.543
 9177SOL    HW128430   0.409   5.716   3.528
 9177SOL    HW228431   0.360   5.569   3.476
 9178SOL     OW28432   1.390   4.425   1.597
 9178SOL    HW128433   1.419   4.498   1.660
 9178SOL    HW228434   1.446   4.429   1.515
 9179SOL     OW28435   3.422   5.634   4.293
 9179SOL    HW128436   3.410   5.714   4.352
 9179SOL    HW228437   3.417   5.663   4.197
 9180SOL     OW28438   0.414   1.257   5.708
 9180SOL    HW128439   0.427   1.170   5.661
 9180SOL    HW228440   0.453   1.251   5.800
 9181SOL     OW28441   2.491   2.633   3.514
 9181SOL    HW128442   2.554   2.673   3.449
 9181SOL    HW228443   2.413   2.592   3.465
 9182SOL     OW28444   0.657   1.804   2.465
 9182SOL    HW128445   0.613   1.723   2.503
 9182SOL    HW228446   0.614   1.827   2.378
 9183SOL     OW28447   1.861   1.662   6.257
 9183SOL    HW128448   1.770   1.621   6.261
 9183SOL    HW228449   1.894   1.661   6.163
 9184SOL     OW28450   3.900   3.264   0.954
 9184SOL    HW128451   3.956   3.241   1.033
 9184SOL    HW228452   3.897   3.363   0.941
 9185SOL     OW28453   1.520   0.728   6.417
 9185SOL    HW128454   1.613   0.761   6.399
 9185SOL    HW228455   1.524   0.646   6.475
 9186SOL     OW28456   4.699   0.695   6.205
 9186SOL    HW128457   4.711   0.695   6.105
 9186SOL    HW228458   4.781   0.656   6.248
 9187SOL     OW28459   5.901   2.419   0.954
 9187SOL    HW128460   5.922   2.516   0.943
 9187SOL    HW228461   5.803   2.404   0.939
 9188SOL     OW28462   1.541   0.230   1.671
 9188SOL    HW128463   1.444   0.220   1.693
 9188SOL    HW228464   1.575   0.315   1.712
 9189SOL     OW28465   3.953   1.109   5.981
 9189SOL    HW128466   3.911   1.081   6.067
 9189SOL    HW228467   3.891   1.089   5.905
 9190SOL     OW28468   4.858   1.410   5.040
 9190SOL    HW128469   4.910   1.485   5.082
 9190SOL    HW228470   4.837   1.342   5.111
 9191SOL     OW28471   5.711   0.152   1.548
 9191SOL    HW128472   5.769   0.202   1.613
 9191SOL    HW228473   5.699   0.058   1.581
 9192SOL     OW28474   4.894   3.381   4.164
 9192SOL    HW128475   4.937   3.470   4.174
 9192SOL    HW228476   4.871   3.344   4.254
 9193SOL     OW28477   3.792   2.944   3.409
 9193SOL    HW128478   3.724   2.998   3.359
 9193SOL    HW228479   3.857   2.903   3.344
 9194SOL     OW28480   4.154   5.405   2.614
 9194SOL    HW128481   4.137   5.309   2.636
 9194SOL    HW228482   4.069   5.457   2.623
 9195SOL     OW28483   0.605   2.744   2.831
 9195SOL    HW128484   0.557   2.775   2.914
 9195SOL    HW228485   0.584   2.807   2.756
 9196SOL     OW28486   4.949   6.755   4.059
 9196SOL    HW128487   4.891   6.796   3.989
 9196SOL    HW228488   4.953   6.815   4.139
 9197SOL     OW28489   4.231   2.029   5.817
 9197SOL    HW128490   4.182   2.050   5.902
 9197SOL    HW228491   4.304   1.963   5.836
 9198SOL     OW28492   6.024   2.349   5.279
 9198SOL    HW128493   6.061   2.442   5.285
 9198SOL    HW228494   6.035   2.303   5.367
 9199SOL     OW28495   2.185   2.809   6.444
 9199SOL    HW128496   2.133   2.726   6.425
 9199SOL    HW228497   2.127   2.889   6.433
 9200SOL     OW28498   5.642   6.094   0.744
 9200SOL    HW128499   5.627   6.013   0.687
 9200SOL    HW228500   5.708   6.071   0.816
 9201SOL     OW28501   1.098   3.905   2.158
 9201SOL    HW128502   1.037   3.961   2.214
 9201SOL    HW228503   1.193   3.922   2.185
 9202SOL     OW28504   2.907   5.808   3.933
 9202SOL    HW128505   2.875   5.746   3.861
 9202SOL    HW228506   2.843   5.805   4.010
 9203SOL     OW28507   4.613   0.642   6.659
 9203SOL    HW128508   4.514   0.640   6.676
 9203SOL    HW228509   4.631   0.618   6.563
 9204SOL     OW28510   5.317   4.697   2.478
 9204SOL    HW128511   5.260   4.619   2.503
 9204SOL    HW228512   5.397   4.701   2.538
 9205SOL     OW28513   4.855   2.841   1.730
 9205SOL    HW128514   4.911   2.800   1.802
 9205SOL    HW228515   4.785   2.899   1.771
 9206SOL     OW28516   0.441   5.928   3.565
 9206SOL    HW128517   0.410   6.021   3.581
 9206SOL    HW228518   0.503   5.927   3.486
 9207SOL     OW28519   4.166   6.290   6.646
 9207SOL    HW128520   4.263   6.315   6.653
 9207SOL    HW228521   4.126   6.341   6.569
 9208SOL     OW28522   4.511   4.301   1.606
 9208SOL    HW128523   4.460   4.219   1.578
 9208SOL    HW228524   4.513   4.307   1.705
 9209SOL     OW28525   3.728   6.917   2.728
 9209SOL    HW128526   3.741   6.996   2.787
 9209SOL    HW228527   3.815   6.893   2.683
 9210SOL     OW28528   1.391   6.442   0.748
 9210SOL    HW128529   1.312   6.468   0.803
 9210SOL    HW228530   1.375   6.353   0.706
 9211SOL     OW28531   4.793   1.318   6.108
 9211SOL    HW128532   4.839   1.283   6.026
 9211SOL    HW228533   4.810   1.416   6.116
 9212SOL     OW28534   5.594   3.921   5.292
 9212SOL    HW128535   5.690   3.945   5.277
 9212SOL    HW228536   5.552   3.987   5.354
 9213SOL     OW28537   6.609   6.724   2.106
 9213SOL    HW128538   6.596   6.821   2.127
 9213SOL    HW228539   6.687   6.689   2.157
 9214SOL     OW28540   2.060   2.309   5.541
 9214SOL    HW128541   2.068   2.377   5.615
 9214SOL    HW228542   2.139   2.317   5.480
 9215SOL     OW28543   0.412   2.788   3.062
 9215SOL    HW128544   0.361   2.704   3.041
 9215SOL    HW228545   0.371   2.832   3.142
 9216SOL     OW28546   2.379   6.000   3.846
 9216SOL    HW128547   2.454   6.021   3.909
 9216SOL    HW228548   2.416   5.976   3.757
 9217SOL     OW28549   3.759   1.583   6.619
 9217SOL    HW128550   3.809   1.633   6.690
 9217SOL    HW228551   3.769   1.631   6.532
 9218SOL     OW28552   5.427   5.594   6.563
 9218SOL    HW128553   5.336   5.552   6.569
 9218SOL    HW228554   5.419   5.684   6.521
 9219SOL     OW28555   2.893   2.245   5.581
 9219SOL    HW128556   2.932   2.227   5.491
 9219SOL    HW228557   2.794   2.227   5.578
 9220SOL     OW28558   0.453   6.227   3.681
 9220SOL    HW128559   0.547   6.228   3.649
 9220SOL    HW228560   0.452   6.237   3.781
 9221SOL     OW28561   2.358   1.325   1.024
 9221SOL    HW128562   2.295   1.307   0.949
 9221SOL    HW228563   2.378   1.423   1.028
 9222SOL     OW28564   1.319   3.416   4.374
 9222SOL    HW128565   1.316   3.483   4.299
 9222SOL    HW228566   1.406   3.367   4.371
 9223SOL     OW28567   6.884   3.315   4.802
 9223SOL    HW128568   6.809   3.252   4.821
 9223SOL    HW228569   6.966   3.263   4.777
 9224SOL     OW28570   2.418   4.981   3.019
 9224SOL    HW128571   2.491   4.980   3.087
 9224SOL    HW228572   2.354   5.056   3.039
 9225SOL     OW28573   5.989   5.852   6.039
 9225SOL    HW128574   5.981   5.876   6.136
 9225SOL    HW228575   5.932   5.773   6.019
 9226SOL     OW28576   1.200   0.775   0.197
 9226SOL    HW128577   1.272   0.775   0.129
 9226SOL    HW228578   1.226   0.716   0.274
 9227SOL     OW28579   2.782   3.907   0.151
 9227SOL    HW128580   2.822   3.927   0.240
 9227SOL    HW228581   2.689   3.871   0.164
 9228SOL     OW28582   3.798   3.126   4.965
 9228SOL    HW128583   3.766   3.165   4.878
 9228SOL    HW228584   3.883   3.171   4.993
 9229SOL     OW28585   6.857   4.954   0.581
 9229SOL    HW128586   6.849   4.974   0.484
 9229SOL    HW228587   6.804   5.022   0.633
 9230SOL     OW28588   4.471   1.357   4.884
 9230SOL    HW128589   4.446   1.393   4.974
 9230SOL    HW228590   4.559   1.394   4.856
 9231SOL     OW28591   6.670   6.291   2.083
 9231SOL    HW128592   6.592   6.268   2.141
 9231SOL    HW228593   6.639   6.304   1.989
 9232SOL     OW28594   1.000   5.082   2.631
 9232SOL    HW128595   0.980   5.139   2.551
 9232SOL    HW228596   0.961   4.991   2.618
 9233SOL     OW28597   1.253   6.484   5.737
 9233SOL    HW128598   1.266   6.421   5.814
 9233SOL    HW228599   1.241   6.432   5.653
 9234SOL     OW28600   2.796   3.459   6.399
 9234SOL    HW128601   2.771   3.377   6.348
 9234SOL    HW228602   2.770   3.540   6.346
 9235SOL     OW28603   1.722   2.298   3.507
 9235SOL    HW128604   1.637   2.270   3.462
 9235SOL    HW228605   1.793   2.231   3.489
 9236SOL     OW28606   1.362   3.268   6.230
 9236SOL    HW128607   1.324   3.176   6.224
 9236SOL    HW228608   1.460   3.263   6.248
 9237SOL     OW28609   6.494   5.644   2.599
 9237SOL    HW128610   6.397   5.668   2.591
 9237SOL    HW228611   6.546   5.693   2.529
 9238SOL     OW28612   1.884   3.048   4.692
 9238SOL    HW128613   1.796   3.060   4.646
 9238SOL    HW228614   1.871   2.990   4.773
 9239SOL     OW28615   1.044   4.675   6.780
 9239SOL    HW128616   1.086   4.764   6.800
 9239SOL    HW228617   1.003   4.638   6.863
 9240SOL     OW28618   4.209   1.705   3.372
 9240SOL    HW128619   4.141   1.639   3.404
 9240SOL    HW228620   4.180   1.798   3.395
 9241SOL     OW28621   5.494   0.109   0.432
 9241SOL    HW128622   5.499   0.011   0.453
 9241SOL    HW228623   5.440   0.155   0.503
 9242SOL     OW28624   1.585   2.269   1.095
 9242SOL    HW128625   1.595   2.273   1.195
 9242SOL    HW228626   1.492   2.242   1.072
 9243SOL     OW28627   1.869   0.272   7.005
 9243SOL    HW128628   1.850   0.173   7.007
 9243SOL    HW228629   1.893   0.299   6.912
 9244SOL     OW28630   3.270   6.419   5.984
 9244SOL    HW128631   3.292   6.415   5.887
 9244SOL    HW228632   3.288   6.330   6.026
 9245SOL     OW28633   1.722   5.162   2.774
 9245SOL    HW128634   1.631   5.141   2.737
 9245SOL    HW228635   1.788   5.094   2.741
 9246SOL     OW28636   5.118   0.047   6.680
 9246SOL    HW128637   5.057   0.055   6.758
 9246SOL    HW228638   5.081   0.099   6.603
 9247SOL     OW28639   4.069   5.759   2.827
 9247SOL    HW128640   4.100   5.853   2.820
 9247SOL    HW228641   4.066   5.717   2.736
 9248SOL     OW28642   2.292   0.875   6.834
 9248SOL    HW128643   2.340   0.954   6.796
 9248SOL    HW228644   2.313   0.794   6.779
 9249SOL     OW28645   2.258   6.455   0.493
 9249SOL    HW128646   2.262   6.450   0.593
 9249SOL    HW228647   2.316   6.385   0.453
 9250SOL     OW28648   6.931   2.915   3.451
 9250SOL    HW128649   6.831   2.916   3.456
 9250SOL    HW228650   6.960   2.859   3.373
 9251SOL     OW28651   3.158   1.700   0.838
 9251SOL    HW128652   3.140   1.792   0.872
 9251SOL    HW228653   3.142   1.634   0.911
 9252SOL     OW28654   5.821   1.179   5.097
 9252SOL    HW128655   5.872   1.129   5.167
 9252SOL    HW228656   5.726   1.150   5.098
 9253SOL     OW28657   1.378   5.639   5.019
 9253SOL    HW128658   1.373   5.600   4.927
 9253SOL    HW228659   1.456   5.600   5.068
 9254SOL     OW28660   0.338   5.097   2.427
 9254SOL    HW128661   0.345   5.018   2.489
 9254SOL    HW228662   0.285   5.071   2.347
 9255SOL     OW28663   6.662   4.453   0.508
 9255SOL    HW128664   6.696   4.447   0.602
 9255SOL    HW228665   6.708   4.385   0.452
 9256SOL     OW28666   3.192   6.554   0.642
 9256SOL    HW128667   3.124   6.483   0.659
 9256SOL    HW228668   3.248   6.529   0.563
 9257SOL     OW28669   5.864   5.704   4.694
 9257SOL    HW128670   5.818   5.737   4.776
 9257SOL    HW228671   5.956   5.672   4.718
 9258SOL     OW28672   3.699   5.602   0.925
 9258SOL    HW128673   3.629   5.533   0.945
 9258SOL    HW228674   3.771   5.597   0.995
 9259SOL     OW28675   0.944   1.900   6.875
 9259SOL    HW128676   0.868   1.839   6.848
 9259SOL    HW228677   0.908   1.974   6.932
 9260SOL     OW28678   5.122   3.913   4.703
 9260SOL    HW128679   5.107   4.012   4.706
 9260SOL    HW228680   5.041   3.866   4.738
 9261SOL     OW28681   2.439   1.583   1.258
 9261SOL    HW128682   2.455   1.582   1.159
 9261SOL    HW228683   2.442   1.678   1.292
 9262SOL     OW28684   6.830   6.313   5.947
 9262SOL    HW128685   6.836   6.265   5.860
 9262SOL    HW228686   6.757   6.272   6.003
 9263SOL     OW28687   2.007   4.742   3.456
 9263SOL    HW128688   2.106   4.760   3.450
 9263SOL    HW228689   1.974   4.768   3.547
 9264SOL     OW28690   5.492   4.483   6.332
 9264SOL    HW128691   5.542   4.440   6.408
 9264SOL    HW228692   5.488   4.420   6.255
 9265SOL     OW28693   6.088   1.347   1.703
 9265SOL    HW128694   6.092   1.267   1.763
 9265SOL    HW228695   6.176   1.358   1.658
 9266SOL     OW28696   1.613   4.462   0.779
 9266SOL    HW128697   1.567   4.550   0.793
 9266SOL    HW228698   1.711   4.477   0.773
 9267SOL     OW28699   6.807   0.975   4.528
 9267SOL    HW128700   6.771   1.044   4.465
 9267SOL    HW228701   6.808   1.012   4.621
 9268SOL     OW28702   0.469   0.052   1.346
 9268SOL    HW128703   0.439   0.012   1.260
 9268SOL    HW228704   0.424   0.004   1.422
 9269SOL     OW28705   3.875   1.152   0.016
 9269SOL    HW128706   3.786   1.106   0.024
 9269SOL    HW228707   3.906   1.180   0.106
 9270SOL     OW28708   2.548   0.523   6.556
 9270SOL    HW128709   2.533   0.562   6.647
 9270SOL    HW228710   2.645   0.526   6.534
 9271SOL     OW28711   1.368   5.703   5.313
 9271SOL    HW128712   1.370   5.604   5.326
 9271SOL    HW228713   1.360   5.723   5.216
 9272SOL     OW28714   6.642   6.602   5.908
 9272SOL    HW128715   6.644   6.585   6.006
 9272SOL    HW228716   6.715   6.665   5.884
 9273SOL     OW28717   5.442   4.257   3.167
 9273SOL    HW128718   5.490   4.215   3.244
 9273SOL    HW228719   5.347   4.274   3.192
 9274SOL     OW28720   0.734   3.058   0.591
 9274SOL    HW128721   0.714   3.147   0.550
 9274SOL    HW228722   0.730   2.987   0.520
 9275SOL     OW28723   5.564   0.915   0.783
 9275SOL    HW128724   5.531   0.855   0.710
 9275SOL    HW228725   5.498   0.988   0.799
 9276SOL     OW28726   2.652   4.842   6.878
 9276SOL    HW128727   2.751   4.829   6.869
 9276SOL    HW228728   2.614   4.871   6.790
 9277SOL     OW28729   4.501   5.147   2.651
 9277SOL    HW128730   4.547   5.185   2.571
 9277SOL    HW228731   4.565   5.089   2.701
 9278SOL     OW28732   0.628   0.129   5.163
 9278SOL    HW128733   0.698   0.124   5.234
 9278SOL    HW228734   0.570   0.048   5.166
 9279SOL     OW28735   3.604   5.639   1.879
 9279SOL    HW128736   3.550   5.621   1.961
 9279SOL    HW228737   3.557   5.600   1.799
 9280SOL     OW28738   1.966   5.979   3.024
 9280SOL    HW128739   1.893   6.045   3.043
 9280SOL    HW228740   2.052   6.013   3.063
 9281SOL     OW28741   1.991   5.916   1.063
 9281SOL    HW128742   2.042   5.830   1.061
 9281SOL    HW228743   1.917   5.913   0.996
 9282SOL     OW28744   2.976   6.847   4.944
 9282SOL    HW128745   3.075   6.866   4.943
 9282SOL    HW228746   2.927   6.926   4.906
 9283SOL     OW28747   4.244   6.768   1.192
 9283SOL    HW128748   4.270   6.728   1.280
 9283SOL    HW228749   4.324   6.809   1.148
 9284SOL     OW28750   4.087   3.773   5.727
 9284SOL    HW128751   4.025   3.722   5.667
 9284SOL    HW228752   4.087   3.870   5.701
 9285SOL     OW28753   0.533   5.952   2.810
 9285SOL    HW128754   0.556   5.897   2.890
 9285SOL    HW228755   0.602   5.937   2.739
 9286SOL     OW28756   4.049   0.120   1.619
 9286SOL    HW128757   4.007   0.205   1.586
 9286SOL    HW228758   4.024   0.106   1.715
 9287SOL     OW28759   4.089   3.992   5.973
 9287SOL    HW128760   4.078   3.895   5.994
 9287SOL    HW228761   4.106   4.004   5.875
 9288SOL     OW28762   3.470   1.671   1.599
 9288SOL    HW128763   3.526   1.619   1.663
 9288SOL    HW228764   3.452   1.762   1.637
 9289SOL     OW28765   4.837   0.099   0.539
 9289SOL    HW128766   4.749   0.060   0.568
 9289SOL    HW228767   4.910   0.033   0.558
 9290SOL     OW28768   5.400   1.348   4.434
 9290SOL    HW128769   5.313   1.388   4.404
 9290SOL    HW228770   5.414   1.366   4.531
 9291SOL     OW28771   0.746   3.646   6.036
 9291SOL    HW128772   0.770   3.715   5.969
 9291SOL    HW228773   0.696   3.571   5.991
 9292SOL     OW28774   0.669   0.687   6.470
 9292SOL    HW128775   0.596   0.619   6.467
 9292SOL    HW228776   0.667   0.736   6.557
 9293SOL     OW28777   4.892   2.415   3.852
 9293SOL    HW128778   4.931   2.502   3.881
 9293SOL    HW228779   4.890   2.410   3.752
 9294SOL     OW28780   4.681   0.395   5.804
 9294SOL    HW128781   4.723   0.330   5.741
 9294SOL    HW228782   4.718   0.487   5.787
 9295SOL     OW28783   6.156   1.386   5.006
 9295SOL    HW128784   6.200   1.331   5.076
 9295SOL    HW228785   6.132   1.328   4.928
 9296SOL     OW28786   2.324   4.988   6.179
 9296SOL    HW128787   2.257   4.916   6.159
 9296SOL    HW228788   2.411   4.966   6.135
 9297SOL     OW28789   6.437   5.607   2.162
 9297SOL    HW128790   6.448   5.537   2.091
 9297SOL    HW228791   6.513   5.600   2.228
 9298SOL     OW28792   1.042   3.912   6.156
 9298SOL    HW128793   1.078   3.928   6.064
 9298SOL    HW228794   1.079   3.826   6.191
 9299SOL     OW28795   1.948   2.424   4.409
 9299SOL    HW128796   1.896   2.469   4.482
 9299SOL    HW228797   2.044   2.449   4.416
 9300SOL     OW28798   2.348   5.821   4.989
 9300SOL    HW128799   2.277   5.882   4.952
 9300SOL    HW228800   2.386   5.862   5.072
 9301SOL     OW28801   0.052   4.226   4.183
 9301SOL    HW128802   0.090   4.220   4.276
 9301SOL    HW228803   0.082   4.311   4.141
 9302SOL     OW28804   2.282   4.134   4.400
 9302SOL    HW128805   2.323   4.225   4.404
 9302SOL    HW228806   2.269   4.099   4.493
 9303SOL     OW28807   2.669   4.481   0.096
 9303SOL    HW128808   2.629   4.461   0.186
 9303SOL    HW228809   2.596   4.491   0.029
 9304SOL     OW28810   5.172   5.495   6.621
 9304SOL    HW128811   5.160   5.447   6.534
 9304SOL    HW228812   5.128   5.443   6.694
 9305SOL     OW28813   1.725   2.059   1.313
 9305SOL    HW128814   1.741   2.042   1.410
 9305SOL    HW228815   1.639   2.108   1.302
 9306SOL     OW28816   6.952   6.404   4.928
 9306SOL    HW128817   6.918   6.311   4.915
 9306SOL    HW228818   6.876   6.468   4.929
 9307SOL     OW28819   1.784   3.791   1.252
 9307SOL    HW128820   1.759   3.864   1.188
 9307SOL    HW228821   1.809   3.832   1.340
 9308SOL     OW28822   2.164   3.238   1.789
 9308SOL    HW128823   2.223   3.299   1.842
 9308SOL    HW228824   2.134   3.284   1.706
 9309SOL     OW28825   5.034   5.117   6.713
 9309SOL    HW128826   5.111   5.160   6.664
 9309SOL    HW228827   5.007   5.034   6.665
 9310SOL     OW28828   5.922   5.591   6.277
 9310SOL    HW128829   5.909   5.686   6.306
 9310SOL    HW228830   5.832   5.546   6.269
 9311SOL     OW28831   5.095   4.404   0.316
 9311SOL    HW128832   5.192   4.423   0.329
 9311SOL    HW228833   5.081   4.306   0.303
 9312SOL     OW28834   0.346   3.262   3.076
 9312SOL    HW128835   0.446   3.259   3.079
 9312SOL    HW228836   0.310   3.251   3.168
 9313SOL     OW28837   0.551   0.619   2.362
 9313SOL    HW128838   0.582   0.697   2.308
 9313SOL    HW228839   0.453   0.628   2.381
 9314SOL     OW28840   5.404   4.474   1.236
 9314SOL    HW128841   5.391   4.551   1.299
 9314SOL    HW228842   5.419   4.509   1.144
 9315SOL     OW28843   5.440   6.397   5.818
 9315SOL    HW128844   5.513   6.451   5.860
 9315SOL    HW228845   5.358   6.454   5.808
 9316SOL     OW28846   4.711   0.446   6.439
 9316SOL    HW128847   4.782   0.399   6.386
 9316SOL    HW228848   4.627   0.450   6.386
 9317SOL     OW28849   3.434   5.818   3.294
 9317SOL    HW128850   3.424   5.782   3.202
 9317SOL    HW228851   3.398   5.911   3.298
 9318SOL     OW28852   3.966   6.914   2.026
 9318SOL    HW128853   3.955   6.841   1.959
 9318SOL    HW228854   3.920   6.888   2.111
 9319SOL     OW28855   4.239   2.316   0.305
 9319SOL    HW128856   4.211   2.277   0.393
 9319SOL    HW228857   4.182   2.278   0.232
 9320SOL     OW28858   6.632   6.480   0.154
 9320SOL    HW128859   6.586   6.401   0.194
 9320SOL    HW228860   6.655   6.461   0.059
 9321SOL     OW28861   0.580   2.791   4.921
 9321SOL    HW128862   0.573   2.852   4.843
 9321SOL    HW228863   0.576   2.844   5.006
 9322SOL     OW28864   5.650   3.025   6.938
 9322SOL    HW128865   5.676   3.115   6.903
 9322SOL    HW228866   5.552   3.022   6.954
 9323SOL     OW28867   0.633   2.134   6.156
 9323SOL    HW128868   0.625   2.225   6.116
 9323SOL    HW228869   0.729   2.107   6.159
 9324SOL     OW28870   0.706   4.188   1.601
 9324SOL    HW128871   0.742   4.095   1.608
 9324SOL    HW228872   0.661   4.200   1.513
 9325SOL     OW28873   0.947   4.289   3.629
 9325SOL    HW128874   1.027   4.305   3.687
 9325SOL    HW228875   0.887   4.222   3.673
 9326SOL     OW28876   4.419   4.039   0.997
 9326SOL    HW128877   4.335   3.984   0.990
 9326SOL    HW228878   4.399   4.133   0.970
 9327SOL     OW28879   2.678   0.983   3.319
 9327SOL    HW128880   2.676   0.990   3.219
 9327SOL    HW228881   2.631   1.062   3.358
 9328SOL     OW28882   2.430   0.641   3.728
 9328SOL    HW128883   2.524   0.621   3.756
 9328SOL    HW228884   2.367   0.578   3.774
 9329SOL     OW28885   0.100   5.584   6.959
 9329SOL    HW128886   0.074   5.600   0.030
 9329SOL    HW228887   0.043   5.512   6.920
 9330SOL     OW28888   6.774   6.270   0.315
 9330SOL    HW128889   6.712   6.333   0.362
 9330SOL    HW228890   6.771   6.181   0.361
 9331SOL     OW28891   1.992   3.525   3.919
 9331SOL    HW128892   1.904   3.544   3.877
 9331SOL    HW228893   1.989   3.551   4.016
 9332SOL     OW28894   6.079   5.790   0.776
 9332SOL    HW128895   6.156   5.804   0.713
 9332SOL    HW228896   6.021   5.872   0.776
 9333SOL     OW28897   3.011   3.712   1.164
 9333SOL    HW128898   3.004   3.809   1.141
 9333SOL    HW228899   2.999   3.657   1.082
 9334SOL     OW28900   5.849   6.073   5.896
 9334SOL    HW128901   5.860   6.013   5.975
 9334SOL    HW228902   5.862   6.020   5.812
 9335SOL     OW28903   0.880   3.475   1.827
 9335SOL    HW128904   0.969   3.429   1.825
 9335SOL    HW228905   0.814   3.418   1.778
 9336SOL     OW28906   5.405   0.659   5.621
 9336SOL    HW128907   5.326   0.670   5.562
 9336SOL    HW228908   5.457   0.745   5.623
 9337SOL     OW28909   2.502   1.170   5.362
 9337SOL    HW128910   2.591   1.126   5.351
 9337SOL    HW228911   2.513   1.257   5.410
 9338SOL     OW28912   5.700   6.823   0.250
 9338SOL    HW128913   5.645   6.850   0.171
 9338SOL    HW228914   5.784   6.778   0.219
 9339SOL     OW28915   0.069   3.824   5.811
 9339SOL    HW128916   0.039   3.737   5.771
 9339SOL    HW228917   0.064   3.818   5.910
 9340SOL     OW28918   3.105   4.771   1.428
 9340SOL    HW128919   3.186   4.713   1.420
 9340SOL    HW228920   3.057   4.749   1.513
 9341SOL     OW28921   4.922   4.917   6.555
 9341SOL    HW128922   4.827   4.941   6.572
 9341SOL    HW228923   4.946   4.938   6.460
 9342SOL     OW28924   2.866   0.286   4.568
 9342SOL    HW128925   2.959   0.252   4.580
 9342SOL    HW228926   2.830   0.317   4.656
 9343SOL     OW28927   4.758   3.827   0.904
 9343SOL    HW128928   4.850   3.844   0.869
 9343SOL    HW228929   4.763   3.768   0.985
 9344SOL     OW28930   5.948   0.319   5.538
 9344SOL    HW128931   5.966   0.246   5.472
 9344SOL    HW228932   5.965   0.408   5.496
 9345SOL     OW28933   0.233   4.802   0.450
 9345SOL    HW128934   0.195   4.875   0.393
 9345SOL    HW228935   0.185   4.800   0.538
 9346SOL     OW28936   5.723   6.399   1.482
 9346SOL    HW128937   5.820   6.377   1.469
 9346SOL    HW228938   5.679   6.324   1.531
 9347SOL     OW28939   3.820   5.975   1.047
 9347SOL    HW128940   3.826   5.905   0.977
 9347SOL    HW228941   3.880   6.052   1.023
 9348SOL     OW28942   2.190   5.581   2.194
 9348SOL    HW128943   2.281   5.622   2.203
 9348SOL    HW228944   2.138   5.632   2.125
 9349SOL     OW28945   0.035   6.046   2.020
 9349SOL    HW128946   7.011   6.129   2.048
 9349SOL    HW228947   0.029   6.036   1.920
 9350SOL     OW28948   6.614   0.687   6.841
 9350SOL    HW128949   6.657   0.642   6.763
 9350SOL    HW228950   6.562   0.619   6.894
 9351SOL     OW28951   3.654   3.206   5.598
 9351SOL    HW128952   3.753   3.200   5.586
 9351SOL    HW228953   3.611   3.122   5.566
 9352SOL     OW28954   3.152   2.857   6.226
 9352SOL    HW128955   3.096   2.834   6.146
 9352SOL    HW228956   3.239   2.896   6.195
 9353SOL     OW28957   0.270   3.586   0.975
 9353SOL    HW128958   0.330   3.510   0.950
 9353SOL    HW228959   0.305   3.631   1.057
 9354SOL     OW28960   4.770   1.600   1.738
 9354SOL    HW128961   4.781   1.693   1.774
 9354SOL    HW228962   4.674   1.584   1.716
 9355SOL     OW28963   6.762   1.214   3.046
 9355SOL    HW128964   6.727   1.120   3.044
 9355SOL    HW228965   6.685   1.278   3.054
 9356SOL     OW28966   4.444   4.741   2.720
 9356SOL    HW128967   4.431   4.768   2.625
 9356SOL    HW228968   4.466   4.822   2.775
 9357SOL     OW28969   3.069   3.110   0.573
 9357SOL    HW128970   3.133   3.176   0.535
 9357SOL    HW228971   3.116   3.023   0.589
 9358SOL     OW28972   5.000   4.396   1.977
 9358SOL    HW128973   4.956   4.365   1.893
 9358SOL    HW228974   4.950   4.360   2.056
 9359SOL     OW28975   5.364   4.477   6.001
 9359SOL    HW128976   5.410   4.564   5.983
 9359SOL    HW228977   5.423   4.402   5.971
 9360SOL     OW28978   1.548   0.281   5.236
 9360SOL    HW128979   1.453   0.309   5.248
 9360SOL    HW228980   1.556   0.226   5.152
 9361SOL     OW28981   2.561   0.691   2.523
 9361SOL    HW128982   2.564   0.763   2.592
 9361SOL    HW228983   2.604   0.723   2.439
 9362SOL     OW28984   2.074   1.692   3.000
 9362SOL    HW128985   2.117   1.641   3.074
 9362SOL    HW228986   2.031   1.775   3.036
 9363SOL     OW28987   2.453   6.607   1.846
 9363SOL    HW128988   2.395   6.684   1.871
 9363SOL    HW228989   2.448   6.537   1.918
 9364SOL     OW28990   5.298   5.434   0.740
 9364SOL    HW128991   5.311   5.364   0.670
 9364SOL    HW228992   5.387   5.467   0.771
 9365SOL     OW28993   1.896   1.210   4.952
 9365SOL    HW128994   1.819   1.256   4.907
 9365SOL    HW228995   1.894   1.230   5.050
 9366SOL     OW28996   2.748   1.591   1.044
 9366SOL    HW128997   2.844   1.574   1.021
 9366SOL    HW228998   2.725   1.542   1.129
 9367SOL     OW28999   6.660   5.970   3.273
 9367SOL    HW129000   6.724   5.898   3.243
 9367SOL    HW229001   6.590   5.930   3.332
 9368SOL     OW29002   3.840   3.078   1.563
 9368SOL    HW129003   3.781   3.017   1.511
 9368SOL    HW229004   3.866   3.034   1.649
 9369SOL     OW29005   0.327   2.118   5.566
 9369SOL    HW129006   0.308   2.098   5.662
 9369SOL    HW229007   0.425   2.137   5.554
 9370SOL     OW29008   6.290   0.083   3.057
 9370SOL    HW129009   6.254   7.015   3.048
 9370SOL    HW229010   6.336   0.092   3.146
 9371SOL     OW29011   1.129   6.521   0.638
 9371SOL    HW129012   1.046   6.560   0.600
 9371SOL    HW229013   1.128   6.528   0.738
 9372SOL     OW29014   6.650   6.260   6.436
 9372SOL    HW129015   6.698   6.303   6.512
 9372SOL    HW229016   6.573   6.206   6.472
 9373SOL     OW29017   4.665   1.920   3.892
 9373SOL    HW129018   4.750   1.919   3.944
 9373SOL    HW229019   4.592   1.879   3.946
 9374SOL     OW29020   5.189   3.880   0.349
 9374SOL    HW129021   5.272   3.874   0.294
 9374SOL    HW229022   5.150   3.788   0.362
 9375SOL     OW29023   0.666   1.471   3.898
 9375SOL    HW129024   0.583   1.491   3.845
 9375SOL    HW229025   0.642   1.418   3.979
 9376SOL     OW29026   2.056   3.002   2.181
 9376SOL    HW129027   1.963   3.009   2.146
 9376SOL    HW229028   2.117   2.971   2.107
 9377SOL     OW29029   5.945   5.520   3.437
 9377SOL    HW129030   5.948   5.572   3.352
 9377SOL    HW229031   6.036   5.483   3.456
 9378SOL     OW29032   3.115   6.172   0.850
 9378SOL    HW129033   3.206   6.208   0.872
 9378SOL    HW229034   3.058   6.173   0.931
 9379SOL     OW29035   5.341   4.571   4.987
 9379SOL    HW129036   5.383   4.520   4.913
 9379SOL    HW229037   5.247   4.595   4.962
 9380SOL     OW29038   5.743   6.400   6.594
 9380SOL    HW129039   5.789   6.336   6.532
 9380SOL    HW229040   5.663   6.356   6.634
 9381SOL     OW29041   2.971   0.894   7.010
 9381SOL    HW129042   2.957   0.979   0.036
 9381SOL    HW229043   2.894   0.877   6.949
 9382SOL     OW29044   4.662   2.183   2.126
 9382SOL    HW129045   4.623   2.269   2.094
 9382SOL    HW229046   4.755   2.173   2.090
 9383SOL     OW29047   5.170   5.936   5.574
 9383SOL    HW129048   5.258   5.888   5.579
 9383SOL    HW229049   5.109   5.904   5.646
 9384SOL     OW29050   5.210   5.873   1.641
 9384SOL    HW129051   5.258   5.934   1.578
 9384SOL    HW229052   5.186   5.788   1.594
 9385SOL     OW29053   3.502   1.376   3.377
 9385SOL    HW129054   3.446   1.296   3.354
 9385SOL    HW229055   3.541   1.415   3.293
 9386SOL     OW29056   3.375   0.220   4.348
 9386SOL    HW129057   3.335   0.283   4.281
 9386SOL    HW229058   3.309   0.148   4.369
 9387SOL     OW29059   4.160   6.827   0.017
 9387SOL    HW129060   4.165   6.811   0.116
 9387SOL    HW229061   4.251   6.819   7.002
 9388SOL     OW29062   0.210   0.409   2.395
 9388SOL    HW129063   0.147   0.486   2.405
 9388SOL    HW229064   0.231   0.372   2.485
 9389SOL     OW29065   2.817   0.553   6.542
 9389SOL    HW129066   2.839   0.461   6.510
 9389SOL    HW229067   2.854   0.566   6.634
 9390SOL     OW29068   3.206   6.070   2.199
 9390SOL    HW129069   3.244   6.150   2.246
 9390SOL    HW229070   3.127   6.098   2.145
 9391SOL     OW29071   0.854   0.836   5.024
 9391SOL    HW129072   0.904   0.877   5.100
 9391SOL    HW229073   0.831   0.907   4.957
 9392SOL     OW29074   1.507   6.505   4.685
 9392SOL    HW129075   1.434   6.572   4.673
 9392SOL    HW229076   1.509   6.474   4.780
 9393SOL     OW29077   3.788   2.261   5.327
 9393SOL    HW129078   3.773   2.163   5.312
 9393SOL    HW229079   3.887   2.279   5.329
 9394SOL     OW29080   5.021   2.314   2.369
 9394SOL    HW129081   4.928   2.278   2.377
 9394SOL    HW229082   5.019   2.401   2.320
 9395SOL     OW29083   1.700   3.284   0.013
 9395SOL    HW129084   1.652   3.372   0.022
 9395SOL    HW229085   1.633   3.210   0.003
 9396SOL     OW29086   6.802   0.490   6.692
 9396SOL    HW129087   6.878   0.437   6.729
 9396SOL    HW229088   6.772   0.451   6.605
 9397SOL     OW29089   3.125   0.497   0.797
 9397SOL    HW129090   3.125   0.575   0.734
 9397SOL    HW229091   3.035   0.454   0.796
 9398SOL     OW29092   2.748   1.752   6.839
 9398SOL    HW129093   2.746   1.668   6.893
 9398SOL    HW229094   2.728   1.830   6.898
 9399SOL     OW29095   6.750   0.763   5.460
 9399SOL    HW129096   6.790   0.824   5.392
 9399SOL    HW229097   6.748   0.669   5.424
 9400SOL     OW29098   5.214   2.474   2.933
 9400SOL    HW129099   5.159   2.541   2.983
 9400SOL    HW229100   5.266   2.419   2.999
 9401SOL     OW29101   3.196   0.120   3.089
 9401SOL    HW129102   3.250   0.036   3.096
 9401SOL    HW229103   3.245   0.187   3.034
 9402SOL     OW29104   2.782   5.162   6.330
 9402SOL    HW129105   2.725   5.165   6.247
 9402SOL    HW229106   2.723   5.156   6.411
 9403SOL     OW29107   5.392   1.401   4.004
 9403SOL    HW129108   5.346   1.342   4.070
 9403SOL    HW229109   5.392   1.495   4.037
 9404SOL     OW29110   0.643   4.166   6.154
 9404SOL    HW129111   0.655   4.179   6.055
 9404SOL    HW229112   0.559   4.115   6.171
 9405SOL     OW29113   6.154   6.955   1.288
 9405SOL    HW129114   6.066   6.927   1.251
 9405SOL    HW229115   6.210   6.875   1.306
 9406SOL     OW29116   0.224   1.169   5.283
 9406SOL    HW129117   0.202   1.237   5.353
 9406SOL    HW229118   0.165   1.089   5.294
 9407SOL     OW29119   3.294   6.159   3.014
 9407SOL    HW129120   3.229   6.200   2.950
 9407SOL    HW229121   3.350   6.092   2.966
 9408SOL     OW29122   4.223   1.816   6.503
 9408SOL    HW129123   4.162   1.878   6.453
 9408SOL    HW229124   4.312   1.815   6.458
 9409SOL     OW29125   5.619   4.121   2.926
 9409SOL    HW129126   5.554   4.178   2.977
 9409SOL    HW229127   5.711   4.160   2.932
 9410SOL     OW29128   4.435   6.416   2.758
 9410SOL    HW129129   4.534   6.401   2.766
 9410SOL    HW229130   4.408   6.408   2.662
 9411SOL     OW29131   4.951   5.410   0.668
 9411SOL    HW129132   4.970   5.323   0.622
 9411SOL    HW229133   4.959   5.398   0.767
 9412SOL     OW29134   6.440   2.465   1.378
 9412SOL    HW129135   6.386   2.474   1.294
 9412SOL    HW229136   6.396   2.401   1.440
 9413SOL     OW29137   3.849   6.046   5.765
 9413SOL    HW129138   3.750   6.049   5.747
 9413SOL    HW229139   3.897   6.100   5.695
 9414SOL     OW29140   2.173   1.697   1.912
 9414SOL    HW129141   2.143   1.726   2.003
 9414SOL    HW229142   2.155   1.769   1.845
 9415SOL     OW29143   2.819   0.468   2.226
 9415SOL    HW129144   2.872   0.390   2.257
 9415SOL    HW229145   2.758   0.440   2.151
 9416SOL     OW29146   0.592   2.780   1.669
 9416SOL    HW129147   0.503   2.824   1.659
 9416SOL    HW229148   0.657   2.820   1.605
 9417SOL     OW29149   2.462   5.985   4.569
 9417SOL    HW129150   2.526   6.053   4.605
 9417SOL    HW229151   2.513   5.910   4.528
 9418SOL     OW29152   3.595   5.111   0.551
 9418SOL    HW129153   3.580   5.013   0.534
 9418SOL    HW229154   3.560   5.134   0.642
 9419SOL     OW29155   3.643   6.601   5.931
 9419SOL    HW129156   3.560   6.636   5.887
 9419SOL    HW229157   3.715   6.669   5.926
 9420SOL     OW29158   0.556   1.429   4.216
 9420SOL    HW129159   0.526   1.338   4.186
 9420SOL    HW229160   0.643   1.422   4.265
 9421SOL     OW29161   1.967   4.568   5.383
 9421SOL    HW129162   2.049   4.552   5.328
 9421SOL    HW229163   1.889   4.585   5.324
 9422SOL     OW29164   3.972   1.552   2.102
 9422SOL    HW129165   3.963   1.516   2.195
 9422SOL    HW229166   4.006   1.480   2.042
 9423SOL     OW29167   4.943   1.127   4.905
 9423SOL    HW129168   4.872   1.072   4.861
 9423SOL    HW229169   4.946   1.218   4.864
 9424SOL     OW29170   2.992   6.506   4.773
 9424SOL    HW129171   3.077   6.555   4.757
 9424SOL    HW229172   3.003   6.446   4.852
 9425SOL     OW29173   1.213   3.198   4.166
 9425SOL    HW129174   1.202   3.263   4.241
 9425SOL    HW229175   1.183   3.240   4.081
 9426SOL     OW29176   3.393   6.604   0.196
 9426SOL    HW129177   3.396   6.694   0.153
 9426SOL    HW229178   3.456   6.542   0.150
 9427SOL     OW29179   3.062   5.205   4.026
 9427SOL    HW129180   2.969   5.206   3.989
 9427SOL    HW229181   3.058   5.197   4.126
 9428SOL     OW29182   5.141   6.175   2.720
 9428SOL    HW129183   5.108   6.212   2.634
 9428SOL    HW229184   5.073   6.112   2.757
 9429SOL     OW29185   0.295   3.798   2.299
 9429SOL    HW129186   0.335   3.890   2.302
 9429SOL    HW229187   0.351   3.739   2.241
 9430SOL     OW29188   5.718   6.659   1.636
 9430SOL    HW129189   5.720   6.603   1.719
 9430SOL    HW229190   5.729   6.600   1.556
 9431SOL     OW29191   6.691   4.440   1.955
 9431SOL    HW129192   6.636   4.404   2.031
 9431SOL    HW229193   6.678   4.539   1.948
 9432SOL     OW29194   6.504   6.823   4.302
 9432SOL    HW129195   6.587   6.847   4.252
 9432SOL    HW229196   6.511   6.729   4.336
 9433SOL     OW29197   2.842   4.792   4.781
 9433SOL    HW129198   2.919   4.812   4.722
 9433SOL    HW229199   2.871   4.731   4.855
 9434SOL     OW29200   5.003   5.070   2.668
 9434SOL    HW129201   4.975   4.999   2.603
 9434SOL    HW229202   5.094   5.103   2.643
 9435SOL     OW29203   1.339   0.496   4.288
 9435SOL    HW129204   1.386   0.433   4.227
 9435SOL    HW229205   1.396   0.577   4.304
 9436SOL     OW29206   2.342   2.450   6.670
 9436SOL    HW129207   2.303   2.528   6.621
 9436SOL    HW229208   2.428   2.477   6.714
 9437SOL     OW29209   0.975   5.087   4.044
 9437SOL    HW129210   1.041   5.015   4.022
 9437SOL    HW229211   0.919   5.058   4.122
 9438SOL     OW29212   1.275   5.946   2.080
 9438SOL    HW129213   1.248   6.004   2.004
 9438SOL    HW229214   1.335   5.997   2.142
 9439SOL     OW29215   0.224   2.468   1.827
 9439SOL    HW129216   0.296   2.535   1.846
 9439SOL    HW229217   0.203   2.418   1.910
 9440SOL     OW29218   4.977   6.386   5.650
 9440SOL    HW129219   4.946   6.467   5.700
 9440SOL    HW229220   5.044   6.336   5.705
 9441SOL     OW29221   1.534   4.591   5.326
 9441SOL    HW129222   1.596   4.668   5.307
 9441SOL    HW229223   1.481   4.611   5.409
 9442SOL     OW29224   0.370   3.820   1.949
 9442SOL    HW129225   0.396   3.916   1.938
 9442SOL    HW229226   0.303   3.795   1.880
 9443SOL     OW29227   1.909   3.675   1.841
 9443SOL    HW129228   1.875   3.716   1.926
 9443SOL    HW229229   1.870   3.724   1.763
 9444SOL     OW29230   0.012   3.709   6.788
 9444SOL    HW129231   0.057   3.623   6.763
 9444SOL    HW229232   6.966   3.730   6.721
 9445SOL     OW29233   5.650   3.296   1.348
 9445SOL    HW129234   5.610   3.358   1.416
 9445SOL    HW229235   5.704   3.226   1.394
 9446SOL     OW29236   6.392   5.649   1.351
 9446SOL    HW129237   6.434   5.601   1.428
 9446SOL    HW229238   6.456   5.718   1.315
 9447SOL     OW29239   5.841   2.591   1.827
 9447SOL    HW129240   5.865   2.609   1.922
 9447SOL    HW229241   5.917   2.619   1.767
 9448SOL     OW29242   6.312   6.729   0.302
 9448SOL    HW129243   6.231   6.786   0.307
 9448SOL    HW229244   6.325   6.681   0.388
 9449SOL     OW29245   6.619   5.338   5.566
 9449SOL    HW129246   6.691   5.398   5.531
 9449SOL    HW229247   6.530   5.377   5.542
 9450SOL     OW29248   3.314   4.967   4.085
 9450SOL    HW129249   3.224   5.009   4.078
 9450SOL    HW229250   3.316   4.905   4.163
 9451SOL     OW29251   4.425   4.646   5.860
 9451SOL    HW129252   4.464   4.560   5.828
 9451SOL    HW229253   4.486   4.687   5.928
 9452SOL     OW29254   2.424   4.351   1.322
 9452SOL    HW129255   2.499   4.409   1.291
 9452SOL    HW229256   2.399   4.375   1.416
 9453SOL     OW29257   3.379   4.907   2.325
 9453SOL    HW129258   3.341   4.824   2.284
 9453SOL    HW229259   3.424   4.961   2.254
 9454SOL     OW29260   2.220   2.860   5.173
 9454SOL    HW129261   2.288   2.911   5.121
 9454SOL    HW229262   2.198   2.911   5.257
 9455SOL     OW29263   3.124   1.703   1.866
 9455SOL    HW129264   3.062   1.715   1.788
 9455SOL    HW229265   3.141   1.791   1.909
 9456SOL     OW29266   1.290   3.217   1.519
 9456SOL    HW129267   1.270   3.311   1.491
 9456SOL    HW229268   1.264   3.204   1.615
 9457SOL     OW29269   0.374   3.445   0.584
 9457SOL    HW129270   0.334   3.404   0.667
 9457SOL    HW229271   0.472   3.456   0.597
 9458SOL     OW29272   6.998   5.612   5.112
 9458SOL    HW129273   6.963   5.602   5.019
 9458SOL    HW229274   6.931   5.661   5.168
 9459SOL     OW29275   5.718   5.831   1.685
 9459SOL    HW129276   5.638   5.787   1.646
 9459SOL    HW229277   5.788   5.842   1.614
 9460SOL     OW29278   1.049   2.244   5.435
 9460SOL    HW129279   1.121   2.294   5.483
 9460SOL    HW229280   1.085   2.206   5.350
 9461SOL     OW29281   1.086   1.041   3.537
 9461SOL    HW129282   1.116   1.067   3.446
 9461SOL    HW229283   1.157   0.986   3.581
 9462SOL     OW29284   0.769   3.186   2.388
 9462SOL    HW129285   0.794   3.257   2.323
 9462SOL    HW229286   0.849   3.160   2.442
 9463SOL     OW29287   5.555   1.646   0.380
 9463SOL    HW129288   5.646   1.617   0.349
 9463SOL    HW229289   5.485   1.588   0.337
 9464SOL     OW29290   5.628   0.670   6.082
 9464SOL    HW129291   5.699   0.733   6.113
 9464SOL    HW229292   5.591   0.621   6.161
 9465SOL     OW29293   6.377   0.333   3.803
 9465SOL    HW129294   6.409   0.426   3.792
 9465SOL    HW229295   6.368   0.289   3.713
 9466SOL     OW29296   2.918   2.603   6.489
 9466SOL    HW129297   2.844   2.666   6.514
 9466SOL    HW229298   2.901   2.567   6.397
 9467SOL     OW29299   1.982   3.332   1.984
 9467SOL    HW129300   2.063   3.390   1.997
 9467SOL    HW229301   2.010   3.243   1.947
 9468SOL     OW29302   6.702   2.963   5.932
 9468SOL    HW129303   6.608   2.935   5.948
 9468SOL    HW229304   6.718   2.973   5.833
 9469SOL     OW29305   6.478   4.855   1.775
 9469SOL    HW129306   6.430   4.930   1.730
 9469SOL    HW229307   6.412   4.800   1.826
 9470SOL     OW29308   5.333   3.613   0.794
 9470SOL    HW129309   5.360   3.618   0.698
 9470SOL    HW229310   5.314   3.518   0.819
 9471SOL     OW29311   6.955   1.792   6.049
 9471SOL    HW129312   6.976   1.700   6.081
 9471SOL    HW229313   6.862   1.816   6.077
 9472SOL     OW29314   6.428   4.148   3.638
 9472SOL    HW129315   6.451   4.106   3.550
 9472SOL    HW229316   6.471   4.095   3.712
 9473SOL     OW29317   3.140   5.278   5.326
 9473SOL    HW129318   3.179   5.224   5.251
 9473SOL    HW229319   3.172   5.373   5.319
 9474SOL     OW29320   4.478   5.452   2.429
 9474SOL    HW129321   4.444   5.520   2.494
 9474SOL    HW229322   4.578   5.459   2.423
 9475SOL     OW29323   2.103   3.482   1.200
 9475SOL    HW129324   2.111   3.382   1.192
 9475SOL    HW229325   2.162   3.513   1.275
 9476SOL     OW29326   3.725   3.989   5.208
 9476SOL    HW129327   3.672   3.905   5.205
 9476SOL    HW229328   3.683   4.056   5.146
 9477SOL     OW29329   1.173   2.622   1.466
 9477SOL    HW129330   1.199   2.527   1.478
 9477SOL    HW229331   1.255   2.679   1.462
 9478SOL     OW29332   5.812   4.716   5.595
 9478SOL    HW129333   5.815   4.785   5.523
 9478SOL    HW229334   5.851   4.630   5.561
 9479SOL     OW29335   6.202   5.930   6.258
 9479SOL    HW129336   6.131   5.920   6.328
 9479SOL    HW229337   6.188   5.862   6.186
 9480SOL     OW29338   5.536   4.874   0.089
 9480SOL    HW129339   5.461   4.931   0.123
 9480SOL    HW229340   5.621   4.927   0.089
 9481SOL     OW29341   0.201   3.556   2.060
 9481SOL    HW129342   0.261   3.626   2.100
 9481SOL    HW229343   0.256   3.488   2.013
 9482SOL     OW29344   4.415   0.312   2.617
 9482SOL    HW129345   4.436   0.338   2.523
 9482SOL    HW229346   4.318   0.330   2.636
 9483SOL     OW29347   1.687   1.976   6.812
 9483SOL    HW129348   1.670   2.038   6.889
 9483SOL    HW229349   1.612   1.983   6.746
 9484SOL     OW29350   6.458   1.617   3.439
 9484SOL    HW129351   6.424   1.675   3.513
 9484SOL    HW229352   6.550   1.645   3.413
 9485SOL     OW29353   1.080   0.119   2.713
 9485SOL    HW129354   1.065   0.105   2.615
 9485SOL    HW229355   1.099   0.032   2.757
 9486SOL     OW29356   3.071   5.750   2.089
 9486SOL    HW129357   3.150   5.770   2.147
 9486SOL    HW229358   3.072   5.809   2.008
 9487SOL     OW29359   3.366   2.948   4.261
 9487SOL    HW129360   3.283   2.999   4.244
 9487SOL    HW229361   3.343   2.853   4.284
 9488SOL     OW29362   1.814   6.804   0.801
 9488SOL    HW129363   1.782   6.831   0.710
 9488SOL    HW229364   1.739   6.814   0.867
 9489SOL     OW29365   3.624   4.773   0.703
 9489SOL    HW129366   3.612   4.677   0.729
 9489SOL    HW229367   3.695   4.780   0.633
 9490SOL     OW29368   5.286   1.276   1.159
 9490SOL    HW129369   5.193   1.296   1.130
 9490SOL    HW229370   5.351   1.324   1.099
 9491SOL     OW29371   6.067   5.295   6.612
 9491SOL    HW129372   6.045   5.351   6.692
 9491SOL    HW229373   6.048   5.199   6.633
 9492SOL     OW29374   3.014   3.984   1.838
 9492SOL    HW129375   3.066   4.070   1.837
 9492SOL    HW229376   3.038   3.932   1.920
 9493SOL     OW29377   4.828   6.656   3.223
 9493SOL    HW129378   4.806   6.731   3.285
 9493SOL    HW229379   4.928   6.645   3.218
 9494SOL     OW29380   3.949   3.294   5.493
 9494SOL    HW129381   4.022   3.325   5.554
 9494SOL    HW229382   3.907   3.373   5.449
 9495SOL     OW29383   6.041   2.558   5.562
 9495SOL    HW129384   6.067   2.467   5.532
 9495SOL    HW229385   5.999   2.553   5.652
 9496SOL     OW29386   5.839   4.482   0.021
 9496SOL    HW129387   5.884   4.450   0.104
 9496SOL    HW229388   5.740   4.478   0.033
 9497SOL     OW29389   5.648   5.841   6.244
 9497SOL    HW129390   5.586   5.765   6.224
 9497SOL    HW229391   5.595   5.925   6.254
 9498SOL     OW29392   3.818   0.671   6.288
 9498SOL    HW129393   3.739   0.691   6.346
 9498SOL    HW229394   3.811   0.721   6.202
 9499SOL     OW29395   3.815   4.284   5.223
 9499SOL    HW129396   3.863   4.371   5.239
 9499SOL    HW229397   3.882   4.211   5.215
 9500SOL     OW29398   5.016   6.191   1.546
 9500SOL    HW129399   4.956   6.271   1.547
 9500SOL    HW229400   5.069   6.190   1.461
 9501SOL     OW29401   3.171   1.587   4.859
 9501SOL    HW129402   3.118   1.505   4.879
 9501SOL    HW229403   3.125   1.640   4.788
 9502SOL     OW29404   5.986   3.097   5.807
 9502SOL    HW129405   6.057   3.152   5.763
 9502SOL    HW229406   5.986   3.005   5.769
 9503SOL     OW29407   1.563   6.895   1.183
 9503SOL    HW129408   1.613   6.812   1.160
 9503SOL    HW229409   1.480   6.872   1.233
 9504SOL     OW29410   0.484   2.720   6.475
 9504SOL    HW129411   0.486   2.796   6.410
 9504SOL    HW229412   0.442   2.750   6.561
 9505SOL     OW29413   5.919   2.889   3.089
 9505SOL    HW129414   5.828   2.927   3.105
 9505SOL    HW229415   5.933   2.809   3.147
 9506SOL     OW29416   6.405   4.162   0.295
 9506SOL    HW129417   6.502   4.186   0.294
 9506SOL    HW229418   6.394   4.066   0.321
 9507SOL     OW29419   0.816   2.043   3.360
 9507SOL    HW129420   0.895   2.009   3.309
 9507SOL    HW229421   0.733   1.997   3.327
 9508SOL     OW29422   6.084   2.071   0.247
 9508SOL    HW129423   6.083   1.996   0.312
 9508SOL    HW229424   5.991   2.101   0.229
 9509SOL     OW29425   2.332   6.225   5.458
 9509SOL    HW129426   2.282   6.201   5.375
 9509SOL    HW229427   2.335   6.147   5.520
 9510SOL     OW29428   6.531   4.962   3.426
 9510SOL    HW129429   6.499   4.987   3.335
 9510SOL    HW229430   6.631   4.970   3.430
 9511SOL     OW29431   0.482   1.617   0.745
 9511SOL    HW129432   0.477   1.519   0.764
 9511SOL    HW229433   0.578   1.645   0.739
 9512SOL     OW29434   1.000   2.250   3.679
 9512SOL    HW129435   1.072   2.319   3.678
 9512SOL    HW229436   1.012   2.192   3.759
 9513SOL     OW29437   2.466   4.394   4.016
 9513SOL    HW129438   2.434   4.392   3.921
 9513SOL    HW229439   2.424   4.319   4.067
 9514SOL     OW29440   2.158   2.722   0.050
 9514SOL    HW129441   2.196   2.807   0.086
 9514SOL    HW229442   2.147   2.730   6.975
 9515SOL     OW29443   2.146   5.538   6.377
 9515SOL    HW129444   2.242   5.526   6.351
 9515SOL    HW229445   2.123   5.636   6.373
 9516SOL     OW29446   5.276   3.452   4.221
 9516SOL    HW129447   5.337   3.444   4.141
 9516SOL    HW229448   5.331   3.453   4.304
 9517SOL     OW29449   0.520   5.500   2.280
 9517SOL    HW129450   0.586   5.442   2.329
 9517SOL    HW229451   0.437   5.510   2.334
 9518SOL     OW29452   0.643   2.492   6.363
 9518SOL    HW129453   0.646   2.473   6.265
 9518SOL    HW229454   0.595   2.578   6.379
 9519SOL     OW29455   3.547   3.781   3.280
 9519SOL    HW129456   3.631   3.726   3.271
 9519SOL    HW229457   3.476   3.741   3.223
 9520SOL     OW29458   6.263   0.315   5.714
 9520SOL    HW129459   6.273   0.216   5.699
 9520SOL    HW229460   6.328   0.344   5.784
 9521SOL     OW29461   3.691   0.343   1.110
 9521SOL    HW129462   3.670   0.259   1.159
 9521SOL    HW229463   3.761   0.324   1.040
 9522SOL     OW29464   3.781   6.378   2.370
 9522SOL    HW129465   3.733   6.413   2.290
 9522SOL    HW229466   3.765   6.438   2.448
 9523SOL     OW29467   2.551   5.333   4.026
 9523SOL    HW129468   2.503   5.254   3.988
 9523SOL    HW229469   2.587   5.390   3.952
 9524SOL     OW29470   2.222   4.410   1.144
 9524SOL    HW129471   2.192   4.501   1.172
 9524SOL    HW229472   2.299   4.381   1.201
 9525SOL     OW29473   2.009   3.037   5.605
 9525SOL    HW129474   2.035   3.046   5.509
 9525SOL    HW229475   2.004   2.940   5.629
 9526SOL     OW29476   4.918   4.755   6.811
 9526SOL    HW129477   4.870   4.837   6.778
 9526SOL    HW229478   5.017   4.769   6.802
 9527SOL     OW29479   4.077   6.970   3.188
 9527SOL    HW129480   4.078   6.902   3.261
 9527SOL    HW229481   4.100   0.035   3.225
 9528SOL     OW29482   5.605   2.205   1.352
 9528SOL    HW129483   5.557   2.147   1.418
 9528SOL    HW229484   5.595   2.167   1.260
 9529SOL     OW29485   6.354   1.374   1.605
 9529SOL    HW129486   6.348   1.431   1.687
 9529SOL    HW229487   6.428   1.308   1.615
 9530SOL     OW29488   0.657   5.346   4.077
 9530SOL    HW129489   0.719   5.313   4.006
 9530SOL    HW229490   0.564   5.354   4.039
 9531SOL     OW29491   3.591   5.252   2.467
 9531SOL    HW129492   3.496   5.235   2.441
 9531SOL    HW229493   3.624   5.177   2.524
 9532SOL     OW29494   6.584   5.147   2.730
 9532SOL    HW129495   6.600   5.116   2.636
 9532SOL    HW229496   6.518   5.222   2.730
 9533SOL     OW29497   2.294   4.216   3.315
 9533SOL    HW129498   2.247   4.262   3.391
 9533SOL    HW229499   2.229   4.157   3.267
 9534SOL     OW29500   5.450   4.422   4.789
 9534SOL    HW129501   5.396   4.351   4.833
 9534SOL    HW229502   5.544   4.390   4.776
 9535SOL     OW29503   0.957   1.043   5.781
 9535SOL    HW129504   0.990   1.093   5.701
 9535SOL    HW229505   0.868   1.079   5.809
 9536SOL     OW29506   4.065   3.816   5.332
 9536SOL    HW129507   3.991   3.808   5.398
 9536SOL    HW229508   4.135   3.747   5.351
 9537SOL     OW29509   1.098   1.454   3.404
 9537SOL    HW129510   1.191   1.429   3.374
 9537SOL    HW229511   1.074   1.402   3.485
 9538SOL     OW29512   4.083   0.952   5.037
 9538SOL    HW129513   4.064   1.044   5.072
 9538SOL    HW229514   4.139   0.902   5.104
 9539SOL     OW29515   3.706   3.138   2.824
 9539SOL    HW129516   3.709   3.225   2.774
 9539SOL    HW229517   3.797   3.119   2.862
 9540SOL     OW29518   4.901   4.544   3.726
 9540SOL    HW129519   4.905   4.502   3.635
 9540SOL    HW229520   4.951   4.631   3.725
 9541SOL     OW29521   1.981   5.883   5.573
 9541SOL    HW129522   2.009   5.789   5.557
 9541SOL    HW229523   1.898   5.885   5.628
 9542SOL     OW29524   6.306   4.261   4.126
 9542SOL    HW129525   6.326   4.177   4.177
 9542SOL    HW229526   6.373   4.272   4.052
 9543SOL     OW29527   2.019   0.305   5.896
 9543SOL    HW129528   1.936   0.357   5.877
 9543SOL    HW229529   2.023   0.281   5.993
 9544SOL     OW29530   5.665   3.549   4.326
 9544SOL    HW129531   5.567   3.564   4.312
 9544SOL    HW229532   5.681   3.452   4.345
 9545SOL     OW29533   1.678   4.446   1.920
 9545SOL    HW129534   1.738   4.473   1.845
 9545SOL    HW229535   1.733   4.406   1.994
 9546SOL     OW29536   2.587   2.145   6.399
 9546SOL    HW129537   2.549   2.064   6.356
 9546SOL    HW229538   2.514   2.195   6.446
 9547SOL     OW29539   3.956   6.037   4.195
 9547SOL    HW129540   4.021   6.080   4.132
 9547SOL    HW229541   3.989   6.048   4.289
 9548SOL     OW29542   0.871   4.881   0.069
 9548SOL    HW129543   0.855   4.968   0.116
 9548SOL    HW229544   0.787   4.851   0.024
 9549SOL     OW29545   4.296   2.987   1.191
 9549SOL    HW129546   4.375   2.988   1.253
 9549SOL    HW229547   4.218   2.947   1.238
 9550SOL     OW29548   5.127   2.802   1.270
 9550SOL    HW129549   5.080   2.734   1.327
 9550SOL    HW229550   5.064   2.876   1.246
 9551SOL     OW29551   6.555   2.342   6.629
 9551SOL    HW129552   6.606   2.268   6.585
 9551SOL    HW229553   6.603   2.429   6.613
 9552SOL     OW29554   3.134   2.234   6.873
 9552SOL    HW129555   3.061   2.174   6.840
 9552SOL    HW229556   3.187   2.269   6.796
 9553SOL     OW29557   5.240   1.714   6.762
 9553SOL    HW129558   5.225   1.767   6.846
 9553SOL    HW229559   5.251   1.618   6.784
 9554SOL     OW29560   2.134   6.426   4.271
 9554SOL    HW129561   2.147   6.345   4.214
 9554SOL    HW229562   2.072   6.405   4.346
 9555SOL     OW29563   6.798   0.545   3.773
 9555SOL    HW129564   6.709   0.586   3.791
 9555SOL    HW229565   6.835   0.505   3.857
 9556SOL     OW29566   2.306   4.714   0.266
 9556SOL    HW129567   2.292   4.648   0.192
 9556SOL    HW229568   2.353   4.669   0.342
 9557SOL     OW29569   5.276   0.314   1.795
 9557SOL    HW129570   5.327   0.380   1.741
 9557SOL    HW229571   5.178   0.333   1.788
 9558SOL     OW29572   5.066   6.355   6.126
 9558SOL    HW129573   5.075   6.292   6.203
 9558SOL    HW229574   5.012   6.435   6.154
 9559SOL     OW29575   1.635   4.294   0.492
 9559SOL    HW129576   1.621   4.354   0.571
 9559SOL    HW229577   1.679   4.345   0.418
 9560SOL     OW29578   3.131   6.764   2.172
 9560SOL    HW129579   3.122   6.844   2.112
 9560SOL    HW229580   3.085   6.783   2.259
 9561SOL     OW29581   0.888   1.212   0.675
 9561SOL    HW129582   0.966   1.255   0.629
 9561SOL    HW229583   0.812   1.204   0.611
 9562SOL     OW29584   2.970   5.370   3.655
 9562SOL    HW129585   2.894   5.318   3.618
 9562SOL    HW229586   3.050   5.310   3.666
 9563SOL     OW29587   0.680   5.870   1.501
 9563SOL    HW129588   0.758   5.831   1.452
 9563SOL    HW229589   0.651   5.954   1.455
 9564SOL     OW29590   1.330   0.016   0.429
 9564SOL    HW129591   1.238   0.001   0.465
 9564SOL    HW229592   1.344   6.985   0.347
 9565SOL     OW29593   3.254   1.752   4.449
 9565SOL    HW129594   3.203   1.805   4.382
 9565SOL    HW229595   3.194   1.682   4.489
 9566SOL     OW29596   2.658   6.985   0.711
 9566SOL    HW129597   2.746   7.023   0.740
 9566SOL    HW229598   2.616   6.936   0.788
 9567SOL     OW29599   6.870   4.410   1.107
 9567SOL    HW129600   6.806   4.333   1.102
 9567SOL    HW229601   6.951   4.382   1.157
 9568SOL     OW29602   4.327   1.460   6.835
 9568SOL    HW129603   4.254   1.505   6.783
 9568SOL    HW229604   4.343   1.510   6.920
 9569SOL     OW29605   5.397   0.946   2.210
 9569SOL    HW129606   5.401   0.930   2.111
 9569SOL    HW229607   5.352   0.868   2.254
 9570SOL     OW29608   6.935   3.366   1.136
 9570SOL    HW129609   6.910   3.463   1.136
 9570SOL    HW229610   7.002   3.349   1.208
 9571SOL     OW29611   2.922   2.084   6.738
 9571SOL    HW129612   2.914   2.031   6.654
 9571SOL    HW229613   2.831   2.108   6.772
 9572SOL     OW29614   2.106   4.072   4.001
 9572SOL    HW129615   2.019   4.074   4.050
 9572SOL    HW229616   2.105   4.143   3.930
 9573SOL     OW29617   6.300   1.430   4.627
 9573SOL    HW129618   6.346   1.378   4.554
 9573SOL    HW229619   6.230   1.489   4.586
 9574SOL     OW29620   3.425   3.089   1.434
 9574SOL    HW129621   3.374   3.054   1.356
 9574SOL    HW229622   3.395   3.181   1.456
 9575SOL     OW29623   6.290   6.319   1.773
 9575SOL    HW129624   6.337   6.390   1.826
 9575SOL    HW229625   6.249   6.253   1.836
 9576SOL     OW29626   0.684   6.915   0.046
 9576SOL    HW129627   0.757   6.874   0.100
 9576SOL    HW229628   0.623   6.967   0.107
 9577SOL     OW29629   6.254   5.098   1.970
 9577SOL    HW129630   6.205   5.101   1.883
 9577SOL    HW229631   6.222   5.019   2.023
 9578SOL     OW29632   1.567   2.441   2.916
 9578SOL    HW129633   1.597   2.505   2.987
 9578SOL    HW229634   1.606   2.467   2.828
 9579SOL     OW29635   5.697   6.317   2.201
 9579SOL    HW129636   5.658   6.408   2.186
 9579SOL    HW229637   5.667   6.256   2.127
 9580SOL     OW29638   4.979   4.808   2.500
 9580SOL    HW129639   4.898   4.861   2.472
 9580SOL    HW229640   5.043   4.804   2.423
 9581SOL     OW29641   6.127   1.355   0.203
 9581SOL    HW129642   6.204   1.299   0.173
 9581SOL    HW229643   6.144   1.386   0.297
 9582SOL     OW29644   4.442   5.736   4.375
 9582SOL    HW129645   4.522   5.783   4.338
 9582SOL    HW229646   4.360   5.791   4.355
 9583SOL     OW29647   3.408   4.567   1.648
 9583SOL    HW129648   3.494   4.571   1.700
 9583SOL    HW229649   3.396   4.475   1.611
 9584SOL     OW29650   2.046   4.769   4.540
 9584SOL    HW129651   2.133   4.764   4.589
 9584SOL    HW229652   2.031   4.862   4.505
 9585SOL     OW29653   4.716   5.610   1.460
 9585SOL    HW129654   4.624   5.587   1.428
 9585SOL    HW229655   4.769   5.649   1.384
 9586SOL     OW29656   4.630   5.173   1.960
 9586SOL    HW129657   4.634   5.140   1.866
 9586SOL    HW229658   4.536   5.202   1.981
 9587SOL     OW29659   2.861   6.285   1.592
 9587SOL    HW129660   2.874   6.205   1.651
 9587SOL    HW229661   2.850   6.256   1.497
 9588SOL     OW29662   6.496   5.593   0.600
 9588SOL    HW129663   6.419   5.655   0.612
 9588SOL    HW229664   6.468   5.517   0.541
 9589SOL     OW29665   1.937   3.646   6.302
 9589SOL    HW129666   2.014   3.594   6.267
 9589SOL    HW229667   1.967   3.738   6.326
 9590SOL     OW29668   5.147   1.462   2.357
 9590SOL    HW129669   5.076   1.475   2.426
 9590SOL    HW229670   5.192   1.373   2.372
 9591SOL     OW29671   3.466   0.146   6.377
 9591SOL    HW129672   3.508   0.198   6.451
 9591SOL    HW229673   3.390   0.092   6.414
 9592SOL     OW29674   2.570   4.903   6.354
 9592SOL    HW129675   2.610   4.945   6.273
 9592SOL    HW229676   2.519   4.821   6.327
 9593SOL     OW29677   1.474   1.793   5.000
 9593SOL    HW129678   1.568   1.800   4.967
 9593SOL    HW229679   1.473   1.745   5.088
 9594SOL     OW29680   0.896   6.042   4.088
 9594SOL    HW129681   0.991   6.018   4.108
 9594SOL    HW229682   0.852   5.967   4.038
 9595SOL     OW29683   0.204   3.203   3.766
 9595SOL    HW129684   0.124   3.153   3.732
 9595SOL    HW229685   0.186   3.301   3.764
 9596SOL     OW29686   0.503   6.434   0.305
 9596SOL    HW129687   0.416   6.483   0.315
 9596SOL    HW229688   0.485   6.336   0.299
 9597SOL     OW29689   0.843   3.732   2.634
 9597SOL    HW129690   0.829   3.637   2.606
 9597SOL    HW229691   0.760   3.784   2.620
 9598SOL     OW29692   1.414   3.709   3.069
 9598SOL    HW129693   1.339   3.757   3.024
 9598SOL    HW229694   1.377   3.634   3.124
 9599SOL     OW29695   3.530   6.912   3.512
 9599SOL    HW129696   3.526   6.922   3.612
 9599SOL    HW229697   3.506   6.999   3.469
 9600SOL     OW29698   3.298   0.346   0.956
 9600SOL    HW129699   3.274   0.349   1.053
 9600SOL    HW229700   3.246   0.415   0.906
 9601SOL     OW29701   6.692   4.500   1.348
 9601SOL    HW129702   6.724   4.493   1.442
 9601SOL    HW229703   6.765   4.472   1.286
 9602SOL     OW29704   4.880   3.893   5.389
 9602SOL    HW129705   4.954   3.886   5.456
 9602SOL    HW229706   4.902   3.840   5.308
 9603SOL     OW29707   5.621   6.200   5.515
 9603SOL    HW129708   5.675   6.271   5.560
 9603SOL    HW229709   5.536   6.185   5.566
 9604SOL     OW29710   5.428   0.267   0.845
 9604SOL    HW129711   5.373   0.278   0.928
 9604SOL    HW229712   5.520   0.237   0.870
 9605SOL     OW29713   6.544   6.211   3.711
 9605SOL    HW129714   6.542   6.191   3.613
 9605SOL    HW229715   6.613   6.280   3.730
 9606SOL     OW29716   1.409   1.244   6.594
 9606SOL    HW129717   1.439   1.318   6.653
 9606SOL    HW229718   1.319   1.266   6.556
 9607SOL     OW29719   3.427   2.858   5.971
 9607SOL    HW129720   3.447   2.901   6.059
 9607SOL    HW229721   3.354   2.908   5.925
 9608SOL     OW29722   6.765   4.397   2.744
 9608SOL    HW129723   6.769   4.404   2.844
 9608SOL    HW229724   6.838   4.338   2.712
 9609SOL     OW29725   4.219   2.641   5.958
 9609SOL    HW129726   4.294   2.632   5.892
 9609SOL    HW229727   4.244   2.708   6.027
 9610SOL     OW29728   1.719   3.776   2.957
 9610SOL    HW129729   1.626   3.803   2.931
 9610SOL    HW229730   1.774   3.857   2.972
 9611SOL     OW29731   1.677   0.454   0.921
 9611SOL    HW129732   1.637   0.387   0.859
 9611SOL    HW229733   1.775   0.458   0.908
 9612SOL     OW29734   0.672   3.169   2.721
 9612SOL    HW129735   0.667   3.172   2.621
 9612SOL    HW229736   0.757   3.213   2.751
 9613SOL     OW29737   5.998   5.791   3.744
 9613SOL    HW129738   5.958   5.856   3.808
 9613SOL    HW229739   6.058   5.728   3.793
 9614SOL     OW29740   5.034   1.716   2.811
 9614SOL    HW129741   4.994   1.745   2.724
 9614SOL    HW229742   4.979   1.752   2.886
 9615SOL     OW29743   2.422   2.317   1.328
 9615SOL    HW129744   2.442   2.409   1.296
 9615SOL    HW229745   2.493   2.288   1.392
 9616SOL     OW29746   3.344   3.152   0.198
 9616SOL    HW129747   3.269   3.201   0.153
 9616SOL    HW229748   3.307   3.075   0.250
 9617SOL     OW29749   2.252   2.663   3.990
 9617SOL    HW129750   2.261   2.581   4.046
 9617SOL    HW229751   2.304   2.652   3.905
 9618SOL     OW29752   3.056   0.717   0.648
 9618SOL    HW129753   3.055   0.706   0.549
 9618SOL    HW229754   2.999   0.795   0.673
 9619SOL     OW29755   2.249   1.245   5.628
 9619SOL    HW129756   2.257   1.191   5.544
 9619SOL    HW229757   2.339   1.281   5.654
 9620SOL     OW29758   5.408   6.941   4.882
 9620SOL    HW129759   5.383   6.905   4.971
 9620SOL    HW229760   5.331   6.993   4.845
 9621SOL     OW29761   1.644   2.597   2.269
 9621SOL    HW129762   1.702   2.595   2.351
 9621SOL    HW229763   1.680   2.664   2.204
 9622SOL     OW29764   6.136   0.699   1.136
 9622SOL    HW129765   6.217   0.648   1.166
 9622SOL    HW229766   6.132   0.700   1.036
 9623SOL     OW29767   3.558   3.376   6.413
 9623SOL    HW129768   3.575   3.290   6.460
 9623SOL    HW229769   3.613   3.380   6.330
 9624SOL     OW29770   5.955   3.305   2.747
 9624SOL    HW129771   5.941   3.262   2.836
 9624SOL    HW229772   5.965   3.234   2.677
 9625SOL     OW29773   6.172   6.247   0.426
 9625SOL    HW129774   6.222   6.306   0.363
 9625SOL    HW229775   6.235   6.184   0.471
 9626SOL     OW29776   3.630   5.933   6.628
 9626SOL    HW129777   3.728   5.921   6.643
 9626SOL    HW229778   3.607   5.909   6.533
 9627SOL     OW29779   1.550   6.030   6.446
 9627SOL    HW129780   1.497   6.104   6.404
 9627SOL    HW229781   1.647   6.046   6.429
 9628SOL     OW29782   4.385   6.009   1.598
 9628SOL    HW129783   4.413   6.091   1.548
 9628SOL    HW229784   4.303   5.971   1.555
 9629SOL     OW29785   2.955   6.713   1.266
 9629SOL    HW129786   2.915   6.777   1.331
 9629SOL    HW229787   3.035   6.670   1.308
 9630SOL     OW29788   6.686   0.430   5.791
 9630SOL    HW129789   6.712   0.381   5.708
 9630SOL    HW229790   6.668   0.364   5.864
 9631SOL     OW29791   6.585   6.637   6.864
 9631SOL    HW129792   6.553   6.657   6.956
 9631SOL    HW229793   6.583   6.720   6.809
 9632SOL     OW29794   1.647   6.575   2.083
 9632SOL    HW129795   1.634   6.521   2.166
 9632SOL    HW229796   1.741   6.565   2.050
 9633SOL     OW29797   6.373   5.376   6.421
 9633SOL    HW129798   6.349   5.285   6.454
 9633SOL    HW229799   6.289   5.426   6.398
 9634SOL     OW29800   0.904   6.623   4.539
 9634SOL    HW129801   0.854   6.666   4.464
 9634SOL    HW229802   0.863   6.649   4.626
 9635SOL     OW29803   2.512   5.193   4.864
 9635SOL    HW129804   2.565   5.278   4.867
 9635SOL    HW229805   2.572   5.116   4.883
 9636SOL     OW29806   4.419   1.449   5.121
 9636SOL    HW129807   4.429   1.540   5.082
 9636SOL    HW229808   4.420   1.455   5.221
 9637SOL     OW29809   2.072   2.103   6.784
 9637SOL    HW129810   2.038   2.046   6.858
 9637SOL    HW229811   2.169   2.123   6.799
 9638SOL     OW29812   6.444   2.685   5.197
 9638SOL    HW129813   6.454   2.740   5.280
 9638SOL    HW229814   6.532   2.680   5.150
 9639SOL     OW29815   4.289   1.398   2.686
 9639SOL    HW129816   4.360   1.378   2.619
 9639SOL    HW229817   4.266   1.495   2.682
 9640SOL     OW29818   2.073   2.188   2.578
 9640SOL    HW129819   2.119   2.276   2.568
 9640SOL    HW229820   2.005   2.193   2.651
 9641SOL     OW29821   6.261   6.454   0.218
 9641SOL    HW129822   6.260   6.554   0.215
 9641SOL    HW229823   6.183   6.418   0.168
 9642SOL     OW29824   2.786   0.866   4.385
 9642SOL    HW129825   2.748   0.947   4.340
 9642SOL    HW229826   2.882   0.855   4.360
 9643SOL     OW29827   4.642   4.742   3.546
 9643SOL    HW129828   4.644   4.785   3.636
 9643SOL    HW229829   4.573   4.670   3.544
 9644SOL     OW29830   1.749   2.280   6.273
 9644SOL    HW129831   1.742   2.191   6.318
 9644SOL    HW229832   1.723   2.352   6.336
 9645SOL     OW29833   2.963   5.184   4.951
 9645SOL    HW129834   3.002   5.104   4.997
 9645SOL    HW229835   3.036   5.246   4.923
 9646SOL     OW29836   3.821   4.981   2.595
 9646SOL    HW129837   3.731   4.988   2.638
 9646SOL    HW229838   3.823   5.036   2.512
 9647SOL     OW29839   6.517   3.213   0.472
 9647SOL    HW129840   6.577   3.291   0.454
 9647SOL    HW229841   6.459   3.197   0.393
 9648SOL     OW29842   4.786   3.162   0.759
 9648SOL    HW129843   4.804   3.171   0.661
 9648SOL    HW229844   4.801   3.251   0.803
 9649SOL     OW29845   2.239   5.632   0.507
 9649SOL    HW129846   2.190   5.699   0.562
 9649SOL    HW229847   2.182   5.550   0.496
 9650SOL     OW29848   6.698   6.562   1.803
 9650SOL    HW129849   6.711   6.660   1.818
 9650SOL    HW229850   6.751   6.510   1.869
 9651SOL     OW29851   0.540   1.057   6.398
 9651SOL    HW129852   0.635   1.032   6.414
 9651SOL    HW229853   0.504   1.009   6.319
 9652SOL     OW29854   0.602   5.696   2.948
 9652SOL    HW129855   0.536   5.621   2.942
 9652SOL    HW229856   0.690   5.667   2.911
 9653SOL     OW29857   5.964   4.906   4.288
 9653SOL    HW129858   6.039   4.856   4.331
 9653SOL    HW229859   5.913   4.957   4.357
 9654SOL     OW29860   2.514   2.847   1.764
 9654SOL    HW129861   2.587   2.781   1.745
 9654SOL    HW229862   2.448   2.846   1.689
 9655SOL     OW29863   6.602   2.052   0.231
 9655SOL    HW129864   6.527   2.048   0.297
 9655SOL    HW229865   6.675   2.110   0.266
 9656SOL     OW29866   3.351   0.601   2.833
 9656SOL    HW129867   3.382   0.640   2.746
 9656SOL    HW229868   3.268   0.648   2.862
 9657SOL     OW29869   6.525   0.415   4.621
 9657SOL    HW129870   6.460   0.404   4.696
 9657SOL    HW229871   6.576   0.330   4.608
 9658SOL     OW29872   6.683   2.422   2.137
 9658SOL    HW129873   6.716   2.417   2.231
 9658SOL    HW229874   6.599   2.476   2.133
 9659SOL     OW29875   0.474   4.614   7.006
 9659SOL    HW129876   0.417   4.587   0.059
 9659SOL    HW229877   0.448   4.562   6.925
 9660SOL     OW29878   0.649   5.070   0.226
 9660SOL    HW129879   0.611   5.049   0.316
 9660SOL    HW229880   0.576   5.068   0.158
 9661SOL     OW29881   4.085   6.681   0.839
 9661SOL    HW129882   3.999   6.650   0.877
 9661SOL    HW229883   4.119   6.760   0.891
 9662SOL     OW29884   6.439   1.036   4.315
 9662SOL    HW129885   6.363   0.998   4.369
 9662SOL    HW229886   6.492   0.961   4.275
 9663SOL     OW29887   2.471   5.650   2.662
 9663SOL    HW129888   2.401   5.578   2.655
 9663SOL    HW229889   2.483   5.693   2.573
 9664SOL     OW29890   3.532   6.166   2.167
 9664SOL    HW129891   3.494   6.084   2.126
 9664SOL    HW229892   3.620   6.187   2.124
 9665SOL     OW29893   5.696   4.207   4.474
 9665SOL    HW129894   5.631   4.142   4.512
 9665SOL    HW229895   5.696   4.291   4.528
 9666SOL     OW29896   5.657   4.733   3.782
 9666SOL    HW129897   5.650   4.655   3.844
 9666SOL    HW229898   5.567   4.776   3.771
 9667SOL     OW29899   4.088   3.753   3.899
 9667SOL    HW129900   4.081   3.788   3.805
 9667SOL    HW229901   4.047   3.818   3.962
 9668SOL     OW29902   0.221   0.667   5.708
 9668SOL    HW129903   0.203   0.643   5.803
 9668SOL    HW229904   0.223   0.583   5.653
 9669SOL     OW29905   1.326   5.899   0.590
 9669SOL    HW129906   1.390   5.876   0.663
 9669SOL    HW229907   1.255   5.960   0.626
 9670SOL     OW29908   5.133   5.017   6.987
 9670SOL    HW129909   5.076   5.067   0.029
 9670SOL    HW229910   5.133   5.067   6.900
 9671SOL     OW29911   6.975   6.026   5.611
 9671SOL    HW129912   0.019   6.069   5.551
 9671SOL    HW229913   6.988   6.057   5.705
 9672SOL     OW29914   0.351   6.261   4.599
 9672SOL    HW129915   0.263   6.306   4.584
 9672SOL    HW229916   0.387   6.229   4.511
 9673SOL     OW29917   2.911   3.724   6.419
 9673SOL    HW129918   2.870   3.634   6.430
 9673SOL    HW229919   3.004   3.723   6.458
 9674SOL     OW29920   3.530   6.128   2.580
 9674SOL    HW129921   3.509   6.224   2.595
 9674SOL    HW229922   3.598   6.119   2.508
 9675SOL     OW29923   6.614   2.007   1.643
 9675SOL    HW129924   6.641   1.913   1.664
 9675SOL    HW229925   6.676   2.071   1.688
 9676SOL     OW29926   0.183   3.561   4.346
 9676SOL    HW129927   0.255   3.623   4.315
 9676SOL    HW229928   0.185   3.477   4.291
 9677SOL     OW29929   1.683   3.182   5.916
 9677SOL    HW129930   1.706   3.108   5.979
 9677SOL    HW229931   1.676   3.268   5.966
 9678SOL     OW29932   3.086   3.076   3.411
 9678SOL    HW129933   3.044   3.052   3.323
 9678SOL    HW229934   3.170   3.023   3.423
 9679SOL     OW29935   0.970   2.982   1.815
 9679SOL    HW129936   1.061   2.979   1.776
 9679SOL    HW229937   0.971   3.034   1.900
 9680SOL     OW29938   5.774   5.671   3.640
 9680SOL    HW129939   5.800   5.598   3.577
 9680SOL    HW229940   5.856   5.707   3.685
 9681SOL     OW29941   2.345   0.754   2.871
 9681SOL    HW129942   2.305   0.695   2.801
 9681SOL    HW229943   2.306   0.846   2.863
 9682SOL     OW29944   6.385   4.513   2.958
 9682SOL    HW129945   6.470   4.558   2.983
 9682SOL    HW229946   6.404   4.434   2.901
 9683SOL     OW29947   4.733   5.878   6.836
 9683SOL    HW129948   4.795   5.828   6.896
 9683SOL    HW229949   4.711   5.821   6.757
 9684SOL     OW29950   1.206   3.312   4.846
 9684SOL    HW129951   1.115   3.272   4.835
 9684SOL    HW229952   1.214   3.351   4.937
 9685SOL     OW29953   1.293   2.765   0.043
 9685SOL    HW129954   1.201   2.803   0.033
 9685SOL    HW229955   1.351   2.832   0.090
 9686SOL     OW29956   6.125   0.718   1.780
 9686SOL    HW129957   6.220   0.749   1.785
 9686SOL    HW229958   6.064   0.794   1.803
 9687SOL     OW29959   3.224   0.540   3.965
 9687SOL    HW129960   3.245   0.488   4.048
 9687SOL    HW229961   3.279   0.506   3.890
 9688SOL     OW29962   0.163   1.286   3.026
 9688SOL    HW129963   0.241   1.243   2.981
 9688SOL    HW229964   0.161   1.383   3.002
 9689SOL     OW29965   2.458   6.173   6.112
 9689SOL    HW129966   2.478   6.092   6.167
 9689SOL    HW229967   2.393   6.149   6.040
 9690SOL     OW29968   6.405   4.465   1.248
 9690SOL    HW129969   6.500   4.442   1.270
 9690SOL    HW229970   6.403   4.542   1.185
 9691SOL     OW29971   1.910   4.624   2.140
 9691SOL    HW129972   1.898   4.528   2.163
 9691SOL    HW229973   2.004   4.652   2.162
 9692SOL     OW29974   2.528   5.729   1.892
 9692SOL    HW129975   2.513   5.827   1.882
 9692SOL    HW229976   2.616   5.705   1.851
 9693SOL     OW29977   6.179   5.718   1.713
 9693SOL    HW129978   6.119   5.694   1.637
 9693SOL    HW229979   6.211   5.812   1.701
 9694SOL     OW29980   1.749   2.665   6.969
 9694SOL    HW129981   1.666   2.612   6.951
 9694SOL    HW229982   1.759   2.680   0.043
 9695SOL     OW29983   6.441   4.299   1.565
 9695SOL    HW129984   6.349   4.325   1.593
 9695SOL    HW229985   6.478   4.368   1.503
 9696SOL     OW29986   4.053   3.585   1.489
 9696SOL    HW129987   4.152   3.593   1.480
 9696SOL    HW229988   4.029   3.489   1.506
 9697SOL     OW29989   1.009   5.696   0.270
 9697SOL    HW129990   1.030   5.694   0.368
 9697SOL    HW229991   0.922   5.650   0.253
 9698SOL     OW29992   6.076   1.922   4.928
 9698SOL    HW129993   6.023   1.840   4.947
 9698SOL    HW229994   6.014   1.999   4.912
 9699SOL     OW29995   1.859   3.485   0.308
 9699SOL    HW129996   1.802   3.421   0.359
 9699SOL    HW229997   1.816   3.575   0.308
 9700SOL     OW29998   3.386   4.137   4.885
 9700SOL    HW129999   3.364   4.097   4.973
 9700SOL    HW230000   3.302   4.164   4.838
 9701SOL     OW30001   4.952   5.033   5.079
 9701SOL    HW130002   4.922   5.064   4.989
 9701SOL    HW230003   4.872   5.016   5.136
 9702SOL     OW30004   4.619   0.971   0.667
 9702SOL    HW130005   4.544   1.016   0.716
 9702SOL    HW230006   4.681   0.929   0.733
 9703SOL     OW30007   3.034   6.180   4.200
 9703SOL    HW130008   2.942   6.200   4.234
 9703SOL    HW230009   3.028   6.116   4.123
 9704SOL     OW30010   3.550   0.123   3.212
 9704SOL    HW130011   3.510   0.214   3.202
 9704SOL    HW230012   3.629   0.114   3.151
 9705SOL     OW30013   3.580   3.905   0.562
 9705SOL    HW130014   3.487   3.881   0.533
 9705SOL    HW230015   3.617   3.833   0.620
 9706SOL     OW30016   5.644   3.295   2.834
 9706SOL    HW130017   5.662   3.333   2.924
 9706SOL    HW230018   5.562   3.338   2.796
 9707SOL     OW30019   2.835   5.455   2.301
 9707SOL    HW130020   2.761   5.481   2.240
 9707SOL    HW230021   2.913   5.423   2.247
 9708SOL     OW30022   2.292   1.539   3.207
 9708SOL    HW130023   2.265   1.445   3.189
 9708SOL    HW230024   2.353   1.571   3.134
 9709SOL     OW30025   1.738   5.867   2.922
 9709SOL    HW130026   1.826   5.908   2.944
 9709SOL    HW230027   1.752   5.772   2.893
 9710SOL     OW30028   0.572   0.436   3.191
 9710SOL    HW130029   0.600   0.340   3.192
 9710SOL    HW230030   0.482   0.445   3.149
 9711SOL     OW30031   1.011   3.801   5.433
 9711SOL    HW130032   0.951   3.747   5.374
 9711SOL    HW230033   1.106   3.772   5.419
 9712SOL     OW30034   5.373   1.928   3.856
 9712SOL    HW130035   5.337   1.837   3.873
 9712SOL    HW230036   5.387   1.941   3.758
 9713SOL     OW30037   0.095   5.083   2.658
 9713SOL    HW130038   0.030   5.121   2.723
 9713SOL    HW230039   0.184   5.126   2.671
 9714SOL     OW30040   2.012   2.258   1.326
 9714SOL    HW130041   2.067   2.305   1.396
 9714SOL    HW230042   1.938   2.319   1.297
 9715SOL     OW30043   5.009   5.766   4.920
 9715SOL    HW130044   5.090   5.809   4.880
 9715SOL    HW230045   4.931   5.828   4.914
 9716SOL     OW30046   4.211   2.179   6.498
 9716SOL    HW130047   4.208   2.237   6.417
 9716SOL    HW230048   4.137   2.112   6.494
 9717SOL     OW30049   5.328   5.407   4.035
 9717SOL    HW130050   5.398   5.363   3.978
 9717SOL    HW230051   5.335   5.371   4.129
 9718SOL     OW30052   4.328   3.506   1.454
 9718SOL    HW130053   4.313   3.441   1.528
 9718SOL    HW230054   4.401   3.570   1.479
 9719SOL     OW30055   0.627   1.618   0.049
 9719SOL    HW130056   0.601   1.648   6.981
 9719SOL    HW230057   0.557   1.648   0.114
 9720SOL     OW30058   6.771   0.372   2.215
 9720SOL    HW130059   6.797   0.411   2.126
 9720SOL    HW230060   6.689   0.418   2.249
 9721SOL     OW30061   6.764   3.957   2.730
 9721SOL    HW130062   6.746   4.038   2.674
 9721SOL    HW230063   6.859   3.958   2.761
 9722SOL     OW30064   0.934   0.327   4.222
 9722SOL    HW130065   0.975   0.318   4.131
 9722SOL    HW230066   0.838   0.296   4.218
 9723SOL     OW30067   0.102   1.023   3.761
 9723SOL    HW130068   0.157   1.003   3.843
 9723SOL    HW230069   0.162   1.028   3.681
 9724SOL     OW30070   3.404   2.483   1.490
 9724SOL    HW130071   3.447   2.554   1.434
 9724SOL    HW230072   3.435   2.491   1.584
 9725SOL     OW30073   4.131   3.421   5.703
 9725SOL    HW130074   4.054   3.473   5.740
 9725SOL    HW230075   4.211   3.480   5.697
 9726SOL     OW30076   4.782   6.745   4.770
 9726SOL    HW130077   4.849   6.813   4.799
 9726SOL    HW230078   4.782   6.739   4.670
 9727SOL     OW30079   1.654   2.604   5.820
 9727SOL    HW130080   1.656   2.698   5.854
 9727SOL    HW230081   1.739   2.558   5.845
 9728SOL     OW30082   2.838   5.913   6.822
 9728SOL    HW130083   2.823   5.830   6.876
 9728SOL    HW230084   2.783   5.910   6.739
 9729SOL     OW30085   2.943   5.070   2.671
 9729SOL    HW130086   2.953   5.124   2.755
 9729SOL    HW230087   2.895   5.124   2.602
 9730SOL     OW30088   6.603   2.888   2.644
 9730SOL    HW130089   6.537   2.961   2.658
 9730SOL    HW230090   6.568   2.824   2.575
 9731SOL     OW30091   3.769   4.913   1.019
 9731SOL    HW130092   3.805   4.906   0.926
 9731SOL    HW230093   3.717   4.830   1.041
 9732SOL     OW30094   6.286   6.420   2.701
 9732SOL    HW130095   6.237   6.453   2.621
 9732SOL    HW230096   6.309   6.497   2.761
 9733SOL     OW30097   5.138   4.421   6.156
 9733SOL    HW130098   5.224   4.449   6.113
 9733SOL    HW230099   5.093   4.502   6.194
 9734SOL     OW30100   5.440   2.579   4.330
 9734SOL    HW130101   5.450   2.650   4.399
 9734SOL    HW230102   5.529   2.563   4.285
 9735SOL     OW30103   1.594   4.540   1.394
 9735SOL    HW130104   1.544   4.522   1.309
 9735SOL    HW230105   1.667   4.472   1.404
 9736SOL     OW30106   3.586   1.026   0.651
 9736SOL    HW130107   3.524   0.950   0.668
 9736SOL    HW230108   3.579   1.091   0.727
 9737SOL     OW30109   4.073   2.184   5.043
 9737SOL    HW130110   4.118   2.273   5.034
 9737SOL    HW230111   4.027   2.178   5.132
 9738SOL     OW30112   1.376   0.871   2.752
 9738SOL    HW130113   1.284   0.840   2.772
 9738SOL    HW230114   1.428   0.798   2.708
 9739SOL     OW30115   5.220   4.451   1.629
 9739SOL    HW130116   5.158   4.465   1.705
 9739SOL    HW230117   5.293   4.388   1.656
 9740SOL     OW30118   6.929   4.740   3.079
 9740SOL    HW130119   6.978   4.677   3.019
 9740SOL    HW230120   6.837   4.704   3.097
 9741SOL     OW30121   4.552   2.409   2.045
 9741SOL    HW130122   4.588   2.496   2.011
 9741SOL    HW230123   4.488   2.371   1.978
 9742SOL     OW30124   5.100   1.522   4.002
 9742SOL    HW130125   5.094   1.476   4.090
 9742SOL    HW230126   5.011   1.563   3.980
 9743SOL     OW30127   1.641   2.953   6.114
 9743SOL    HW130128   1.647   2.855   6.132
 9743SOL    HW230129   1.564   2.992   6.166
 9744SOL     OW30130   2.020   0.920   1.953
 9744SOL    HW130131   2.010   0.823   1.930
 9744SOL    HW230132   1.957   0.974   1.897
 9745SOL     OW30133   0.201   2.421   5.166
 9745SOL    HW130134   0.183   2.490   5.097
 9745SOL    HW230135   0.122   2.415   5.228
 9746SOL     OW30136   6.067   0.827   4.875
 9746SOL    HW130137   6.073   0.882   4.792
 9746SOL    HW230138   6.159   0.813   4.913
 9747SOL     OW30139   0.582   6.840   6.255
 9747SOL    HW130140   0.616   6.907   6.188
 9747SOL    HW230141   0.539   6.888   6.331
 9748SOL     OW30142   0.360   6.128   4.348
 9748SOL    HW130143   0.430   6.107   4.279
 9748SOL    HW230144   0.269   6.113   4.308
 9749SOL     OW30145   0.640   4.451   4.212
 9749SOL    HW130146   0.540   4.458   4.206
 9749SOL    HW230147   0.682   4.523   4.158
 9750SOL     OW30148   4.318   4.706   3.448
 9750SOL    HW130149   4.342   4.678   3.356
 9750SOL    HW230150   4.379   4.663   3.514
 9751SOL     OW30151   1.868   2.536   0.678
 9751SOL    HW130152   1.869   2.436   0.673
 9751SOL    HW230153   1.893   2.565   0.770
 9752SOL     OW30154   3.987   1.403   5.924
 9752SOL    HW130155   3.992   1.306   5.945
 9752SOL    HW230156   3.958   1.416   5.829
 9753SOL     OW30157   7.018   5.379   5.535
 9753SOL    HW130158   6.951   5.453   5.531
 9753SOL    HW230159   6.979   5.296   5.495
 9754SOL     OW30160   1.073   1.410   6.234
 9754SOL    HW130161   0.983   1.454   6.235
 9754SOL    HW230162   1.127   1.444   6.310
 9755SOL     OW30163   4.048   4.795   5.419
 9755SOL    HW130164   3.953   4.790   5.391
 9755SOL    HW230165   4.058   4.863   5.492
 9756SOL     OW30166   5.896   2.679   6.319
 9756SOL    HW130167   5.892   2.723   6.409
 9756SOL    HW230168   5.841   2.731   6.255
 9757SOL     OW30169   6.242   2.646   3.786
 9757SOL    HW130170   6.261   2.592   3.868
 9757SOL    HW230171   6.250   2.588   3.705
 9758SOL     OW30172   2.781   0.306   6.799
 9758SOL    HW130173   2.697   0.274   6.842
 9758SOL    HW230174   2.788   0.268   6.706
 9759SOL     OW30175   3.594   6.112   0.868
 9759SOL    HW130176   3.668   6.059   0.909
 9759SOL    HW230177   3.509   6.060   0.873
 9760SOL     OW30178   5.921   4.507   6.099
 9760SOL    HW130179   5.994   4.459   6.146
 9760SOL    HW230180   5.936   4.502   6.000
 9761SOL     OW30181   5.491   5.663   1.619
 9761SOL    HW130182   5.411   5.699   1.666
 9761SOL    HW230183   5.513   5.572   1.656
 9762SOL     OW30184   2.450   1.571   5.184
 9762SOL    HW130185   2.437   1.473   5.168
 9762SOL    HW230186   2.381   1.623   5.133
 9763SOL     OW30187   2.703   1.616   0.773
 9763SOL    HW130188   2.793   1.622   0.729
 9763SOL    HW230189   2.715   1.609   0.872
 9764SOL     OW30190   0.987   2.011   2.220
 9764SOL    HW130191   1.007   1.995   2.317
 9764SOL    HW230192   1.068   2.052   2.176
 9765SOL     OW30193   0.298   1.671   5.711
 9765SOL    HW130194   0.268   1.764   5.733
 9765SOL    HW230195   0.329   1.669   5.616
 9766SOL     OW30196   2.593   0.524   2.731
 9766SOL    HW130197   2.610   0.616   2.768
 9766SOL    HW230198   2.609   0.524   2.632
 9767SOL     OW30199   5.274   0.451   5.047
 9767SOL    HW130200   5.224   0.365   5.053
 9767SOL    HW230201   5.296   0.483   5.139
 9768SOL     OW30202   4.578   2.541   2.330
 9768SOL    HW130203   4.627   2.480   2.266
 9768SOL    HW230204   4.596   2.512   2.423
 9769SOL     OW30205   0.797   1.743   1.556
 9769SOL    HW130206   0.856   1.662   1.553
 9769SOL    HW230207   0.835   1.813   1.495
 9770SOL     OW30208   5.812   4.859   6.354
 9770SOL    HW130209   5.755   4.927   6.402
 9770SOL    HW230210   5.754   4.785   6.321
 9771SOL     OW30211   3.915   5.644   6.049
 9771SOL    HW130212   3.946   5.560   6.092
 9771SOL    HW230213   3.842   5.624   5.983
 9772SOL     OW30214   6.539   0.391   1.520
 9772SOL    HW130215   6.563   0.384   1.617
 9772SOL    HW230216   6.453   0.343   1.504
 9773SOL     OW30217   6.111   5.775   2.956
 9773SOL    HW130218   6.083   5.784   2.860
 9773SOL    HW230219   6.209   5.757   2.961
 9774SOL     OW30220   0.259   4.901   3.296
 9774SOL    HW130221   0.234   4.805   3.307
 9774SOL    HW230222   0.350   4.916   3.333
 9775SOL     OW30223   2.417   2.682   4.429
 9775SOL    HW130224   2.379   2.736   4.354
 9775SOL    HW230225   2.421   2.586   4.403
 9776SOL     OW30226   0.436   5.479   4.816
 9776SOL    HW130227   0.504   5.421   4.770
 9776SOL    HW230228   0.453   5.575   4.792
 9777SOL     OW30229   5.306   4.711   6.291
 9777SOL    HW130230   5.374   4.640   6.306
 9777SOL    HW230231   5.345   4.800   6.312
 9778SOL     OW30232   4.317   0.793   2.690
 9778SOL    HW130233   4.255   0.855   2.738
 9778SOL    HW230234   4.358   0.730   2.755
 9779SOL     OW30235   2.421   1.878   6.101
 9779SOL    HW130236   2.518   1.894   6.083
 9779SOL    HW230237   2.376   1.965   6.121
 9780SOL     OW30238   3.695   4.572   0.204
 9780SOL    HW130239   3.682   4.655   0.150
 9780SOL    HW230240   3.653   4.584   0.294
 9781SOL     OW30241   1.747   5.080   4.366
 9781SOL    HW130242   1.777   5.022   4.442
 9781SOL    HW230243   1.813   5.154   4.352
 9782SOL     OW30244   6.635   0.376   1.122
 9782SOL    HW130245   6.706   0.343   1.060
 9782SOL    HW230246   6.676   0.397   1.211
 9783SOL     OW30247   4.760   1.245   2.390
 9783SOL    HW130248   4.791   1.333   2.354
 9783SOL    HW230249   4.836   1.199   2.434
 9784SOL     OW30250   4.911   0.958   3.887
 9784SOL    HW130251   4.882   0.902   3.964
 9784SOL    HW230252   4.908   1.054   3.913
 9785SOL     OW30253   0.626   3.126   1.588
 9785SOL    HW130254   0.654   3.178   1.508
 9785SOL    HW230255   0.692   3.053   1.607
 9786SOL     OW30256   2.551   6.654   4.850
 9786SOL    HW130257   2.524   6.639   4.754
 9786SOL    HW230258   2.650   6.650   4.858
 9787SOL     OW30259   5.366   4.241   1.743
 9787SOL    HW130260   5.316   4.176   1.686
 9787SOL    HW230261   5.462   4.242   1.717
 9788SOL     OW30262   0.497   1.054   5.585
 9788SOL    HW130263   0.573   1.066   5.521
 9788SOL    HW230264   0.488   0.957   5.607
 9789SOL     OW30265   1.896   5.647   4.633
 9789SOL    HW130266   1.940   5.708   4.699
 9789SOL    HW230267   1.928   5.554   4.648
 9790SOL     OW30268   6.518   1.987   4.614
 9790SOL    HW130269   6.556   1.951   4.700
 9790SOL    HW230270   6.501   2.085   4.623
 9791SOL     OW30271   0.919   2.711   0.938
 9791SOL    HW130272   1.000   2.678   0.986
 9791SOL    HW230273   0.928   2.808   0.920
 9792SOL     OW30274   4.595   5.541   1.974
 9792SOL    HW130275   4.650   5.545   1.890
 9792SOL    HW230276   4.558   5.632   1.993
 9793SOL     OW30277   4.406   6.126   2.477
 9793SOL    HW130278   4.438   6.073   2.555
 9793SOL    HW230279   4.384   6.219   2.506
 9794SOL     OW30280   3.396   2.876   6.842
 9794SOL    HW130281   3.320   2.893   6.779
 9794SOL    HW230282   3.361   2.835   6.926
 9795SOL     OW30283   1.944   3.598   4.192
 9795SOL    HW130284   2.007   3.638   4.258
 9795SOL    HW230285   1.898   3.519   4.234
 9796SOL     OW30286   3.247   5.335   0.038
 9796SOL    HW130287   3.332   5.345   7.011
 9796SOL    HW230288   3.261   5.366   0.132
 9797SOL     OW30289   4.994   2.963   5.166
 9797SOL    HW130290   4.995   2.880   5.222
 9797SOL    HW230291   4.915   3.019   5.191
 9798SOL     OW30292   1.771   2.024   1.575
 9798SOL    HW130293   1.717   2.012   1.659
 9798SOL    HW230294   1.816   2.113   1.577
 9799SOL     OW30295   3.040   3.829   2.074
 9799SOL    HW130296   3.019   3.731   2.079
 9799SOL    HW230297   3.012   3.873   2.159
 9800SOL     OW30298   4.367   5.187   6.317
 9800SOL    HW130299   4.394   5.282   6.302
 9800SOL    HW230300   4.430   5.144   6.381
 9801SOL     OW30301   4.252   4.705   6.893
 9801SOL    HW130302   4.261   4.724   6.991
 9801SOL    HW230303   4.184   4.767   6.853
 9802SOL     OW30304   6.926   3.635   1.135
 9802SOL    HW130305   6.882   3.641   1.224
 9802SOL    HW230306   7.009   3.691   1.134
 9803SOL     OW30307   6.272   1.066   6.582
 9803SOL    HW130308   6.321   1.041   6.666
 9803SOL    HW230309   6.185   1.109   6.606
 9804SOL     OW30310   5.409   5.359   4.327
 9804SOL    HW130311   5.486   5.320   4.277
 9804SOL    HW230312   5.401   5.456   4.305
 9805SOL     OW30313   2.898   4.562   0.205
 9805SOL    HW130314   2.870   4.650   0.244
 9805SOL    HW230315   2.820   4.521   0.158
 9806SOL     OW30316   6.767   1.671   2.842
 9806SOL    HW130317   6.826   1.732   2.789
 9806SOL    HW230318   6.676   1.667   2.800
 9807SOL     OW30319   3.438   2.718   0.531
 9807SOL    HW130320   3.499   2.656   0.582
 9807SOL    HW230321   3.490   2.764   0.459
 9808SOL     OW30322   0.717   1.317   4.785
 9808SOL    HW130323   0.800   1.317   4.729
 9808SOL    HW230324   0.639   1.288   4.729
 9809SOL     OW30325   1.391   0.931   4.784
 9809SOL    HW130326   1.302   0.897   4.813
 9809SOL    HW230327   1.430   0.990   4.855
 9810SOL     OW30328   3.813   1.124   3.620
 9810SOL    HW130329   3.829   1.222   3.610
 9810SOL    HW230330   3.717   1.104   3.601
 9811SOL     OW30331   1.218   6.707   2.660
 9811SOL    HW130332   1.186   6.728   2.752
 9811SOL    HW230333   1.140   6.682   2.602
 9812SOL     OW30334   5.067   2.683   5.406
 9812SOL    HW130335   5.024   2.598   5.378
 9812SOL    HW230336   5.155   2.663   5.449
 9813SOL     OW30337   6.681   4.759   7.001
 9813SOL    HW130338   6.586   4.732   7.015
 9813SOL    HW230339   6.685   4.857   6.981
 9814SOL     OW30340   6.929   7.002   5.397
 9814SOL    HW130341   6.908   6.904   5.407
 9814SOL    HW230342   6.950   0.016   5.487
 9815SOL     OW30343   6.714   4.088   3.210
 9815SOL    HW130344   6.811   4.067   3.216
 9815SOL    HW230345   6.673   4.038   3.133
 9816SOL     OW30346   7.002   6.955   6.271
 9816SOL    HW130347   6.910   6.948   6.232
 9816SOL    HW230348   0.046   6.945   6.198
 9817SOL     OW30349   3.001   7.011   6.750
 9817SOL    HW130350   2.914   0.028   6.723
 9817SOL    HW230351   3.009   6.919   6.710
 9818SOL     OW30352   1.062   6.533   3.446
 9818SOL    HW130353   1.042   6.629   3.427
 9818SOL    HW230354   0.997   6.497   3.512
 9819SOL     OW30355   6.942   3.484   4.378
 9819SOL    HW130356   0.010   3.514   4.400
 9819SOL    HW230357   6.878   3.560   4.389
 9820SOL     OW30358   4.030   1.736   5.984
 9820SOL    HW130359   4.028   1.832   6.013
 9820SOL    HW230360   4.002   1.730   5.888
 9821SOL     OW30361   3.939   3.324   1.471
 9821SOL    HW130362   3.884   3.271   1.406
 9821SOL    HW230363   3.939   3.277   1.560
 9822SOL     OW30364   3.512   6.430   5.489
 9822SOL    HW130365   3.437   6.491   5.517
 9822SOL    HW230366   3.551   6.386   5.570
 9823SOL     OW30367   2.601   6.631   3.221
 9823SOL    HW130368   2.578   6.542   3.261
 9823SOL    HW230369   2.674   6.619   3.154
 9824SOL     OW30370   0.942   5.833   5.016
 9824SOL    HW130371   1.016   5.780   5.059
 9824SOL    HW230372   0.920   5.912   5.073
 9825SOL     OW30373   6.106   6.606   5.029
 9825SOL    HW130374   6.045   6.547   4.978
 9825SOL    HW230375   6.113   6.695   4.984
 9826SOL     OW30376   2.293   5.527   5.130
 9826SOL    HW130377   2.306   5.431   5.105
 9826SOL    HW230378   2.337   5.586   5.061
 9827SOL     OW30379   1.733   4.773   1.977
 9827SOL    HW130380   1.790   4.713   2.034
 9827SOL    HW230381   1.720   4.730   1.887
 9828SOL     OW30382   4.486   2.481   4.493
 9828SOL    HW130383   4.492   2.576   4.463
 9828SOL    HW230384   4.413   2.435   4.443
 9829SOL     OW30385   4.768   5.634   5.707
 9829SOL    HW130386   4.672   5.623   5.682
 9829SOL    HW230387   4.826   5.590   5.639
 9830SOL     OW30388   5.683   1.663   3.375
 9830SOL    HW130389   5.751   1.722   3.332
 9830SOL    HW230390   5.592   1.693   3.350
 9831SOL     OW30391   0.654   4.310   2.567
 9831SOL    HW130392   0.613   4.294   2.657
 9831SOL    HW230393   0.740   4.360   2.578
 9832SOL     OW30394   4.522   5.549   4.855
 9832SOL    HW130395   4.457   5.480   4.825
 9832SOL    HW230396   4.528   5.621   4.786
 9833SOL     OW30397   3.994   3.900   3.694
 9833SOL    HW130398   3.937   3.818   3.687
 9833SOL    HW230399   3.937   3.978   3.719
 9834SOL     OW30400   2.603   6.505   5.720
 9834SOL    HW130401   2.635   6.596   5.747
 9834SOL    HW230402   2.679   6.454   5.679
 9835SOL     OW30403   4.020   3.908   4.122
 9835SOL    HW130404   3.967   3.969   4.062
 9835SOL    HW230405   4.011   3.940   4.217
 9836SOL     OW30406   0.271   3.962   5.940
 9836SOL    HW130407   0.303   3.890   6.001
 9836SOL    HW230408   0.207   3.923   5.873
 9837SOL     OW30409   5.761   1.966   3.342
 9837SOL    HW130410   5.676   1.946   3.391
 9837SOL    HW230411   5.830   1.999   3.406
 9838SOL     OW30412   2.066   6.970   1.384
 9838SOL    HW130413   1.977   6.926   1.398
 9838SOL    HW230414   2.137   6.916   1.428
 9839SOL     OW30415   4.952   0.042   3.804
 9839SOL    HW130416   4.940   0.060   3.706
 9839SOL    HW230417   4.897   6.988   3.830
 9840SOL     OW30418   6.455   1.488   6.952
 9840SOL    HW130419   6.530   1.423   6.970
 9840SOL    HW230420   6.427   1.532   0.012
 9841SOL     OW30421   0.064   6.546   2.942
 9841SOL    HW130422   0.103   6.623   2.993
 9841SOL    HW230423   6.989   6.557   2.935
 9842SOL     OW30424   3.179   0.742   6.723
 9842SOL    HW130425   3.089   0.711   6.756
 9842SOL    HW230426   3.249   0.675   6.748
 9843SOL     OW30427   0.421   0.325   1.310
 9843SOL    HW130428   0.490   0.324   1.237
 9843SOL    HW230429   0.415   0.234   1.351
 9844SOL     OW30430   4.841   0.356   4.157
 9844SOL    HW130431   4.867   0.302   4.077
 9844SOL    HW230432   4.922   0.401   4.195
 9845SOL     OW30433   1.849   3.495   2.685
 9845SOL    HW130434   1.808   3.486   2.595
 9845SOL    HW230435   1.949   3.501   2.676
 9846SOL     OW30436   6.257   2.447   1.738
 9846SOL    HW130437   6.336   2.508   1.733
 9846SOL    HW230438   6.174   2.501   1.754
 9847SOL     OW30439   3.831   4.233   6.548
 9847SOL    HW130440   3.888   4.308   6.515
 9847SOL    HW230441   3.889   4.166   6.594
 9848SOL     OW30442   3.440   3.922   5.618
 9848SOL    HW130443   3.455   3.932   5.519
 9848SOL    HW230444   3.343   3.905   5.635
 9849SOL     OW30445   0.681   2.557   4.341
 9849SOL    HW130446   0.585   2.573   4.320
 9849SOL    HW230447   0.717   2.485   4.282
 9850SOL     OW30448   1.973   0.155   4.266
 9850SOL    HW130449   2.069   0.146   4.293
 9850SOL    HW230450   1.930   0.065   4.264
 9851SOL     OW30451   3.825   5.322   4.942
 9851SOL    HW130452   3.855   5.393   5.004
 9851SOL    HW230453   3.821   5.234   4.990
 9852SOL     OW30454   2.186   0.005   0.025
 9852SOL    HW130455   2.175   0.089   6.996
 9852SOL    HW230456   2.235   0.025   0.109
 9853SOL     OW30457   0.157   4.464   3.722
 9853SOL    HW130458   0.073   4.444   3.671
 9853SOL    HW230459   0.169   4.396   3.794
 9854SOL     OW30460   0.964   4.618   6.162
 9854SOL    HW130461   1.044   4.568   6.195
 9854SOL    HW230462   0.888   4.554   6.149
 9855SOL     OW30463   1.130   5.095   0.770
 9855SOL    HW130464   1.074   5.016   0.745
 9855SOL    HW230465   1.191   5.070   0.846
 9856SOL     OW30466   5.655   3.852   3.166
 9856SOL    HW130467   5.685   3.761   3.194
 9856SOL    HW230468   5.666   3.915   3.243
 9857SOL     OW30469   4.480   0.295   5.513
 9857SOL    HW130470   4.514   0.292   5.607
 9857SOL    HW230471   4.557   0.295   5.449
 9858SOL     OW30472   6.667   6.004   1.769
 9858SOL    HW130473   6.661   5.994   1.869
 9858SOL    HW230474   6.665   6.101   1.745
 9859SOL     OW30475   0.105   5.346   3.115
 9859SOL    HW130476   0.129   5.281   3.187
 9859SOL    HW230477   0.008   5.337   3.093
 9860SOL     OW30478   1.425   2.947   4.677
 9860SOL    HW130479   1.390   3.041   4.680
 9860SOL    HW230480   1.438   2.914   4.771
 9861SOL     OW30481   3.623   2.101   2.664
 9861SOL    HW130482   3.640   2.116   2.567
 9861SOL    HW230483   3.574   2.015   2.676
 9862SOL     OW30484   1.186   4.373   0.096
 9862SOL    HW130485   1.219   4.314   0.171
 9862SOL    HW230486   1.205   4.469   0.119
 9863SOL     OW30487   4.245   6.096   1.360
 9863SOL    HW130488   4.162   6.151   1.357
 9863SOL    HW230489   4.320   6.150   1.397
 9864SOL     OW30490   2.405   5.461   5.505
 9864SOL    HW130491   2.395   5.529   5.578
 9864SOL    HW230492   2.477   5.396   5.530
 9865SOL     OW30493   0.973   5.271   5.856
 9865SOL    HW130494   0.978   5.207   5.933
 9865SOL    HW230495   1.043   5.341   5.866
 9866SOL     OW30496   6.853   5.142   5.447
 9866SOL    HW130497   6.867   5.043   5.437
 9866SOL    HW230498   6.768   5.159   5.496
 9867SOL     OW30499   3.881   1.863   2.522
 9867SOL    HW130500   3.916   1.944   2.569
 9867SOL    HW230501   3.929   1.851   2.435
 9868SOL     OW30502   2.623   4.618   3.957
 9868SOL    HW130503   2.571   4.545   4.001
 9868SOL    HW230504   2.619   4.606   3.857
 9869SOL     OW30505   6.576   2.739   0.758
 9869SOL    HW130506   6.536   2.805   0.822
 9869SOL    HW230507   6.618   2.664   0.810
 9870SOL     OW30508   2.223   2.044   2.421
 9870SOL    HW130509   2.177   2.084   2.341
 9870SOL    HW230510   2.168   2.061   2.503
 9871SOL     OW30511   5.382   5.406   3.492
 9871SOL    HW130512   5.311   5.419   3.423
 9871SOL    HW230513   5.357   5.456   3.575
 9872SOL     OW30514   0.675   4.804   5.926
 9872SOL    HW130515   0.647   4.898   5.944
 9872SOL    HW230516   0.594   4.747   5.915
 9873SOL     OW30517   1.342   1.198   5.374
 9873SOL    HW130518   1.287   1.270   5.331
 9873SOL    HW230519   1.345   1.119   5.313
 9874SOL     OW30520   0.109   2.655   5.062
 9874SOL    HW130521   0.200   2.658   5.019
 9874SOL    HW230522   0.096   2.736   5.118
 9875SOL     OW30523   6.312   5.965   1.123
 9875SOL    HW130524   6.342   6.060   1.117
 9875SOL    HW230525   6.386   5.905   1.090
 9876SOL     OW30526   0.914   6.216   3.218
 9876SOL    HW130527   0.952   6.171   3.299
 9876SOL    HW230528   0.831   6.265   3.244
 9877SOL     OW30529   0.750   5.035   5.259
 9877SOL    HW130530   0.734   4.937   5.272
 9877SOL    HW230531   0.807   5.069   5.334
 9878SOL     OW30532   3.214   2.913   6.653
 9878SOL    HW130533   3.184   2.992   6.599
 9878SOL    HW230534   3.134   2.860   6.682
 9879SOL     OW30535   6.970   5.164   5.877
 9879SOL    HW130536   6.929   5.104   5.946
 9879SOL    HW230537   6.899   5.222   5.837
 9880SOL     OW30538   2.590   0.897   0.859
 9880SOL    HW130539   2.516   0.944   0.907
 9880SOL    HW230540   2.639   0.838   0.923
 9881SOL     OW30541   6.131   1.564   3.825
 9881SOL    HW130542   6.166   1.488   3.880
 9881SOL    HW230543   6.189   1.644   3.838
 9882SOL     OW30544   3.260   3.127   5.260
 9882SOL    HW130545   3.356   3.125   5.231
 9882SOL    HW230546   3.203   3.087   5.189
 9883SOL     OW30547   2.049   0.008   2.287
 9883SOL    HW130548   2.059   0.107   2.285
 9883SOL    HW230549   2.136   6.991   2.312
 9884SOL     OW30550   2.939   2.570   5.344
 9884SOL    HW130551   2.993   2.497   5.301
 9884SOL    HW230552   3.000   2.640   5.380
 9885SOL     OW30553   5.031   2.929   5.530
 9885SOL    HW130554   4.934   2.916   5.549
 9885SOL    HW230555   5.067   2.846   5.486
 9886SOL     OW30556   3.535   5.743   1.341
 9886SOL    HW130557   3.474   5.777   1.412
 9886SOL    HW230558   3.629   5.741   1.375
 9887SOL     OW30559   2.964   1.986   6.481
 9887SOL    HW130560   2.955   1.932   6.398
 9887SOL    HW230561   3.059   1.984   6.512
 9888SOL     OW30562   6.505   6.747   3.467
 9888SOL    HW130563   6.513   6.837   3.510
 9888SOL    HW230564   6.409   6.719   3.466
 9889SOL     OW30565   6.878   6.076   3.043
 9889SOL    HW130566   6.834   6.161   3.013
 9889SOL    HW230567   6.840   5.999   2.991
 9890SOL     OW30568   0.809   3.398   2.209
 9890SOL    HW130569   0.745   3.388   2.133
 9890SOL    HW230570   0.899   3.425   2.173
 9891SOL     OW30571   5.489   5.406   1.747
 9891SOL    HW130572   5.517   5.313   1.725
 9891SOL    HW230573   5.480   5.415   1.847
 9892SOL     OW30574   1.396   5.472   3.854
 9892SOL    HW130575   1.319   5.440   3.910
 9892SOL    HW230576   1.375   5.562   3.818
 9893SOL     OW30577   5.355   5.028   4.654
 9893SOL    HW130578   5.409   4.949   4.626
 9893SOL    HW230579   5.307   5.007   4.740
 9894SOL     OW30580   4.648   2.715   5.562
 9894SOL    HW130581   4.599   2.708   5.475
 9894SOL    HW230582   4.648   2.810   5.593
 9895SOL     OW30583   5.724   1.822   0.003
 9895SOL    HW130584   5.808   1.846   0.053
 9895SOL    HW230585   5.671   1.906   7.010
 9896SOL     OW30586   4.526   3.058   6.994
 9896SOL    HW130587   4.534   3.060   6.894
 9896SOL    HW230588   4.539   3.150   0.005
 9897SOL     OW30589   6.886   1.788   3.853
 9897SOL    HW130590   6.814   1.846   3.814
 9897SOL    HW230591   6.957   1.845   3.894
 9898SOL     OW30592   1.214   4.923   5.809
 9898SOL    HW130593   1.159   4.840   5.806
 9898SOL    HW230594   1.256   4.933   5.899
 9899SOL     OW30595   4.773   4.967   2.471
 9899SOL    HW130596   4.756   4.977   2.569
 9899SOL    HW230597   4.746   5.051   2.423
 9900SOL     OW30598   0.993   3.669   3.498
 9900SOL    HW130599   1.012   3.650   3.595
 9900SOL    HW230600   1.077   3.695   3.452
 9901SOL     OW30601   2.611   1.589   5.802
 9901SOL    HW130602   2.671   1.565   5.725
 9901SOL    HW230603   2.570   1.679   5.785
 9902SOL     OW30604   4.576   3.568   0.381
 9902SOL    HW130605   4.506   3.623   0.334
 9902SOL    HW230606   4.587   3.481   0.333
 9903SOL     OW30607   3.662   0.737   1.311
 9903SOL    HW130608   3.754   0.771   1.292
 9903SOL    HW230609   3.620   0.705   1.226
 9904SOL     OW30610   0.225   0.250   1.990
 9904SOL    HW130611   0.270   0.211   2.070
 9904SOL    HW230612   0.172   0.330   2.017
 9905SOL     OW30613   1.822   6.033   6.389
 9905SOL    HW130614   1.800   5.979   6.470
 9905SOL    HW230615   1.895   6.098   6.412
 9906SOL     OW30616   3.777   3.842   5.881
 9906SOL    HW130617   3.722   3.758   5.876
 9906SOL    HW230618   3.870   3.819   5.909
 9907SOL     OW30619   1.439   6.484   2.656
 9907SOL    HW130620   1.349   6.491   2.611
 9907SOL    HW230621   1.434   6.522   2.748
 9908SOL     OW30622   0.972   3.166   4.834
 9908SOL    HW130623   0.909   3.203   4.902
 9908SOL    HW230624   0.924   3.154   4.747
 9909SOL     OW30625   3.295   0.059   2.809
 9909SOL    HW130626   3.344   6.999   2.830
 9909SOL    HW230627   3.209   0.038   2.762
 9910SOL     OW30628   1.027   4.558   1.485
 9910SOL    HW130629   1.005   4.463   1.509
 9910SOL    HW230630   1.102   4.590   1.542
 9911SOL     OW30631   3.898   4.842   3.245
 9911SOL    HW130632   3.866   4.903   3.317
 9911SOL    HW230633   3.993   4.862   3.222
 9912SOL     OW30634   4.086   0.143   1.279
 9912SOL    HW130635   4.146   0.131   1.200
 9912SOL    HW230636   4.138   0.187   1.353
 9913SOL     OW30637   4.406   2.317   2.526
 9913SOL    HW130638   4.489   2.371   2.540
 9913SOL    HW230639   4.340   2.339   2.598
 9914SOL     OW30640   2.023   5.592   5.532
 9914SOL    HW130641   1.926   5.590   5.508
 9914SOL    HW230642   2.077   5.547   5.461
 9915SOL     OW30643   5.539   3.784   4.095
 9915SOL    HW130644   5.511   3.740   4.180
 9915SOL    HW230645   5.626   3.831   4.108
 9916SOL     OW30646   2.495   3.296   0.644
 9916SOL    HW130647   2.524   3.236   0.719
 9916SOL    HW230648   2.439   3.244   0.580
 9917SOL     OW30649   2.106   3.337   5.021
 9917SOL    HW130650   2.144   3.423   4.987
 9917SOL    HW230651   2.132   3.263   4.959
 9918SOL     OW30652   2.191   0.987   4.818
 9918SOL    HW130653   2.254   0.914   4.793
 9918SOL    HW230654   2.099   0.963   4.787
 9919SOL     OW30655   0.235   5.287   2.796
 9919SOL    HW130656   0.294   5.304   2.717
 9919SOL    HW230657   0.275   5.213   2.851
 9920SOL     OW30658   4.376   6.394   2.496
 9920SOL    HW130659   4.452   6.419   2.437
 9920SOL    HW230660   4.294   6.444   2.466
 9921SOL     OW30661   4.701   0.134   3.433
 9921SOL    HW130662   4.612   0.144   3.479
 9921SOL    HW230663   4.705   0.198   3.355
 9922SOL     OW30664   4.916   3.407   1.515
 9922SOL    HW130665   4.939   3.440   1.423
 9922SOL    HW230666   4.817   3.403   1.525
 9923SOL     OW30667   6.515   0.808   6.098
 9923SOL    HW130668   6.420   0.792   6.125
 9923SOL    HW230669   6.564   0.720   6.095
 9924SOL     OW30670   4.955   1.053   2.766
 9924SOL    HW130671   4.988   1.059   2.671
 9924SOL    HW230672   4.988   1.131   2.818
 9925SOL     OW30673   2.988   2.252   4.738
 9925SOL    HW130674   2.976   2.234   4.836
 9925SOL    HW230675   3.011   2.349   4.725
 9926SOL     OW30676   1.484   1.035   6.756
 9926SOL    HW130677   1.401   0.980   6.742
 9926SOL    HW230678   1.475   1.122   6.709
 9927SOL     OW30679   0.732   2.108   2.285
 9927SOL    HW130680   0.815   2.070   2.244
 9927SOL    HW230681   0.751   2.139   2.378
 9928SOL     OW30682   6.605   3.306   2.821
 9928SOL    HW130683   6.671   3.237   2.850
 9928SOL    HW230684   6.640   3.354   2.740
 9929SOL     OW30685   1.736   3.943   5.640
 9929SOL    HW130686   1.759   4.027   5.591
 9929SOL    HW230687   1.730   3.963   5.738
 9930SOL     OW30688   0.410   5.344   0.249
 9930SOL    HW130689   0.438   5.258   0.206
 9930SOL    HW230690   0.379   5.407   0.178
 9931SOL     OW30691   2.849   5.229   0.051
 9931SOL    HW130692   2.871   5.325   0.034
 9931SOL    HW230693   2.925   5.172   0.023
 9932SOL     OW30694   1.812   2.162   0.987
 9932SOL    HW130695   1.830   2.068   1.015
 9932SOL    HW230696   1.720   2.188   1.017
 9933SOL     OW30697   0.735   1.307   2.269
 9933SOL    HW130698   0.686   1.374   2.212
 9933SOL    HW230699   0.781   1.241   2.209
 9934SOL     OW30700   4.591   1.671   6.746
 9934SOL    HW130701   4.682   1.672   6.706
 9934SOL    HW230702   4.524   1.644   6.677
 9935SOL     OW30703   2.834   2.182   1.092
 9935SOL    HW130704   2.793   2.169   1.182
 9935SOL    HW230705   2.785   2.127   1.025
 9936SOL     OW30706   5.929   6.197   6.198
 9936SOL    HW130707   5.848   6.149   6.165
 9936SOL    HW230708   5.917   6.296   6.185
 9937SOL     OW30709   1.268   0.236   3.453
 9937SOL    HW130710   1.360   0.211   3.483
 9937SOL    HW230711   1.274   0.287   3.368
 9938SOL     OW30712   6.761   1.282   3.802
 9938SOL    HW130713   6.851   1.248   3.829
 9938SOL    HW230714   6.697   1.267   3.877
 9939SOL     OW30715   2.745   3.976   1.297
 9939SOL    HW130716   2.757   3.925   1.382
 9939SOL    HW230717   2.834   4.012   1.267
 9940SOL     OW30718   0.264   1.001   3.545
 9940SOL    HW130719   0.211   0.989   3.461
 9940SOL    HW230720   0.329   0.925   3.554
 9941SOL     OW30721   5.458   4.993   0.562
 9941SOL    HW130722   5.430   4.998   0.658
 9941SOL    HW230723   5.490   4.901   0.541
 9942SOL     OW30724   5.435   5.775   3.106
 9942SOL    HW130725   5.481   5.686   3.106
 9942SOL    HW230726   5.487   5.839   3.048
 9943SOL     OW30727   1.323   3.695   6.050
 9943SOL    HW130728   1.265   3.704   6.131
 9943SOL    HW230729   1.271   3.720   5.968
 9944SOL     OW30730   1.017   5.631   6.328
 9944SOL    HW130731   0.942   5.569   6.352
 9944SOL    HW230732   1.033   5.695   6.403
 9945SOL     OW30733   6.567   3.604   6.695
 9945SOL    HW130734   6.626   3.525   6.711
 9945SOL    HW230735   6.611   3.665   6.629
 9946SOL     OW30736   4.835   2.150   1.608
 9946SOL    HW130737   4.830   2.061   1.653
 9946SOL    HW230738   4.748   2.198   1.620
 9947SOL     OW30739   0.039   1.977   3.365
 9947SOL    HW130740   0.023   1.892   3.314
 9947SOL    HW230741   0.028   1.959   3.463
 9948SOL     OW30742   5.644   0.340   4.565
 9948SOL    HW130743   5.681   0.265   4.621
 9948SOL    HW230744   5.715   0.370   4.500
 9949SOL     OW30745   6.693   4.606   3.152
 9949SOL    HW130746   6.659   4.640   3.064
 9949SOL    HW230747   6.616   4.594   3.215
 9950SOL     OW30748   4.966   4.184   5.388
 9950SOL    HW130749   4.955   4.085   5.402
 9950SOL    HW230750   5.063   4.208   5.395
 9951SOL     OW30751   6.955   1.884   3.002
 9951SOL    HW130752   6.980   1.800   3.051
 9951SOL    HW230753   6.858   1.904   3.017
 9952SOL     OW30754   1.376   4.412   2.223
 9952SOL    HW130755   1.299   4.403   2.160
 9952SOL    HW230756   1.374   4.503   2.265
 9953SOL     OW30757   5.995   3.742   4.086
 9953SOL    HW130758   5.968   3.649   4.112
 9953SOL    HW230759   5.938   3.773   4.010
 9954SOL     OW30760   3.277   0.764   0.909
 9954SOL    HW130761   3.196   0.722   0.869
 9954SOL    HW230762   3.252   0.850   0.953
 9955SOL     OW30763   5.444   4.794   1.340
 9955SOL    HW130764   5.364   4.752   1.381
 9955SOL    HW230765   5.527   4.752   1.378
 9956SOL     OW30766   2.086   3.091   3.777
 9956SOL    HW130767   2.097   3.145   3.861
 9956SOL    HW230768   2.109   3.148   3.698
 9957SOL     OW30769   5.483   0.508   0.731
 9957SOL    HW130770   5.559   0.556   0.774
 9957SOL    HW230771   5.469   0.420   0.777
 9958SOL     OW30772   5.491   5.638   0.435
 9958SOL    HW130773   5.494   5.561   0.498
 9958SOL    HW230774   5.573   5.695   0.448
 9959SOL     OW30775   4.865   5.597   0.292
 9959SOL    HW130776   4.942   5.542   0.324
 9959SOL    HW230777   4.781   5.542   0.294
 9960SOL     OW30778   6.864   0.300   0.363
 9960SOL    HW130779   6.853   0.273   0.459
 9960SOL    HW230780   6.914   0.387   0.359
 9961SOL     OW30781   3.362   5.657   0.732
 9961SOL    HW130782   3.286   5.688   0.790
 9961SOL    HW230783   3.389   5.565   0.760
 9962SOL     OW30784   3.501   0.566   1.524
 9962SOL    HW130785   3.565   0.605   1.458
 9962SOL    HW230786   3.494   0.467   1.509
 9963SOL     OW30787   0.887   0.336   5.589
 9963SOL    HW130788   0.952   0.329   5.664
 9963SOL    HW230789   0.917   0.408   5.526
 9964SOL     OW30790   4.288   4.815   6.439
 9964SOL    HW130791   4.301   4.908   6.473
 9964SOL    HW230792   4.227   4.817   6.360
 9965SOL     OW30793   3.190   5.198   3.764
 9965SOL    HW130794   3.169   5.221   3.859
 9965SOL    HW230795   3.192   5.099   3.754
 9966SOL     OW30796   3.430   5.221   2.851
 9966SOL    HW130797   3.482   5.305   2.835
 9966SOL    HW230798   3.366   5.235   2.927
 9967SOL     OW30799   0.064   0.169   3.199
 9967SOL    HW130800   7.018   0.223   3.245
 9967SOL    HW230801   0.051   0.174   3.100
 9968SOL     OW30802   4.386   6.660   6.988
 9968SOL    HW130803   4.295   6.619   6.987
 9968SOL    HW230804   4.439   6.626   6.911
 9969SOL     OW30805   0.331   5.738   4.235
 9969SOL    HW130806   0.410   5.677   4.244
 9969SOL    HW230807   0.321   5.792   4.319
 9970SOL     OW30808   6.466   3.454   2.056
 9970SOL    HW130809   6.444   3.551   2.045
 9970SOL    HW230810   6.471   3.431   2.153
 9971SOL     OW30811   0.364   5.171   4.242
 9971SOL    HW130812   0.384   5.222   4.326
 9971SOL    HW230813   0.309   5.228   4.181
 9972SOL     OW30814   3.498   4.214   5.919
 9972SOL    HW130815   3.559   4.154   5.867
 9972SOL    HW230816   3.403   4.186   5.903
 9973SOL     OW30817   2.368   2.161   3.357
 9973SOL    HW130818   2.466   2.178   3.349
 9973SOL    HW230819   2.336   2.191   3.447
 9974SOL     OW30820   1.040   2.259   3.081
 9974SOL    HW130821   1.064   2.239   3.176
 9974SOL    HW230822   1.115   2.307   3.037
 9975SOL     OW30823   2.554   4.496   6.880
 9975SOL    HW130824   2.521   4.561   6.811
 9975SOL    HW230825   2.620   4.433   6.839
 9976SOL     OW30826   4.138   5.291   5.774
 9976SOL    HW130827   4.087   5.361   5.823
 9976SOL    HW230828   4.078   5.249   5.705
 9977SOL     OW30829   4.612   0.011   5.481
 9977SOL    HW130830   4.546   0.008   5.406
 9977SOL    HW230831   4.565   7.014   5.567
 9978SOL     OW30832   1.017   3.152   6.780
 9978SOL    HW130833   0.972   3.216   6.717
 9978SOL    HW230834   1.066   3.204   6.851
 9979SOL     OW30835   3.553   3.517   5.075
 9979SOL    HW130836   3.520   3.478   4.989
 9979SOL    HW230837   3.503   3.476   5.151
 9980SOL     OW30838   1.687   1.538   1.300
 9980SOL    HW130839   1.783   1.538   1.272
 9980SOL    HW230840   1.670   1.616   1.361
 9981SOL     OW30841   6.360   1.632   0.154
 9981SOL    HW130842   6.338   1.659   0.248
 9981SOL    HW230843   6.353   1.712   0.094
 9982SOL     OW30844   1.897   2.053   4.456
 9982SOL    HW130845   1.819   2.051   4.394
 9982SOL    HW230846   1.884   2.128   4.522
 9983SOL     OW30847   1.174   3.353   2.539
 9983SOL    HW130848   1.228   3.299   2.604
 9983SOL    HW230849   1.210   3.447   2.536
 9984SOL     OW30850   0.173   5.036   1.102
 9984SOL    HW130851   0.103   4.965   1.095
 9984SOL    HW230852   0.251   5.001   1.153
 9985SOL     OW30853   5.001   4.672   0.235
 9985SOL    HW130854   5.089   4.700   0.197
 9985SOL    HW230855   5.010   4.583   0.279
 9986SOL     OW30856   5.740   5.368   0.389
 9986SOL    HW130857   5.706   5.331   0.303
 9986SOL    HW230858   5.747   5.295   0.457
 9987SOL     OW30859   5.967   2.568   1.414
 9987SOL    HW130860   6.039   2.582   1.346
 9987SOL    HW230861   5.899   2.504   1.378
 9988SOL     OW30862   5.667   6.846   3.696
 9988SOL    HW130863   5.641   6.905   3.619
 9988SOL    HW230864   5.637   6.888   3.782
 9989SOL     OW30865   0.328   5.833   2.277
 9989SOL    HW130866   0.426   5.850   2.288
 9989SOL    HW230867   0.305   5.841   2.180
 9990SOL     OW30868   0.254   6.859   3.443
 9990SOL    HW130869   0.300   6.941   3.409
 9990SOL    HW230870   0.236   6.870   3.541
 9991SOL     OW30871   1.825   5.099   3.042
 9991SOL    HW130872   1.867   5.013   3.069
 9991SOL    HW230873   1.748   5.081   2.982
 9992SOL     OW30874   2.442   5.057   0.661
 9992SOL    HW130875   2.373   4.989   0.636
 9992SOL    HW230876   2.533   5.017   0.654
 9993SOL     OW30877   3.855   6.874   4.820
 9993SOL    HW130878   3.908   6.794   4.848
 9993SOL    HW230879   3.833   6.929   4.901
 9994SOL     OW30880   5.938   5.214   4.752
 9994SOL    HW130881   5.933   5.159   4.835
 9994SOL    HW230882   5.856   5.198   4.697
 9995SOL     OW30883   3.594   1.455   5.799
 9995SOL    HW130884   3.552   1.546   5.802
 9995SOL    HW230885   3.523   1.386   5.789
 9996SOL     OW30886   2.775   3.650   0.613
 9996SOL    HW130887   2.718   3.645   0.531
 9996SOL    HW230888   2.792   3.746   0.636
 9997SOL     OW30889   6.242   2.958   3.473
 9997SOL    HW130890   6.241   2.935   3.570
 9997SOL    HW230891   6.226   2.876   3.419
 9998SOL     OW30892   5.124   4.522   2.675
 9998SOL    HW130893   5.150   4.526   2.771
 9998SOL    HW230894   5.179   4.452   2.628
 9999SOL     OW30895   0.942   6.717   3.905
 9999SOL    HW130896   0.913   6.808   3.875
 9999SOL    HW230897   0.863   6.656   3.909
10000SOL     OW30898   4.631   2.532   1.068
10000SOL    HW130899   4.719   2.503   1.031
10000SOL    HW230900   4.557   2.499   1.010
10001SOL     OW30901   3.861   6.148   1.811
10001SOL    HW130902   3.931   6.111   1.872
10001SOL    HW230903   3.815   6.072   1.765
10002SOL     OW30904   2.997   1.234   1.916
10002SOL    HW130905   2.990   1.140   1.948
10002SOL    HW230906   2.965   1.239   1.821
10003SOL     OW30907   1.311   0.904   3.699
10003SOL    HW130908   1.402   0.871   3.674
10003SOL    HW230909   1.318   0.970   3.774
10004SOL     OW30910   6.354   4.445   4.729
10004SOL    HW130911   6.282   4.448   4.798
10004SOL    HW230912   6.435   4.400   4.767
10005SOL     OW30913   2.170   5.015   3.356
10005SOL    HW130914   2.227   4.964   3.420
10005SOL    HW230915   2.100   5.066   3.406
10006SOL     OW30916   5.921   0.580   5.424
10006SOL    HW130917   5.825   0.596   5.401
10006SOL    HW230918   5.979   0.613   5.349
10007SOL     OW30919   1.370   4.890   4.266
10007SOL    HW130920   1.356   4.868   4.363
10007SOL    HW230921   1.438   4.963   4.258
10008SOL     OW30922   3.870   1.432   5.686
10008SOL    HW130923   3.774   1.416   5.707
10008SOL    HW230924   3.895   1.380   5.604
10009SOL     OW30925   1.295   3.652   2.461
10009SOL    HW130926   1.214   3.630   2.406
10009SOL    HW230927   1.374   3.663   2.400
10010SOL     OW30928   2.509   3.849   0.194
10010SOL    HW130929   2.451   3.801   0.128
10010SOL    HW230930   2.455   3.871   0.276
10011SOL     OW30931   1.982   3.269   0.011
10011SOL    HW130932   2.011   3.287   0.105
10011SOL    HW230933   1.884   3.289   0.002
10012SOL     OW30934   5.961   2.642   3.214
10012SOL    HW130935   5.985   2.558   3.166
10012SOL    HW230936   5.892   2.623   3.284
10013SOL     OW30937   0.301   6.261   5.264
10013SOL    HW130938   0.245   6.323   5.208
10013SOL    HW230939   0.397   6.271   5.238
10014SOL     OW30940   0.986   0.396   3.244
10014SOL    HW130941   0.929   0.459   3.192
10014SOL    HW230942   1.077   0.435   3.257
10015SOL     OW30943   4.243   5.479   6.007
10015SOL    HW130944   4.174   5.412   6.036
10015SOL    HW230945   4.282   5.451   5.920
10016SOL     OW30946   2.219   0.435   3.727
10016SOL    HW130947   2.288   0.370   3.694
10016SOL    HW230948   2.191   0.495   3.652
10017SOL     OW30949   2.243   2.417   2.626
10017SOL    HW130950   2.286   2.428   2.537
10017SOL    HW230951   2.293   2.471   2.694
10018SOL     OW30952   6.705   3.222   5.428
10018SOL    HW130953   6.778   3.290   5.424
10018SOL    HW230954   6.660   3.226   5.517
10019SOL     OW30955   0.624   2.139   1.981
10019SOL    HW130956   0.588   2.048   2.002
10019SOL    HW230957   0.563   2.209   2.020
10020SOL     OW30958   6.152   0.803   2.173
10020SOL    HW130959   6.123   0.898   2.179
10020SOL    HW230960   6.078   0.748   2.134
10021SOL     OW30961   1.261   3.173   2.352
10021SOL    HW130962   1.192   3.111   2.317
10021SOL    HW230963   1.217   3.248   2.402
10022SOL     OW30964   2.398   5.101   6.473
10022SOL    HW130965   2.459   5.025   6.449
10022SOL    HW230966   2.376   5.154   6.391
10023SOL     OW30967   0.706   0.641   6.203
10023SOL    HW130968   0.786   0.678   6.157
10023SOL    HW230969   0.698   0.681   6.294
10024SOL     OW30970   1.614   4.794   2.675
10024SOL    HW130971   1.655   4.824   2.588
10024SOL    HW230972   1.515   4.789   2.665
10025SOL     OW30973   1.192   4.345   1.185
10025SOL    HW130974   1.155   4.346   1.092
10025SOL    HW230975   1.119   4.366   1.250
10026SOL     OW30976   5.162   1.979   4.385
10026SOL    HW130977   5.157   1.978   4.285
10026SOL    HW230978   5.206   2.064   4.415
10027SOL     OW30979   2.680   1.745   5.199
10027SOL    HW130980   2.611   1.674   5.186
10027SOL    HW230981   2.744   1.743   5.123
10028SOL     OW30982   4.266   0.573   1.048
10028SOL    HW130983   4.298   0.533   1.134
10028SOL    HW230984   4.169   0.595   1.055
10029SOL     OW30985   0.484   4.043   4.505
10029SOL    HW130986   0.403   3.996   4.543
10029SOL    HW230987   0.540   3.976   4.456
10030SOL     OW30988   2.283   6.719   4.853
10030SOL    HW130989   2.383   6.721   4.863
10030SOL    HW230990   2.256   6.635   4.807
10031SOL     OW30991   2.899   4.790   3.363
10031SOL    HW130992   2.943   4.797   3.273
10031SOL    HW230993   2.902   4.879   3.409
10032SOL     OW30994   3.082   6.593   5.081
10032SOL    HW130995   3.181   6.606   5.086
10032SOL    HW230996   3.041   6.669   5.030
10033SOL     OW30997   2.983   0.886   3.994
10033SOL    HW130998   2.907   0.935   3.951
10033SOL    HW230999   3.037   0.840   3.924
10034SOL     OW31000   2.638   0.946   4.072
10034SOL    HW131001   2.540   0.961   4.079
10034SOL    HW231002   2.670   0.973   3.981
10035SOL     OW31003   6.057   2.529   2.534
10035SOL    HW131004   5.991   2.526   2.459
10035SOL    HW231005   6.024   2.473   2.610
10036SOL     OW31006   7.007   0.546   7.003
10036SOL    HW131007   0.053   0.553   0.049
10036SOL    HW231008   0.006   0.474   6.938
10037SOL     OW31009   6.301   6.940   6.741
10037SOL    HW131010   6.349   6.887   6.670
10037SOL    HW231011   6.203   6.933   6.727
10038SOL     OW31012   4.566   6.560   6.198
10038SOL    HW131013   4.621   6.640   6.223
10038SOL    HW231014   4.614   6.509   6.126
10039SOL     OW31015   6.550   5.845   2.424
10039SOL    HW131016   6.485   5.917   2.399
10039SOL    HW231017   6.634   5.856   2.370
10040SOL     OW31018   3.267   6.562   1.071
10040SOL    HW131019   3.339   6.623   1.038
10040SOL    HW231020   3.285   6.469   1.037
10041SOL     OW31021   6.642   5.100   4.883
10041SOL    HW131022   6.576   5.050   4.939
10041SOL    HW231023   6.604   5.190   4.860
10042SOL     OW31024   0.406   0.475   4.859
10042SOL    HW131025   0.374   0.383   4.882
10042SOL    HW231026   0.499   0.470   4.822
10043SOL     OW31027   0.447   0.796   3.608
10043SOL    HW131028   0.397   0.758   3.687
10043SOL    HW231029   0.534   0.833   3.639
10044SOL     OW31030   2.783   1.632   6.603
10044SOL    HW131031   2.858   1.683   6.561
10044SOL    HW231032   2.779   1.652   6.701
10045SOL     OW31033   3.751   6.777   5.158
10045SOL    HW131034   3.710   6.686   5.161
10045SOL    HW231035   3.818   6.781   5.085
10046SOL     OW31036   0.256   2.455   1.518
10046SOL    HW131037   0.179   2.458   1.455
10046SOL    HW231038   0.226   2.484   1.609
10047SOL     OW31039   0.047   2.305   4.176
10047SOL    HW131040   0.144   2.289   4.190
10047SOL    HW231041   0.034   2.395   4.133
10048SOL     OW31042   4.008   2.160   1.466
10048SOL    HW131043   3.932   2.195   1.521
10048SOL    HW231044   3.974   2.089   1.405
10049SOL     OW31045   1.625   6.887   5.128
10049SOL    HW131046   1.607   6.875   5.226
10049SOL    HW231047   1.550   6.849   5.075
10050SOL     OW31048   4.939   2.712   3.883
10050SOL    HW131049   5.034   2.743   3.879
10050SOL    HW231050   4.882   2.782   3.926
10051SOL     OW31051   5.943   2.851   5.443
10051SOL    HW131052   5.866   2.812   5.392
10051SOL    HW231053   6.027   2.803   5.418
10052SOL     OW31054   0.644   3.394   1.696
10052SOL    HW131055   0.573   3.431   1.637
10052SOL    HW231056   0.649   3.295   1.684
10053SOL     OW31057   3.066   5.613   3.584
10053SOL    HW131058   3.015   5.528   3.600
10053SOL    HW231059   3.148   5.613   3.641
10054SOL     OW31060   3.631   5.585   4.825
10054SOL    HW131061   3.707   5.650   4.829
10054SOL    HW231062   3.642   5.526   4.745
10055SOL     OW31063   6.008   2.823   5.729
10055SOL    HW131064   5.951   2.742   5.744
10055SOL    HW231065   6.007   2.847   5.632
10056SOL     OW31066   6.303   4.869   1.451
10056SOL    HW131067   6.371   4.796   1.448
10056SOL    HW231068   6.329   4.941   1.388
10057SOL     OW31069   3.240   2.057   3.874
10057SOL    HW131070   3.303   2.054   3.797
10057SOL    HW231071   3.222   1.964   3.907
10058SOL     OW31072   1.008   5.458   3.786
10058SOL    HW131073   1.044   5.551   3.797
10058SOL    HW231074   1.055   5.413   3.711
10059SOL     OW31075   5.898   0.491   0.995
10059SOL    HW131076   5.864   0.398   0.981
10059SOL    HW231077   5.992   0.487   1.030
10060SOL     OW31078   2.717   2.691   1.663
10060SOL    HW131079   2.817   2.681   1.664
10060SOL    HW231080   2.676   2.614   1.711
10061SOL     OW31081   6.135   1.844   4.644
10061SOL    HW131082   6.118   1.941   4.664
10061SOL    HW231083   6.233   1.831   4.624
10062SOL     OW31084   6.605   6.496   3.011
10062SOL    HW131085   6.564   6.505   3.102
10062SOL    HW231086   6.541   6.449   2.951
10063SOL     OW31087   1.438   3.185   3.320
10063SOL    HW131088   1.467   3.122   3.392
10063SOL    HW231089   1.364   3.143   3.267
10064SOL     OW31090   5.478   6.670   4.167
10064SOL    HW131091   5.480   6.622   4.080
10064SOL    HW231092   5.414   6.747   4.162
10065SOL     OW31093   1.187   6.302   3.359
10065SOL    HW131094   1.135   6.218   3.377
10065SOL    HW231095   1.131   6.382   3.381
10066SOL     OW31096   0.829   6.880   3.500
10066SOL    HW131097   0.766   6.871   3.577
10066SOL    HW231098   0.920   6.907   3.534
10067SOL     OW31099   4.128   4.936   4.216
10067SOL    HW131100   4.134   4.961   4.119
10067SOL    HW231101   4.034   4.948   4.248
10068SOL     OW31102   5.079   3.424   5.192
10068SOL    HW131103   4.980   3.410   5.187
10068SOL    HW231104   5.099   3.492   5.262
10069SOL     OW31105   2.815   1.426   3.188
10069SOL    HW131106   2.871   1.493   3.237
10069SOL    HW231107   2.816   1.447   3.090
10070SOL     OW31108   0.658   6.881   4.670
10070SOL    HW131109   0.744   6.925   4.645
10070SOL    HW231110   0.582   6.945   4.656
10071SOL     OW31111   5.307   5.915   5.079
10071SOL    HW131112   5.247   5.968   5.140
10071SOL    HW231113   5.263   5.906   4.989
10072SOL     OW31114   0.877   6.517   2.883
10072SOL    HW131115   0.812   6.545   2.954
10072SOL    HW231116   0.938   6.447   2.920
10073SOL     OW31117   6.950   4.760   6.068
10073SOL    HW131118   0.014   4.806   6.066
10073SOL    HW231119   6.961   4.666   6.102
10074SOL     OW31120   2.184   0.267   6.536
10074SOL    HW131121   2.221   0.331   6.469
10074SOL    HW231122   2.257   0.208   6.570
10075SOL     OW31123   0.792   2.452   3.743
10075SOL    HW131124   0.859   2.377   3.736
10075SOL    HW231125   0.784   2.480   3.839
10076SOL     OW31126   5.229   6.825   4.548
10076SOL    HW131127   5.251   6.771   4.630
10076SOL    HW231128   5.182   6.909   4.575
10077SOL     OW31129   4.341   1.688   6.051
10077SOL    HW131130   4.371   1.621   6.118
10077SOL    HW231131   4.243   1.707   6.062
10078SOL     OW31132   5.846   0.088   5.971
10078SOL    HW131133   5.925   0.040   6.010
10078SOL    HW231134   5.867   0.117   5.878
10079SOL     OW31135   0.047   3.484   0.772
10079SOL    HW131136   6.975   3.488   0.795
10079SOL    HW231137   0.099   3.538   0.839
10080SOL     OW31138   1.969   2.971   6.868
10080SOL    HW131139   2.063   2.948   6.842
10080SOL    HW231140   1.970   3.046   6.934
10081SOL     OW31141   0.336   0.599   6.835
10081SOL    HW131142   0.275   0.671   6.802
10081SOL    HW231143   0.413   0.641   6.883
10082SOL     OW31144   6.288   1.625   1.753
10082SOL    HW131145   6.209   1.637   1.692
10082SOL    HW231146   6.256   1.620   1.848
10083SOL     OW31147   4.968   0.624   4.022
10083SOL    HW131148   4.926   0.539   3.989
10083SOL    HW231149   4.931   0.647   4.112
10084SOL     OW31150   2.579   1.157   5.870
10084SOL    HW131151   2.572   1.060   5.896
10084SOL    HW231152   2.674   1.178   5.847
10085SOL     OW31153   0.760   5.849   2.691
10085SOL    HW131154   0.812   5.932   2.712
10085SOL    HW231155   0.820   5.769   2.700
10086SOL     OW31156   6.098   4.130   2.210
10086SOL    HW131157   6.126   4.225   2.196
10086SOL    HW231158   6.007   4.128   2.253
10087SOL     OW31159   1.635   0.526   4.052
10087SOL    HW131160   1.590   0.453   4.104
10087SOL    HW231161   1.688   0.583   4.114
10088SOL     OW31162   0.239   6.749   4.450
10088SOL    HW131163   0.210   6.813   4.378
10088SOL    HW231164   0.329   6.711   4.426
10089SOL     OW31165   1.448   3.182   1.896
10089SOL    HW131166   1.504   3.203   1.976
10089SOL    HW231167   1.417   3.268   1.854
10090SOL     OW31168   1.210   4.582   0.807
10090SOL    HW131169   1.300   4.626   0.802
10090SOL    HW231170   1.164   4.589   0.719
10091SOL     OW31171   0.637   2.556   4.829
10091SOL    HW131172   0.634   2.642   4.879
10091SOL    HW231173   0.733   2.532   4.809
10092SOL     OW31174   2.012   4.005   5.263
10092SOL    HW131175   2.026   3.964   5.173
10092SOL    HW231176   1.938   4.072   5.258
10093SOL     OW31177   6.352   5.419   5.956
10093SOL    HW131178   6.368   5.335   6.008
10093SOL    HW231179   6.364   5.401   5.859
10094SOL     OW31180   1.826   1.637   2.164
10094SOL    HW131181   1.830   1.541   2.136
10094SOL    HW231182   1.738   1.655   2.209
10095SOL     OW31183   0.018   1.107   5.919
10095SOL    HW131184   7.010   1.200   5.907
10095SOL    HW231185   7.013   1.051   5.841
10096SOL     OW31186   0.280   5.815   2.538
10096SOL    HW131187   0.302   5.812   2.441
10096SOL    HW231188   0.188   5.851   2.551
10097SOL     OW31189   1.319   0.629   0.748
10097SOL    HW131190   1.326   0.539   0.706
10097SOL    HW231191   1.243   0.630   0.812
10098SOL     OW31192   2.394   5.051   6.734
10098SOL    HW131193   2.346   4.963   6.727
10098SOL    HW231194   2.407   5.089   6.642
10099SOL     OW31195   6.676   4.283   4.780
10099SOL    HW131196   6.668   4.325   4.690
10099SOL    HW231197   6.773   4.277   4.805
10100SOL     OW31198   5.240   0.808   4.555
10100SOL    HW131199   5.280   0.899   4.566
10100SOL    HW231200   5.140   0.815   4.553
10101SOL     OW31201   0.034   4.745   2.409
10101SOL    HW131202   7.003   4.696   2.343
10101SOL    HW231203   7.018   4.736   2.500
10102SOL     OW31204   2.859   1.770   1.821
10102SOL    HW131205   2.816   1.705   1.885
10102SOL    HW231206   2.919   1.832   1.872
10103SOL     OW31207   2.674   1.510   6.218
10103SOL    HW131208   2.600   1.539   6.278
10103SOL    HW231209   2.644   1.431   6.165
10104SOL     OW31210   1.021   5.389   5.247
10104SOL    HW131211   1.020   5.391   5.347
10104SOL    HW231212   0.933   5.354   5.213
10105SOL     OW31213   1.817   0.304   6.738
10105SOL    HW131214   1.737   0.363   6.737
10105SOL    HW231215   1.896   0.354   6.702
10106SOL     OW31216   5.304   6.329   0.365
10106SOL    HW131217   5.334   6.236   0.387
10106SOL    HW231218   5.323   6.349   0.269
10107SOL     OW31219   5.492   1.732   5.998
10107SOL    HW131220   5.415   1.769   5.946
10107SOL    HW231221   5.458   1.669   6.068
10108SOL     OW31222   6.688   7.000   0.095
10108SOL    HW131223   6.706   6.916   0.043
10108SOL    HW231224   6.645   6.977   0.182
10109SOL     OW31225   4.463   5.428   3.921
10109SOL    HW131226   4.492   5.507   3.975
10109SOL    HW231227   4.448   5.349   3.980
10110SOL     OW31228   3.685   0.585   5.989
10110SOL    HW131229   3.591   0.581   5.954
10110SOL    HW231230   3.691   0.529   6.072
10111SOL     OW31231   0.295   2.847   2.675
10111SOL    HW131232   0.385   2.882   2.650
10111SOL    HW231233   0.224   2.906   2.637
10112SOL     OW31234   4.950   4.645   5.931
10112SOL    HW131235   4.868   4.645   5.989
10112SOL    HW231236   4.935   4.585   5.853
10113SOL     OW31237   3.933   6.841   6.892
10113SOL    HW131238   3.868   6.886   6.953
10113SOL    HW231239   4.020   6.828   6.940
10114SOL     OW31240   5.178   1.048   1.064
10114SOL    HW131241   5.232   1.122   1.104
10114SOL    HW231242   5.215   0.960   1.094
10115SOL     OW31243   1.822   2.334   3.914
10115SOL    HW131244   1.803   2.425   3.876
10115SOL    HW231245   1.856   2.343   4.007
10116SOL     OW31246   0.839   1.165   1.125
10116SOL    HW131247   0.853   1.085   1.183
10116SOL    HW231248   0.887   1.153   1.039
10117SOL     OW31249   5.744   0.439   6.036
10117SOL    HW131250   5.712   0.532   6.055
10117SOL    HW231251   5.784   0.436   5.945
10118SOL     OW31252   0.096   5.482   2.126
10118SOL    HW131253   0.031   5.556   2.142
10118SOL    HW231254   0.046   5.397   2.109
10119SOL     OW31255   2.142   0.773   5.639
10119SOL    HW131256   2.081   0.832   5.585
10119SOL    HW231257   2.208   0.830   5.687
10120SOL     OW31258   0.026   3.052   3.643
10120SOL    HW131259   6.999   3.003   3.572
10120SOL    HW231260   0.009   3.009   3.731
10121SOL     OW31261   6.582   4.436   4.959
10121SOL    HW131262   6.605   4.364   4.893
10121SOL    HW231263   6.615   4.524   4.925
10122SOL     OW31264   5.591   3.468   0.101
10122SOL    HW131265   5.508   3.463   0.045
10122SOL    HW231266   5.575   3.418   0.187
10123SOL     OW31267   6.905   6.043   0.490
10123SOL    HW131268   6.921   5.948   0.519
10123SOL    HW231269   6.894   6.101   0.570
10124SOL     OW31270   3.172   4.133   6.994
10124SOL    HW131271   3.241   4.206   6.999
10124SOL    HW231272   3.214   4.050   6.958
10125SOL     OW31273   1.551   0.503   1.759
10125SOL    HW131274   1.618   0.544   1.820
10125SOL    HW231275   1.464   0.490   1.807
10126SOL     OW31276   6.453   5.226   0.642
10126SOL    HW131277   6.390   5.152   0.619
10126SOL    HW231278   6.423   5.270   0.727
10127SOL     OW31279   3.653   5.752   5.372
10127SOL    HW131280   3.582   5.823   5.373
10127SOL    HW231281   3.628   5.681   5.307
10128SOL     OW31282   0.057   2.418   1.025
10128SOL    HW131283   0.100   2.456   1.107
10128SOL    HW231284   0.128   2.399   0.957
10129SOL     OW31285   6.137   2.325   3.470
10129SOL    HW131286   6.111   2.378   3.389
10129SOL    HW231287   6.203   2.377   3.524
10130SOL     OW31288   6.527   5.782   1.695
10130SOL    HW131289   6.435   5.821   1.707
10130SOL    HW231290   6.594   5.857   1.687
10131SOL     OW31291   0.544   0.885   1.626
10131SOL    HW131292   0.446   0.890   1.645
10131SOL    HW231293   0.562   0.921   1.534
10132SOL     OW31294   2.880   6.465   2.633
10132SOL    HW131295   2.806   6.397   2.630
10132SOL    HW231296   2.942   6.443   2.709
10133SOL     OW31297   4.689   5.993   3.526
10133SOL    HW131298   4.596   6.031   3.521
10133SOL    HW231299   4.691   5.904   3.481
10134SOL     OW31300   7.005   1.526   3.491
10134SOL    HW131301   6.970   1.518   3.398
10134SOL    HW231302   6.955   1.463   3.551
10135SOL     OW31303   4.219   4.738   2.880
10135SOL    HW131304   4.276   4.736   2.798
10135SOL    HW231305   4.129   4.776   2.857
10136SOL     OW31306   6.642   0.165   3.568
10136SOL    HW131307   6.712   0.107   3.527
10136SOL    HW231308   6.679   0.257   3.583
10137SOL     OW31309   6.578   5.288   4.099
10137SOL    HW131310   6.490   5.242   4.091
10137SOL    HW231311   6.565   5.387   4.087
10138SOL     OW31312   6.182   1.965   6.810
10138SOL    HW131313   6.243   2.007   6.743
10138SOL    HW231314   6.119   1.903   6.764
10139SOL     OW31315   3.600   3.021   3.235
10139SOL    HW131316   3.512   3.018   3.188
10139SOL    HW231317   3.664   2.959   3.188
10140SOL     OW31318   6.862   5.121   0.086
10140SOL    HW131319   6.838   5.094   7.017
10140SOL    HW231320   6.950   5.082   0.111
10141SOL     OW31321   1.821   1.012   4.097
10141SOL    HW131322   1.746   1.025   4.161
10141SOL    HW231323   1.858   0.920   4.108
10142SOL     OW31324   4.236   5.763   4.853
10142SOL    HW131325   4.222   5.665   4.868
10142SOL    HW231326   4.193   5.791   4.768
10143SOL     OW31327   4.908   0.188   1.238
10143SOL    HW131328   4.966   0.148   1.167
10143SOL    HW231329   4.829   0.129   1.253
10144SOL     OW31330   3.119   5.931   4.321
10144SOL    HW131331   3.217   5.926   4.306
10144SOL    HW231332   3.084   6.020   4.289
10145SOL     OW31333   2.887   5.906   5.762
10145SOL    HW131334   2.946   5.928   5.840
10145SOL    HW231335   2.897   5.809   5.739
10146SOL     OW31336   4.102   5.294   4.101
10146SOL    HW131337   4.142   5.386   4.099
10146SOL    HW231338   4.085   5.268   4.196
10147SOL     OW31339   4.848   4.487   4.465
10147SOL    HW131340   4.926   4.476   4.526
10147SOL    HW231341   4.802   4.399   4.453
10148SOL     OW31342   5.630   5.805   0.723
10148SOL    HW131343   5.697   5.824   0.795
10148SOL    HW231344   5.677   5.781   0.639
10149SOL     OW31345   4.175   2.241   1.246
10149SOL    HW131346   4.274   2.231   1.236
10149SOL    HW231347   4.148   2.217   1.339
10150SOL     OW31348   4.914   4.475   0.504
10150SOL    HW131349   4.835   4.499   0.447
10150SOL    HW231350   4.985   4.435   0.447
10151SOL     OW31351   1.506   6.733   6.228
10151SOL    HW131352   1.435   6.687   6.175
10151SOL    HW231353   1.523   6.823   6.189
10152SOL     OW31354   0.261   5.174   3.600
10152SOL    HW131355   0.310   5.226   3.670
10152SOL    HW231356   0.196   5.111   3.645
10153SOL     OW31357   4.900   6.337   3.749
10153SOL    HW131358   4.826   6.269   3.753
10153SOL    HW231359   4.973   6.303   3.689
10154SOL     OW31360   6.741   5.456   5.931
10154SOL    HW131361   6.825   5.506   5.911
10154SOL    HW231362   6.737   5.373   5.875
10155SOL     OW31363   3.854   0.791   5.932
10155SOL    HW131364   3.793   0.853   5.882
10155SOL    HW231365   3.802   0.711   5.962
10156SOL     OW31366   5.216   0.286   2.267
10156SOL    HW131367   5.220   0.186   2.255
10156SOL    HW231368   5.219   0.307   2.365
10157SOL     OW31369   5.941   1.336   6.514
10157SOL    HW131370   5.880   1.258   6.523
10157SOL    HW231371   5.985   1.334   6.423
10158SOL     OW31372   4.339   3.503   7.014
10158SOL    HW131373   4.311   3.525   0.083
10158SOL    HW231374   4.383   3.583   6.973
10159SOL     OW31375   2.134   2.081   6.522
10159SOL    HW131376   2.104   2.067   6.617
10159SOL    HW231377   2.063   2.049   6.460
10160SOL     OW31378   0.681   4.991   3.618
10160SOL    HW131379   0.649   5.008   3.712
10160SOL    HW231380   0.715   4.897   3.611
10161SOL     OW31381   3.828   5.370   6.370
10161SOL    HW131382   3.818   5.271   6.356
10161SOL    HW231383   3.796   5.394   6.462
10162SOL     OW31384   2.655   2.525   6.278
10162SOL    HW131385   2.618   2.493   6.190
10162SOL    HW231386   2.734   2.470   6.303
10163SOL     OW31387   6.600   3.792   5.997
10163SOL    HW131388   6.617   3.694   5.993
10163SOL    HW231389   6.502   3.810   5.986
10164SOL     OW31390   6.423   3.038   5.271
10164SOL    HW131391   6.481   3.059   5.192
10164SOL    HW231392   6.327   3.042   5.243
10165SOL     OW31393   0.858   2.276   4.518
10165SOL    HW131394   0.935   2.272   4.454
10165SOL    HW231395   0.859   2.364   4.566
10166SOL     OW31396   2.394   1.549   2.168
10166SOL    HW131397   2.325   1.598   2.114
10166SOL    HW231398   2.431   1.474   2.114
10167SOL     OW31399   4.941   0.747   6.500
10167SOL    HW131400   4.916   0.652   6.514
10167SOL    HW231401   4.898   0.804   6.571
10168SOL     OW31402   6.781   3.949   4.325
10168SOL    HW131403   6.801   4.016   4.396
10168SOL    HW231404   6.863   3.893   4.308
10169SOL     OW31405   6.477   4.599   3.330
10169SOL    HW131406   6.412   4.545   3.383
10169SOL    HW231407   6.430   4.677   3.288
10170SOL     OW31408   1.586   4.091   5.089
10170SOL    HW131409   1.563   4.188   5.085
10170SOL    HW231410   1.579   4.052   4.997
10171SOL     OW31411   6.922   3.976   5.352
10171SOL    HW131412   6.940   3.879   5.334
10171SOL    HW231413   6.996   4.014   5.408
10172SOL     OW31414   4.715   0.445   2.779
10172SOL    HW131415   4.652   0.471   2.853
10172SOL    HW231416   4.808   0.472   2.804
10173SOL     OW31417   1.596   1.726   1.483
10173SOL    HW131418   1.602   1.812   1.533
10173SOL    HW231419   1.546   1.740   1.397
10174SOL     OW31420   6.260   4.901   2.609
10174SOL    HW131421   6.162   4.907   2.628
10174SOL    HW231422   6.311   4.917   2.694
10175SOL     OW31423   6.567   2.214   5.354
10175SOL    HW131424   6.533   2.135   5.302
10175SOL    HW231425   6.661   2.197   5.383
10176SOL     OW31426   1.908   3.653   6.669
10176SOL    HW131427   1.865   3.742   6.684
10176SOL    HW231428   2.007   3.666   6.654
10177SOL     OW31429   3.151   6.494   0.189
10177SOL    HW131430   3.241   6.539   0.193
10177SOL    HW231431   3.118   6.478   0.281
10178SOL     OW31432   5.896   2.569   4.432
10178SOL    HW131433   5.951   2.485   4.432
10178SOL    HW231434   5.827   2.563   4.505
10179SOL     OW31435   1.333   2.644   6.292
10179SOL    HW131436   1.286   2.702   6.226
10179SOL    HW231437   1.300   2.664   6.384
10180SOL     OW31438   2.737   5.677   5.630
10180SOL    HW131439   2.766   5.638   5.542
10180SOL    HW231440   2.644   5.713   5.621
10181SOL     OW31441   6.017   3.025   1.260
10181SOL    HW131442   5.955   3.087   1.211
10181SOL    HW231443   5.963   2.966   1.319
10182SOL     OW31444   5.855   0.757   1.406
10182SOL    HW131445   5.943   0.781   1.365
10182SOL    HW231446   5.794   0.836   1.402
10183SOL     OW31447   1.243   1.884   6.554
10183SOL    HW131448   1.165   1.844   6.506
10183SOL    HW231449   1.263   1.831   6.636
10184SOL     OW31450   4.372   1.463   6.196
10184SOL    HW131451   4.462   1.424   6.218
10184SOL    HW231452   4.302   1.392   6.209
10185SOL     OW31453   4.768   0.163   0.867
10185SOL    HW131454   4.863   0.147   0.893
10185SOL    HW231455   4.756   0.141   0.770
10186SOL     OW31456   4.878   2.735   3.240
10186SOL    HW131457   4.951   2.751   3.173
10186SOL    HW231458   4.834   2.821   3.263
10187SOL     OW31459   0.649   2.308   1.738
10187SOL    HW131460   0.626   2.241   1.808
10187SOL    HW231461   0.735   2.281   1.692
10188SOL     OW31462   4.266   6.519   0.499
10188SOL    HW131463   4.239   6.445   0.560
10188SOL    HW231464   4.333   6.577   0.545
10189SOL     OW31465   2.017   6.543   5.153
10189SOL    HW131466   1.992   6.492   5.070
10189SOL    HW231467   2.040   6.637   5.129
10190SOL     OW31468   4.138   2.672   7.015
10190SOL    HW131469   4.183   2.747   6.967
10190SOL    HW231470   4.107   2.704   0.080
10191SOL     OW31471   4.958   4.558   6.559
10191SOL    HW131472   4.901   4.639   6.568
10191SOL    HW231473   4.967   4.514   6.649
10192SOL     OW31474   3.566   1.134   5.522
10192SOL    HW131475   3.491   1.072   5.497
10192SOL    HW231476   3.594   1.115   5.616
10193SOL     OW31477   4.635   4.264   0.434
10193SOL    HW131478   4.662   4.280   0.529
10193SOL    HW231479   4.572   4.186   0.429
10194SOL     OW31480   5.726   4.110   5.585
10194SOL    HW131481   5.671   4.181   5.542
10194SOL    HW231482   5.805   4.088   5.527
10195SOL     OW31483   6.793   4.860   1.425
10195SOL    HW131484   6.767   4.871   1.521
10195SOL    HW231485   6.889   4.834   1.418
10196SOL     OW31486   6.965   1.159   5.094
10196SOL    HW131487   6.928   1.251   5.107
10196SOL    HW231488   0.041   1.163   5.097
10197SOL     OW31489   6.512   0.617   5.530
10197SOL    HW131490   6.548   0.606   5.623
10197SOL    HW231491   6.588   0.633   5.467
10198SOL     OW31492   3.827   0.423   2.579
10198SOL    HW131493   3.797   0.383   2.492
10198SOL    HW231494   3.887   0.500   2.561
10199SOL     OW31495   1.347   2.665   5.539
10199SOL    HW131496   1.437   2.686   5.501
10199SOL    HW231497   1.350   2.676   5.638
10200SOL     OW31498   6.257   3.195   0.918
10200SOL    HW131499   6.175   3.251   0.930
10200SOL    HW231500   6.261   3.127   0.992
10201SOL     OW31501   1.078   4.247   0.915
10201SOL    HW131502   1.120   4.183   0.979
10201SOL    HW231503   1.123   4.239   0.826
10202SOL     OW31504   3.913   1.105   5.509
10202SOL    HW131505   3.989   1.159   5.473
10202SOL    HW231506   3.866   1.059   5.433
10203SOL     OW31507   6.046   2.793   5.064
10203SOL    HW131508   5.971   2.763   5.006
10203SOL    HW231509   6.131   2.749   5.035
10204SOL     OW31510   5.272   6.949   6.386
10204SOL    HW131511   5.215   6.934   6.467
10204SOL    HW231512   5.318   6.863   6.363
10205SOL     OW31513   1.096   0.586   6.814
10205SOL    HW131514   1.180   0.604   6.763
10205SOL    HW231515   1.035   0.527   6.760
10206SOL     OW31516   0.984   0.774   5.664
10206SOL    HW131517   0.940   0.748   5.749
10206SOL    HW231518   1.015   0.869   5.670
10207SOL     OW31519   1.316   1.443   5.676
10207SOL    HW131520   1.241   1.429   5.612
10207SOL    HW231521   1.329   1.361   5.731
10208SOL     OW31522   6.223   4.797   5.111
10208SOL    HW131523   6.199   4.874   5.170
10208SOL    HW231524   6.142   4.741   5.095
10209SOL     OW31525   6.758   6.874   6.461
10209SOL    HW131526   6.826   6.942   6.486
10209SOL    HW231527   6.669   6.918   6.450
10210SOL     OW31528   4.245   5.628   1.790
10210SOL    HW131529   4.237   5.697   1.718
10210SOL    HW231530   4.177   5.646   1.861
10211SOL     OW31531   4.203   6.124   5.629
10211SOL    HW131532   4.212   6.217   5.666
10211SOL    HW231533   4.167   6.063   5.699
10212SOL     OW31534   0.789   0.166   6.088
10212SOL    HW131535   0.759   0.261   6.097
10212SOL    HW231536   0.803   0.145   5.992
10213SOL     OW31537   5.470   1.700   0.045
10213SOL    HW131538   5.400   1.763   0.010
10213SOL    HW231539   5.560   1.732   0.015
10214SOL     OW31540   0.230   2.856   1.387
10214SOL    HW131541   0.313   2.903   1.417
10214SOL    HW231542   0.184   2.911   1.317
10215SOL     OW31543   3.382   3.250   2.547
10215SOL    HW131544   3.402   3.194   2.466
10215SOL    HW231545   3.442   3.223   2.622
10216SOL     OW31546   6.959   6.939   2.132
10216SOL    HW131547   6.930   6.861   2.187
10216SOL    HW231548   6.907   7.020   2.159
10217SOL     OW31549   3.168   1.247   3.410
10217SOL    HW131550   3.116   1.169   3.375
10217SOL    HW231551   3.105   1.320   3.435
10218SOL     OW31552   1.385   2.663   2.672
10218SOL    HW131553   1.454   2.634   2.739
10218SOL    HW231554   1.384   2.763   2.666
10219SOL     OW31555   0.392   1.108   2.636
10219SOL    HW131556   0.308   1.145   2.597
10219SOL    HW231557   0.470   1.138   2.582
10220SOL     OW31558   3.359   2.720   1.748
10220SOL    HW131559   3.304   2.662   1.688
10220SOL    HW231560   3.436   2.667   1.784
10221SOL     OW31561   1.035   5.975   3.142
10221SOL    HW131562   0.985   6.062   3.142
10221SOL    HW231563   1.081   5.963   3.054
10222SOL     OW31564   3.153   4.091   4.506
10222SOL    HW131565   3.128   4.185   4.487
10222SOL    HW231566   3.237   4.068   4.457
10223SOL     OW31567   1.227   5.487   1.907
10223SOL    HW131568   1.178   5.540   1.838
10223SOL    HW231569   1.304   5.540   1.942
10224SOL     OW31570   5.881   4.068   3.073
10224SOL    HW131571   5.975   4.065   3.038
10224SOL    HW231572   5.880   4.112   3.162
10225SOL     OW31573   2.398   3.575   6.035
10225SOL    HW131574   2.429   3.480   6.040
10225SOL    HW231575   2.362   3.594   5.944
10226SOL     OW31576   4.416   2.838   0.095
10226SOL    HW131577   4.480   2.762   0.087
10226SOL    HW231578   4.463   2.924   0.075
10227SOL     OW31579   5.010   3.623   1.161
10227SOL    HW131580   5.026   3.525   1.155
10227SOL    HW231581   5.064   3.671   1.092
10228SOL     OW31582   5.259   0.646   0.868
10228SOL    HW131583   5.280   0.741   0.888
10228SOL    HW231584   5.331   0.607   0.811
10229SOL     OW31585   0.342   3.724   4.198
10229SOL    HW131586   0.389   3.726   4.109
10229SOL    HW231587   0.289   3.808   4.210
10230SOL     OW31588   6.949   6.273   2.069
10230SOL    HW131589   6.988   6.363   2.051
10230SOL    HW231590   6.851   6.282   2.088
10231SOL     OW31591   1.841   5.596   3.381
10231SOL    HW131592   1.760   5.654   3.374
10231SOL    HW231593   1.856   5.572   3.477
10232SOL     OW31594   4.887   5.616   4.282
10232SOL    HW131595   4.944   5.692   4.251
10232SOL    HW231596   4.890   5.611   4.382
10233SOL     OW31597   4.279   4.446   6.183
10233SOL    HW131598   4.188   4.476   6.153
10233SOL    HW231599   4.290   4.349   6.161
10234SOL     OW31600   6.828   0.550   1.665
10234SOL    HW131601   6.888   0.576   1.590
10234SOL    HW231602   6.739   0.595   1.655
10235SOL     OW31603   1.642   1.230   3.199
10235SOL    HW131604   1.655   1.208   3.296
10235SOL    HW231605   1.678   1.322   3.182
10236SOL     OW31606   2.297   0.093   1.662
10236SOL    HW131607   2.397   0.101   1.668
10236SOL    HW231608   2.258   0.183   1.644
10237SOL     OW31609   0.262   3.503   6.433
10237SOL    HW131610   0.267   3.475   6.337
10237SOL    HW231611   0.354   3.521   6.467
10238SOL     OW31612   3.568   5.987   1.185
10238SOL    HW131613   3.546   5.910   1.245
10238SOL    HW231614   3.664   5.982   1.158
10239SOL     OW31615   1.909   2.713   4.315
10239SOL    HW131616   1.821   2.758   4.330
10239SOL    HW231617   1.905   2.659   4.231
10240SOL     OW31618   2.866   6.424   1.114
10240SOL    HW131619   2.894   6.495   1.178
10240SOL    HW231620   2.840   6.466   1.027
10241SOL     OW31621   3.955   2.171   1.884
10241SOL    HW131622   4.013   2.227   1.944
10241SOL    HW231623   3.863   2.210   1.882
10242SOL     OW31624   0.104   2.820   6.994
10242SOL    HW131625   0.108   2.745   0.036
10242SOL    HW231626   0.024   2.808   6.935
10243SOL     OW31627   2.635   5.371   1.014
10243SOL    HW131628   2.564   5.312   0.976
10243SOL    HW231629   2.616   5.389   1.111
10244SOL     OW31630   2.494   4.065   1.329
10244SOL    HW131631   2.462   4.155   1.358
10244SOL    HW231632   2.594   4.061   1.337
10245SOL     OW31633   3.930   4.273   0.734
10245SOL    HW131634   3.990   4.201   0.770
10245SOL    HW231635   3.841   4.234   0.712
10246SOL     OW31636   3.373   3.418   4.482
10246SOL    HW131637   3.389   3.320   4.495
10246SOL    HW231638   3.454   3.461   4.442
10247SOL     OW31639   0.853   2.398   5.301
10247SOL    HW131640   0.779   2.340   5.266
10247SOL    HW231641   0.922   2.341   5.345
10248SOL     OW31642   1.225   6.702   3.594
10248SOL    HW131643   1.272   6.639   3.531
10248SOL    HW231644   1.200   6.653   3.677
10249SOL     OW31645   2.931   4.805   6.500
10249SOL    HW131646   2.949   4.901   6.478
10249SOL    HW231647   2.930   4.752   6.416
10250SOL     OW31648   4.831   2.142   0.217
10250SOL    HW131649   4.735   2.142   0.189
10250SOL    HW231650   4.888   2.109   0.142
10251SOL     OW31651   2.219   0.085   4.370
10251SOL    HW131652   2.281   0.007   4.358
10251SOL    HW231653   2.239   0.130   4.457
10252SOL     OW31654   5.517   4.125   6.040
10252SOL    HW131655   5.601   4.166   6.076
10252SOL    HW231656   5.441   4.147   6.101
10253SOL     OW31657   4.230   6.645   6.584
10253SOL    HW131658   4.130   6.652   6.592
10253SOL    HW231659   4.271   6.731   6.613
10254SOL     OW31660   5.324   1.075   4.536
10254SOL    HW131661   5.368   1.122   4.460
10254SOL    HW231662   5.383   1.078   4.617
10255SOL     OW31663   3.838   5.219   1.988
10255SOL    HW131664   3.800   5.221   2.080
10255SOL    HW231665   3.859   5.312   1.958
10256SOL     OW31666   4.141   0.647   2.975
10256SOL    HW131667   4.057   0.599   2.952
10256SOL    HW231668   4.123   0.745   2.981
10257SOL     OW31669   3.488   4.908   2.930
10257SOL    HW131670   3.522   4.964   3.006
10257SOL    HW231671   3.543   4.927   2.848
10258SOL     OW31672   1.719   1.268   1.868
10258SOL    HW131673   1.717   1.316   1.780
10258SOL    HW231674   1.626   1.237   1.891
10259SOL     OW31675   1.185   3.925   3.697
10259SOL    HW131676   1.199   3.885   3.606
10259SOL    HW231677   1.092   3.961   3.703
10260SOL     OW31678   0.859   0.956   3.461
10260SOL    HW131679   0.945   0.970   3.509
10260SOL    HW231680   0.873   0.968   3.363
10261SOL     OW31681   6.613   3.546   1.281
10261SOL    HW131682   6.533   3.534   1.222
10261SOL    HW231683   6.659   3.458   1.291
10262SOL     OW31684   3.632   1.371   0.058
10262SOL    HW131685   3.698   1.343   7.013
10262SOL    HW231686   3.630   1.471   0.064
10263SOL     OW31687   5.947   0.539   1.624
10263SOL    HW131688   6.017   0.606   1.649
10263SOL    HW231689   5.941   0.532   1.525
10264SOL     OW31690   6.842   5.353   6.699
10264SOL    HW131691   6.844   5.295   6.618
10264SOL    HW231692   6.759   5.410   6.697
10265SOL     OW31693   2.014   1.828   0.347
10265SOL    HW131694   2.009   1.906   0.409
10265SOL    HW231695   2.041   1.747   0.398
10266SOL     OW31696   2.857   3.390   2.247
10266SOL    HW131697   2.867   3.383   2.346
10266SOL    HW231698   2.767   3.356   2.219
10267SOL     OW31699   5.839   0.880   0.804
10267SOL    HW131700   5.749   0.922   0.789
10267SOL    HW231701   5.834   0.782   0.782
10268SOL     OW31702   3.996   0.859   0.993
10268SOL    HW131703   4.003   0.759   0.987
10268SOL    HW231704   3.976   0.897   0.903
10269SOL     OW31705   2.703   1.983   7.021
10269SOL    HW131706   2.663   1.985   0.088
10269SOL    HW231707   2.632   2.004   6.954
10270SOL     OW31708   2.907   6.662   2.330
10270SOL    HW131709   2.833   6.644   2.394
10270SOL    HW231710   2.969   6.583   2.328
10271SOL     OW31711   1.347   2.088   6.862
10271SOL    HW131712   1.300   2.021   6.919
10271SOL    HW231713   1.348   2.056   6.767
10272SOL     OW31714   6.474   0.150   4.835
10272SOL    HW131715   6.519   0.070   4.875
10272SOL    HW231716   6.404   0.183   4.898
10273SOL     OW31717   2.538   4.847   3.397
10273SOL    HW131718   2.610   4.778   3.388
10273SOL    HW231719   2.558   4.924   3.336
10274SOL     OW31720   0.129   4.937   5.202
10274SOL    HW131721   0.101   5.024   5.162
10274SOL    HW231722   0.068   4.864   5.169
10275SOL     OW31723   0.233   0.368   2.929
10275SOL    HW131724   0.153   0.418   2.895
10275SOL    HW231725   0.237   0.278   2.884
10276SOL     OW31726   3.512   5.952   6.164
10276SOL    HW131727   3.595   5.920   6.119
10276SOL    HW231728   3.501   5.905   6.252
10277SOL     OW31729   0.488   6.679   4.427
10277SOL    HW131730   0.558   6.692   4.357
10277SOL    HW231731   0.508   6.740   4.504
10278SOL     OW31732   6.970   0.490   5.515
10278SOL    HW131733   0.033   0.537   5.503
10278SOL    HW231734   6.929   0.516   5.603
10279SOL     OW31735   1.844   5.633   4.354
10279SOL    HW131736   1.900   5.550   4.348
10279SOL    HW231737   1.819   5.650   4.449
10280SOL     OW31738   5.580   3.905   0.397
10280SOL    HW131739   5.537   3.912   0.487
10280SOL    HW231740   5.657   3.841   0.402
10281SOL     OW31741   6.867   2.185   4.020
10281SOL    HW131742   6.902   2.201   3.928
10281SOL    HW231743   6.932   2.219   4.087
10282SOL     OW31744   5.276   3.691   3.296
10282SOL    HW131745   5.286   3.788   3.319
10282SOL    HW231746   5.364   3.645   3.308
10283SOL     OW31747   0.450   3.418   0.890
10283SOL    HW131748   0.434   3.323   0.919
10283SOL    HW231749   0.530   3.421   0.830
10284SOL     OW31750   0.319   2.979   3.655
10284SOL    HW131751   0.232   2.939   3.626
10284SOL    HW231752   0.307   3.076   3.674
10285SOL     OW31753   5.392   6.341   4.798
10285SOL    HW131754   5.371   6.318   4.893
10285SOL    HW231755   5.409   6.257   4.746
10286SOL     OW31756   2.675   1.527   4.427
10286SOL    HW131757   2.588   1.577   4.433
10286SOL    HW231758   2.695   1.485   4.515
10287SOL     OW31759   2.474   5.693   3.125
10287SOL    HW131760   2.562   5.698   3.171
10287SOL    HW231761   2.427   5.608   3.150
10288SOL     OW31762   3.524   0.060   5.696
10288SOL    HW131763   3.620   0.086   5.711
10288SOL    HW231764   3.479   0.131   5.641
10289SOL     OW31765   2.966   5.926   6.416
10289SOL    HW131766   2.994   5.998   6.480
10289SOL    HW231767   3.048   5.880   6.380
10290SOL     OW31768   3.048   3.108   2.331
10290SOL    HW131769   3.086   3.182   2.276
10290SOL    HW231770   2.968   3.141   2.381
10291SOL     OW31771   2.289   1.565   2.699
10291SOL    HW131772   2.376   1.524   2.672
10291SOL    HW231773   2.219   1.493   2.704
10292SOL     OW31774   6.382   6.506   6.715
10292SOL    HW131775   6.460   6.560   6.747
10292SOL    HW231776   6.297   6.559   6.727
10293SOL     OW31777   0.770   4.247   4.093
10293SOL    HW131778   0.857   4.272   4.136
10293SOL    HW231779   0.707   4.324   4.100
10294SOL     OW31780   3.493   1.753   1.987
10294SOL    HW131781   3.414   1.710   2.031
10294SOL    HW231782   3.523   1.698   1.909
10295SOL     OW31783   1.131   2.336   0.023
10295SOL    HW131784   1.103   2.261   0.083
10295SOL    HW231785   1.155   2.300   6.958
10296SOL     OW31786   5.807   1.383   6.095
10296SOL    HW131787   5.781   1.464   6.042
10296SOL    HW231788   5.894   1.401   6.142
10297SOL     OW31789   3.051   1.696   6.897
10297SOL    HW131790   3.021   1.790   6.916
10297SOL    HW231791   3.033   1.639   6.977
10298SOL     OW31792   0.502   2.427   2.648
10298SOL    HW131793   0.425   2.476   2.689
10298SOL    HW231794   0.538   2.480   2.572
10299SOL     OW31795   3.873   6.004   2.774
10299SOL    HW131796   3.852   5.921   2.723
10299SOL    HW231797   3.968   6.031   2.757
10300SOL     OW31798   0.448   3.517   1.558
10300SOL    HW131799   0.504   3.597   1.538
10300SOL    HW231800   0.414   3.478   1.473
10301SOL     OW31801   3.647   1.040   6.283
10301SOL    HW131802   3.599   1.095   6.351
10301SOL    HW231803   3.634   1.079   6.193
10302SOL     OW31804   2.767   5.945   4.454
10302SOL    HW131805   2.799   5.892   4.376
10302SOL    HW231806   2.826   6.025   4.466
10303SOL     OW31807   0.855   5.884   4.752
10303SOL    HW131808   0.774   5.942   4.768
10303SOL    HW231809   0.888   5.848   4.839
10304SOL     OW31810   6.502   6.705   0.100
10304SOL    HW131811   6.442   6.729   0.176
10304SOL    HW231812   6.551   6.621   0.121
10305SOL     OW31813   2.370   4.182   5.832
10305SOL    HW131814   2.411   4.173   5.923
10305SOL    HW231815   2.443   4.188   5.764
10306SOL     OW31816   5.099   0.147   1.479
10306SOL    HW131817   5.179   0.186   1.434
10306SOL    HW231818   5.017   0.168   1.426
10307SOL     OW31819   2.541   0.104   5.081
10307SOL    HW131820   2.473   0.129   5.150
10307SOL    HW231821   2.531   0.007   5.058
10308SOL     OW31822   2.562   4.540   2.865
10308SOL    HW131823   2.608   4.562   2.779
10308SOL    HW231824   2.499   4.463   2.850
10309SOL     OW31825   6.259   1.172   5.207
10309SOL    HW131826   6.286   1.223   5.288
10309SOL    HW231827   6.293   1.078   5.214
10310SOL     OW31828   2.908   3.035   5.692
10310SOL    HW131829   2.940   3.121   5.652
10310SOL    HW231830   2.905   3.044   5.791
10311SOL     OW31831   5.580   6.381   0.153
10311SOL    HW131832   5.554   6.409   0.245
10311SOL    HW231833   5.499   6.378   0.094
10312SOL     OW31834   4.742   0.099   1.995
10312SOL    HW131835   4.755   0.190   2.034
10312SOL    HW231836   4.753   0.030   2.067
10313SOL     OW31837   5.002   6.382   3.054
10313SOL    HW131838   5.019   6.385   2.955
10313SOL    HW231839   5.056   6.452   3.099
10314SOL     OW31840   0.829   0.032   1.102
10314SOL    HW131841   0.825   0.008   1.199
10314SOL    HW231842   0.898   6.999   1.057
10315SOL     OW31843   5.329   6.507   3.702
10315SOL    HW131844   5.243   6.491   3.749
10315SOL    HW231845   5.338   6.444   3.625
10316SOL     OW31846   0.327   2.416   0.074
10316SOL    HW131847   0.355   2.462   7.014
10316SOL    HW231848   0.317   2.484   0.147
10317SOL     OW31849   3.222   6.041   5.845
10317SOL    HW131850   3.183   5.950   5.863
10317SOL    HW231851   3.249   6.082   5.932
10318SOL     OW31852   6.212   6.657   0.031
10318SOL    HW131853   6.204   6.652   6.956
10318SOL    HW231854   6.308   6.675   0.056
10319SOL     OW31855   0.258   4.572   4.384
10319SOL    HW131856   0.184   4.598   4.446
10319SOL    HW231857   0.299   4.654   4.344
10320SOL     OW31858   0.730   0.020   4.114
10320SOL    HW131859   0.722   0.113   4.151
10320SOL    HW231860   0.822   7.010   4.129
10321SOL     OW31861   5.622   2.499   1.984
10321SOL    HW131862   5.716   2.485   2.016
10321SOL    HW231863   5.559   2.448   2.042
10322SOL     OW31864   4.663   4.445   4.962
10322SOL    HW131865   4.712   4.436   5.049
10322SOL    HW231866   4.565   4.456   4.980
10323SOL     OW31867   0.170   4.308   4.882
10323SOL    HW131868   0.165   4.248   4.803
10323SOL    HW231869   0.211   4.396   4.856
10324SOL     OW31870   3.253   3.335   2.306
10324SOL    HW131871   3.314   3.256   2.302
10324SOL    HW231872   3.295   3.412   2.259
10325SOL     OW31873   0.457   6.197   2.924
10325SOL    HW131874   0.493   6.113   2.885
10325SOL    HW231875   0.469   6.196   3.023
10326SOL     OW31876   5.432   3.183   6.516
10326SOL    HW131877   5.501   3.225   6.456
10326SOL    HW231878   5.366   3.133   6.460
10327SOL     OW31879   2.569   3.990   1.040
10327SOL    HW131880   2.572   4.083   1.003
10327SOL    HW231881   2.619   3.987   1.127
10328SOL     OW31882   6.618   2.785   1.866
10328SOL    HW131883   6.609   2.691   1.833
10328SOL    HW231884   6.527   2.826   1.876
10329SOL     OW31885   3.651   1.758   2.862
10329SOL    HW131886   3.611   1.820   2.795
10329SOL    HW231887   3.578   1.706   2.907
10330SOL     OW31888   4.458   0.566   1.515
10330SOL    HW131889   4.452   0.476   1.559
10330SOL    HW231890   4.500   0.632   1.578
10331SOL     OW31891   6.345   5.740   0.311
10331SOL    HW131892   6.433   5.749   0.265
10331SOL    HW231893   6.272   5.765   0.248
10332SOL     OW31894   1.054   1.092   0.341
10332SOL    HW131895   1.151   1.116   0.331
10332SOL    HW231896   1.039   1.000   0.305
10333SOL     OW31897   0.988   5.454   4.355
10333SOL    HW131898   1.072   5.401   4.345
10333SOL    HW231899   0.920   5.401   4.406
10334SOL     OW31900   3.200   0.202   3.955
10334SOL    HW131901   3.287   0.152   3.948
10334SOL    HW231902   3.160   0.187   4.045
10335SOL     OW31903   0.331   3.269   5.883
10335SOL    HW131904   0.289   3.359   5.883
10335SOL    HW231905   0.420   3.274   5.837
10336SOL     OW31906   5.388   0.331   2.790
10336SOL    HW131907   5.351   0.359   2.701
10336SOL    HW231908   5.473   0.280   2.776
10337SOL     OW31909   6.262   5.181   0.208
10337SOL    HW131910   6.311   5.268   0.206
10337SOL    HW231911   6.218   5.169   0.297
10338SOL     OW31912   1.912   6.489   1.961
10338SOL    HW131913   1.943   6.440   1.879
10338SOL    HW231914   1.981   6.556   1.988
10339SOL     OW31915   6.642   2.210   5.895
10339SOL    HW131916   6.601   2.216   5.986
10339SOL    HW231917   6.633   2.299   5.848
10340SOL     OW31918   2.261   3.876   6.347
10340SOL    HW131919   2.225   3.906   6.259
10340SOL    HW231920   2.218   3.929   6.420
10341SOL     OW31921   2.451   2.625   2.720
10341SOL    HW131922   2.432   2.628   2.622
10341SOL    HW231923   2.407   2.703   2.765
10342SOL     OW31924   1.177   0.650   3.568
10342SOL    HW131925   1.235   0.713   3.619
10342SOL    HW231926   1.192   0.664   3.470
10343SOL     OW31927   2.251   5.578   0.891
10343SOL    HW131928   2.263   5.540   0.983
10343SOL    HW231929   2.320   5.649   0.875
10344SOL     OW31930   3.841   4.572   6.500
10344SOL    HW131931   3.806   4.555   6.408
10344SOL    HW231932   3.825   4.667   6.525
10345SOL     OW31933   1.334   3.080   5.129
10345SOL    HW131934   1.377   3.016   5.065
10345SOL    HW231935   1.399   3.102   5.202
10346SOL     OW31936   0.455   5.943   1.807
10346SOL    HW131937   0.458   6.029   1.757
10346SOL    HW231938   0.542   5.895   1.796
10347SOL     OW31939   4.945   1.658   3.622
10347SOL    HW131940   5.030   1.645   3.571
10347SOL    HW231941   4.895   1.737   3.585
10348SOL     OW31942   6.153   4.026   0.770
10348SOL    HW131943   6.124   4.083   0.693
10348SOL    HW231944   6.250   4.038   0.787
10349SOL     OW31945   6.890   6.192   6.289
10349SOL    HW131946   6.828   6.234   6.356
10349SOL    HW231947   6.836   6.149   6.217
10350SOL     OW31948   3.057   0.090   5.514
10350SOL    HW131949   3.038   0.032   5.593
10350SOL    HW231950   2.991   0.165   5.510
10351SOL     OW31951   4.525   5.105   5.847
10351SOL    HW131952   4.486   5.015   5.827
10351SOL    HW231953   4.582   5.135   5.771
10352SOL     OW31954   3.636   2.412   6.042
10352SOL    HW131955   3.724   2.460   6.046
10352SOL    HW231956   3.639   2.334   6.106
10353SOL     OW31957   6.753   2.693   5.139
10353SOL    HW131958   6.692   2.754   5.089
10353SOL    HW231959   6.822   2.655   5.077
10354SOL     OW31960   5.334   1.565   2.200
10354SOL    HW131961   5.327   1.657   2.163
10354SOL    HW231962   5.247   1.538   2.240
10355SOL     OW31963   2.391   5.751   2.169
10355SOL    HW131964   2.439   5.743   2.081
10355SOL    HW231965   2.317   5.819   2.160
10356SOL     OW31966   0.180   3.919   5.402
10356SOL    HW131967   0.186   3.949   5.307
10356SOL    HW231968   0.157   3.822   5.404
10357SOL     OW31969   2.404   1.645   7.012
10357SOL    HW131970   2.478   1.649   0.055
10357SOL    HW231971   2.436   1.685   6.926
10358SOL     OW31972   0.125   1.746   1.708
10358SOL    HW131973   0.061   1.818   1.736
10358SOL    HW231974   0.200   1.740   1.774
10359SOL     OW31975   0.323   1.092   1.763
10359SOL    HW131976   0.323   1.044   1.851
10359SOL    HW231977   0.230   1.094   1.727
10360SOL     OW31978   5.609   6.481   3.377
10360SOL    HW131979   5.632   6.426   3.457
10360SOL    HW231980   5.660   6.567   3.380
10361SOL     OW31981   2.865   5.113   1.555
10361SOL    HW131982   2.887   5.199   1.600
10361SOL    HW231983   2.766   5.100   1.554
10362SOL     OW31984   2.057   4.482   4.775
10362SOL    HW131985   1.976   4.428   4.800
10362SOL    HW231986   2.030   4.573   4.747
10363SOL     OW31987   5.262   0.919   3.673
10363SOL    HW131988   5.301   0.828   3.684
10363SOL    HW231989   5.237   0.956   3.763
10364SOL     OW31990   1.837   4.382   1.476
10364SOL    HW131991   1.809   4.292   1.506
10364SOL    HW231992   1.933   4.398   1.501
10365SOL     OW31993   4.826   5.329   0.015
10365SOL    HW131994   4.777   5.350   0.099
10365SOL    HW231995   4.773   5.362   6.961
10366SOL     OW31996   3.305   6.420   3.302
10366SOL    HW131997   3.270   6.474   3.225
10366SOL    HW231998   3.240   6.423   3.377
10367SOL     OW31999   6.867   2.633   3.655
10367SOL    HW132000   6.901   2.553   3.605
10367SOL    HW232001   6.834   2.702   3.590
10368SOL     OW32002   2.274   0.792   1.747
10368SOL    HW132003   2.256   0.889   1.732
10368SOL    HW232004   2.309   0.779   1.840
10369SOL     OW32005   3.813   2.407   0.053
10369SOL    HW132006   3.722   2.448   0.048
10369SOL    HW232007   3.868   2.456   0.121
10370SOL     OW32008   3.528   0.845   5.610
10370SOL    HW132009   3.542   0.755   5.651
10370SOL    HW232010   3.557   0.844   5.515
10371SOL     OW32011   4.914   6.434   5.363
10371SOL    HW132012   4.897   6.351   5.416
10371SOL    HW232013   4.991   6.484   5.402
10372SOL     OW32014   1.569   0.803   3.541
10372SOL    HW132015   1.633   0.826   3.614
10372SOL    HW232016   1.606   0.834   3.453
10373SOL     OW32017   0.765   5.768   4.527
10373SOL    HW132018   0.810   5.839   4.581
10373SOL    HW232019   0.759   5.798   4.431
10374SOL     OW32020   2.902   2.286   2.879
10374SOL    HW132021   2.822   2.275   2.938
10374SOL    HW232022   2.984   2.262   2.930
10375SOL     OW32023   5.939   2.011   0.724
10375SOL    HW132024   5.966   1.955   0.802
10375SOL    HW232025   5.976   2.104   0.735
10376SOL     OW32026   0.597   1.165   3.702
10376SOL    HW132027   0.650   1.177   3.618
10376SOL    HW232028   0.501   1.188   3.685
10377SOL     OW32029   1.076   0.010   4.416
10377SOL    HW132030   1.161   6.986   4.393
10377SOL    HW232031   1.038   0.052   4.334
10378SOL     OW32032   0.082   6.862   6.537
10378SOL    HW132033   0.042   6.917   6.464
10378SOL    HW232034   0.021   6.863   6.617
10379SOL     OW32035   5.399   1.659   4.069
10379SOL    HW132036   5.467   1.732   4.075
10379SOL    HW232037   5.333   1.680   3.997
10380SOL     OW32038   4.992   0.433   2.223
10380SOL    HW132039   5.000   0.517   2.276
10380SOL    HW232040   5.080   0.387   2.218
10381SOL     OW32041   4.811   4.971   5.336
10381SOL    HW132042   4.733   4.910   5.351
10381SOL    HW232043   4.884   4.949   5.400
10382SOL     OW32044   2.477   5.304   0.341
10382SOL    HW132045   2.509   5.374   0.277
10382SOL    HW232046   2.484   5.338   0.435
10383SOL     OW32047   0.247   2.255   0.329
10383SOL    HW132048   0.341   2.255   0.363
10383SOL    HW232049   0.239   2.188   0.255
10384SOL     OW32050   5.999   6.977   0.025
10384SOL    HW132051   6.013   0.018   6.975
10384SOL    HW232052   5.936   7.017   0.092
10385SOL     OW32053   6.019   1.797   6.670
10385SOL    HW132054   6.065   1.740   6.603
10385SOL    HW232055   5.975   1.739   6.739
10386SOL     OW32056   6.142   2.818   5.971
10386SOL    HW132057   6.086   2.845   5.893
10386SOL    HW232058   6.124   2.878   6.048
10387SOL     OW32059   1.995   3.017   3.236
10387SOL    HW132060   2.012   2.993   3.331
10387SOL    HW232061   1.956   2.939   3.188
10388SOL     OW32062   1.833   4.755   2.976
10388SOL    HW132063   1.870   4.719   2.891
10388SOL    HW232064   1.899   4.743   3.050
10389SOL     OW32065   0.659   5.039   3.110
10389SOL    HW132066   0.701   4.988   3.185
10389SOL    HW232067   0.645   5.134   3.139
10390SOL     OW32068   1.529   3.278   3.720
10390SOL    HW132069   1.585   3.278   3.803
10390SOL    HW232070   1.485   3.368   3.710
10391SOL     OW32071   2.617   6.630   6.132
10391SOL    HW132072   2.551   6.637   6.058
10391SOL    HW232073   2.582   6.679   6.213
10392SOL     OW32074   6.632   5.298   6.961
10392SOL    HW132075   6.645   5.280   6.864
10392SOL    HW232076   6.672   5.387   6.984
10393SOL     OW32077   1.275   1.349   3.970
10393SOL    HW132078   1.275   1.433   3.916
10393SOL    HW232079   1.194   1.346   4.029
10394SOL     OW32080   2.007   6.449   6.981
10394SOL    HW132081   1.956   6.525   6.942
10394SOL    HW232082   2.017   6.461   0.055
10395SOL     OW32083   0.450   1.248   4.689
10395SOL    HW132084   0.440   1.156   4.652
10395SOL    HW232085   0.405   1.253   4.779
10396SOL     OW32086   0.326   0.233   4.965
10396SOL    HW132087   0.234   0.195   4.980
10396SOL    HW232088   0.392   0.184   5.022
10397SOL     OW32089   4.111   1.766   2.853
10397SOL    HW132090   4.143   1.768   2.948
10397SOL    HW232091   4.028   1.711   2.847
10398SOL     OW32092   6.619   2.702   2.365
10398SOL    HW132093   6.543   2.662   2.313
10398SOL    HW232094   6.702   2.701   2.308
10399SOL     OW32095   5.865   1.769   5.444
10399SOL    HW132096   5.806   1.829   5.389
10399SOL    HW232097   5.848   1.786   5.541
10400SOL     OW32098   2.320   4.595   1.605
10400SOL    HW132099   2.306   4.680   1.655
10400SOL    HW232100   2.384   4.611   1.529
10401SOL     OW32101   0.354   6.439   1.281
10401SOL    HW132102   0.354   6.369   1.352
10401SOL    HW232103   0.298   6.409   1.204
10402SOL     OW32104   0.514   3.348   4.213
10402SOL    HW132105   0.514   3.250   4.231
10402SOL    HW232106   0.593   3.371   4.156
10403SOL     OW32107   5.157   1.324   2.014
10403SOL    HW132108   5.149   1.278   2.102
10403SOL    HW232109   5.066   1.356   1.985
10404SOL     OW32110   0.531   6.164   3.960
10404SOL    HW132111   0.465   6.236   3.984
10404SOL    HW232112   0.556   6.113   4.042
10405SOL     OW32113   1.649   6.488   6.301
10405SOL    HW132114   1.604   6.570   6.265
10405SOL    HW232115   1.747   6.493   6.282
10406SOL     OW32116   2.594   5.092   6.145
10406SOL    HW132117   2.528   5.144   6.091
10406SOL    HW232118   2.654   5.041   6.084
10407SOL     OW32119   1.100   1.208   6.984
10407SOL    HW132120   1.033   1.249   0.020
10407SOL    HW232121   1.166   1.156   0.013
10408SOL     OW32122   4.255   5.189   3.439
10408SOL    HW132123   4.312   5.218   3.362
10408SOL    HW232124   4.208   5.104   3.415
10409SOL     OW32125   6.267   5.010   2.344
10409SOL    HW132126   6.262   5.108   2.363
10409SOL    HW232127   6.277   4.960   2.430
10410SOL     OW32128   6.204   6.844   0.949
10410SOL    HW132129   6.118   6.872   0.991
10410SOL    HW232130   6.248   6.776   1.007
10411SOL     OW32131   2.015   4.342   2.550
10411SOL    HW132132   2.012   4.284   2.468
10411SOL    HW232133   2.104   4.387   2.555
10412SOL     OW32134   0.758   2.129   6.945
10412SOL    HW132135   0.809   2.201   6.898
10412SOL    HW232136   0.710   2.167   7.023
10413SOL     OW32137   0.518   1.868   6.669
10413SOL    HW132138   0.536   1.963   6.694
10413SOL    HW232139   0.448   1.865   6.597
10414SOL     OW32140   5.551   6.909   5.405
10414SOL    HW132141   5.554   6.988   5.344
10414SOL    HW232142   5.641   6.896   5.447
10415SOL     OW32143   0.700   5.609   3.346
10415SOL    HW132144   0.759   5.590   3.424
10415SOL    HW232145   0.746   5.671   3.282
10416SOL     OW32146   5.229   0.758   6.529
10416SOL    HW132147   5.224   0.855   6.508
10416SOL    HW232148   5.141   0.714   6.507
10417SOL     OW32149   3.737   5.050   4.623
10417SOL    HW132150   3.817   5.034   4.566
10417SOL    HW232151   3.667   5.098   4.570
10418SOL     OW32152   6.462   3.748   6.401
10418SOL    HW132153   6.423   3.779   6.487
10418SOL    HW232154   6.399   3.682   6.358
10419SOL     OW32155   2.456   1.680   4.388
10419SOL    HW132156   2.410   1.608   4.337
10419SOL    HW232157   2.396   1.714   4.460
10420SOL     OW32158   5.496   3.551   3.389
10420SOL    HW132159   5.475   3.581   3.483
10420SOL    HW232160   5.486   3.452   3.383
10421SOL     OW32161   0.796   4.852   3.868
10421SOL    HW132162   0.876   4.843   3.810
10421SOL    HW232163   0.766   4.947   3.870
10422SOL     OW32164   6.665   3.686   5.260
10422SOL    HW132165   6.659   3.786   5.264
10422SOL    HW232166   6.607   3.652   5.186
10423SOL     OW32167   2.429   5.042   4.070
10423SOL    HW132168   2.420   4.943   4.079
10423SOL    HW232169   2.344   5.081   4.036
10424SOL     OW32170   3.345   1.130   0.409
10424SOL    HW132171   3.392   1.126   0.497
10424SOL    HW232172   3.336   1.037   0.372
10425SOL     OW32173   1.423   2.670   0.963
10425SOL    HW132174   1.414   2.724   0.879
10425SOL    HW232175   1.459   2.579   0.941
10426SOL     OW32176   6.435   1.892   6.152
10426SOL    HW132177   6.390   1.954   6.087
10426SOL    HW232178   6.460   1.943   6.234
10427SOL     OW32179   5.302   0.937   4.234
10427SOL    HW132180   5.240   0.878   4.286
10427SOL    HW232181   5.394   0.898   4.235
10428SOL     OW32182   2.510   0.431   4.260
10428SOL    HW132183   2.533   0.337   4.232
10428SOL    HW232184   2.588   0.491   4.242
10429SOL     OW32185   1.151   3.103   1.286
10429SOL    HW132186   1.164   3.019   1.233
10429SOL    HW232187   1.240   3.146   1.303
10430SOL     OW32188   2.979   7.002   3.781
10430SOL    HW132189   3.074   6.973   3.769
10430SOL    HW232190   2.962   0.059   3.727
10431SOL     OW32191   4.138   0.375   3.134
10431SOL    HW132192   4.107   0.325   3.052
10431SOL    HW232193   4.156   0.470   3.109
10432SOL     OW32194   0.385   5.586   6.371
10432SOL    HW132195   0.424   5.609   6.282
10432SOL    HW232196   0.368   5.487   6.376
10433SOL     OW32197   2.985   6.864   3.090
10433SOL    HW132198   3.000   6.940   3.152
10433SOL    HW232199   2.939   6.896   3.007
10434SOL     OW32200   5.135   0.935   5.787
10434SOL    HW132201   5.162   1.031   5.785
10434SOL    HW232202   5.215   0.877   5.770
10435SOL     OW32203   2.414   1.893   0.329
10435SOL    HW132204   2.378   1.891   0.236
10435SOL    HW232205   2.350   1.943   0.388
10436SOL     OW32206   0.009   3.682   5.028
10436SOL    HW132207   0.034   3.766   4.979
10436SOL    HW232208   0.052   3.604   4.984
10437SOL     OW32209   5.758   6.680   4.666
10437SOL    HW132210   5.823   6.604   4.656
10437SOL    HW232211   5.719   6.678   4.758
10438SOL     OW32212   6.809   5.730   6.772
10438SOL    HW132213   6.806   5.728   6.673
10438SOL    HW232214   6.801   5.637   6.808
10439SOL     OW32215   6.374   5.736   4.427
10439SOL    HW132216   6.460   5.702   4.465
10439SOL    HW232217   6.321   5.659   4.390
10440SOL     OW32218   6.236   2.589   0.951
10440SOL    HW132219   6.305   2.653   0.919
10440SOL    HW232220   6.256   2.498   0.915
10441SOL     OW32221   4.446   1.890   6.868
10441SOL    HW132222   4.541   1.860   6.874
10441SOL    HW232223   4.430   1.961   6.936
10442SOL     OW32224   1.700   1.446   4.875
10442SOL    HW132225   1.648   1.464   4.958
10442SOL    HW232226   1.638   1.414   4.803
10443SOL     OW32227   0.418   1.453   1.143
10443SOL    HW132228   0.507   1.409   1.140
10443SOL    HW232229   0.429   1.552   1.137
10444SOL     OW32230   4.086   5.037   4.558
10444SOL    HW132231   4.185   5.019   4.553
10444SOL    HW232232   4.050   5.046   4.465
10445SOL     OW32233   0.653   3.517   3.410
10445SOL    HW132234   0.609   3.532   3.498
10445SOL    HW232235   0.744   3.478   3.425
10446SOL     OW32236   2.440   4.485   5.653
10446SOL    HW132237   2.491   4.426   5.716
10446SOL    HW232238   2.364   4.433   5.614
10447SOL     OW32239   0.437   2.218   2.495
10447SOL    HW132240   0.467   2.298   2.548
10447SOL    HW232241   0.513   2.184   2.441
10448SOL     OW32242   2.261   6.534   1.648
10448SOL    HW132243   2.192   6.605   1.653
10448SOL    HW232244   2.337   6.556   1.709
10449SOL     OW32245   3.733   5.052   5.040
10449SOL    HW132246   3.679   5.004   5.110
10449SOL    HW232247   3.685   5.047   4.952
10450SOL     OW32248   6.734   0.536   5.269
10450SOL    HW132249   6.826   0.536   5.229
10450SOL    HW232250   6.670   0.491   5.206
10451SOL     OW32251   3.247   1.272   3.685
10451SOL    HW132252   3.233   1.370   3.669
10451SOL    HW232253   3.240   1.222   3.599
10452SOL     OW32254   6.068   2.741   4.537
10452SOL    HW132255   6.014   2.711   4.459
10452SOL    HW232256   6.089   2.662   4.595
10453SOL     OW32257   4.456   6.210   3.989
10453SOL    HW132258   4.406   6.143   3.933
10453SOL    HW232259   4.488   6.284   3.931
10454SOL     OW32260   6.514   1.531   6.512
10454SOL    HW132261   6.611   1.546   6.530
10454SOL    HW232262   6.474   1.615   6.475
10455SOL     OW32263   0.243   5.465   3.378
10455SOL    HW132264   0.240   5.366   3.366
10455SOL    HW232265   0.269   5.508   3.291
10456SOL     OW32266   1.247   5.277   6.549
10456SOL    HW132267   1.260   5.178   6.543
10456SOL    HW232268   1.150   5.298   6.534
10457SOL     OW32269   3.790   2.568   6.620
10457SOL    HW132270   3.869   2.581   6.679
10457SOL    HW232271   3.714   2.623   6.654
10458SOL     OW32272   0.105   5.995   6.815
10458SOL    HW132273   0.046   6.017   6.893
10458SOL    HW232274   0.167   5.920   6.840
10459SOL     OW32275   6.113   5.144   1.363
10459SOL    HW132276   6.157   5.067   1.316
10459SOL    HW232277   6.067   5.202   1.296
10460SOL     OW32278   6.918   0.527   0.857
10460SOL    HW132279   6.973   0.593   0.806
10460SOL    HW232280   6.823   0.533   0.828
10461SOL     OW32281   0.174   4.873   6.382
10461SOL    HW132282   0.218   4.798   6.432
10461SOL    HW232283   0.102   4.912   6.439
10462SOL     OW32284   3.970   2.441   6.193
10462SOL    HW132285   3.995   2.523   6.245
10462SOL    HW232286   3.878   2.412   6.220
10463SOL     OW32287   4.774   1.821   6.473
10463SOL    HW132288   4.694   1.854   6.523
10463SOL    HW232289   4.780   1.868   6.385
10464SOL     OW32290   6.532   4.892   2.274
10464SOL    HW132291   6.566   4.901   2.181
10464SOL    HW232292   6.443   4.938   2.281
10465SOL     OW32293   5.152   4.373   1.347
10465SOL    HW132294   5.158   4.356   1.446
10465SOL    HW232295   5.243   4.400   1.313
10466SOL     OW32296   6.339   4.454   6.059
10466SOL    HW132297   6.322   4.482   5.964
10466SOL    HW232298   6.399   4.519   6.103
10467SOL     OW32299   0.860   3.146   0.227
10467SOL    HW132300   0.811   3.123   0.311
10467SOL    HW232301   0.920   3.225   0.244
10468SOL     OW32302   1.855   4.496   3.640
10468SOL    HW132303   1.939   4.446   3.663
10468SOL    HW232304   1.787   4.432   3.605
10469SOL     OW32305   0.231   1.527   3.934
10469SOL    HW132306   0.157   1.564   3.877
10469SOL    HW232307   0.219   1.559   4.028
10470SOL     OW32308   2.100   3.403   2.898
10470SOL    HW132309   2.181   3.392   2.840
10470SOL    HW232310   2.096   3.328   2.965
10471SOL     OW32311   2.828   6.577   6.642
10471SOL    HW132312   2.912   6.563   6.589
10471SOL    HW232313   2.749   6.546   6.589
10472SOL     OW32314   3.869   5.087   6.660
10472SOL    HW132315   3.787   5.144   6.660
10472SOL    HW232316   3.945   5.136   6.618
10473SOL     OW32317   5.759   4.747   0.934
10473SOL    HW132318   5.777   4.735   0.836
10473SOL    HW232319   5.736   4.659   0.975
10474SOL     OW32320   5.762   0.893   4.873
10474SOL    HW132321   5.774   0.909   4.971
10474SOL    HW232322   5.846   0.854   4.835
10475SOL     OW32323   1.549   5.588   1.201
10475SOL    HW132324   1.481   5.548   1.262
10475SOL    HW232325   1.641   5.563   1.233
10476SOL     OW32326   4.870   6.684   0.713
10476SOL    HW132327   4.946   6.737   0.750
10476SOL    HW232328   4.879   6.589   0.741
10477SOL     OW32329   6.957   5.780   3.790
10477SOL    HW132330   6.960   5.798   3.888
10477SOL    HW232331   6.964   5.681   3.774
10478SOL     OW32332   6.888   1.032   6.841
10478SOL    HW132333   6.885   0.961   6.912
10478SOL    HW232334   6.919   1.118   6.882
10479SOL     OW32335   0.736   2.892   1.978
10479SOL    HW132336   0.767   2.801   2.006
10479SOL    HW232337   0.806   2.935   1.920
10480SOL     OW32338   2.672   6.946   3.042
10480SOL    HW132339   2.650   6.951   2.945
10480SOL    HW232340   2.587   6.933   3.094
10481SOL     OW32341   0.030   0.903   2.074
10481SOL    HW132342   6.986   0.968   2.042
10481SOL    HW232343   0.084   0.945   2.147
10482SOL     OW32344   5.482   3.416   4.022
10482SOL    HW132345   5.530   3.489   3.974
10482SOL    HW232346   5.548   3.350   4.059
10483SOL     OW32347   6.470   6.302   0.294
10483SOL    HW132348   6.392   6.346   0.249
10483SOL    HW232349   6.495   6.354   0.376
10484SOL     OW32350   6.281   1.267   2.725
10484SOL    HW132351   6.322   1.178   2.709
10484SOL    HW232352   6.348   1.339   2.708
10485SOL     OW32353   5.163   3.576   5.414
10485SOL    HW132354   5.076   3.590   5.460
10485SOL    HW232355   5.215   3.662   5.413
10486SOL     OW32356   5.590   3.035   2.304
10486SOL    HW132357   5.599   3.132   2.325
10486SOL    HW232358   5.519   3.022   2.235
10487SOL     OW32359   5.671   6.623   1.355
10487SOL    HW132360   5.677   6.525   1.377
10487SOL    HW232361   5.575   6.651   1.356
10488SOL     OW32362   2.663   2.456   0.017
10488SOL    HW132363   2.567   2.482   0.005
10488SOL    HW232364   2.670   2.357   0.026
10489SOL     OW32365   1.201   5.729   5.817
10489SOL    HW132366   1.135   5.742   5.891
10489SOL    HW232367   1.153   5.734   5.729
10490SOL     OW32368   0.122   0.337   4.090
10490SOL    HW132369   0.032   0.379   4.083
10490SOL    HW232370   0.188   0.403   4.126
10491SOL     OW32371   0.771   4.198   5.908
10491SOL    HW132372   0.821   4.181   5.823
10491SOL    HW232373   0.776   4.295   5.932
10492SOL     OW32374   3.895   3.618   5.624
10492SOL    HW132375   3.857   3.587   5.537
10492SOL    HW232376   3.822   3.656   5.680
10493SOL     OW32377   3.570   0.842   0.979
10493SOL    HW132378   3.505   0.777   0.940
10493SOL    HW232379   3.529   0.887   1.058
10494SOL     OW32380   5.652   2.466   4.188
10494SOL    HW132381   5.582   2.394   4.183
10494SOL    HW232382   5.742   2.426   4.173
10495SOL     OW32383   1.477   6.813   6.878
10495SOL    HW132384   1.408   6.870   6.833
10495SOL    HW232385   1.442   6.720   6.888
10496SOL     OW32386   6.572   0.160   5.466
10496SOL    HW132387   6.655   0.213   5.482
10496SOL    HW232388   6.493   0.221   5.468
10497SOL     OW32389   1.268   1.106   0.964
10497SOL    HW132390   1.192   1.168   0.982
10497SOL    HW232391   1.353   1.157   0.955
10498SOL     OW32392   3.154   5.592   6.083
10498SOL    HW132393   3.208   5.560   6.161
10498SOL    HW232394   3.079   5.529   6.066
10499SOL     OW32395   3.703   5.374   3.444
10499SOL    HW132396   3.749   5.461   3.464
10499SOL    HW232397   3.657   5.341   3.526
10500SOL     OW32398   1.272   2.028   6.256
10500SOL    HW132399   1.204   1.956   6.246
10500SOL    HW232400   1.266   2.091   6.179
10501SOL     OW32401   1.544   2.897   3.075
10501SOL    HW132402   1.548   2.853   3.164
10501SOL    HW232403   1.565   2.995   3.085
10502SOL     OW32404   2.989   6.494   5.979
10502SOL    HW132405   3.037   6.440   5.910
10502SOL    HW232406   2.994   6.447   6.067
10503SOL     OW32407   2.534   3.334   6.036
10503SOL    HW132408   2.503   3.246   6.071
10503SOL    HW232409   2.562   3.324   5.941
10504SOL     OW32410   2.808   3.115   0.653
10504SOL    HW132411   2.774   3.176   0.725
10504SOL    HW232412   2.907   3.126   0.645
10505SOL     OW32413   0.100   6.360   1.099
10505SOL    HW132414   0.028   6.393   1.159
10505SOL    HW232415   0.146   6.438   1.056
10506SOL     OW32416   0.874   4.181   5.649
10506SOL    HW132417   0.930   4.136   5.579
10506SOL    HW232418   0.794   4.222   5.606
10507SOL     OW32419   1.049   0.277   4.969
10507SOL    HW132420   0.982   0.348   4.945
10507SOL    HW232421   1.001   0.192   4.990
10508SOL     OW32422   5.211   4.498   2.926
10508SOL    HW132423   5.308   4.488   2.906
10508SOL    HW232424   5.198   4.510   3.024
10509SOL     OW32425   1.693   0.223   5.703
10509SOL    HW132426   1.739   0.305   5.736
10509SOL    HW232427   1.649   0.243   5.615
10510SOL     OW32428   6.603   5.820   0.088
10510SOL    HW132429   6.565   5.903   0.131
10510SOL    HW232430   6.672   5.846   0.021
10511SOL     OW32431   5.290   2.589   7.016
10511SOL    HW132432   5.359   2.547   0.051
10511SOL    HW232433   5.287   2.539   6.929
10512SOL     OW32434   3.436   6.531   6.703
10512SOL    HW132435   3.495   6.451   6.713
10512SOL    HW232436   3.489   6.608   6.667
10513SOL     OW32437   6.554   2.134   6.993
10513SOL    HW132438   6.557   2.067   6.919
10513SOL    HW232439   6.554   2.087   0.057
10514SOL     OW32440   0.114   4.255   1.606
10514SOL    HW132441   0.056   4.336   1.599
10514SOL    HW232442   0.087   4.188   1.537
10515SOL     OW32443   6.457   2.242   4.618
10515SOL    HW132444   6.505   2.311   4.672
10515SOL    HW232445   6.409   2.286   4.542
10516SOL     OW32446   4.013   0.484   6.539
10516SOL    HW132447   4.072   0.480   6.459
10516SOL    HW232448   4.007   0.578   6.572
10517SOL     OW32449   0.349   1.856   3.405
10517SOL    HW132450   0.320   1.877   3.498
10517SOL    HW232451   0.408   1.929   3.371
10518SOL     OW32452   0.714   6.552   1.346
10518SOL    HW132453   0.687   6.636   1.392
10518SOL    HW232454   0.663   6.543   1.260
10519SOL     OW32455   2.893   3.571   5.534
10519SOL    HW132456   2.881   3.610   5.443
10519SOL    HW232457   2.860   3.636   5.603
10520SOL     OW32458   4.152   2.899   6.087
10520SOL    HW132459   4.121   2.963   6.017
10520SOL    HW232460   4.230   2.938   6.136
10521SOL     OW32461   6.574   5.572   1.543
10521SOL    HW132462   6.521   5.501   1.589
10521SOL    HW232463   6.565   5.658   1.593
10522SOL     OW32464   6.023   0.355   2.036
10522SOL    HW132465   5.991   0.443   2.072
10522SOL    HW232466   6.068   0.370   1.948
10523SOL     OW32467   0.269   5.781   6.868
10523SOL    HW132468   0.283   5.764   6.771
10523SOL    HW232469   0.193   5.725   6.901
10524SOL     OW32470   3.309   0.846   4.241
10524SOL    HW132471   3.387   0.795   4.204
10524SOL    HW232472   3.294   0.928   4.185
10525SOL     OW32473   2.965   6.143   4.498
10525SOL    HW132474   2.921   6.217   4.448
10525SOL    HW232475   3.060   6.134   4.467
10526SOL     OW32476   5.638   6.718   2.618
10526SOL    HW132477   5.574   6.673   2.681
10526SOL    HW232478   5.731   6.689   2.639
10527SOL     OW32479   1.462   2.500   4.861
10527SOL    HW132480   1.497   2.450   4.940
10527SOL    HW232481   1.376   2.544   4.884
10528SOL     OW32482   6.485   4.864   4.999
10528SOL    HW132483   6.541   4.813   4.934
10528SOL    HW232484   6.404   4.811   5.022
10529SOL     OW32485   6.237   6.228   3.735
10529SOL    HW132486   6.331   6.243   3.705
10529SOL    HW232487   6.237   6.182   3.824
10530SOL     OW32488   1.901   1.585   5.975
10530SOL    HW132489   1.851   1.670   5.959
10530SOL    HW232490   1.993   1.593   5.936
10531SOL     OW32491   1.901   2.731   5.228
10531SOL    HW132492   1.967   2.772   5.166
10531SOL    HW232493   1.919   2.633   5.237
10532SOL     OW32494   3.474   2.688   5.745
10532SOL    HW132495   3.422   2.730   5.670
10532SOL    HW232496   3.449   2.733   5.831
10533SOL     OW32497   2.424   1.188   6.313
10533SOL    HW132498   2.361   1.125   6.265
10533SOL    HW232499   2.464   1.141   6.391
10534SOL     OW32500   6.147   5.463   0.965
10534SOL    HW132501   6.170   5.553   1.003
10534SOL    HW232502   6.091   5.476   0.883
10535SOL     OW32503   0.134   1.037   2.339
10535SOL    HW132504   0.145   1.131   2.372
10535SOL    HW232505   0.224   1.000   2.314
10536SOL     OW32506   4.396   0.334   3.182
10536SOL    HW132507   4.429   0.240   3.197
10536SOL    HW232508   4.297   0.334   3.174
10537SOL     OW32509   0.873   4.723   1.312
10537SOL    HW132510   0.967   4.694   1.329
10537SOL    HW232511   0.862   4.818   1.341
10538SOL     OW32512   5.326   3.646   0.191
10538SOL    HW132513   5.327   3.583   0.114
10538SOL    HW232514   5.399   3.714   0.180
10539SOL     OW32515   0.445   2.793   5.630
10539SOL    HW132516   0.460   2.892   5.638
10539SOL    HW232517   0.446   2.768   5.533
10540SOL     OW32518   2.654   0.656   6.993
10540SOL    HW132519   2.679   0.725   6.925
10540SOL    HW232520   2.730   0.593   7.007
10541SOL     OW32521   3.762   2.371   0.457
10541SOL    HW132522   3.773   2.461   0.416
10541SOL    HW232523   3.675   2.330   0.426
10542SOL     OW32524   0.686   2.496   0.294
10542SOL    HW132525   0.610   2.558   0.315
10542SOL    HW232526   0.652   2.402   0.291
10543SOL     OW32527   1.847   1.145   5.538
10543SOL    HW132528   1.756   1.149   5.580
10543SOL    HW232529   1.865   1.232   5.491
10544SOL     OW32530   0.815   2.639   2.075
10544SOL    HW132531   0.908   2.658   2.106
10544SOL    HW232532   0.782   2.555   2.120
10545SOL     OW32533   5.659   0.147   2.433
10545SOL    HW132534   5.730   0.131   2.365
10545SOL    HW232535   5.694   0.126   2.524
10546SOL     OW32536   3.034   0.872   4.270
10546SOL    HW132537   3.014   0.912   4.181
10546SOL    HW232538   3.132   0.849   4.274
10547SOL     OW32539   4.272   1.365   1.088
10547SOL    HW132540   4.209   1.427   1.041
10547SOL    HW232541   4.220   1.293   1.134
10548SOL     OW32542   4.879   4.039   4.853
10548SOL    HW132543   4.849   4.068   4.944
10548SOL    HW232544   4.871   3.940   4.844
10549SOL     OW32545   1.205   1.064   1.871
10549SOL    HW132546   1.152   1.001   1.927
10549SOL    HW232547   1.153   1.148   1.857
10550SOL     OW32548   4.967   0.317   4.439
10550SOL    HW132549   5.043   0.353   4.384
10550SOL    HW232550   4.917   0.393   4.480
10551SOL     OW32551   1.386   2.707   5.796
10551SOL    HW132552   1.474   2.673   5.829
10551SOL    HW232553   1.366   2.795   5.841
10552SOL     OW32554   2.980   2.217   5.322
10552SOL    HW132555   2.905   2.213   5.257
10552SOL    HW232556   3.046   2.286   5.292
10553SOL     OW32557   3.076   4.537   6.920
10553SOL    HW132558   3.059   4.558   6.824
10553SOL    HW232559   2.996   4.561   6.974
10554SOL     OW32560   6.747   4.369   6.077
10554SOL    HW132561   6.733   4.307   6.001
10554SOL    HW232562   6.671   4.434   6.082
10555SOL     OW32563   3.073   2.324   1.185
10555SOL    HW132564   3.011   2.269   1.129
10555SOL    HW232565   3.070   2.291   1.280
10556SOL     OW32566   2.093   3.196   4.596
10556SOL    HW132567   2.029   3.135   4.644
10556SOL    HW232568   2.134   3.147   4.519
10557SOL     OW32569   6.211   2.901   3.734
10557SOL    HW132570   6.211   2.930   3.830
10557SOL    HW232571   6.221   2.801   3.729
10558SOL     OW32572   5.345   6.534   5.107
10558SOL    HW132573   5.385   6.596   5.039
10558SOL    HW232574   5.367   6.567   5.199
10559SOL     OW32575   4.135   2.212   0.528
10559SOL    HW132576   4.172   2.130   0.573
10559SOL    HW232577   4.100   2.275   0.597
10560SOL     OW32578   0.553   3.071   4.270
10560SOL    HW132579   0.494   3.053   4.191
10560SOL    HW232580   0.499   3.065   4.354
10561SOL     OW32581   2.473   4.025   6.817
10561SOL    HW132582   2.521   4.023   6.905
10561SOL    HW232583   2.518   3.962   6.753
10562SOL     OW32584   3.603   1.039   0.170
10562SOL    HW132585   3.573   0.957   0.121
10562SOL    HW232586   3.678   1.014   0.232
10563SOL     OW32587   1.476   1.532   4.581
10563SOL    HW132588   1.449   1.583   4.663
10563SOL    HW232589   1.502   1.597   4.509
10564SOL     OW32590   6.588   1.792   2.186
10564SOL    HW132591   6.567   1.731   2.264
10564SOL    HW232592   6.509   1.794   2.125
10565SOL     OW32593   5.841   2.084   4.992
10565SOL    HW132594   5.803   1.992   4.982
10565SOL    HW232595   5.867   2.119   4.902
10566SOL     OW32596   3.939   4.437   6.740
10566SOL    HW132597   3.916   4.515   6.682
10566SOL    HW232598   3.877   4.435   6.818
10567SOL     OW32599   1.742   4.874   4.138
10567SOL    HW132600   1.719   4.807   4.208
10567SOL    HW232601   1.785   4.954   4.181
10568SOL     OW32602   4.093   1.480   3.454
10568SOL    HW132603   4.167   1.421   3.422
10568SOL    HW232604   4.087   1.475   3.553
10569SOL     OW32605   6.071   3.147   4.125
10569SOL    HW132606   6.028   3.080   4.187
10569SOL    HW232607   6.046   3.239   4.154
10570SOL     OW32608   1.607   4.515   2.892
10570SOL    HW132609   1.541   4.444   2.867
10570SOL    HW232610   1.689   4.473   2.931
10571SOL     OW32611   6.002   6.827   3.921
10571SOL    HW132612   6.047   6.890   3.858
10571SOL    HW232613   5.967   6.878   3.999
10572SOL     OW32614   6.111   3.519   1.976
10572SOL    HW132615   6.131   3.502   2.072
10572SOL    HW232616   6.164   3.456   1.919
10573SOL     OW32617   5.934   4.597   5.849
10573SOL    HW132618   5.924   4.676   5.910
10573SOL    HW232619   5.889   4.615   5.762
10574SOL     OW32620   0.594   1.952   2.945
10574SOL    HW132621   0.681   1.932   2.990
10574SOL    HW232622   0.545   2.022   2.997
10575SOL     OW32623   0.890   6.661   5.487
10575SOL    HW132624   0.800   6.679   5.527
10575SOL    HW232625   0.950   6.739   5.504
10576SOL     OW32626   1.664   5.072   3.539
10576SOL    HW132627   1.744   5.062   3.599
10576SOL    HW232628   1.692   5.114   3.453
10577SOL     OW32629   1.328   1.986   5.440
10577SOL    HW132630   1.289   2.040   5.365
10577SOL    HW232631   1.422   2.015   5.457
10578SOL     OW32632   6.305   0.712   5.869
10578SOL    HW132633   6.341   0.797   5.906
10578SOL    HW232634   6.240   0.732   5.795
10579SOL     OW32635   4.531   1.707   0.469
10579SOL    HW132636   4.477   1.719   0.386
10579SOL    HW232637   4.626   1.686   0.445
10580SOL     OW32638   6.495   6.088   0.132
10580SOL    HW132639   6.542   6.114   0.048
10580SOL    HW232640   6.483   6.169   0.190
10581SOL     OW32641   5.050   1.106   3.606
10581SOL    HW132642   5.043   1.176   3.677
10581SOL    HW232643   5.116   1.036   3.634
10582SOL     OW32644   3.594   4.714   6.770
10582SOL    HW132645   3.632   4.729   6.861
10582SOL    HW232646   3.564   4.619   6.761
10583SOL     OW32647   4.548   1.865   0.833
10583SOL    HW132648   4.516   1.833   0.744
10583SOL    HW232649   4.519   1.959   0.847
10584SOL     OW32650   5.830   0.108   1.882
10584SOL    HW132651   5.850   0.187   1.824
10584SOL    HW232652   5.870   0.122   1.972
10585SOL     OW32653   1.551   3.806   6.565
10585SOL    HW132654   1.623   3.849   6.511
10585SOL    HW232655   1.472   3.868   6.570
10586SOL     OW32656   4.022   0.508   6.914
10586SOL    HW132657   4.003   0.561   6.997
10586SOL    HW232658   4.060   0.569   6.844
10587SOL     OW32659   6.326   3.893   1.072
10587SOL    HW132660   6.239   3.853   1.041
10587SOL    HW232661   6.389   3.898   0.995
10588SOL     OW32662   0.031   5.462   2.748
10588SOL    HW132663   0.101   5.392   2.757
10588SOL    HW232664   6.994   5.459   2.827
10589SOL     OW32665   6.091   1.697   4.118
10589SOL    HW132666   6.057   1.603   4.117
10589SOL    HW232667   6.188   1.696   4.094
10590SOL     OW32668   1.003   0.742   3.878
10590SOL    HW132669   1.102   0.737   3.890
10590SOL    HW232670   0.973   0.672   3.813
10591SOL     OW32671   1.326   3.049   0.706
10591SOL    HW132672   1.351   2.952   0.709
10591SOL    HW232673   1.230   3.059   0.682
10592SOL     OW32674   6.680   1.349   0.053
10592SOL    HW132675   6.762   1.392   0.091
10592SOL    HW232676   6.693   1.250   0.048
10593SOL     OW32677   1.869   5.100   1.002
10593SOL    HW132678   1.799   5.092   0.931
10593SOL    HW232679   1.949   5.148   0.965
10594SOL     OW32680   0.645   2.151   4.356
10594SOL    HW132681   0.709   2.184   4.426
10594SOL    HW232682   0.625   2.225   4.292
10595SOL     OW32683   3.326   6.141   6.099
10595SOL    HW132684   3.380   6.058   6.100
10595SOL    HW232685   3.283   6.155   6.188
10596SOL     OW32686   3.538   0.974   1.396
10596SOL    HW132687   3.559   0.876   1.401
10596SOL    HW232688   3.621   1.027   1.411
10597SOL     OW32689   1.384   0.082   4.463
10597SOL    HW132690   1.370   7.011   4.436
10597SOL    HW232691   1.480   0.105   4.454
10598SOL     OW32692   1.855   2.021   0.134
10598SOL    HW132693   1.839   2.060   0.225
10598SOL    HW232694   1.802   2.072   0.067
10599SOL     OW32695   4.973   1.277   6.850
10599SOL    HW132696   4.887   1.227   6.843
10599SOL    HW232697   5.036   1.226   6.908
10600SOL     OW32698   2.178   2.879   6.106
10600SOL    HW132699   2.210   2.830   6.187
10600SOL    HW232700   2.151   2.813   6.036
10601SOL     OW32701   3.095   6.842   5.905
10601SOL    HW132702   3.019   6.783   5.934
10601SOL    HW232703   3.159   6.854   5.981
10602SOL     OW32704   4.485   1.267   2.108
10602SOL    HW132705   4.539   1.339   2.064
10602SOL    HW232706   4.545   1.194   2.140
10603SOL     OW32707   1.626   5.414   4.846
10603SOL    HW132708   1.694   5.486   4.857
10603SOL    HW232709   1.541   5.453   4.811
10604SOL     OW32710   0.133   4.229   5.123
10604SOL    HW132711   0.214   4.237   5.181
10604SOL    HW232712   0.153   4.268   5.033
10605SOL     OW32713   2.042   4.987   6.724
10605SOL    HW132714   2.024   5.085   6.733
10605SOL    HW232715   1.958   4.940   6.695
10606SOL     OW32716   0.604   0.624   2.896
10606SOL    HW132717   0.586   0.631   2.798
10606SOL    HW232718   0.518   0.610   2.945
10607SOL     OW32719   5.351   5.062   0.137
10607SOL    HW132720   5.281   5.051   0.067
10607SOL    HW232721   5.318   5.125   0.208
10608SOL     OW32722   6.070   1.673   3.425
10608SOL    HW132723   6.049   1.759   3.470
10608SOL    HW232724   6.005   1.658   3.350
10609SOL     OW32725   3.966   6.364   1.654
10609SOL    HW132726   3.920   6.448   1.682
10609SOL    HW232727   3.937   6.288   1.713
10610SOL     OW32728   1.544   3.052   5.596
10610SOL    HW132729   1.470   3.091   5.651
10610SOL    HW232730   1.623   3.115   5.597
10611SOL     OW32731   5.242   2.466   6.513
10611SOL    HW132732   5.204   2.382   6.474
10611SOL    HW232733   5.301   2.510   6.446
10612SOL     OW32734   1.667   6.797   0.552
10612SOL    HW132735   1.611   6.715   0.569
10612SOL    HW232736   1.651   6.829   0.459
10613SOL     OW32737   0.741   6.517   6.157
10613SOL    HW132738   0.762   6.614   6.142
10613SOL    HW232739   0.667   6.489   6.096
10614SOL     OW32740   6.501   1.180   4.559
10614SOL    HW132741   6.475   1.144   4.470
10614SOL    HW232742   6.513   1.105   4.624
10615SOL     OW32743   6.091   5.774   5.543
10615SOL    HW132744   6.168   5.832   5.568
10615SOL    HW232745   6.082   5.700   5.609
10616SOL     OW32746   2.920   5.733   0.356
10616SOL    HW132747   2.968   5.754   0.271
10616SOL    HW232748   2.985   5.736   0.432
10617SOL     OW32749   1.242   2.208   6.480
10617SOL    HW132750   1.251   2.119   6.435
10617SOL    HW232751   1.292   2.277   6.428
10618SOL     OW32752   6.033   3.891   0.988
10618SOL    HW132753   6.080   3.938   0.913
10618SOL    HW232754   5.970   3.824   0.949
10619SOL     OW32755   1.354   4.038   4.062
10619SOL    HW132756   1.363   3.963   4.128
10619SOL    HW232757   1.304   4.113   4.104
10620SOL     OW32758   1.428   5.726   4.596
10620SOL    HW132759   1.439   5.626   4.591
10620SOL    HW232760   1.481   5.761   4.673
10621SOL     OW32761   2.880   6.166   1.039
10621SOL    HW132762   2.884   6.260   1.071
10621SOL    HW232763   2.788   6.147   1.004
10622SOL     OW32764   4.147   1.139   1.509
10622SOL    HW132765   4.202   1.218   1.482
10622SOL    HW232766   4.206   1.059   1.522
10623SOL     OW32767   6.734   1.530   3.670
10623SOL    HW132768   6.726   1.439   3.711
10623SOL    HW232769   6.809   1.580   3.714
10624SOL     OW32770   2.203   0.539   3.963
10624SOL    HW132771   2.193   0.474   4.037
10624SOL    HW232772   2.203   0.490   3.875
10625SOL     OW32773   0.227   3.514   6.834
10625SOL    HW132774   0.242   3.517   6.933
10625SOL    HW232775   0.184   3.427   6.810
10626SOL     OW32776   0.180   2.595   1.238
10626SOL    HW132777   0.235   2.598   1.154
10626SOL    HW232778   0.209   2.669   1.299
10627SOL     OW32779   6.063   5.677   4.405
10627SOL    HW132780   6.074   5.711   4.499
10627SOL    HW232781   6.018   5.747   4.350
10628SOL     OW32782   6.299   5.626   6.121
10628SOL    HW132783   6.311   5.548   6.060
10628SOL    HW232784   6.302   5.711   6.067
10629SOL     OW32785   2.897   5.303   5.802
10629SOL    HW132786   2.855   5.393   5.805
10629SOL    HW232787   2.994   5.310   5.826
10630SOL     OW32788   6.894   1.481   3.220
10630SOL    HW132789   6.900   1.445   3.127
10630SOL    HW232790   6.810   1.450   3.264
10631SOL     OW32791   1.135   6.592   4.373
10631SOL    HW132792   1.067   6.574   4.444
10631SOL    HW232793   1.093   6.640   4.297
10632SOL     OW32794   0.315   2.440   5.500
10632SOL    HW132795   0.237   2.439   5.563
10632SOL    HW232796   0.292   2.389   5.418
10633SOL     OW32797   1.277   5.192   1.209
10633SOL    HW132798   1.368   5.232   1.196
10633SOL    HW232799   1.252   5.196   1.306
10634SOL     OW32800   3.362   6.938   1.866
10634SOL    HW132801   3.428   6.895   1.928
10634SOL    HW232802   3.272   6.896   1.878
10635SOL     OW32803   2.582   1.244   1.216
10635SOL    HW132804   2.644   1.300   1.271
10635SOL    HW232805   2.527   1.303   1.157
10636SOL     OW32806   0.591   1.968   1.725
10636SOL    HW132807   0.606   2.015   1.638
10636SOL    HW232808   0.530   2.023   1.782
10637SOL     OW32809   3.819   4.548   5.454
10637SOL    HW132810   3.775   4.633   5.425
10637SOL    HW232811   3.908   4.540   5.409
10638SOL     OW32812   6.647   6.956   5.619
10638SOL    HW132813   6.615   7.018   5.547
10638SOL    HW232814   6.569   6.927   5.675
10639SOL     OW32815   2.725   1.141   4.413
10639SOL    HW132816   2.737   1.211   4.342
10639SOL    HW232817   2.634   1.151   4.454
10640SOL     OW32818   3.831   6.972   0.384
10640SOL    HW132819   3.868   6.889   0.342
10640SOL    HW232820   3.864   6.979   0.478
10641SOL     OW32821   4.861   0.939   6.699
10641SOL    HW132822   4.870   0.913   6.795
10641SOL    HW232823   4.764   0.955   6.678
10642SOL     OW32824   6.721   3.273   1.261
10642SOL    HW132825   6.813   3.273   1.222
10642SOL    HW232826   6.664   3.207   1.212
10643SOL     OW32827   3.319   3.659   5.672
10643SOL    HW132828   3.391   3.715   5.631
10643SOL    HW232829   3.252   3.634   5.602
10644SOL     OW32830   3.776   1.104   4.636
10644SOL    HW132831   3.718   1.148   4.567
10644SOL    HW232832   3.843   1.170   4.670
10645SOL     OW32833   2.739   0.691   5.279
10645SOL    HW132834   2.799   0.621   5.242
10645SOL    HW232835   2.649   0.684   5.235
10646SOL     OW32836   0.452   4.072   6.759
10646SOL    HW132837   0.454   4.163   6.801
10646SOL    HW232838   0.400   4.009   6.817
10647SOL     OW32839   0.353   4.998   0.684
10647SOL    HW132840   0.421   5.035   0.748
10647SOL    HW232841   0.284   5.068   0.665
10648SOL     OW32842   4.408   3.692   6.624
10648SOL    HW132843   4.378   3.733   6.538
10648SOL    HW232844   4.411   3.593   6.614
10649SOL     OW32845   0.275   4.341   5.791
10649SOL    HW132846   0.369   4.352   5.757
10649SOL    HW232847   0.277   4.288   5.876
10650SOL     OW32848   3.223   6.896   3.716
10650SOL    HW132849   3.208   6.802   3.685
10650SOL    HW232850   3.302   6.898   3.778
10651SOL     OW32851   3.797   6.859   5.909
10651SOL    HW132852   3.873   6.874   5.972
10651SOL    HW232853   3.799   6.928   5.837
10652SOL     OW32854   3.612   0.754   6.747
10652SOL    HW132855   3.679   0.795   6.685
10652SOL    HW232856   3.631   0.656   6.756
10653SOL     OW32857   5.500   3.217   3.623
10653SOL    HW132858   5.489   3.259   3.533
10653SOL    HW232859   5.421   3.240   3.680
10654SOL     OW32860   4.258   0.977   1.067
10654SOL    HW132861   4.341   0.921   1.067
10654SOL    HW232862   4.184   0.926   1.025
10655SOL     OW32863   3.325   5.794   1.534
10655SOL    HW132864   3.313   5.894   1.536
10655SOL    HW232865   3.236   5.750   1.548
10656SOL     OW32866   6.543   3.203   6.101
10656SOL    HW132867   6.559   3.285   6.157
10656SOL    HW232868   6.631   3.167   6.070
10657SOL     OW32869   6.056   0.451   1.393
10657SOL    HW132870   6.072   0.352   1.387
10657SOL    HW232871   6.126   0.499   1.341
10658SOL     OW32872   0.489   5.419   5.108
10658SOL    HW132873   0.523   5.441   5.017
10658SOL    HW232874   0.417   5.484   5.134
10659SOL     OW32875   5.308   0.640   0.533
10659SOL    HW132876   5.362   0.724   0.532
10659SOL    HW232877   5.339   0.580   0.607
10660SOL     OW32878   5.015   5.214   5.700
10660SOL    HW132879   4.944   5.247   5.762
10660SOL    HW232880   5.043   5.289   5.640
10661SOL     OW32881   0.378   0.488   2.732
10661SOL    HW132882   0.342   0.443   2.814
10661SOL    HW232883   0.477   0.478   2.730
10662SOL     OW32884   6.121   1.367   0.762
10662SOL    HW132885   6.030   1.351   0.724
10662SOL    HW232886   6.189   1.319   0.706
10663SOL     OW32887   0.326   0.778   0.291
10663SOL    HW132888   0.237   0.750   0.254
10663SOL    HW232889   0.315   0.863   0.342
10664SOL     OW32890   2.219   4.637   6.953
10664SOL    HW132891   2.272   4.713   6.915
10664SOL    HW232892   2.144   4.615   6.891
10665SOL     OW32893   6.332   0.688   0.488
10665SOL    HW132894   6.370   0.605   0.447
10665SOL    HW232895   6.402   0.731   0.545
10666SOL     OW32896   1.252   6.741   0.217
10666SOL    HW132897   1.214   6.753   0.309
10666SOL    HW232898   1.341   6.785   0.211
10667SOL     OW32899   3.296   1.886   5.300
10667SOL    HW132900   3.274   1.859   5.205
10667SOL    HW232901   3.387   1.925   5.303
10668SOL     OW32902   2.313   0.951   5.750
10668SOL    HW132903   2.400   0.933   5.794
10668SOL    HW232904   2.271   1.033   5.789
10669SOL     OW32905   1.180   6.442   6.411
10669SOL    HW132906   1.151   6.434   6.507
10669SOL    HW232907   1.259   6.503   6.406
10670SOL     OW32908   6.724   4.743   5.604
10670SOL    HW132909   6.668   4.666   5.634
10670SOL    HW232910   6.821   4.721   5.613
10671SOL     OW32911   1.575   1.695   3.358
10671SOL    HW132912   1.513   1.689   3.279
10671SOL    HW232913   1.628   1.779   3.352
10672SOL     OW32914   7.001   2.956   0.654
10672SOL    HW132915   6.923   3.018   0.663
10672SOL    HW232916   0.056   3.008   0.622
10673SOL     OW32917   3.241   3.539   5.003
10673SOL    HW132918   3.285   3.628   4.996
10673SOL    HW232919   3.296   3.471   4.954
10674SOL     OW32920   3.972   1.795   2.281
10674SOL    HW132921   3.970   1.698   2.258
10674SOL    HW232922   3.944   1.849   2.201
10675SOL     OW32923   0.411   0.580   6.271
10675SOL    HW132924   0.452   0.546   6.186
10675SOL    HW232925   0.431   0.516   6.346
10676SOL     OW32926   6.752   0.562   0.070
10676SOL    HW132927   6.833   0.563   0.011
10676SOL    HW232928   6.681   0.505   0.029
10677SOL     OW32929   0.041   0.836   0.449
10677SOL    HW132930   0.047   0.822   0.548
10677SOL    HW232931   6.970   0.825   0.420
10678SOL     OW32932   2.763   6.173   3.447
10678SOL    HW132933   2.672   6.215   3.438
10678SOL    HW232934   2.833   6.241   3.427
10679SOL     OW32935   5.545   5.230   3.955
10679SOL    HW132936   5.527   5.131   3.956
10679SOL    HW232937   5.601   5.252   3.875
10680SOL     OW32938   1.537   2.560   3.568
10680SOL    HW132939   1.482   2.478   3.580
10680SOL    HW232940   1.478   2.640   3.560
10681SOL     OW32941   0.674   1.355   5.816
10681SOL    HW132942   0.618   1.437   5.821
10681SOL    HW232943   0.742   1.357   5.890
10682SOL     OW32944   6.449   1.723   3.163
10682SOL    HW132945   6.435   1.732   3.262
10682SOL    HW232946   6.463   1.814   3.124
10683SOL     OW32947   1.730   1.383   4.059
10683SOL    HW132948   1.757   1.478   4.043
10683SOL    HW232949   1.812   1.327   4.072
10684SOL     OW32950   5.944   6.086   0.316
10684SOL    HW132951   6.022   6.144   0.342
10684SOL    HW232952   5.962   6.044   0.228
10685SOL     OW32953   6.982   2.413   1.825
10685SOL    HW132954   0.043   2.446   1.787
10685SOL    HW232955   6.944   2.483   1.886
10686SOL     OW32956   3.702   4.322   0.961
10686SOL    HW132957   3.671   4.331   1.056
10686SOL    HW232958   3.800   4.303   0.960
10687SOL     OW32959   0.229   5.062   1.733
10687SOL    HW132960   0.306   5.121   1.756
10687SOL    HW232961   0.143   5.109   1.754
10688SOL     OW32962   0.018   5.885   2.248
10688SOL    HW132963   0.081   5.930   2.312
10688SOL    HW232964   0.011   5.940   2.165
10689SOL     OW32965   0.607   0.609   1.662
10689SOL    HW132966   0.529   0.556   1.696
10689SOL    HW232967   0.583   0.706   1.658
10690SOL     OW32968   4.497   5.804   2.051
10690SOL    HW132969   4.483   5.830   1.956
10690SOL    HW232970   4.531   5.882   2.103
10691SOL     OW32971   6.728   1.258   1.664
10691SOL    HW132972   6.734   1.348   1.622
10691SOL    HW232973   6.676   1.264   1.749
10692SOL     OW32974   5.032   6.120   4.683
10692SOL    HW132975   5.025   6.179   4.764
10692SOL    HW232976   4.956   6.055   4.683
10693SOL     OW32977   5.166   2.257   3.313
10693SOL    HW132978   5.241   2.320   3.292
10693SOL    HW232979   5.079   2.298   3.283
10694SOL     OW32980   4.295   6.231   0.920
10694SOL    HW132981   4.197   6.218   0.933
10694SOL    HW232982   4.333   6.151   0.874
10695SOL     OW32983   6.191   2.922   4.690
10695SOL    HW132984   6.239   2.871   4.761
10695SOL    HW232985   6.151   2.858   4.624
10696SOL     OW32986   6.071   0.189   1.339
10696SOL    HW132987   6.118   0.105   1.313
10696SOL    HW232988   5.972   0.176   1.327
10697SOL     OW32989   2.141   6.073   3.506
10697SOL    HW132990   2.241   6.067   3.511
10697SOL    HW232991   2.101   5.989   3.543
10698SOL     OW32992   2.921   0.709   3.297
10698SOL    HW132993   2.931   0.610   3.295
10698SOL    HW232994   2.866   0.736   3.376
10699SOL     OW32995   1.711   2.486   2.669
10699SOL    HW132996   1.711   2.568   2.613
10699SOL    HW232997   1.733   2.407   2.613
10700SOL     OW32998   6.424   0.528   2.030
10700SOL    HW132999   6.359   0.463   2.071
10700SOL    HW233000   6.494   0.551   2.097
10701SOL     OW33001   3.783   6.294   0.951
10701SOL    HW133002   3.797   6.279   1.049
10701SOL    HW233003   3.702   6.244   0.920
10702SOL     OW33004   6.015   3.351   0.916
10702SOL    HW133005   5.953   3.400   0.855
10702SOL    HW233006   6.077   3.416   0.960
10703SOL     OW33007   3.751   3.230   4.349
10703SOL    HW133008   3.728   3.218   4.252
10703SOL    HW233009   3.807   3.153   4.380
10704SOL     OW33010   5.620   6.587   2.133
10704SOL    HW133011   5.654   6.639   2.211
10704SOL    HW233012   5.520   6.589   2.132
10705SOL     OW33013   1.186   3.133   6.533
10705SOL    HW133014   1.277   3.098   6.509
10705SOL    HW233015   1.155   3.088   6.616
10706SOL     OW33016   3.674   1.797   1.438
10706SOL    HW133017   3.758   1.814   1.490
10706SOL    HW233018   3.616   1.732   1.488
10707SOL     OW33019   6.418   0.078   5.985
10707SOL    HW133020   6.405   0.105   6.080
10707SOL    HW233021   6.474   7.020   5.982
10708SOL     OW33022   4.613   1.142   1.360
10708SOL    HW133023   4.533   1.124   1.416
10708SOL    HW233024   4.592   1.216   1.295
10709SOL     OW33025   0.910   6.546   5.941
10709SOL    HW133026   0.983   6.613   5.924
10709SOL    HW233027   0.932   6.493   6.023
10710SOL     OW33028   6.456   5.336   3.204
10710SOL    HW133029   6.469   5.251   3.253
10710SOL    HW233030   6.541   5.389   3.205
10711SOL     OW33031   2.703   5.949   4.977
10711SOL    HW133032   2.735   5.930   4.885
10711SOL    HW233033   2.618   6.002   4.973
10712SOL     OW33034   4.725   1.453   4.813
10712SOL    HW133035   4.747   1.379   4.749
10712SOL    HW233036   4.781   1.445   4.895
10713SOL     OW33037   1.749   6.426   1.408
10713SOL    HW133038   1.822   6.484   1.375
10713SOL    HW233039   1.719   6.365   1.335
10714SOL     OW33040   6.924   5.638   5.818
10714SOL    HW133041   6.951   5.710   5.883
10714SOL    HW233042   6.912   5.679   5.727
10715SOL     OW33043   5.885   1.193   3.766
10715SOL    HW133044   5.858   1.274   3.714
10715SOL    HW233045   5.830   1.187   3.850
10716SOL     OW33046   6.383   0.992   3.118
10716SOL    HW133047   6.313   1.059   3.140
10716SOL    HW233048   6.341   0.901   3.111
10717SOL     OW33049   6.209   6.610   1.839
10717SOL    HW133050   6.155   6.683   1.882
10717SOL    HW233051   6.148   6.539   1.806
10718SOL     OW33052   0.648   3.456   5.887
10718SOL    HW133053   0.671   3.395   5.810
10718SOL    HW233054   0.618   3.400   5.965
10719SOL     OW33055   3.507   0.779   2.352
10719SOL    HW133056   3.467   0.866   2.326
10719SOL    HW233057   3.600   0.771   2.315
10720SOL     OW33058   0.571   3.173   6.878
10720SOL    HW133059   0.508   3.096   6.867
10720SOL    HW233060   0.661   3.139   6.906
10721SOL     OW33061   4.797   2.905   4.258
10721SOL    HW133062   4.827   2.980   4.199
10721SOL    HW233063   4.862   2.894   4.333
10722SOL     OW33064   0.287   3.974   0.963
10722SOL    HW133065   0.360   3.966   0.895
10722SOL    HW233066   0.279   4.069   0.992
10723SOL     OW33067   6.096   4.836   0.309
10723SOL    HW133068   6.161   4.865   0.237
10723SOL    HW233069   6.142   4.773   0.371
10724SOL     OW33070   3.807   0.044   5.697
10724SOL    HW133071   3.847   7.024   5.617
10724SOL    HW233072   3.864   0.122   5.724
10725SOL     OW33073   6.637   0.173   5.192
10725SOL    HW133074   6.578   0.120   5.131
10725SOL    HW233075   6.608   0.159   5.287
10726SOL     OW33076   5.866   1.306   4.849
10726SOL    HW133077   5.855   1.264   4.939
10726SOL    HW233078   5.878   1.404   4.859
10727SOL     OW33079   2.559   6.465   6.916
10727SOL    HW133080   2.470   6.506   6.932
10727SOL    HW233081   2.630   6.535   6.924
10728SOL     OW33082   5.956   6.226   3.602
10728SOL    HW133083   6.038   6.244   3.656
10728SOL    HW233084   5.937   6.305   3.544
10729SOL     OW33085   5.736   2.953   4.636
10729SOL    HW133086   5.826   2.984   4.606
10729SOL    HW233087   5.730   2.961   4.735
10730SOL     OW33088   2.231   5.723   4.078
10730SOL    HW133089   2.215   5.708   4.176
10730SOL    HW233090   2.171   5.664   4.025
10731SOL     OW33091   5.143   6.413   6.957
10731SOL    HW133092   5.161   6.319   6.926
10731SOL    HW233093   5.091   6.461   6.886
10732SOL     OW33094   6.341   6.210   3.030
10732SOL    HW133095   6.382   6.243   2.945
10732SOL    HW233096   6.267   6.146   3.008
10733SOL     OW33097   0.418   0.891   6.222
10733SOL    HW133098   0.402   0.798   6.254
10733SOL    HW233099   0.343   0.918   6.160
10734SOL     OW33100   1.928   0.421   4.332
10734SOL    HW133101   1.939   0.340   4.275
10734SOL    HW233102   1.970   0.406   4.422
10735SOL     OW33103   6.692   6.829   1.852
10735SOL    HW133104   6.658   6.795   1.939
10735SOL    HW233105   6.783   6.869   1.865
10736SOL     OW33106   5.090   6.530   3.499
10736SOL    HW133107   5.077   6.607   3.562
10736SOL    HW233108   5.055   6.446   3.541
10737SOL     OW33109   5.934   0.939   1.802
10737SOL    HW133110   5.909   0.972   1.711
10737SOL    HW233111   5.853   0.940   1.861
10738SOL     OW33112   3.518   0.110   1.016
10738SOL    HW133113   3.552   0.186   0.961
10738SOL    HW233114   3.433   0.075   0.976
10739SOL     OW33115   5.678   3.240   4.102
10739SOL    HW133116   5.712   3.288   4.183
10739SOL    HW233117   5.636   3.154   4.129
10740SOL     OW33118   2.815   0.790   6.412
10740SOL    HW133119   2.717   0.810   6.404
10740SOL    HW233120   2.828   0.698   6.449
10741SOL     OW33121   1.510   2.283   3.724
10741SOL    HW133122   1.585   2.290   3.658
10741SOL    HW233123   1.545   2.301   3.816
10742SOL     OW33124   6.550   6.820   2.644
10742SOL    HW133125   6.450   6.813   2.639
10742SOL    HW233126   6.590   6.735   2.609
10743SOL     OW33127   2.996   1.735   5.552
10743SOL    HW133128   3.015   1.667   5.482
10743SOL    HW233129   3.030   1.825   5.522
10744SOL     OW33130   2.378   0.943   0.573
10744SOL    HW133131   2.453   0.994   0.532
10744SOL    HW233132   2.383   0.952   0.673
10745SOL     OW33133   2.149   4.462   1.814
10745SOL    HW133134   2.107   4.393   1.873
10745SOL    HW233135   2.248   4.457   1.822
10746SOL     OW33136   2.306   5.840   6.506
10746SOL    HW133137   2.290   5.933   6.471
10746SOL    HW233138   2.325   5.779   6.429
10747SOL     OW33139   6.834   1.504   4.665
10747SOL    HW133140   6.771   1.552   4.727
10747SOL    HW233141   6.927   1.510   4.702
10748SOL     OW33142   3.010   6.637   1.628
10748SOL    HW133143   2.990   6.704   1.557
10748SOL    HW233144   2.926   6.588   1.652
10749SOL     OW33145   6.007   4.275   1.439
10749SOL    HW133146   5.937   4.211   1.407
10749SOL    HW233147   6.085   4.224   1.474
10750SOL     OW33148   4.226   2.252   4.368
10750SOL    HW133149   4.276   2.235   4.283
10750SOL    HW233150   4.129   2.233   4.355
10751SOL     OW33151   6.980   5.877   4.283
10751SOL    HW133152   0.038   5.930   4.264
10751SOL    HW233153   6.923   5.926   4.348
10752SOL     OW33154   6.557   6.480   0.482
10752SOL    HW133155   6.631   6.540   0.451
10752SOL    HW233156   6.486   6.536   0.525
10753SOL     OW33157   5.238   0.553   4.092
10753SOL    HW133158   5.145   0.591   4.087
10753SOL    HW233159   5.246   0.477   4.028
10754SOL     OW33160   0.852   4.640   2.264
10754SOL    HW133161   0.755   4.637   2.239
10754SOL    HW233162   0.865   4.589   2.349
10755SOL     OW33163   0.351   2.842   0.962
10755SOL    HW133164   0.367   2.852   0.864
10755SOL    HW233165   0.254   2.822   0.978
10756SOL     OW33166   1.426   0.859   0.634
10756SOL    HW133167   1.379   0.776   0.665
10756SOL    HW233168   1.358   0.931   0.616
10757SOL     OW33169   0.323   3.308   2.014
10757SOL    HW133170   0.295   3.319   2.109
10757SOL    HW233171   0.374   3.222   2.005
10758SOL     OW33172   0.849   0.206   0.418
10758SOL    HW133173   0.830   0.117   0.376
10758SOL    HW233174   0.842   0.278   0.349
10759SOL     OW33175   2.748   2.875   5.353
10759SOL    HW133176   2.760   2.829   5.441
10759SOL    HW233177   2.664   2.844   5.310
10760SOL     OW33178   0.959   4.544   6.560
10760SOL    HW133179   0.932   4.454   6.593
10760SOL    HW233180   0.994   4.599   6.637
10761SOL     OW33181   1.127   1.434   5.511
10761SOL    HW133182   1.138   1.420   5.413
10761SOL    HW233183   1.044   1.488   5.528
10762SOL     OW33184   2.836   6.086   6.238
10762SOL    HW133185   2.741   6.055   6.244
10762SOL    HW233186   2.894   6.023   6.289
10763SOL     OW33187   4.897   0.728   2.977
10763SOL    HW133188   4.946   0.694   2.897
10763SOL    HW233189   4.827   0.794   2.948
10764SOL     OW33190   5.158   6.462   4.445
10764SOL    HW133191   5.117   6.539   4.396
10764SOL    HW233192   5.250   6.445   4.409
10765SOL     OW33193   0.491   1.766   1.549
10765SOL    HW133194   0.564   1.728   1.493
10765SOL    HW233195   0.526   1.841   1.604
10766SOL     OW33196   2.317   5.298   0.049
10766SOL    HW133197   2.349   5.382   0.093
10766SOL    HW233198   2.382   5.225   0.065
10767SOL     OW33199   1.482   5.119   6.813
10767SOL    HW133200   1.426   5.197   6.840
10767SOL    HW233201   1.547   5.098   6.886
10768SOL     OW33202   5.510   6.351   6.733
10768SOL    HW133203   5.553   6.437   6.759
10768SOL    HW233204   5.451   6.319   6.807
10769SOL     OW33205   3.172   3.515   4.637
10769SOL    HW133206   3.258   3.476   4.605
10769SOL    HW233207   3.181   3.543   4.733
10770SOL     OW33208   5.757   7.001   3.132
10770SOL    HW133209   5.690   6.939   3.091
10770SOL    HW233210   5.823   6.947   3.185
10771SOL     OW33211   4.403   5.968   5.951
10771SOL    HW133212   4.490   5.928   5.923
10771SOL    HW233213   4.348   5.990   5.870
10772SOL     OW33214   5.856   5.044   2.455
10772SOL    HW133215   5.758   5.062   2.457
10772SOL    HW233216   5.877   4.978   2.382
10773SOL     OW33217   0.375   4.182   1.637
10773SOL    HW133218   0.285   4.218   1.613
10773SOL    HW233219   0.445   4.236   1.591
10774SOL     OW33220   0.757   3.936   0.642
10774SOL    HW133221   0.687   3.902   0.580
10774SOL    HW233222   0.785   4.028   0.614
10775SOL     OW33223   1.688   3.903   0.701
10775SOL    HW133224   1.668   3.891   0.798
10775SOL    HW233225   1.735   3.822   0.666
10776SOL     OW33226   0.451   2.724   3.712
10776SOL    HW133227   0.405   2.812   3.702
10776SOL    HW233228   0.547   2.733   3.685
10777SOL     OW33229   2.181   0.646   1.526
10777SOL    HW133230   2.085   0.643   1.553
10777SOL    HW233231   2.229   0.715   1.579
10778SOL     OW33232   4.735   0.157   2.929
10778SOL    HW133233   4.739   0.252   2.963
10778SOL    HW233234   4.709   0.157   2.833
10779SOL     OW33235   5.510   3.159   5.930
10779SOL    HW133236   5.498   3.241   5.986
10779SOL    HW233237   5.530   3.185   5.836
10780SOL     OW33238   2.209   5.256   4.500
10780SOL    HW133239   2.252   5.322   4.561
10780SOL    HW233240   2.276   5.222   4.435
10781SOL     OW33241   5.694   2.199   4.436
10781SOL    HW133242   5.697   2.297   4.451
10781SOL    HW233243   5.718   2.178   4.341
10782SOL     OW33244   0.783   1.338   5.539
10782SOL    HW133245   0.762   1.337   5.637
10782SOL    HW233246   0.769   1.430   5.503
10783SOL     OW33247   0.846   2.299   3.468
10783SOL    HW133248   0.829   2.206   3.434
10783SOL    HW233249   0.925   2.297   3.530
10784SOL     OW33250   4.315   5.764   3.351
10784SOL    HW133251   4.334   5.683   3.295
10784SOL    HW233252   4.287   5.839   3.291
10785SOL     OW33253   1.736   5.291   2.076
10785SOL    HW133254   1.786   5.377   2.088
10785SOL    HW233255   1.711   5.281   1.979
10786SOL     OW33256   4.241   1.904   2.181
10786SOL    HW133257   4.154   1.900   2.230
10786SOL    HW233258   4.299   1.975   2.222
10787SOL     OW33259   3.741   1.783   3.413
10787SOL    HW133260   3.643   1.766   3.418
10787SOL    HW233261   3.773   1.770   3.319
10788SOL     OW33262   1.797   4.398   0.264
10788SOL    HW133263   1.860   4.469   0.295
10788SOL    HW233264   1.850   4.322   0.225
10789SOL     OW33265   6.613   1.098   2.314
10789SOL    HW133266   6.593   1.007   2.350
10789SOL    HW233267   6.550   1.119   2.240
10790SOL     OW33268   0.237   1.904   5.807
10790SOL    HW133269   0.138   1.910   5.796
10790SOL    HW233270   0.274   1.994   5.828
10791SOL     OW33271   1.617   2.525   3.195
10791SOL    HW133272   1.590   2.611   3.237
10791SOL    HW233273   1.641   2.459   3.267
10792SOL     OW33274   3.669   1.630   2.166
10792SOL    HW133275   3.760   1.627   2.123
10792SOL    HW233276   3.608   1.687   2.111
10793SOL     OW33277   3.821   1.620   4.492
10793SOL    HW133278   3.768   1.552   4.543
10793SOL    HW233279   3.911   1.631   4.534
10794SOL     OW33280   5.236   2.380   0.516
10794SOL    HW133281   5.284   2.298   0.550
10794SOL    HW233282   5.165   2.406   0.581
10795SOL     OW33283   6.919   3.338   3.328
10795SOL    HW133284   6.855   3.264   3.309
10795SOL    HW233285   6.932   3.392   3.244
10796SOL     OW33286   0.119   0.173   6.264
10796SOL    HW133287   0.061   0.100   6.298
10796SOL    HW233288   0.146   0.233   6.339
10797SOL     OW33289   4.179   4.371   0.138
10797SOL    HW133290   4.082   4.366   0.161
10797SOL    HW233291   4.190   4.403   0.044
10798SOL     OW33292   2.108   6.292   6.712
10798SOL    HW133293   2.087   6.352   6.790
10798SOL    HW233294   2.055   6.321   6.633
10799SOL     OW33295   2.806   1.501   2.927
10799SOL    HW133296   2.879   1.495   2.858
10799SOL    HW233297   2.756   1.415   2.931
10800SOL     OW33298   2.710   0.267   5.232
10800SOL    HW133299   2.640   0.335   5.211
10800SOL    HW233300   2.691   0.182   5.182
10801SOL     OW33301   2.929   6.043   6.009
10801SOL    HW133302   2.885   6.072   6.094
10801SOL    HW233303   2.916   6.114   5.940
10802SOL     OW33304   0.409   5.341   4.433
10802SOL    HW133305   0.419   5.440   4.434
10802SOL    HW233306   0.339   5.314   4.499
10803SOL     OW33307   6.984   4.384   4.613
10803SOL    HW133308   6.937   4.392   4.701
10803SOL    HW233309   0.036   4.449   4.609
10804SOL     OW33310   4.941   4.670   0.884
10804SOL    HW133311   5.020   4.724   0.855
10804SOL    HW233312   4.944   4.657   0.983
10805SOL     OW33313   3.745   6.196   0.326
10805SOL    HW133314   3.743   6.293   0.300
10805SOL    HW233315   3.824   6.178   0.384
10806SOL     OW33316   5.944   4.555   6.547
10806SOL    HW133317   5.972   4.460   6.563
10806SOL    HW233318   5.882   4.584   6.620
10807SOL     OW33319   4.403   1.485   4.456
10807SOL    HW133320   4.330   1.422   4.429
10807SOL    HW233321   4.371   1.579   4.446
10808SOL     OW33322   0.034   1.977   0.081
10808SOL    HW133323   0.114   2.036   0.089
10808SOL    HW233324   6.985   2.027   0.035
10809SOL     OW33325   3.145   1.375   2.286
10809SOL    HW133326   3.094   1.457   2.260
10809SOL    HW233327   3.228   1.367   2.231
10810SOL     OW33328   2.008   1.482   6.392
10810SOL    HW133329   1.992   1.548   6.319
10810SOL    HW233330   1.922   1.464   6.439
10811SOL     OW33331   4.488   4.632   6.272
10811SOL    HW133332   4.433   4.562   6.225
10811SOL    HW233333   4.429   4.707   6.301
10812SOL     OW33334   6.298   2.827   2.096
10812SOL    HW133335   6.309   2.846   1.998
10812SOL    HW233336   6.207   2.786   2.111
10813SOL     OW33337   3.586   5.614   2.581
10813SOL    HW133338   3.537   5.697   2.555
10813SOL    HW233339   3.545   5.535   2.537
10814SOL     OW33340   2.032   5.814   4.837
10814SOL    HW133341   2.060   5.785   4.928
10814SOL    HW233342   1.988   5.903   4.842
10815SOL     OW33343   4.825   1.950   3.517
10815SOL    HW133344   4.739   1.981   3.557
10815SOL    HW233345   4.818   1.951   3.417
10816SOL     OW33346   2.084   2.098   2.193
10816SOL    HW133347   1.995   2.135   2.165
10816SOL    HW233348   2.120   2.038   2.121
10817SOL     OW33349   4.534   0.353   2.069
10817SOL    HW133350   4.536   0.368   2.168
10817SOL    HW233351   4.451   0.305   2.044
10818SOL     OW33352   4.572   2.975   6.676
10818SOL    HW133353   4.637   3.051   6.673
10818SOL    HW233354   4.620   2.888   6.671
10819SOL     OW33355   0.609   3.840   5.705
10819SOL    HW133356   0.577   3.928   5.740
10819SOL    HW233357   0.605   3.840   5.605
10820SOL     OW33358   6.685   0.179   4.588
10820SOL    HW133359   6.704   0.113   4.515
10820SOL    HW233360   6.738   0.155   4.669
10821SOL     OW33361   6.884   6.572   0.987
10821SOL    HW133362   6.898   6.525   1.075
10821SOL    HW233363   6.820   6.648   1.000
10822SOL     OW33364   0.300   4.488   0.157
10822SOL    HW133365   0.334   4.512   0.248
10822SOL    HW233366   0.241   4.407   0.165
10823SOL     OW33367   1.821   1.905   1.114
10823SOL    HW133368   1.747   1.846   1.080
10823SOL    HW233369   1.783   1.970   1.180
10824SOL     OW33370   5.739   0.498   3.225
10824SOL    HW133371   5.718   0.401   3.211
10824SOL    HW233372   5.833   0.507   3.257
10825SOL     OW33373   3.639   0.972   1.842
10825SOL    HW133374   3.700   0.903   1.803
10825SOL    HW233375   3.656   0.978   1.941
10826SOL     OW33376   6.569   2.779   1.269
10826SOL    HW133377   6.656   2.733   1.288
10826SOL    HW233378   6.506   2.716   1.225
10827SOL     OW33379   1.156   2.891   3.561
10827SOL    HW133380   1.109   2.934   3.483
10827SOL    HW233381   1.198   2.961   3.618
10828SOL     OW33382   0.761   5.932   0.304
10828SOL    HW133383   0.768   5.980   0.217
10828SOL    HW233384   0.680   5.874   0.305
10829SOL     OW33385   2.120   3.829   1.647
10829SOL    HW133386   2.130   3.736   1.682
10829SOL    HW233387   2.208   3.861   1.613
10830SOL     OW33388   4.520   1.066   3.357
10830SOL    HW133389   4.592   1.009   3.397
10830SOL    HW233390   4.561   1.128   3.289
10831SOL     OW33391   5.392   2.854   2.087
10831SOL    HW133392   5.463   2.827   2.022
10831SOL    HW233393   5.363   2.774   2.140
10832SOL     OW33394   7.019   3.096   2.714
10832SOL    HW133395   0.071   3.081   2.776
10832SOL    HW233396   7.011   3.194   2.695
10833SOL     OW33397   2.679   6.939   4.125
10833SOL    HW133398   2.632   6.892   4.050
10833SOL    HW233399   2.776   6.947   4.105
10834SOL     OW33400   6.937   0.966   5.700
10834SOL    HW133401   6.976   0.919   5.620
10834SOL    HW233402   6.843   0.993   5.679
10835SOL     OW33403   6.717   2.518   1.736
10835SOL    HW133404   6.787   2.555   1.676
10835SOL    HW233405   6.732   2.551   1.829
10836SOL     OW33406   1.762   3.216   1.133
10836SOL    HW133407   1.799   3.238   1.223
10836SOL    HW233408   1.691   3.146   1.143
10837SOL     OW33409   1.416   5.880   1.487
10837SOL    HW133410   1.356   5.959   1.489
10837SOL    HW233411   1.364   5.797   1.509
10838SOL     OW33412   6.583   0.223   0.347
10838SOL    HW133413   6.581   0.127   0.322
10838SOL    HW233414   6.675   0.260   0.334
10839SOL     OW33415   1.651   1.722   7.008
10839SOL    HW133416   1.617   1.794   6.947
10839SOL    HW233417   1.696   1.651   6.954
10840SOL     OW33418   3.476   5.882   2.427
10840SOL    HW133419   3.465   5.971   2.472
10840SOL    HW233420   3.569   5.848   2.442
10841SOL     OW33421   4.822   3.072   6.203
10841SOL    HW133422   4.883   3.114   6.137
10841SOL    HW233423   4.775   3.143   6.256
10842SOL     OW33424   6.408   3.012   1.390
10842SOL    HW133425   6.461   3.083   1.437
10842SOL    HW233426   6.469   2.940   1.359
10843SOL     OW33427   0.373   0.911   2.393
10843SOL    HW133428   0.448   0.971   2.422
10843SOL    HW233429   0.384   0.821   2.435
10844SOL     OW33430   3.178   0.083   3.547
10844SOL    HW133431   3.207   0.006   3.603
10844SOL    HW233432   3.257   0.120   3.498
10845SOL     OW33433   2.165   3.140   0.965
10845SOL    HW133434   2.171   3.205   0.889
10845SOL    HW233435   2.210   3.054   0.939
10846SOL     OW33436   3.985   1.611   1.382
10846SOL    HW133437   4.073   1.585   1.341
10846SOL    HW233438   3.916   1.544   1.357
10847SOL     OW33439   4.459   3.095   5.770
10847SOL    HW133440   4.368   3.056   5.753
10847SOL    HW233441   4.512   3.033   5.828
10848SOL     OW33442   1.326   0.634   0.397
10848SOL    HW133443   1.421   0.662   0.384
10848SOL    HW233444   1.321   0.567   0.471
10849SOL     OW33445   2.277   5.543   3.784
10849SOL    HW133446   2.216   5.510   3.856
10849SOL    HW233447   2.232   5.534   3.695
10850SOL     OW33448   5.572   0.626   2.275
10850SOL    HW133449   5.610   0.564   2.343
10850SOL    HW233450   5.585   0.588   2.183
10851SOL     OW33451   4.187   1.881   6.791
10851SOL    HW133452   4.276   1.866   6.833
10851SOL    HW233453   4.193   1.863   6.693
10852SOL     OW33454   0.209   0.179   5.837
10852SOL    HW133455   0.133   0.157   5.777
10852SOL    HW233456   0.290   0.202   5.783
10853SOL     OW33457   2.515   0.592   4.745
10853SOL    HW133458   2.465   0.523   4.692
10853SOL    HW233459   2.549   0.663   4.683
10854SOL     OW33460   6.734   6.114   0.927
10854SOL    HW133461   6.650   6.094   0.977
10854SOL    HW233462   6.808   6.130   0.992
10855SOL     OW33463   1.365   5.458   1.384
10855SOL    HW133464   1.294   5.528   1.376
10855SOL    HW233465   1.353   5.406   1.469
10856SOL     OW33466   6.037   0.586   6.889
10856SOL    HW133467   6.022   0.508   6.828
10856SOL    HW233468   5.949   0.621   6.919
10857SOL     OW33469   6.618   0.722   4.660
10857SOL    HW133470   6.572   0.634   4.670
10857SOL    HW233471   6.699   0.711   4.602
10858SOL     OW33472   1.771   2.194   0.350
10858SOL    HW133473   1.768   2.254   0.270
10858SOL    HW233474   1.721   2.236   0.426
10859SOL     OW33475   1.341   5.392   2.817
10859SOL    HW133476   1.258   5.365   2.767
10859SOL    HW233477   1.420   5.384   2.757
10860SOL     OW33478   6.311   3.361   1.876
10860SOL    HW133479   6.385   3.392   1.936
10860SOL    HW233480   6.325   3.266   1.851
10861SOL     OW33481   2.738   3.471   1.118
10861SOL    HW133482   2.641   3.495   1.108
10861SOL    HW233483   2.776   3.519   1.196
10862SOL     OW33484   3.435   4.040   5.365
10862SOL    HW133485   3.377   4.083   5.434
10862SOL    HW233486   3.512   4.101   5.343
10863SOL     OW33487   2.340   0.298   3.037
10863SOL    HW133488   2.379   0.342   3.118
10863SOL    HW233489   2.292   0.215   3.063
10864SOL     OW33490   3.184   4.169   1.699
10864SOL    HW133491   3.225   4.133   1.616
10864SOL    HW233492   3.116   4.238   1.676
10865SOL     OW33493   4.020   1.519   2.372
10865SOL    HW133494   4.116   1.547   2.363
10865SOL    HW233495   3.980   1.565   2.451
10866SOL     OW33496   0.247   3.693   3.592
10866SOL    HW133497   0.194   3.651   3.518
10866SOL    HW233498   0.331   3.733   3.554
10867SOL     OW33499   4.363   2.537   0.213
10867SOL    HW133500   4.323   2.568   0.127
10867SOL    HW233501   4.310   2.460   0.248
10868SOL     OW33502   1.510   0.128   4.945
10868SOL    HW133503   1.466   0.038   4.950
10868SOL    HW233504   1.449   0.193   4.899
10869NA      NA33505   6.910   1.048   6.152
10870NA      NA33506   4.463   4.586   5.217
10871NA      NA33507   1.599   4.745   2.897
10872NA      NA33508   5.737   3.907   2.959
10873NA      NA33509   3.692   2.403   5.514
10874NA      NA33510   2.324   4.913   0.148
10875NA      NA33511   1.776   5.531   6.676
10876NA      NA33512   4.040   4.552   1.359
10877NA      NA33513   4.795   4.757   0.238
10878NA      NA33514   3.490   1.243   0.193
10879NA      NA33515   5.407   6.961   1.766
10880NA      NA33516   2.492   6.399   5.345
10881NA      NA33517   4.242   5.030   2.023
10882NA      NA33518   3.899   3.653   6.770
   7.02451   7.02451   7.02451
