Generated by trjconv : CNT in water t= 473.00000
33518
    1C        C    1   2.848   2.769   4.747
    1C        C    2   2.903   2.720   4.868
    1C        C    3   2.841   2.767   4.984
    1C        C    4   2.853   2.772   4.260
    1C        C    5   2.902   2.721   4.383
    1C        C    6   2.849   2.772   4.504
    1C        C    7   3.014   2.639   4.624
    1C        C    8   2.896   2.717   4.625
    1C        C    9   3.077   2.605   4.745
    1C        C   10   3.015   2.635   4.869
    1C        C   11   3.183   2.491   4.977
    1C        C   12   3.066   2.567   4.980
    1C        C   13   2.850   2.769   3.770
    1C        C   14   2.905   2.725   3.892
    1C        C   15   2.854   2.775   4.014
    1C        C   16   3.019   2.644   4.137
    1C        C   17   2.907   2.730   4.137
    1C        C   18   3.078   2.604   4.259
    1C        C   19   3.017   2.640   4.382
    1C        C   20   3.211   2.554   4.504
    1C        C   21   3.079   2.602   4.504
    1C        C   22   3.277   2.531   4.627
    1C        C   23   3.206   2.544   4.748
    1C        C   24   3.413   2.479   4.865
    1C        C   25   3.272   2.499   4.865
    1C        C   26   3.491   2.479   4.981
    1C        C   27   2.855   2.768   3.281
    1C        C   28   2.909   2.722   3.403
    1C        C   29   2.858   2.771   3.525
    1C        C   30   3.017   2.637   3.649
    1C        C   31   2.902   2.719   3.649
    1C        C   32   3.077   2.601   3.771
    1C        C   33   3.016   2.637   3.893
    1C        C   34   3.204   2.540   4.017
    1C        C   35   3.077   2.601   4.016
    1C        C   36   3.274   2.523   4.139
    1C        C   37   3.208   2.551   4.260
    1C        C   38   3.417   2.503   4.380
    1C        C   39   3.278   2.532   4.382
    1C        C   40   3.486   2.495   4.503
    1C        C   41   3.415   2.498   4.625
    1C        C   42   3.630   2.478   4.746
    1C        C   43   3.488   2.477   4.744
    1C        C   44   3.707   2.476   4.864
    1C        C   45   3.630   2.472   4.980
    1C        C   46   2.840   2.753   2.793
    1C        C   47   2.897   2.711   2.916
    1C        C   48   2.845   2.761   3.037
    1C        C   49   3.014   2.630   3.160
    1C        C   50   2.901   2.715   3.158
    1C        C   51   3.079   2.597   3.282
    1C        C   52   3.024   2.640   3.405
    1C        C   53   3.209   2.540   3.527
    1C        C   54   3.082   2.603   3.528
    1C        C   55   3.275   2.519   3.650
    1C        C   56   3.207   2.546   3.771
    1C        C   57   3.412   2.504   3.895
    1C        C   58   3.272   2.522   3.894
    1C        C   59   3.484   2.503   4.016
    1C        C   60   3.414   2.500   4.138
    1C        C   61   3.629   2.497   4.260
    1C        C   62   3.487   2.492   4.259
    1C        C   63   3.700   2.505   4.381
    1C        C   64   3.628   2.494   4.502
    1C        C   65   3.832   2.545   4.621
    1C        C   66   3.699   2.497   4.624
    1C        C   67   3.902   2.563   4.742
    1C        C   68   3.842   2.520   4.863
    1C        C   69   4.049   2.585   4.975
    1C        C   70   3.920   2.530   4.978
    1C        C   71   2.827   2.736   2.310
    1C        C   72   2.883   2.687   2.430
    1C        C   73   2.834   2.745   2.549
    1C        C   74   3.007   2.623   2.672
    1C        C   75   2.891   2.704   2.671
    1C        C   76   3.071   2.591   2.794
    1C        C   77   3.014   2.632   2.916
    1C        C   78   3.204   2.535   3.037
    1C        C   79   3.077   2.598   3.038
    1C        C   80   3.273   2.517   3.159
    1C        C   81   3.209   2.542   3.283
    1C        C   82   3.414   2.489   3.404
    1C        C   83   3.275   2.516   3.405
    1C        C   84   3.484   2.484   3.527
    1C        C   85   3.414   2.495   3.649
    1C        C   86   3.624   2.498   3.770
    1C        C   87   3.483   2.495   3.773
    1C        C   88   3.695   2.509   3.892
    1C        C   89   3.626   2.503   4.015
    1C        C   90   3.831   2.551   4.135
    1C        C   91   3.697   2.507   4.137
    1C        C   92   3.900   2.573   4.256
    1C        C   93   3.835   2.545   4.378
    1C        C   94   4.022   2.644   4.498
    1C        C   95   3.900   2.574   4.500
    1C        C   96   4.082   2.679   4.622
    1C        C   97   4.026   2.632   4.743
    1C        C   98   4.184   2.775   4.863
    1C        C   99   4.095   2.662   4.863
    1C        C  100   4.211   2.849   4.978
    1C        C  101   2.823   2.733   2.070
    1C        C  102   2.988   2.591   2.191
    1C        C  103   2.877   2.681   2.188
    1C        C  104   3.064   2.571   2.310
    1C        C  105   3.001   2.609   2.430
    1C        C  106   3.199   2.528   2.550
    1C        C  107   3.068   2.581   2.551
    1C        C  108   3.269   2.514   2.672
    1C        C  109   3.200   2.535   2.794
    1C        C  110   3.410   2.493   2.914
    1C        C  111   3.270   2.515   2.915
    1C        C  112   3.482   2.490   3.036
    1C        C  113   3.412   2.493   3.159
    1C        C  114   3.624   2.494   3.277
    1C        C  115   3.483   2.484   3.281
    1C        C  116   3.692   2.507   3.401
    1C        C  117   3.625   2.492   3.524
    1C        C  118   3.828   2.548   3.646
    1C        C  119   3.694   2.505   3.647
    1C        C  120   3.892   2.578   3.768
    1C        C  121   3.830   2.550   3.892
    1C        C  122   4.020   2.650   4.010
    1C        C  123   3.896   2.581   4.013
    1C        C  124   4.080   2.685   4.133
    1C        C  125   4.024   2.642   4.255
    1C        C  126   4.195   2.768   4.376
    1C        C  127   4.085   2.680   4.377
    1C        C  128   4.241   2.822   4.499
    1C        C  129   4.188   2.772   4.620
    1C        C  130   4.320   2.941   4.738
    1C        C  131   4.237   2.825   4.741
    1C        C  132   4.351   3.008   4.858
    1C        C  133   4.282   2.969   4.974
    1C        C  134   3.168   2.466   2.080
    1C        C  135   3.035   2.509   2.084
    1C        C  136   3.257   2.476   2.188
    1C        C  137   3.193   2.512   2.309
    1C        C  138   3.403   2.470   2.428
    1C        C  139   3.264   2.492   2.429
    1C        C  140   3.478   2.473   2.548
    1C        C  141   3.408   2.493   2.669
    1C        C  142   3.620   2.492   2.789
    1C        C  143   3.479   2.490   2.791
    1C        C  144   3.692   2.503   2.910
    1C        C  145   3.623   2.493   3.033
    1C        C  146   3.829   2.543   3.155
    1C        C  147   3.693   2.505   3.155
    1C        C  148   3.895   2.569   3.278
    1C        C  149   3.827   2.547   3.400
    1C        C  150   4.019   2.635   3.523
    1C        C  151   3.893   2.572   3.523
    1C        C  152   4.078   2.679   3.644
    1C        C  153   4.015   2.647   3.766
    1C        C  154   4.189   2.774   3.887
    1C        C  155   4.075   2.691   3.887
    1C        C  156   4.243   2.818   4.009
    1C        C  157   4.195   2.768   4.132
    1C        C  158   4.341   2.922   4.252
    1C        C  159   4.250   2.813   4.254
    1C        C  160   4.378   2.984   4.373
    1C        C  161   4.328   2.933   4.495
    1C        C  162   4.436   3.117   4.614
    1C        C  163   4.366   2.994   4.616
    1C        C  164   4.463   3.187   4.734
    1C        C  165   4.431   3.124   4.856
    1C        C  166   4.505   3.323   4.971
    1C        C  167   4.474   3.187   4.974
    1C        C  168   3.471   2.432   2.074
    1C        C  169   3.397   2.461   2.189
    1C        C  170   3.618   2.471   2.304
    1C        C  171   3.476   2.464   2.307
    1C        C  172   3.690   2.490   2.424
    1C        C  173   3.618   2.490   2.546
    1C        C  174   3.826   2.542   2.665
    1C        C  175   3.691   2.502   2.667
    1C        C  176   3.892   2.564   2.788
    1C        C  177   3.828   2.542   2.912
    1C        C  178   4.021   2.635   3.031
    1C        C  179   3.894   2.573   3.033
    1C        C  180   4.083   2.668   3.153
    1C        C  181   4.020   2.634   3.275
    1C        C  182   4.190   2.757   3.397
    1C        C  183   4.079   2.669   3.399
    1C        C  184   4.243   2.806   3.518
    1C        C  185   4.191   2.763   3.642
    1C        C  186   4.341   2.916   3.763
    1C        C  187   4.245   2.813   3.763
    1C        C  188   4.380   2.978   3.884
    1C        C  189   4.334   2.926   4.007
    1C        C  190   4.445   3.105   4.129
    1C        C  191   4.378   2.981   4.129
    1C        C  192   4.471   3.173   4.250
    1C        C  193   4.443   3.110   4.373
    1C        C  194   4.512   3.314   4.489
    1C        C  195   4.472   3.179   4.493
    1C        C  196   4.522   3.385   4.611
    1C        C  197   4.510   3.321   4.736
    1C        C  198   4.560   3.536   4.851
    1C        C  199   4.536   3.395   4.855
    1C        C  200   4.585   3.617   4.966
    1C        C  201   3.611   2.423   2.074
    1C        C  202   3.828   2.512   2.184
    1C        C  203   3.691   2.469   2.183
    1C        C  204   3.902   2.536   2.302
    1C        C  205   3.828   2.521   2.422
    1C        C  206   4.018   2.623   2.541
    1C        C  207   3.892   2.559   2.542
    1C        C  208   4.074   2.666   2.663
    1C        C  209   4.017   2.631   2.787
    1C        C  210   4.195   2.751   2.906
    1C        C  211   4.081   2.668   2.908
    1C        C  212   4.247   2.801   3.027
    1C        C  213   4.196   2.753   3.150
    1C        C  214   4.333   2.910   3.274
    1C        C  215   4.244   2.801   3.274
    1C        C  216   4.372   2.972   3.395
    1C        C  217   4.332   2.916   3.518
    1C        C  218   4.442   3.099   3.637
    1C        C  219   4.375   2.975   3.639
    1C        C  220   4.471   3.166   3.758
    1C        C  221   4.449   3.101   3.882
    1C        C  222   4.514   3.302   4.002
    1C        C  223   4.474   3.166   4.005
    1C        C  224   4.521   3.377   4.122
    1C        C  225   4.509   3.309   4.245
    1C        C  226   4.525   3.523   4.364
    1C        C  227   4.523   3.381   4.365
    1C        C  228   4.517   3.596   4.484
    1C        C  229   4.531   3.526   4.605
    1C        C  230   4.503   3.738   4.726
    1C        C  231   4.534   3.599   4.726
    1C        C  232   4.494   3.816   4.844
    1C        C  233   4.545   3.751   4.957
    1C        C  234   4.017   2.611   2.067
    1C        C  235   3.896   2.543   2.065
    1C        C  236   4.085   2.653   2.181
    1C        C  237   4.026   2.606   2.300
    1C        C  238   4.201   2.734   2.420
    1C        C  239   4.087   2.649   2.420
    1C        C  240   4.253   2.785   2.542
    1C        C  241   4.190   2.746   2.662
    1C        C  242   4.333   2.907   2.784
    1C        C  243   4.246   2.796   2.782
    1C        C  244   4.378   2.964   2.905
    1C        C  245   4.339   2.909   3.029
    1C        C  246   4.441   3.093   3.148
    1C        C  247   4.376   2.968   3.152
    1C        C  248   4.466   3.161   3.269
    1C        C  249   4.436   3.098   3.392
    1C        C  250   4.502   3.300   3.514
    1C        C  251   4.468   3.162   3.514
    1C        C  252   4.514   3.371   3.635
    1C        C  253   4.508   3.302   3.758
    1C        C  254   4.530   3.513   3.878
    1C        C  255   4.526   3.372   3.880
    1C        C  256   4.522   3.587   3.998
    1C        C  257   4.528   3.518   4.122
    1C        C  258   4.500   3.732   4.237
    1C        C  259   4.527   3.593   4.241
    1C        C  260   4.475   3.801   4.357
    1C        C  261   4.487   3.734   4.481
    1C        C  262   4.430   3.936   4.602
    1C        C  263   4.481   3.805   4.604
    1C        C  264   4.401   4.005   4.722
    1C        C  265   4.438   3.946   4.845
    1C        C  266   4.323   4.129   4.956
    1C        C  267   4.398   4.013   4.961
    1C        C  268   4.265   2.779   2.062
    1C        C  269   4.200   2.735   2.179
    1C        C  270   4.347   2.892   2.298
    1C        C  271   4.255   2.783   2.300
    1C        C  272   4.384   2.953   2.420
    1C        C  273   4.345   2.892   2.541
    1C        C  274   4.448   3.082   2.662
    1C        C  275   4.383   2.956   2.661
    1C        C  276   4.475   3.151   2.781
    1C        C  277   4.447   3.087   2.904
    1C        C  278   4.508   3.292   3.025
    1C        C  279   4.474   3.155   3.025
    1C        C  280   4.517   3.363   3.146
    1C        C  281   4.510   3.296   3.270
    1C        C  282   4.519   3.510   3.391
    1C        C  283   4.515   3.368   3.391
    1C        C  284   4.517   3.581   3.512
    1C        C  285   4.519   3.512   3.636
    1C        C  286   4.493   3.723   3.752
    1C        C  287   4.521   3.585   3.757
    1C        C  288   4.470   3.792   3.873
    1C        C  289   4.494   3.725   3.995
    1C        C  290   4.426   3.930   4.115
    1C        C  291   4.479   3.799   4.115
    1C        C  292   4.395   3.996   4.236
    1C        C  293   4.428   3.934   4.359
    1C        C  294   4.327   4.122   4.478
    1C        C  295   4.399   4.001   4.480
    1C        C  296   4.283   4.183   4.598
    1C        C  297   4.326   4.126   4.720
    1C        C  298   4.202   4.310   4.836
    1C        C  299   4.284   4.193   4.838
    1C        C  300   4.172   4.401   4.943
    1C        C  301   4.357   2.883   2.061
    1C        C  302   4.474   3.069   2.175
    1C        C  303   4.400   2.946   2.178
    1C        C  304   4.486   3.142   2.297
    1C        C  305   4.452   3.077   2.418
    1C        C  306   4.508   3.283   2.537
    1C        C  307   4.473   3.147   2.539
    1C        C  308   4.517   3.357   2.657
    1C        C  309   4.505   3.289   2.781
    1C        C  310   4.525   3.501   2.901
    1C        C  311   4.522   3.360   2.902
    1C        C  312   4.514   3.574   3.021
    1C        C  313   4.518   3.504   3.144
    1C        C  314   4.484   3.714   3.265
    1C        C  315   4.511   3.576   3.266
    1C        C  316   4.470   3.786   3.387
    1C        C  317   4.491   3.720   3.510
    1C        C  318   4.424   3.924   3.627
    1C        C  319   4.478   3.793   3.630
    1C        C  320   4.390   3.988   3.748
    1C        C  321   4.420   3.925   3.871
    1C        C  322   4.315   4.110   3.990
    1C        C  323   4.392   3.992   3.992
    1C        C  324   4.271   4.168   4.112
    1C        C  325   4.319   4.115   4.234
    1C        C  326   4.183   4.278   4.354
    1C        C  327   4.279   4.174   4.356
    1C        C  328   4.136   4.337   4.473
    1C        C  329   4.190   4.290   4.595
    1C        C  330   4.027   4.433   4.714
    1C        C  331   4.142   4.349   4.713
    1C        C  332   3.971   4.491   4.830
    1C        C  333   4.056   4.479   4.940
    1C        C  334   4.559   3.269   2.061
    1C        C  335   4.534   3.131   2.061
    1C        C  336   4.539   3.349   2.174
    1C        C  337   4.514   3.281   2.296
    1C        C  338   4.525   3.496   2.410
    1C        C  339   4.524   3.354   2.416
    1C        C  340   4.519   3.569   2.531
    1C        C  341   4.523   3.498   2.653
    1C        C  342   4.495   3.707   2.775
    1C        C  343   4.519   3.567   2.776
    1C        C  344   4.477   3.779   2.895
    1C        C  345   4.489   3.713   3.019
    1C        C  346   4.416   3.912   3.139
    1C        C  347   4.466   3.780   3.142
    1C        C  348   4.390   3.980   3.260
    1C        C  349   4.423   3.919   3.382
    1C        C  350   4.322   4.107   3.503
    1C        C  351   4.393   3.985   3.504
    1C        C  352   4.278   4.165   3.624
    1C        C  353   4.317   4.109   3.747
    1C        C  354   4.174   4.267   3.868
    1C        C  355   4.275   4.168   3.868
    1C        C  356   4.121   4.317   3.989
    1C        C  357   4.177   4.272   4.111
    1C        C  358   4.009   4.403   4.232
    1C        C  359   4.125   4.321   4.233
    1C        C  360   3.948   4.443   4.352
    1C        C  361   4.018   4.414   4.472
    1C        C  362   3.829   4.514   4.594
    1C        C  363   3.958   4.458   4.593
    1C        C  364   3.762   4.551   4.713
    1C        C  365   3.841   4.546   4.830
    1C        C  366   3.628   4.595   4.949
    1C        C  367   3.766   4.575   4.945
    1C        C  368   4.506   3.567   2.055
    1C        C  369   4.524   3.489   2.170
    1C        C  370   4.510   3.707   2.287
    1C        C  371   4.521   3.567   2.288
    1C        C  372   4.490   3.778   2.407
    1C        C  373   4.502   3.709   2.530
    1C        C  374   4.430   3.908   2.650
    1C        C  375   4.479   3.775   2.652
    1C        C  376   4.398   3.974   2.770
    1C        C  377   4.427   3.911   2.893
    1C        C  378   4.323   4.098   3.012
    1C        C  379   4.394   3.976   3.014
    1C        C  380   4.272   4.151   3.132
    1C        C  381   4.313   4.098   3.257
    1C        C  382   4.176   4.258   3.377
    1C        C  383   4.278   4.160   3.379
    1C        C  384   4.121   4.303   3.499
    1C        C  385   4.173   4.260   3.622
    1C        C  386   4.006   4.392   3.741
    1C        C  387   4.119   4.308   3.744
    1C        C  388   3.947   4.433   3.863
    1C        C  389   4.007   4.400   3.987
    1C        C  390   3.817   4.488   4.108
    1C        C  391   3.950   4.441   4.110
    1C        C  392   3.750   4.517   4.229
    1C        C  393   3.818   4.499   4.351
    1C        C  394   3.619   4.562   4.474
    1C        C  395   3.757   4.532   4.474
    1C        C  396   3.547   4.570   4.595
    1C        C  397   3.622   4.569   4.715
    1C        C  398   3.409   4.563   4.840
    1C        C  399   3.549   4.583   4.834
    1C        C  400   3.339   4.523   4.955
    1C        C  401   4.503   3.705   2.047
    1C        C  402   4.455   3.914   2.166
    1C        C  403   4.495   3.779   2.166
    1C        C  404   4.415   3.978   2.286
    1C        C  405   4.439   3.910   2.408
    1C        C  406   4.323   4.090   2.524
    1C        C  407   4.403   3.974   2.528
    1C        C  408   4.277   4.147   2.646
    1C        C  409   4.318   4.090   2.769
    1C        C  410   4.172   4.246   2.887
    1C        C  411   4.275   4.150   2.890
    1C        C  412   4.122   4.296   3.010
    1C        C  413   4.175   4.254   3.134
    1C        C  414   4.004   4.381   3.251
    1C        C  415   4.121   4.303   3.255
    1C        C  416   3.942   4.415   3.374
    1C        C  417   4.002   4.380   3.498
    1C        C  418   3.814   4.483   3.618
    1C        C  419   3.942   4.421   3.619
    1C        C  420   3.749   4.509   3.740
    1C        C  421   3.816   4.486   3.863
    1C        C  422   3.612   4.540   3.985
    1C        C  423   3.750   4.509   3.985
    1C        C  424   3.542   4.551   4.108
    1C        C  425   3.611   4.543   4.231
    1C        C  426   3.403   4.556   4.357
    1C        C  427   3.544   4.561   4.354
    1C        C  428   3.331   4.550   4.478
    1C        C  429   3.406   4.558   4.598
    1C        C  430   3.197   4.520   4.721
    1C        C  431   3.335   4.552   4.720
    1C        C  432   3.124   4.494   4.841
    1C        C  433   3.203   4.497   4.957
    1C        C  434   4.385   4.121   2.051
    1C        C  435   4.444   3.994   2.052
    1C        C  436   4.302   4.157   2.162
    1C        C  437   4.335   4.095   2.286
    1C        C  438   4.184   4.253   2.404
    1C        C  439   4.284   4.153   2.404
    1C        C  440   4.123   4.296   2.524
    1C        C  441   4.178   4.247   2.645
    1C        C  442   4.007   4.377   2.765
    1C        C  443   4.123   4.296   2.765
    1C        C  444   3.945   4.413   2.887
    1C        C  445   4.009   4.380   3.008
    1C        C  446   3.815   4.474   3.129
    1C        C  447   3.945   4.418   3.129
    1C        C  448   3.746   4.490   3.251
    1C        C  449   3.814   4.473   3.374
    1C        C  450   3.608   4.526   3.496
    1C        C  451   3.747   4.501   3.495
    1C        C  452   3.541   4.539   3.619
    1C        C  453   3.612   4.540   3.742
    1C        C  454   3.400   4.547   3.864
    1C        C  455   3.541   4.551   3.864
    1C        C  456   3.333   4.535   3.988
    1C        C  457   3.401   4.547   4.111
    1C        C  458   3.198   4.502   4.239
    1C        C  459   3.334   4.537   4.235
    1C        C  460   3.127   4.484   4.360
    1C        C  461   3.193   4.519   4.480
    1C        C  462   2.996   4.439   4.603
    1C        C  463   3.125   4.496   4.602
    1C        C  464   2.929   4.405   4.722
    1C        C  465   2.990   4.445   4.845
    1C        C  466   2.801   4.335   4.960
    1C        C  467   2.908   4.425   4.961
    1C        C  468   4.122   4.284   2.046
    1C        C  469   4.188   4.243   2.163
    1C        C  470   4.005   4.365   2.279
    1C        C  471   4.128   4.294   2.281
    1C        C  472   3.939   4.399   2.399
    1C        C  473   4.003   4.371   2.521
    1C        C  474   3.814   4.466   2.642
    1C        C  475   3.943   4.410   2.643
    1C        C  476   3.746   4.490   2.764
    1C        C  477   3.812   4.462   2.886
    1C        C  478   3.607   4.516   3.006
    1C        C  479   3.745   4.487   3.007
    1C        C  480   3.536   4.524   3.128
    1C        C  481   3.607   4.516   3.250
    1C        C  482   3.397   4.528   3.375
    1C        C  483   3.538   4.527   3.373
    1C        C  484   3.329   4.524   3.499
    1C        C  485   3.400   4.540   3.620
    1C        C  486   3.192   4.501   3.745
    1C        C  487   3.329   4.537   3.742
    1C        C  488   3.131   4.471   3.869
    1C        C  489   3.198   4.492   3.991
    1C        C  490   3.009   4.411   4.116
    1C        C  491   3.134   4.476   4.116
    1C        C  492   2.945   4.380   4.238
    1C        C  493   3.001   4.420   4.361
    1C        C  494   2.829   4.300   4.482
    1C        C  495   2.937   4.391   4.483
    1C        C  496   2.774   4.253   4.604
    1C        C  497   2.819   4.314   4.723
    1C        C  498   2.667   4.163   4.843
    1C        C  499   2.756   4.273   4.842
    1C        C  500   2.592   4.119   4.953
    1C        C  501   4.003   4.357   2.041
    1C        C  502   3.815   4.465   2.155
    1C        C  503   3.942   4.403   2.158
    1C        C  504   3.744   4.484   2.276
    1C        C  505   3.808   4.452   2.398
    1C        C  506   3.605   4.508   2.521
    1C        C  507   3.744   4.482   2.520
    1C        C  508   3.533   4.520   2.642
    1C        C  509   3.608   4.518   2.762
    1C        C  510   3.395   4.526   2.887
    1C        C  511   3.536   4.526   2.884
    1C        C  512   3.321   4.521   3.007
    1C        C  513   3.395   4.527   3.128
    1C        C  514   3.190   4.490   3.256
    1C        C  515   3.328   4.524   3.252
    1C        C  516   3.121   4.469   3.377
    1C        C  517   3.191   4.493   3.498
    1C        C  518   3.000   4.413   3.626
    1C        C  519   3.126   4.477   3.623
    1C        C  520   2.944   4.375   3.749
    1C        C  521   3.006   4.405   3.873
    1C        C  522   2.832   4.288   3.997
    1C        C  523   2.946   4.371   3.996
    1C        C  524   2.787   4.233   4.119
    1C        C  525   2.836   4.289   4.239
    1C        C  526   2.698   4.131   4.364
    1C        C  527   2.783   4.243   4.361
    1C        C  528   2.652   4.075   4.485
    1C        C  529   2.693   4.138   4.605
    1C        C  530   2.585   3.958   4.733
    1C        C  531   2.642   4.088   4.727
    1C        C  532   2.541   3.902   4.856
    1C        C  533   2.531   3.994   4.965
    1C        C  534   3.616   4.560   2.040
    1C        C  535   3.747   4.510   2.042
    1C        C  536   3.536   4.536   2.157
    1C        C  537   3.606   4.518   2.279
    1C        C  538   3.392   4.522   2.400
    1C        C  539   3.534   4.522   2.400
    1C        C  540   3.322   4.512   2.522
    1C        C  541   3.392   4.515   2.645
    1C        C  542   3.184   4.484   2.767
    1C        C  543   3.321   4.515   2.767
    1C        C  544   3.118   4.459   2.889
    1C        C  545   3.184   4.487   3.011
    1C        C  546   2.995   4.402   3.135
    1C        C  547   3.122   4.464   3.135
    1C        C  548   2.939   4.364   3.259
    1C        C  549   2.996   4.404   3.382
    1C        C  550   2.828   4.282   3.507
    1C        C  551   2.937   4.372   3.507
    1C        C  552   2.781   4.232   3.631
    1C        C  553   2.833   4.286   3.750
    1C        C  554   2.706   4.121   3.875
    1C        C  555   2.783   4.239   3.873
    1C        C  556   2.665   4.059   3.995
    1C        C  557   2.702   4.120   4.117
    1C        C  558   2.596   3.943   4.245
    1C        C  559   2.664   4.067   4.242
    1C        C  560   2.563   3.882   4.368
    1C        C  561   2.588   3.949   4.490
    1C        C  562   2.529   3.748   4.617
    1C        C  563   2.562   3.886   4.614
    1C        C  564   2.517   3.679   4.739
    1C        C  565   2.524   3.760   4.857
    1C        C  566   2.529   3.548   4.977
    1C        C  567   2.527   3.688   4.977
    1C        C  568   3.328   4.469   2.040
    1C        C  569   3.397   4.506   2.156
    1C        C  570   3.185   4.476   2.281
    1C        C  571   3.323   4.507   2.277
    1C        C  572   3.118   4.452   2.403
    1C        C  573   3.185   4.480   2.524
    1C        C  574   2.987   4.405   2.646
    1C        C  575   3.114   4.466   2.645
    1C        C  576   2.928   4.361   2.767
    1C        C  577   2.993   4.391   2.889
    1C        C  578   2.826   4.272   3.017
    1C        C  579   2.935   4.361   3.014
    1C        C  580   2.777   4.224   3.140
    1C        C  581   2.832   4.272   3.261
    1C        C  582   2.697   4.114   3.388
    1C        C  583   2.782   4.226   3.385
    1C        C  584   2.663   4.052   3.511
    1C        C  585   2.698   4.118   3.631
    1C        C  586   2.593   3.937   3.757
    1C        C  587   2.661   4.061   3.755
    1C        C  588   2.570   3.871   3.880
    1C        C  589   2.597   3.935   4.003
    1C        C  590   2.531   3.736   4.128
    1C        C  591   2.573   3.871   4.126
    1C        C  592   2.513   3.673   4.253
    1C        C  593   2.526   3.746   4.374
    1C        C  594   2.514   3.535   4.498
    1C        C  595   2.517   3.676   4.496
    1C        C  596   2.519   3.465   4.621
    1C        C  597   2.515   3.537   4.742
    1C        C  598   2.537   3.325   4.865
    1C        C  599   2.526   3.466   4.863
    1C        C  600   2.529   3.245   4.979
    1C        C  601   3.195   4.434   2.046
    1C        C  602   2.979   4.398   2.158
    1C        C  603   3.115   4.440   2.161
    1C        C  604   2.926   4.356   2.283
    1C        C  605   2.989   4.394   2.403
    1C        C  606   2.819   4.269   2.528
    1C        C  607   2.926   4.361   2.526
    1C        C  608   2.771   4.220   2.651
    1C        C  609   2.822   4.269   2.774
    1C        C  610   2.684   4.109   2.895
    1C        C  611   2.771   4.221   2.897
    1C        C  612   2.649   4.055   3.020
    1C        C  613   2.690   4.113   3.142
    1C        C  614   2.588   3.932   3.269
    1C        C  615   2.652   4.058   3.267
    1C        C  616   2.566   3.862   3.390
    1C        C  617   2.596   3.928   3.511
    1C        C  618   2.526   3.734   3.636
    1C        C  619   2.567   3.869   3.636
    1C        C  620   2.512   3.666   3.759
    1C        C  621   2.528   3.736   3.881
    1C        C  622   2.511   3.528   4.009
    1C        C  623   2.515   3.669   4.004
    1C        C  624   2.514   3.460   4.133
    1C        C  625   2.510   3.532   4.254
    1C        C  626   2.539   3.323   4.381
    1C        C  627   2.513   3.462   4.377
    1C        C  628   2.556   3.253   4.502
    1C        C  629   2.541   3.325   4.623
    1C        C  630   2.601   3.119   4.742
    1C        C  631   2.558   3.255   4.745
    1C        C  632   2.617   3.047   4.864
    1C        C  633   2.560   3.108   4.980
    1C        C  634   2.785   4.301   2.051
    1C        C  635   2.891   4.393   2.045
    1C        C  636   2.751   4.229   2.166
    1C        C  637   2.813   4.270   2.286
    1C        C  638   2.674   4.110   2.409
    1C        C  639   2.763   4.220   2.408
    1C        C  640   2.638   4.050   2.531
    1C        C  641   2.682   4.111   2.651
    1C        C  642   2.586   3.921   2.779
    1C        C  643   2.644   4.050   2.773
    1C        C  644   2.563   3.858   2.903
    1C        C  645   2.588   3.927   3.024
    1C        C  646   2.525   3.728   3.150
    1C        C  647   2.562   3.864   3.147
    1C        C  648   2.510   3.657   3.271
    1C        C  649   2.525   3.727   3.393
    1C        C  650   2.511   3.518   3.520
    1C        C  651   2.515   3.659   3.517
    1C        C  652   2.513   3.451   3.644
    1C        C  653   2.508   3.524   3.765
    1C        C  654   2.535   3.316   3.891
    1C        C  655   2.509   3.455   3.888
    1C        C  656   2.559   3.252   4.015
    1C        C  657   2.542   3.321   4.137
    1C        C  658   2.616   3.123   4.259
    1C        C  659   2.565   3.255   4.260
    1C        C  660   2.640   3.056   4.381
    1C        C  661   2.605   3.121   4.501
    1C        C  662   2.712   2.936   4.624
    1C        C  663   2.633   3.053   4.622
    1C        C  664   2.753   2.875   4.745
    1C        C  665   2.702   2.932   4.865
    1C        C  666   2.749   2.871   4.982
    1C        C  667   2.683   4.022   2.054
    1C        C  668   2.686   4.104   2.167
    1C        C  669   2.589   3.913   2.291
    1C        C  670   2.642   4.045   2.288
    1C        C  671   2.560   3.848   2.413
    1C        C  672   2.584   3.920   2.533
    1C        C  673   2.515   3.722   2.661
    1C        C  674   2.561   3.855   2.657
    1C        C  675   2.506   3.654   2.785
    1C        C  676   2.527   3.722   2.907
    1C        C  677   2.504   3.513   3.031
    1C        C  678   2.513   3.654   3.030
    1C        C  679   2.505   3.443   3.154
    1C        C  680   2.504   3.516   3.275
    1C        C  681   2.533   3.307   3.401
    1C        C  682   2.507   3.446   3.398
    1C        C  683   2.558   3.243   3.524
    1C        C  684   2.537   3.312   3.646
    1C        C  685   2.610   3.116   3.771
    1C        C  686   2.556   3.247   3.770
    1C        C  687   2.643   3.056   3.894
    1C        C  688   2.616   3.123   4.015
    1C        C  689   2.727   2.941   4.138
    1C        C  690   2.650   3.060   4.137
    1C        C  691   2.760   2.878   4.260
    1C        C  692   2.718   2.938   4.381
    1C        C  693   2.761   2.882   4.503
    1C        C  694   2.632   3.891   2.056
    1C        C  695   2.526   3.705   2.177
    1C        C  696   2.577   3.837   2.173
    1C        C  697   2.504   3.639   2.299
    1C        C  698   2.517   3.714   2.418
    1C        C  699   2.488   3.507   2.543
    1C        C  700   2.498   3.648   2.542
    1C        C  701   2.498   3.440   2.667
    1C        C  702   2.501   3.513   2.788
    1C        C  703   2.536   3.303   2.910
    1C        C  704   2.507   3.442   2.909
    1C        C  705   2.554   3.236   3.033
    1C        C  706   2.535   3.306   3.155
    1C        C  707   2.603   3.107   3.276
    1C        C  708   2.554   3.240   3.278
    1C        C  709   2.641   3.051   3.400
    1C        C  710   2.615   3.114   3.524
    1C        C  711   2.716   2.932   3.646
    1C        C  712   2.645   3.054   3.649
    1C        C  713   2.762   2.880   3.769
    1C        C  714   2.723   2.939   3.891
    1C        C  715   2.762   2.883   4.015
    1C        C  716   2.457   3.498   2.062
    1C        C  717   2.494   3.634   2.061
    1C        C  718   2.463   3.421   2.182
    1C        C  719   2.481   3.498   2.300
    1C        C  720   2.520   3.293   2.425
    1C        C  721   2.488   3.431   2.424
    1C        C  722   2.543   3.228   2.548
    1C        C  723   2.524   3.301   2.668
    1C        C  724   2.594   3.099   2.791
    1C        C  725   2.543   3.231   2.789
    1C        C  726   2.627   3.034   2.912
    1C        C  727   2.601   3.103   3.032
    1C        C  728   2.710   2.923   3.161
    1C        C  729   2.630   3.039   3.155
    1C        C  730   2.758   2.871   3.283
    1C        C  731   2.720   2.934   3.403
    1C        C  732   2.766   2.878   3.525
    1C        C  733   2.490   3.198   2.072
    1C        C  734   2.481   3.279   2.186
    1C        C  735   2.586   3.089   2.305
    1C        C  736   2.529   3.220   2.305
    1C        C  737   2.620   3.027   2.427
    1C        C  738   2.595   3.096   2.547
    1C        C  739   2.701   2.913   2.669
    1C        C  740   2.629   3.035   2.670
    1C        C  741   2.743   2.856   2.792
    1C        C  742   2.703   2.915   2.914
    1C        C  743   2.751   2.866   3.038
    1C        C  744   2.540   3.069   2.074
    1C        C  745   2.687   2.900   2.188
    1C        C  746   2.606   3.016   2.186
    1C        C  747   2.733   2.843   2.308
    1C        C  748   2.694   2.907   2.428
    1C        C  749   2.738   2.849   2.549
    1C        C  750   2.731   2.837   2.071
    1C        C  751   3.658   2.313   1.987
    1C        O  752   3.751   2.239   2.028
    1C        O  753   3.655   2.340   1.849
    1C        C  754   4.625   3.051   1.976
    1C        O  755   4.608   3.007   1.859
    1C        O  756   4.747   3.011   2.032
    1C        C  757   4.437   4.214   1.948
    1C        O  758   4.515   4.311   1.971
    1C        O  759   4.418   4.197   1.811
    1C        C  760   3.596   4.681   1.958
    1C        O  761   3.609   4.800   1.999
    1C        O  762   3.557   4.663   1.825
    1C        C  763   2.885   4.495   1.938
    1C        O  764   2.867   4.461   1.817
    1C        O  765   2.830   4.623   1.952
    1C        C  766   2.344   3.474   1.968
    1C        O  767   2.362   3.444   1.847
    1C        O  768   2.209   3.469   2.002
    1C        C  769   4.696   3.591   5.060
    1C        O  770   4.660   3.589   5.181
    1C        O  771   4.819   3.656   5.042
    1C        C  772   4.277   4.435   5.043
    1C        O  773   4.252   4.416   5.165
    1C        O  774   4.356   4.550   5.029
    1C        C  775   4.132   2.562   5.095
    1C        O  776   4.215   2.467   5.104
    1C        O  777   4.083   2.583   5.224
    1C        C  778   2.909   4.501   5.088
    1C        O  779   2.906   4.627   5.085
    1C        O  780   2.951   4.451   5.212
    1C        C  781   2.488   3.036   5.087
    1C        O  782   2.362   3.033   5.090
    1C        O  783   2.534   3.034   5.218
    1C        C  784   2.421   3.985   5.064
    1C        O  785   2.300   3.982   5.027
    1C        O  786   2.447   3.941   5.194
    1C        C  787   2.941   2.416   2.017
    1C        O  788   2.918   2.425   1.893
    1C        O  789   2.902   2.300   2.082
    1C        C  790   3.193   2.386   5.081
    1C        O  791   3.173   2.267   5.045
    1C        O  792   3.150   2.427   5.208
    1C        H  793   4.316   3.006   5.068
    1C        H  794   4.223   2.795   5.070
    1C        H  795   4.500   3.132   5.061
    1C        H  796   4.466   3.382   5.052
    1C        H  797   4.570   3.809   5.043
    1C        H  798   4.389   3.954   5.050
    1C        H  799   4.276   4.159   5.047
    1C        H  800   4.012   4.481   5.038
    1C        H  801   3.820   4.601   5.034
    1C        H  802   3.589   4.642   5.036
    1C        H  803   3.394   4.497   5.043
    1C        H  804   3.151   4.523   5.046
    1C        H  805   3.890   2.497   5.076
    1C        H  806   3.672   2.450   5.076
    1C        H  807   3.051   2.612   5.076
    1C        H  808   3.446   2.485   5.078
    1C        H  809   2.814   2.689   5.052
    1C        H  810   2.705   2.902   5.074
    1C        H  811   2.489   3.287   5.069
    1C        H  812   2.549   3.504   5.072
    1C        H  813   2.493   3.741   5.063
    1C        H  814   2.553   4.192   5.021
    1C        H  815   2.723   4.363   5.027
    1C        H  816   2.695   2.877   1.978
    1C        H  817   2.887   2.724   1.985
    1C        H  818   3.210   2.456   1.982
    1C        H  819   3.424   2.429   1.978
    1C        H  820   3.889   2.471   1.986
    1C        H  821   4.080   2.586   1.984
    1C        H  822   4.229   2.749   1.965
    1C        H  823   4.350   2.940   1.971
    1C        H  824   4.616   3.310   1.980
    1C        H  825   4.451   3.517   1.978
    1C        H  826   4.551   3.752   1.963
    1C        H  827   3.799   4.507   1.948
    1C        H  828   3.937   4.333   1.960
    1C        H  829   4.126   4.208   1.970
    1C        H  830   4.491   3.960   1.962
    1C        H  831   2.679   3.822   1.989
    1C        H  832   2.708   4.059   1.957
    1C        H  833   2.743   4.275   1.956
    1C        H  834   3.385   4.428   1.959
    1C        H  835   3.167   4.355   1.979
    1C        H  836   2.482   2.999   2.017
    1C        H  837   2.487   3.247   1.977
    1C        H  838   2.468   3.695   1.977
    2V3OU   H29  839   2.798   3.540   5.225
    2V3OU   C27  840   2.782   3.507   5.331
    2V3OU   H27  841   2.723   3.572   5.400
    2V3OU   H28  842   2.739   3.403   5.328
    2V3OU   O11  843   2.906   3.472   5.393
    2V3OU   C15  844   2.925   3.399   5.509
    2V3OU   C13  845   3.053   3.376   5.563
    2V3OU   C14  846   3.076   3.266   5.647
    2V3OU   C16  847   2.969   3.187   5.688
    2V3OU    H6  848   2.989   3.106   5.760
    2V3OU   C12  849   3.215   3.230   5.682
    2V3OU    O2  850   3.243   3.122   5.739
    2V3OU   C10  851   3.330   3.304   5.630
    2V3OU    C8  852   3.463   3.270   5.655
    2V3OU   O10  853   3.490   3.157   5.726
    2V3OU   H26  854   3.407   3.117   5.757
    2V3OU    C6  855   3.571   3.351   5.609
    2V3OU    C5  856   3.541   3.466   5.537
    2V3OU    C4  857   3.710   3.296   5.613
    2V3OU    H4  858   3.730   3.229   5.702
    2V3OU    H5  859   3.712   3.231   5.521
    2V3OU    C2  860   3.821   3.402   5.603
    2V3OU    O6  861   3.809   3.477   5.724
    2V3OU   H21  862   3.768   3.557   5.690
    2V3OU    C3  863   3.785   3.497   5.489
    2V3OU    H2  864   3.864   3.576   5.488
    2V3OU    H3  865   3.782   3.443   5.391
    2V3OU   C25  866   3.955   3.330   5.593
    2V3OU    O7  867   4.001   3.299   5.483
    2V3OU   C26  868   4.033   3.294   5.718
    2V3OU   H22  869   4.062   3.391   5.767
    2V3OU   H23  870   4.124   3.234   5.691
    2V3OU    O8  871   3.961   3.209   5.804
    2V3OU   H24  872   3.926   3.261   5.879
    2V3OU    C1  873   3.649   3.565   5.503
    2V3OU    H1  874   3.627   3.621   5.407
    2V3OU    O3  875   3.655   3.658   5.611
    2V3OU   C19  876   3.622   3.796   5.593
    2V3OU    H9  877   3.522   3.806   5.541
    2V3OU    O4  878   3.717   3.850   5.504
    2V3OU   C20  879   3.849   3.870   5.558
    2V3OU   H10  880   3.893   3.769   5.581
    2V3OU   C24  881   3.612   3.855   5.733
    2V3OU   H16  882   3.548   3.789   5.797
    2V3OU   H17  883   3.563   3.956   5.729
    2V3OU   C23  884   3.751   3.871   5.795
    2V3OU   H15  885   3.786   3.765   5.816
    2V3OU    N1  886   3.734   3.949   5.916
    2V3OU   H19  887   3.800   3.918   5.985
    2V3OU   H20  888   3.652   3.934   5.972
    2V3OU   C21  889   3.847   3.940   5.693
    2V3OU   H11  890   3.947   3.926   5.744
    2V3OU    O5  891   3.830   4.081   5.685
    2V3OU   H18  892   3.774   4.105   5.760
    2V3OU   C22  893   3.915   3.947   5.445
    2V3OU   H12  894   3.863   4.046   5.433
    2V3OU   H13  895   3.902   3.893   5.347
    2V3OU   H14  896   4.024   3.958   5.464
    2V3OU   C11  897   3.163   3.469   5.536
    2V3OU    O1  898   3.134   3.587   5.509
    2V3OU    C9  899   3.303   3.424   5.557
    2V3OU    C7  900   3.406   3.505   5.511
    2V3OU    O9  901   3.384   3.614   5.431
    2V3OU   H25  902   3.289   3.634   5.417
    2V3OU   C17  903   2.821   3.315   5.555
    2V3OU    H7  904   2.716   3.343   5.542
    2V3OU   C18  905   2.841   3.207   5.640
    2V3OU    H8  906   2.754   3.148   5.673
    3SOL     OW  907   3.764   3.124   4.094
    3SOL    HW1  908   3.745   3.201   4.034
    3SOL    HW2  909   3.682   3.066   4.101
    4SOL     OW  910   6.514   6.327   0.844
    4SOL    HW1  911   6.439   6.385   0.876
    4SOL    HW2  912   6.530   6.253   0.910
    5SOL     OW  913   4.745   1.952   0.498
    5SOL    HW1  914   4.723   1.963   0.401
    5SOL    HW2  915   4.844   1.959   0.511
    6SOL     OW  916   4.950   1.049   3.082
    6SOL    HW1  917   4.897   0.995   3.148
    6SOL    HW2  918   4.935   1.012   2.990
    7SOL     OW  919   1.659   3.901   4.053
    7SOL    HW1  920   1.645   3.950   3.966
    7SOL    HW2  921   1.754   3.872   4.060
    8SOL     OW  922   1.519   3.228   5.079
    8SOL    HW1  923   1.573   3.283   5.142
    8SOL    HW2  924   1.496   3.282   4.998
    9SOL     OW  925   0.063   0.981   6.725
    9SOL    HW1  926   0.114   1.000   6.641
    9SOL    HW2  927   0.009   0.897   6.713
   10SOL     OW  928   5.233   4.871   1.863
   10SOL    HW1  929   5.279   4.820   1.790
   10SOL    HW2  930   5.237   4.969   1.843
   11SOL     OW  931   2.120   2.480   0.406
   11SOL    HW1  932   2.177   2.398   0.409
   11SOL    HW2  933   2.074   2.486   0.317
   12SOL     OW  934   3.399   5.120   2.895
   12SOL    HW1  935   3.405   5.104   2.994
   12SOL    HW2  936   3.330   5.061   2.855
   13SOL     OW  937   5.857   5.980   1.045
   13SOL    HW1  938   5.928   5.916   1.014
   13SOL    HW2  939   5.772   5.961   0.997
   14SOL     OW  940   4.025   5.877   5.108
   14SOL    HW1  941   3.997   5.950   5.170
   14SOL    HW2  942   4.049   5.915   5.019
   15SOL     OW  943   0.631   6.674   6.096
   15SOL    HW1  944   0.668   6.701   6.007
   15SOL    HW2  945   0.543   6.718   6.111
   16SOL     OW  946   2.161   4.334   4.870
   16SOL    HW1  947   2.160   4.266   4.943
   16SOL    HW2  948   2.212   4.415   4.900
   17SOL     OW  949   6.262   1.268   5.642
   17SOL    HW1  950   6.217   1.261   5.731
   17SOL    HW2  951   6.281   1.176   5.607
   18SOL     OW  952   2.481   0.887   6.466
   18SOL    HW1  953   2.542   0.852   6.538
   18SOL    HW2  954   2.388   0.893   6.502
   19SOL     OW  955   2.943   6.986   3.275
   19SOL    HW1  956   2.962   6.976   3.177
   19SOL    HW2  957   2.903   0.052   3.292
   20SOL     OW  958   6.503   1.678   5.484
   20SOL    HW1  959   6.538   1.739   5.413
   20SOL    HW2  960   6.403   1.682   5.485
   21SOL     OW  961   2.554   4.510   2.776
   21SOL    HW1  962   2.631   4.455   2.809
   21SOL    HW2  963   2.584   4.570   2.703
   22SOL     OW  964   1.447   0.797   6.799
   22SOL    HW1  965   1.419   0.889   6.769
   22SOL    HW2  966   1.368   0.749   6.836
   23SOL     OW  967   6.042   4.716   1.379
   23SOL    HW1  968   6.069   4.632   1.331
   23SOL    HW2  969   5.942   4.722   1.384
   24SOL     OW  970   4.357   1.049   0.473
   24SOL    HW1  971   4.378   0.952   0.461
   24SOL    HW2  972   4.349   1.069   0.571
   25SOL     OW  973   1.779   1.252   4.523
   25SOL    HW1  974   1.872   1.219   4.508
   25SOL    HW2  975   1.780   1.325   4.591
   26SOL     OW  976   0.649   2.866   6.460
   26SOL    HW1  977   0.621   2.957   6.430
   26SOL    HW2  978   0.618   2.798   6.395
   27SOL     OW  979   5.912   0.382   1.726
   27SOL    HW1  980   5.991   0.408   1.671
   27SOL    HW2  981   5.881   0.292   1.699
   28SOL     OW  982   2.233   0.889   5.410
   28SOL    HW1  983   2.323   0.852   5.386
   28SOL    HW2  984   2.163   0.838   5.361
   29SOL     OW  985   0.444   6.862   1.009
   29SOL    HW1  986   0.345   6.870   1.015
   29SOL    HW2  987   0.487   6.931   1.067
   30SOL     OW  988   5.160   0.295   5.207
   30SOL    HW1  989   5.176   0.355   5.286
   30SOL    HW2  990   5.220   0.321   5.132
   31SOL     OW  991   1.218   3.295   5.072
   31SOL    HW1  992   1.281   3.314   4.997
   31SOL    HW2  993   1.189   3.199   5.067
   32SOL     OW  994   3.514   0.546   1.324
   32SOL    HW1  995   3.441   0.478   1.317
   32SOL    HW2  996   3.549   0.548   1.418
   33SOL     OW  997   1.474   5.778   6.125
   33SOL    HW1  998   1.428   5.794   6.212
   33SOL    HW2  999   1.561   5.731   6.141
   34SOL     OW 1000   2.547   5.172   5.180
   34SOL    HW1 1001   2.581   5.095   5.234
   34SOL    HW2 1002   2.571   5.258   5.225
   35SOL     OW 1003   2.317   3.336   6.898
   35SOL    HW1 1004   2.365   3.412   6.941
   35SOL    HW2 1005   2.362   3.250   6.921
   36SOL     OW 1006   3.948   1.016   4.114
   36SOL    HW1 1007   3.993   0.947   4.057
   36SOL    HW2 1008   3.851   1.020   4.091
   37SOL     OW 1009   2.794   0.291   4.092
   37SOL    HW1 1010   2.781   0.319   3.997
   37SOL    HW2 1011   2.753   0.201   4.107
   38SOL     OW 1012   1.228   3.786   2.761
   38SOL    HW1 1013   1.167   3.829   2.827
   38SOL    HW2 1014   1.317   3.830   2.764
   39SOL     OW 1015   0.142   4.770   0.676
   39SOL    HW1 1016   0.116   4.862   0.705
   39SOL    HW2 1017   0.239   4.770   0.651
   40SOL     OW 1018   4.570   1.728   0.808
   40SOL    HW1 1019   4.618   1.785   0.875
   40SOL    HW2 1020   4.621   1.727   0.722
   41SOL     OW 1021   5.349   3.999   1.718
   41SOL    HW1 1022   5.259   4.043   1.715
   41SOL    HW2 1023   5.341   3.911   1.765
   42SOL     OW 1024   2.561   4.816   6.541
   42SOL    HW1 1025   2.611   4.903   6.539
   42SOL    HW2 1026   2.463   4.834   6.542
   43SOL     OW 1027   4.217   6.830   4.931
   43SOL    HW1 1028   4.267   6.755   4.887
   43SOL    HW2 1029   4.191   6.898   4.863
   44SOL     OW 1030   6.713   1.353   5.681
   44SOL    HW1 1031   6.775   1.339   5.604
   44SOL    HW2 1032   6.629   1.397   5.648
   45SOL     OW 1033   2.568   4.879   5.889
   45SOL    HW1 1034   2.625   4.934   5.950
   45SOL    HW2 1035   2.528   4.803   5.939
   46SOL     OW 1036   0.598   3.269   4.328
   46SOL    HW1 1037   0.594   3.245   4.231
   46SOL    HW2 1038   0.528   3.338   4.348
   47SOL     OW 1039   6.740   3.609   0.670
   47SOL    HW1 1040   6.716   3.650   0.759
   47SOL    HW2 1041   6.740   3.681   0.600
   48SOL     OW 1042   5.891   3.388   0.861
   48SOL    HW1 1043   5.870   3.462   0.797
   48SOL    HW2 1044   5.937   3.314   0.812
   49SOL     OW 1045   3.404   3.955   6.535
   49SOL    HW1 1046   3.337   3.952   6.609
   49SOL    HW2 1047   3.427   4.050   6.514
   50SOL     OW 1048   6.460   2.261   0.378
   50SOL    HW1 1049   6.392   2.212   0.322
   50SOL    HW2 1050   6.520   2.194   0.423
   51SOL     OW 1051   1.816   5.598   2.993
   51SOL    HW1 1052   1.871   5.645   2.923
   51SOL    HW2 1053   1.874   5.575   3.071
   52SOL     OW 1054   6.172   3.474   2.031
   52SOL    HW1 1055   6.110   3.433   2.098
   52SOL    HW2 1056   6.259   3.424   2.032
   53SOL     OW 1057   4.104   0.877   1.614
   53SOL    HW1 1058   4.035   0.820   1.568
   53SOL    HW2 1059   4.184   0.822   1.636
   54SOL     OW 1060   5.483   0.334   6.751
   54SOL    HW1 1061   5.556   0.378   6.804
   54SOL    HW2 1062   5.437   0.402   6.695
   55SOL     OW 1063   1.359   3.615   6.087
   55SOL    HW1 1064   1.286   3.683   6.084
   55SOL    HW2 1065   1.387   3.600   6.182
   56SOL     OW 1066   0.536   2.397   6.731
   56SOL    HW1 1067   0.455   2.419   6.677
   56SOL    HW2 1068   0.543   2.297   6.740
   57SOL     OW 1069   4.472   6.453   0.210
   57SOL    HW1 1070   4.395   6.391   0.223
   57SOL    HW2 1071   4.438   6.546   0.195
   58SOL     OW 1072   0.302   0.135   0.425
   58SOL    HW1 1073   0.352   0.120   0.510
   58SOL    HW2 1074   0.366   0.156   0.352
   59SOL     OW 1075   4.901   3.179   5.510
   59SOL    HW1 1076   4.984   3.196   5.457
   59SOL    HW2 1077   4.917   3.102   5.572
   60SOL     OW 1078   5.010   1.976   2.324
   60SOL    HW1 1079   5.047   2.062   2.289
   60SOL    HW2 1080   5.032   1.902   2.260
   61SOL     OW 1081   0.844   5.957   4.382
   61SOL    HW1 1082   0.942   5.966   4.361
   61SOL    HW2 1083   0.792   5.952   4.297
   62SOL     OW 1084   5.894   3.251   2.600
   62SOL    HW1 1085   5.825   3.192   2.557
   62SOL    HW2 1086   5.981   3.202   2.605
   63SOL     OW 1087   4.032   0.028   6.163
   63SOL    HW1 1088   3.932   0.025   6.157
   63SOL    HW2 1089   4.062   0.122   6.180
   64SOL     OW 1090   0.794   3.922   4.928
   64SOL    HW1 1091   0.881   3.876   4.909
   64SOL    HW2 1092   0.720   3.855   4.933
   65SOL     OW 1093   0.581   6.239   4.977
   65SOL    HW1 1094   0.504   6.209   4.921
   65SOL    HW2 1095   0.642   6.296   4.921
   66SOL     OW 1096   3.807   1.134   2.371
   66SOL    HW1 1097   3.713   1.140   2.407
   66SOL    HW2 1098   3.815   1.052   2.314
   67SOL     OW 1099   0.457   3.047   1.249
   67SOL    HW1 1100   0.497   3.089   1.331
   67SOL    HW2 1101   0.474   3.106   1.170
   68SOL     OW 1102   6.495   1.715   6.119
   68SOL    HW1 1103   6.536   1.690   6.206
   68SOL    HW2 1104   6.568   1.731   6.052
   69SOL     OW 1105   1.222   6.104   6.243
   69SOL    HW1 1106   1.141   6.110   6.185
   69SOL    HW2 1107   1.195   6.068   6.333
   70SOL     OW 1108   5.423   3.727   3.804
   70SOL    HW1 1109   5.389   3.685   3.888
   70SOL    HW2 1110   5.523   3.722   3.803
   71SOL     OW 1111   5.124   2.261   4.202
   71SOL    HW1 1112   5.163   2.208   4.127
   71SOL    HW2 1113   5.026   2.246   4.206
   72SOL     OW 1114   0.557   0.690   2.827
   72SOL    HW1 1115   0.623   0.739   2.883
   72SOL    HW2 1116   0.529   0.606   2.873
   73SOL     OW 1117   3.260   0.549   0.562
   73SOL    HW1 1118   3.297   0.485   0.630
   73SOL    HW2 1119   3.332   0.612   0.534
   74SOL     OW 1120   2.469   2.854   1.254
   74SOL    HW1 1121   2.495   2.765   1.216
   74SOL    HW2 1122   2.422   2.840   1.342
   75SOL     OW 1123   3.242   3.069   0.907
   75SOL    HW1 1124   3.189   3.100   0.828
   75SOL    HW2 1125   3.339   3.062   0.881
   76SOL     OW 1126   3.467   4.435   5.307
   76SOL    HW1 1127   3.530   4.420   5.383
   76SOL    HW2 1128   3.475   4.360   5.242
   77SOL     OW 1129   0.517   5.677   4.351
   77SOL    HW1 1130   0.494   5.759   4.299
   77SOL    HW2 1131   0.484   5.687   4.445
   78SOL     OW 1132   4.971   1.787   1.457
   78SOL    HW1 1133   4.928   1.787   1.547
   78SOL    HW2 1134   4.904   1.757   1.388
   79SOL     OW 1135   0.851   4.785   3.438
   79SOL    HW1 1136   0.878   4.787   3.341
   79SOL    HW2 1137   0.764   4.738   3.448
   80SOL     OW 1138   3.793   1.266   5.623
   80SOL    HW1 1139   3.785   1.326   5.543
   80SOL    HW2 1140   3.733   1.187   5.611
   81SOL     OW 1141   4.405   5.187   1.823
   81SOL    HW1 1142   4.414   5.109   1.885
   81SOL    HW2 1143   4.494   5.231   1.812
   82SOL     OW 1144   2.828   6.187   2.153
   82SOL    HW1 1145   2.871   6.130   2.083
   82SOL    HW2 1146   2.762   6.132   2.204
   83SOL     OW 1147   5.443   1.381   4.511
   83SOL    HW1 1148   5.405   1.447   4.575
   83SOL    HW2 1149   5.475   1.300   4.561
   84SOL     OW 1150   5.563   2.478   2.222
   84SOL    HW1 1151   5.501   2.488   2.299
   84SOL    HW2 1152   5.654   2.513   2.247
   85SOL     OW 1153   2.731   6.410   4.081
   85SOL    HW1 1154   2.817   6.427   4.128
   85SOL    HW2 1155   2.708   6.489   4.024
   86SOL     OW 1156   5.655   0.227   0.137
   86SOL    HW1 1157   5.727   0.265   0.195
   86SOL    HW2 1158   5.570   0.279   0.150
   87SOL     OW 1159   2.419   4.120   6.138
   87SOL    HW1 1160   2.400   4.033   6.092
   87SOL    HW2 1161   2.333   4.164   6.161
   88SOL     OW 1162   2.947   3.328   1.353
   88SOL    HW1 1163   2.878   3.255   1.356
   88SOL    HW2 1164   3.010   3.311   1.277
   89SOL     OW 1165   3.134   4.022   3.848
   89SOL    HW1 1166   3.078   4.012   3.766
   89SOL    HW2 1167   3.207   4.088   3.831
   90SOL     OW 1168   4.926   3.543   1.923
   90SOL    HW1 1169   4.873   3.622   1.893
   90SOL    HW2 1170   4.903   3.463   1.868
   91SOL     OW 1171   4.315   5.342   5.832
   91SOL    HW1 1172   4.232   5.288   5.842
   91SOL    HW2 1173   4.376   5.297   5.767
   92SOL     OW 1174   5.213   3.815   6.961
   92SOL    HW1 1175   5.189   3.893   6.904
   92SOL    HW2 1176   5.132   3.758   6.976
   93SOL     OW 1177   3.019   3.848   1.999
   93SOL    HW1 1178   3.001   3.779   1.928
   93SOL    HW2 1179   3.047   3.933   1.956
   94SOL     OW 1180   3.434   2.125   4.593
   94SOL    HW1 1181   3.531   2.101   4.591
   94SOL    HW2 1182   3.399   2.116   4.687
   95SOL     OW 1183   0.632   0.354   3.978
   95SOL    HW1 1184   0.550   0.409   3.996
   95SOL    HW2 1185   0.623   0.264   4.021
   96SOL     OW 1186   6.379   5.067   0.133
   96SOL    HW1 1187   6.314   5.141   0.117
   96SOL    HW2 1188   6.444   5.062   0.057
   97SOL     OW 1189   2.164   4.216   5.429
   97SOL    HW1 1190   2.227   4.290   5.455
   97SOL    HW2 1191   2.207   4.159   5.360
   98SOL     OW 1192   1.841   2.351   3.152
   98SOL    HW1 1193   1.894   2.266   3.160
   98SOL    HW2 1194   1.746   2.328   3.128
   99SOL     OW 1195   3.529   3.923   5.285
   99SOL    HW1 1196   3.537   3.928   5.185
   99SOL    HW2 1197   3.614   3.891   5.325
  100SOL     OW 1198   6.692   0.724   4.953
  100SOL    HW1 1199   6.712   0.821   4.966
  100SOL    HW2 1200   6.594   0.709   4.965
  101SOL     OW 1201   5.698   4.078   2.197
  101SOL    HW1 1202   5.791   4.078   2.236
  101SOL    HW2 1203   5.702   4.109   2.102
  102SOL     OW 1204   4.742   0.145   0.291
  102SOL    HW1 1205   4.815   0.135   0.359
  102SOL    HW2 1206   4.662   0.186   0.334
  103SOL     OW 1207   2.440   1.219   2.089
  103SOL    HW1 1208   2.369   1.288   2.103
  103SOL    HW2 1209   2.530   1.262   2.093
  104SOL     OW 1210   6.438   4.902   1.975
  104SOL    HW1 1211   6.492   4.819   1.959
  104SOL    HW2 1212   6.499   4.977   2.000
  105SOL     OW 1213   6.507   0.896   5.846
  105SOL    HW1 1214   6.436   0.836   5.884
  105SOL    HW2 1215   6.551   0.946   5.921
  106SOL     OW 1216   4.183   3.958   1.334
  106SOL    HW1 1217   4.212   4.053   1.344
  106SOL    HW2 1218   4.118   3.950   1.258
  107SOL     OW 1219   5.389   0.429   1.667
  107SOL    HW1 1220   5.456   0.462   1.600
  107SOL    HW2 1221   5.391   0.329   1.670
  108SOL     OW 1222   2.670   1.138   4.240
  108SOL    HW1 1223   2.694   1.200   4.315
  108SOL    HW2 1224   2.574   1.150   4.216
  109SOL     OW 1225   1.790   1.555   4.383
  109SOL    HW1 1226   1.778   1.484   4.314
  109SOL    HW2 1227   1.813   1.512   4.471
  110SOL     OW 1228   3.353   4.148   5.882
  110SOL    HW1 1229   3.325   4.091   5.805
  110SOL    HW2 1230   3.319   4.108   5.967
  111SOL     OW 1231   6.482   3.027   1.035
  111SOL    HW1 1232   6.532   2.960   1.089
  111SOL    HW2 1233   6.512   3.119   1.059
  112SOL     OW 1234   5.007   6.251   6.213
  112SOL    HW1 1235   5.082   6.246   6.279
  112SOL    HW2 1236   5.043   6.276   6.123
  113SOL     OW 1237   0.483   5.557   2.893
  113SOL    HW1 1238   0.476   5.542   2.794
  113SOL    HW2 1239   0.547   5.491   2.932
  114SOL     OW 1240   6.507   2.567   2.159
  114SOL    HW1 1241   6.502   2.666   2.144
  114SOL    HW2 1242   6.603   2.540   2.167
  115SOL     OW 1243   5.616   0.098   3.373
  115SOL    HW1 1244   5.581   0.176   3.321
  115SOL    HW2 1245   5.712   0.113   3.398
  116SOL     OW 1246   0.560   4.936   0.420
  116SOL    HW1 1247   0.555   4.915   0.322
  116SOL    HW2 1248   0.579   5.033   0.432
  117SOL     OW 1249   2.089   2.686   7.021
  117SOL    HW1 1250   2.073   2.601   0.048
  117SOL    HW2 1251   2.110   2.664   6.925
  118SOL     OW 1252   0.234   2.073   3.036
  118SOL    HW1 1253   0.292   2.032   2.967
  118SOL    HW2 1254   0.231   2.014   3.117
  119SOL     OW 1255   5.991   0.238   5.674
  119SOL    HW1 1256   5.962   0.171   5.743
  119SOL    HW2 1257   5.979   0.199   5.583
  120SOL     OW 1258   5.441   2.445   4.794
  120SOL    HW1 1259   5.452   2.390   4.876
  120SOL    HW2 1260   5.357   2.420   4.746
  121SOL     OW 1261   0.808   4.894   6.673
  121SOL    HW1 1262   0.865   4.962   6.628
  121SOL    HW2 1263   0.864   4.839   6.735
  122SOL     OW 1264   6.680   4.830   6.484
  122SOL    HW1 1265   6.636   4.806   6.397
  122SOL    HW2 1266   6.632   4.786   6.559
  123SOL     OW 1267   0.816   2.471   1.679
  123SOL    HW1 1268   0.825   2.480   1.580
  123SOL    HW2 1269   0.820   2.562   1.721
  124SOL     OW 1270   1.765   2.864   7.021
  124SOL    HW1 1271   1.785   2.827   6.931
  124SOL    HW2 1272   1.775   2.964   7.019
  125SOL     OW 1273   4.443   3.241   0.532
  125SOL    HW1 1274   4.469   3.223   0.437
  125SOL    HW2 1275   4.380   3.318   0.535
  126SOL     OW 1276   4.013   3.147   4.613
  126SOL    HW1 1277   3.969   3.094   4.686
  126SOL    HW2 1278   3.979   3.117   4.524
  127SOL     OW 1279   0.221   5.533   5.929
  127SOL    HW1 1280   0.214   5.616   5.874
  127SOL    HW2 1281   0.286   5.470   5.888
  128SOL     OW 1282   4.802   3.874   0.025
  128SOL    HW1 1283   4.874   3.807   0.042
  128SOL    HW2 1284   4.732   3.833   6.990
  129SOL     OW 1285   1.489   5.826   2.220
  129SOL    HW1 1286   1.502   5.847   2.123
  129SOL    HW2 1287   1.504   5.728   2.236
  130SOL     OW 1288   6.458   3.104   3.843
  130SOL    HW1 1289   6.359   3.102   3.831
  130SOL    HW2 1290   6.484   3.188   3.892
  131SOL     OW 1291   0.198   2.519   3.494
  131SOL    HW1 1292   0.265   2.497   3.564
  131SOL    HW2 1293   0.106   2.495   3.526
  132SOL     OW 1294   3.402   2.979   1.510
  132SOL    HW1 1295   3.322   3.024   1.550
  132SOL    HW2 1296   3.372   2.900   1.456
  133SOL     OW 1297   5.859   6.606   6.492
  133SOL    HW1 1298   5.870   6.538   6.565
  133SOL    HW2 1299   5.896   6.693   6.521
  134SOL     OW 1300   5.799   1.430   1.494
  134SOL    HW1 1301   5.875   1.404   1.554
  134SOL    HW2 1302   5.794   1.530   1.488
  135SOL     OW 1303   4.900   3.215   3.918
  135SOL    HW1 1304   4.901   3.271   3.836
  135SOL    HW2 1305   4.972   3.146   3.913
  136SOL     OW 1306   3.348   0.530   6.260
  136SOL    HW1 1307   3.344   0.463   6.335
  136SOL    HW2 1308   3.268   0.589   6.263
  137SOL     OW 1309   3.252   3.322   6.228
  137SOL    HW1 1310   3.223   3.253   6.295
  137SOL    HW2 1311   3.292   3.400   6.277
  138SOL     OW 1312   0.685   5.413   6.152
  138SOL    HW1 1313   0.659   5.387   6.059
  138SOL    HW2 1314   0.777   5.451   6.151
  139SOL     OW 1315   1.839   6.639   0.868
  139SOL    HW1 1316   1.831   6.540   0.851
  139SOL    HW2 1317   1.914   6.676   0.814
  140SOL     OW 1318   3.582   0.210   0.849
  140SOL    HW1 1319   3.680   0.222   0.870
  140SOL    HW2 1320   3.528   0.267   0.911
  141SOL     OW 1321   0.214   3.036   0.868
  141SOL    HW1 1322   0.248   3.110   0.925
  141SOL    HW2 1323   0.287   3.006   0.806
  142SOL     OW 1324   1.778   3.875   1.093
  142SOL    HW1 1325   1.740   3.820   1.168
  142SOL    HW2 1326   1.873   3.897   1.113
  143SOL     OW 1327   4.827   6.427   2.137
  143SOL    HW1 1328   4.752   6.493   2.144
  143SOL    HW2 1329   4.913   6.471   2.164
  144SOL     OW 1330   3.099   5.425   3.714
  144SOL    HW1 1331   3.068   5.330   3.708
  144SOL    HW2 1332   3.116   5.449   3.810
  145SOL     OW 1333   0.114   4.452   3.258
  145SOL    HW1 1334   0.021   4.479   3.234
  145SOL    HW2 1335   0.111   4.382   3.330
  146SOL     OW 1336   4.988   0.436   5.972
  146SOL    HW1 1337   4.975   0.532   5.948
  146SOL    HW2 1338   4.913   0.405   6.029
  147SOL     OW 1339   4.743   1.096   5.167
  147SOL    HW1 1340   4.815   1.149   5.122
  147SOL    HW2 1341   4.665   1.154   5.186
  148SOL     OW 1342   1.742   5.746   1.779
  148SOL    HW1 1343   1.831   5.750   1.734
  148SOL    HW2 1344   1.702   5.838   1.783
  149SOL     OW 1345   2.259   2.159   4.793
  149SOL    HW1 1346   2.316   2.187   4.715
  149SOL    HW2 1347   2.314   2.161   4.876
  150SOL     OW 1348   4.378   1.730   5.363
  150SOL    HW1 1349   4.433   1.709   5.282
  150SOL    HW2 1350   4.425   1.799   5.418
  151SOL     OW 1351   4.456   2.923   1.238
  151SOL    HW1 1352   4.423   2.829   1.245
  151SOL    HW2 1353   4.488   2.954   1.327
  152SOL     OW 1354   0.298   2.218   0.289
  152SOL    HW1 1355   0.348   2.157   0.227
  152SOL    HW2 1356   0.363   2.267   0.347
  153SOL     OW 1357   2.747   1.428   3.325
  153SOL    HW1 1358   2.816   1.396   3.259
  153SOL    HW2 1359   2.759   1.526   3.340
  154SOL     OW 1360   6.741   1.877   2.693
  154SOL    HW1 1361   6.715   1.945   2.762
  154SOL    HW2 1362   6.836   1.892   2.665
  155SOL     OW 1363   0.618   6.278   2.694
  155SOL    HW1 1364   0.581   6.347   2.757
  155SOL    HW2 1365   0.615   6.188   2.739
  156SOL     OW 1366   5.578   2.755   0.462
  156SOL    HW1 1367   5.650   2.813   0.424
  156SOL    HW2 1368   5.513   2.812   0.513
  157SOL     OW 1369   4.620   5.734   0.606
  157SOL    HW1 1370   4.559   5.658   0.630
  157SOL    HW2 1371   4.644   5.784   0.689
  158SOL     OW 1372   0.489   2.943   3.826
  158SOL    HW1 1373   0.491   2.845   3.807
  158SOL    HW2 1374   0.578   2.973   3.860
  159SOL     OW 1375   6.063   5.451   0.377
  159SOL    HW1 1376   5.993   5.432   0.308
  159SOL    HW2 1377   6.148   5.479   0.331
  160SOL     OW 1378   6.440   6.807   1.835
  160SOL    HW1 1379   6.531   6.777   1.806
  160SOL    HW2 1380   6.382   6.727   1.851
  161SOL     OW 1381   0.449   6.591   1.079
  161SOL    HW1 1382   0.535   6.542   1.087
  161SOL    HW2 1383   0.467   6.689   1.067
  162SOL     OW 1384   4.530   6.707   6.423
  162SOL    HW1 1385   4.496   6.760   6.500
  162SOL    HW2 1386   4.587   6.765   6.365
  163SOL     OW 1387   0.631   3.660   2.585
  163SOL    HW1 1388   0.650   3.645   2.489
  163SOL    HW2 1389   0.548   3.716   2.594
  164SOL     OW 1390   2.901   2.248   3.955
  164SOL    HW1 1391   2.803   2.243   3.936
  164SOL    HW2 1392   2.942   2.157   3.945
  165SOL     OW 1393   0.485   5.889   3.625
  165SOL    HW1 1394   0.443   5.871   3.536
  165SOL    HW2 1395   0.430   5.958   3.673
  166SOL     OW 1396   6.429   3.785   2.845
  166SOL    HW1 1397   6.363   3.818   2.778
  166SOL    HW2 1398   6.512   3.841   2.842
  167SOL     OW 1399   2.343   2.060   6.984
  167SOL    HW1 1400   2.344   1.960   6.980
  167SOL    HW2 1401   2.400   2.091   0.037
  168SOL     OW 1402   3.747   3.879   1.460
  168SOL    HW1 1403   3.808   3.837   1.393
  168SOL    HW2 1404   3.685   3.809   1.496
  169SOL     OW 1405   5.080   2.119   0.938
  169SOL    HW1 1406   5.103   2.213   0.963
  169SOL    HW2 1407   4.998   2.118   0.881
  170SOL     OW 1408   6.710   5.835   2.129
  170SOL    HW1 1409   6.725   5.768   2.202
  170SOL    HW2 1410   6.612   5.848   2.115
  171SOL     OW 1411   3.496   3.151   0.912
  171SOL    HW1 1412   3.588   3.167   0.877
  171SOL    HW2 1413   3.498   3.144   1.012
  172SOL     OW 1414   0.810   2.076   6.563
  172SOL    HW1 1415   0.712   2.083   6.580
  172SOL    HW2 1416   0.852   2.017   6.632
  173SOL     OW 1417   6.495   1.454   4.355
  173SOL    HW1 1418   6.588   1.478   4.381
  173SOL    HW2 1419   6.496   1.371   4.299
  174SOL     OW 1420   5.573   4.567   5.139
  174SOL    HW1 1421   5.605   4.475   5.116
  174SOL    HW2 1422   5.478   4.578   5.110
  175SOL     OW 1423   0.297   0.117   2.007
  175SOL    HW1 1424   0.346   0.097   2.092
  175SOL    HW2 1425   0.277   0.215   2.003
  176SOL     OW 1426   5.967   4.084   1.154
  176SOL    HW1 1427   5.967   4.074   1.253
  176SOL    HW2 1428   6.002   4.000   1.112
  177SOL     OW 1429   5.604   1.928   4.335
  177SOL    HW1 1430   5.646   1.942   4.246
  177SOL    HW2 1431   5.541   2.003   4.355
  178SOL     OW 1432   2.853   6.199   5.205
  178SOL    HW1 1433   2.907   6.237   5.130
  178SOL    HW2 1434   2.755   6.204   5.182
  179SOL     OW 1435   3.690   4.725   1.231
  179SOL    HW1 1436   3.594   4.695   1.226
  179SOL    HW2 1437   3.740   4.687   1.153
  180SOL     OW 1438   3.787   0.905   0.380
  180SOL    HW1 1439   3.828   0.995   0.365
  180SOL    HW2 1440   3.711   0.892   0.316
  181SOL     OW 1441   3.001   2.167   5.571
  181SOL    HW1 1442   2.981   2.160   5.668
  181SOL    HW2 1443   2.948   2.243   5.532
  182SOL     OW 1444   3.470   3.035   6.207
  182SOL    HW1 1445   3.483   3.072   6.299
  182SOL    HW2 1446   3.554   2.988   6.178
  183SOL     OW 1447   3.735   0.859   3.316
  183SOL    HW1 1448   3.746   0.935   3.380
  183SOL    HW2 1449   3.821   0.844   3.267
  184SOL     OW 1450   5.238   5.595   3.550
  184SOL    HW1 1451   5.184   5.665   3.505
  184SOL    HW2 1452   5.331   5.596   3.513
  185SOL     OW 1453   0.173   0.404   4.844
  185SOL    HW1 1454   0.175   0.423   4.942
  185SOL    HW2 1455   0.221   0.477   4.795
  186SOL     OW 1456   4.364   6.365   4.432
  186SOL    HW1 1457   4.367   6.288   4.368
  186SOL    HW2 1458   4.339   6.448   4.383
  187SOL     OW 1459   4.266   6.346   1.421
  187SOL    HW1 1460   4.346   6.330   1.479
  187SOL    HW2 1461   4.245   6.444   1.420
  188SOL     OW 1462   1.264   3.105   3.247
  188SOL    HW1 1463   1.214   3.032   3.293
  188SOL    HW2 1464   1.338   3.066   3.192
  189SOL     OW 1465   6.023   5.175   5.907
  189SOL    HW1 1466   6.032   5.270   5.876
  189SOL    HW2 1467   6.073   5.164   5.993
  190SOL     OW 1468   5.888   1.221   0.304
  190SOL    HW1 1469   5.803   1.268   0.279
  190SOL    HW2 1470   5.882   1.125   0.278
  191SOL     OW 1471   0.153   0.859   5.476
  191SOL    HW1 1472   0.069   0.874   5.528
  191SOL    HW2 1473   0.192   0.770   5.499
  192SOL     OW 1474   0.244   5.489   0.946
  192SOL    HW1 1475   0.154   5.453   0.973
  192SOL    HW2 1476   0.244   5.589   0.955
  193SOL     OW 1477   2.494   6.625   0.367
  193SOL    HW1 1478   2.401   6.639   0.400
  193SOL    HW2 1479   2.550   6.586   0.439
  194SOL     OW 1480   3.863   6.485   1.576
  194SOL    HW1 1481   3.954   6.458   1.606
  194SOL    HW2 1482   3.854   6.584   1.582
  195SOL     OW 1483   3.260   1.469   0.788
  195SOL    HW1 1484   3.336   1.405   0.793
  195SOL    HW2 1485   3.292   1.557   0.751
  196SOL     OW 1486   3.104   2.321   7.023
  196SOL    HW1 1487   3.193   2.365   0.013
  196SOL    HW2 1488   3.115   2.241   6.964
  197SOL     OW 1489   2.053   6.687   0.714
  197SOL    HW1 1490   2.150   6.705   0.730
  197SOL    HW2 1491   2.011   6.767   0.671
  198SOL     OW 1492   4.253   0.698   6.835
  198SOL    HW1 1493   4.291   0.763   6.901
  198SOL    HW2 1494   4.225   0.748   6.753
  199SOL     OW 1495   0.130   0.027   2.325
  199SOL    HW1 1496   0.140   0.125   2.306
  199SOL    HW2 1497   0.041   0.011   2.366
  200SOL     OW 1498   0.432   4.380   3.186
  200SOL    HW1 1499   0.438   4.447   3.113
  200SOL    HW2 1500   0.364   4.310   3.163
  201SOL     OW 1501   3.794   1.378   6.796
  201SOL    HW1 1502   3.850   1.317   6.742
  201SOL    HW2 1503   3.777   1.463   6.745
  202SOL     OW 1504   3.384   0.668   2.437
  202SOL    HW1 1505   3.411   0.591   2.495
  202SOL    HW2 1506   3.445   0.745   2.453
  203SOL     OW 1507   5.321   2.542   0.104
  203SOL    HW1 1508   5.408   2.495   0.120
  203SOL    HW2 1509   5.250   2.499   0.161
  204SOL     OW 1510   2.804   5.840   0.941
  204SOL    HW1 1511   2.704   5.840   0.948
  204SOL    HW2 1512   2.830   5.845   0.844
  205SOL     OW 1513   6.348   0.712   0.196
  205SOL    HW1 1514   6.406   0.698   0.276
  205SOL    HW2 1515   6.252   0.707   0.223
  206SOL     OW 1516   0.549   4.269   1.474
  206SOL    HW1 1517   0.604   4.245   1.554
  206SOL    HW2 1518   0.591   4.231   1.392
  207SOL     OW 1519   4.698   1.142   5.559
  207SOL    HW1 1520   4.731   1.053   5.529
  207SOL    HW2 1521   4.745   1.214   5.509
  208SOL     OW 1522   3.522   4.649   6.069
  208SOL    HW1 1523   3.461   4.719   6.033
  208SOL    HW2 1524   3.512   4.565   6.016
  209SOL     OW 1525   6.288   5.381   5.728
  209SOL    HW1 1526   6.264   5.300   5.675
  209SOL    HW2 1527   6.205   5.433   5.748
  210SOL     OW 1528   3.792   2.098   2.241
  210SOL    HW1 1529   3.819   2.140   2.328
  210SOL    HW2 1530   3.776   2.170   2.173
  211SOL     OW 1531   1.137   1.827   1.786
  211SOL    HW1 1532   1.102   1.917   1.814
  211SOL    HW2 1533   1.099   1.756   1.845
  212SOL     OW 1534   1.066   4.953   4.259
  212SOL    HW1 1535   0.988   4.893   4.279
  212SOL    HW2 1536   1.134   4.902   4.207
  213SOL     OW 1537   4.269   2.606   6.804
  213SOL    HW1 1538   4.337   2.611   6.731
  213SOL    HW2 1539   4.234   2.697   6.824
  214SOL     OW 1540   1.160   0.003   2.722
  214SOL    HW1 1541   1.231   6.992   2.661
  214SOL    HW2 1542   1.201   0.030   2.809
  215SOL     OW 1543   3.258   3.533   2.508
  215SOL    HW1 1544   3.167   3.571   2.488
  215SOL    HW2 1545   3.315   3.603   2.549
  216SOL     OW 1546   1.090   6.443   5.948
  216SOL    HW1 1547   1.098   6.418   6.045
  216SOL    HW2 1548   1.056   6.365   5.896
  217SOL     OW 1549   0.236   2.774   3.430
  217SOL    HW1 1550   0.153   2.831   3.429
  217SOL    HW2 1551   0.212   2.680   3.455
  218SOL     OW 1552   1.178   3.766   5.586
  218SOL    HW1 1553   1.171   3.765   5.487
  218SOL    HW2 1554   1.200   3.858   5.617
  219SOL     OW 1555   4.755   5.095   6.850
  219SOL    HW1 1556   4.800   5.026   6.793
  219SOL    HW2 1557   4.656   5.088   6.839
  220SOL     OW 1558   2.988   4.642   0.880
  220SOL    HW1 1559   2.955   4.620   0.972
  220SOL    HW2 1560   2.951   4.577   0.814
  221SOL     OW 1561   6.704   2.525   4.025
  221SOL    HW1 1562   6.645   2.577   4.087
  221SOL    HW2 1563   6.796   2.565   4.025
  222SOL     OW 1564   1.156   6.215   5.012
  222SOL    HW1 1565   1.129   6.277   5.085
  222SOL    HW2 1566   1.240   6.168   5.037
  223SOL     OW 1567   6.206   3.998   1.695
  223SOL    HW1 1568   6.182   3.949   1.611
  223SOL    HW2 1569   6.260   3.939   1.754
  224SOL     OW 1570   3.271   2.095   1.588
  224SOL    HW1 1571   3.201   2.062   1.651
  224SOL    HW2 1572   3.349   2.131   1.640
  225SOL     OW 1573   0.084   0.041   0.519
  225SOL    HW1 1574   0.164   0.058   0.462
  225SOL    HW2 1575   0.111   0.040   0.615
  226SOL     OW 1576   6.889   5.668   1.143
  226SOL    HW1 1577   6.899   5.765   1.123
  226SOL    HW2 1578   6.912   5.615   1.061
  227SOL     OW 1579   1.349   3.000   3.648
  227SOL    HW1 1580   1.382   3.051   3.728
  227SOL    HW2 1581   1.277   3.053   3.603
  228SOL     OW 1582   3.666   6.859   2.879
  228SOL    HW1 1583   3.743   6.920   2.856
  228SOL    HW2 1584   3.697   6.764   2.873
  229SOL     OW 1585   5.845   5.199   2.699
  229SOL    HW1 1586   5.747   5.204   2.715
  229SOL    HW2 1587   5.862   5.181   2.602
  230SOL     OW 1588   1.466   3.972   5.473
  230SOL    HW1 1589   1.388   4.011   5.424
  230SOL    HW2 1590   1.527   3.926   5.408
  231SOL     OW 1591   0.638   1.767   6.964
  231SOL    HW1 1592   0.597   1.816   6.887
  231SOL    HW2 1593   0.570   1.706   7.004
  232SOL     OW 1594   2.052   5.078   6.333
  232SOL    HW1 1595   1.990   5.084   6.254
  232SOL    HW2 1596   1.998   5.073   6.417
  233SOL     OW 1597   3.037   1.117   6.059
  233SOL    HW1 1598   3.056   1.050   6.132
  233SOL    HW2 1599   3.069   1.081   5.972
  234SOL     OW 1600   2.967   6.122   0.009
  234SOL    HW1 1601   3.033   6.188   6.995
  234SOL    HW2 1602   2.907   6.091   6.959
  235SOL     OW 1603   3.445   3.209   4.791
  235SOL    HW1 1604   3.516   3.143   4.816
  235SOL    HW2 1605   3.393   3.175   4.713
  236SOL     OW 1606   6.849   2.434   5.757
  236SOL    HW1 1607   6.839   2.514   5.816
  236SOL    HW2 1608   6.823   2.457   5.664
  237SOL     OW 1609   0.487   0.027   1.837
  237SOL    HW1 1610   0.416   0.075   1.890
  237SOL    HW2 1611   0.560   0.091   1.815
  238SOL     OW 1612   6.043   2.287   2.203
  238SOL    HW1 1613   5.949   2.320   2.198
  238SOL    HW2 1614   6.102   2.345   2.147
  239SOL     OW 1615   0.379   5.807   0.397
  239SOL    HW1 1616   0.418   5.787   0.307
  239SOL    HW2 1617   0.423   5.751   0.466
  240SOL     OW 1618   6.829   3.865   5.177
  240SOL    HW1 1619   6.757   3.851   5.109
  240SOL    HW2 1620   6.851   3.778   5.220
  241SOL     OW 1621   6.742   1.478   3.608
  241SOL    HW1 1622   6.761   1.427   3.692
  241SOL    HW2 1623   6.828   1.497   3.561
  242SOL     OW 1624   2.222   2.649   3.445
  242SOL    HW1 1625   2.230   2.716   3.519
  242SOL    HW2 1626   2.263   2.685   3.362
  243SOL     OW 1627   4.311   1.242   5.233
  243SOL    HW1 1628   4.260   1.172   5.281
  243SOL    HW2 1629   4.306   1.328   5.283
  244SOL     OW 1630   6.725   0.571   5.744
  244SOL    HW1 1631   6.790   0.643   5.722
  244SOL    HW2 1632   6.733   0.546   5.840
  245SOL     OW 1633   6.072   1.981   3.506
  245SOL    HW1 1634   6.104   2.062   3.456
  245SOL    HW2 1635   6.008   1.930   3.449
  246SOL     OW 1636   4.865   3.154   3.295
  246SOL    HW1 1637   4.809   3.120   3.220
  246SOL    HW2 1638   4.873   3.083   3.365
  247SOL     OW 1639   3.550   1.183   3.770
  247SOL    HW1 1640   3.615   1.256   3.792
  247SOL    HW2 1641   3.558   1.160   3.673
  248SOL     OW 1642   5.241   1.396   2.659
  248SOL    HW1 1643   5.182   1.420   2.582
  248SOL    HW2 1644   5.197   1.323   2.713
  249SOL     OW 1645   2.622   6.916   3.611
  249SOL    HW1 1646   2.679   6.953   3.537
  249SOL    HW2 1647   2.660   6.945   3.699
  250SOL     OW 1648   4.802   3.050   5.914
  250SOL    HW1 1649   4.876   3.020   5.853
  250SOL    HW2 1650   4.818   3.013   6.006
  251SOL     OW 1651   2.550   2.478   0.753
  251SOL    HW1 1652   2.480   2.525   0.807
  251SOL    HW2 1653   2.514   2.459   0.661
  252SOL     OW 1654   0.194   1.645   6.498
  252SOL    HW1 1655   0.258   1.597   6.439
  252SOL    HW2 1656   0.180   1.738   6.464
  253SOL     OW 1657   2.021   3.891   5.782
  253SOL    HW1 1658   2.100   3.831   5.775
  253SOL    HW2 1659   1.938   3.836   5.789
  254SOL     OW 1660   5.375   3.326   5.356
  254SOL    HW1 1661   5.315   3.404   5.370
  254SOL    HW2 1662   5.388   3.311   5.258
  255SOL     OW 1663   3.534   2.053   3.532
  255SOL    HW1 1664   3.624   2.008   3.532
  255SOL    HW2 1665   3.505   2.069   3.438
  256SOL     OW 1666   6.437   5.781   0.129
  256SOL    HW1 1667   6.441   5.860   0.190
  256SOL    HW2 1668   6.449   5.812   0.034
  257SOL     OW 1669   3.151   5.869   6.384
  257SOL    HW1 1670   3.188   5.865   6.477
  257SOL    HW2 1671   3.189   5.795   6.330
  258SOL     OW 1672   5.184   4.022   4.010
  258SOL    HW1 1673   5.189   4.004   3.911
  258SOL    HW2 1674   5.259   3.975   4.056
  259SOL     OW 1675   1.256   2.058   3.027
  259SOL    HW1 1676   1.259   2.118   2.948
  259SOL    HW2 1677   1.348   2.027   3.049
  260SOL     OW 1678   6.284   7.013   6.079
  260SOL    HW1 1679   6.213   6.975   6.138
  260SOL    HW2 1680   6.251   7.016   5.985
  261SOL     OW 1681   1.251   1.672   2.723
  261SOL    HW1 1682   1.231   1.697   2.628
  261SOL    HW2 1683   1.348   1.651   2.732
  262SOL     OW 1684   2.029   5.178   1.815
  262SOL    HW1 1685   1.966   5.239   1.863
  262SOL    HW2 1686   2.042   5.095   1.868
  263SOL     OW 1687   0.384   1.848   4.651
  263SOL    HW1 1688   0.450   1.916   4.684
  263SOL    HW2 1689   0.319   1.893   4.589
  264SOL     OW 1690   2.657   4.520   5.801
  264SOL    HW1 1691   2.647   4.619   5.801
  264SOL    HW2 1692   2.691   4.490   5.712
  265SOL     OW 1693   5.577   5.280   5.554
  265SOL    HW1 1694   5.592   5.195   5.603
  265SOL    HW2 1695   5.590   5.358   5.616
  266SOL     OW 1696   3.763   2.176   0.379
  266SOL    HW1 1697   3.752   2.264   0.332
  266SOL    HW2 1698   3.859   2.150   0.379
  267SOL     OW 1699   1.479   1.195   6.063
  267SOL    HW1 1700   1.497   1.222   5.969
  267SOL    HW2 1701   1.542   1.120   6.089
  268SOL     OW 1702   3.500   5.578   4.399
  268SOL    HW1 1703   3.448   5.493   4.416
  268SOL    HW2 1704   3.593   5.555   4.372
  269SOL     OW 1705   1.218   1.103   6.085
  269SOL    HW1 1706   1.317   1.117   6.077
  269SOL    HW2 1707   1.177   1.099   5.994
  270SOL     OW 1708   5.447   0.331   4.027
  270SOL    HW1 1709   5.536   0.349   4.069
  270SOL    HW2 1710   5.392   0.415   4.029
  271SOL     OW 1711   1.663   1.775   6.992
  271SOL    HW1 1712   1.651   1.676   6.989
  271SOL    HW2 1713   1.750   1.797   0.013
  272SOL     OW 1714   4.782   5.915   2.822
  272SOL    HW1 1715   4.845   5.944   2.894
  272SOL    HW2 1716   4.700   5.874   2.864
  273SOL     OW 1717   2.962   0.078   5.005
  273SOL    HW1 1718   2.894   0.151   5.010
  273SOL    HW2 1719   3.049   0.115   4.971
  274SOL     OW 1720   5.880   1.778   1.185
  274SOL    HW1 1721   5.964   1.765   1.132
  274SOL    HW2 1722   5.831   1.691   1.191
  275SOL     OW 1723   5.324   5.757   4.793
  275SOL    HW1 1724   5.301   5.854   4.801
  275SOL    HW2 1725   5.407   5.738   4.846
  276SOL     OW 1726   6.874   6.339   3.860
  276SOL    HW1 1727   6.881   6.358   3.958
  276SOL    HW2 1728   6.952   6.381   3.813
  277SOL     OW 1729   5.008   1.459   5.634
  277SOL    HW1 1730   4.961   1.542   5.603
  277SOL    HW2 1731   5.018   1.396   5.557
  278SOL     OW 1732   6.036   3.223   3.382
  278SOL    HW1 1733   5.972   3.241   3.308
  278SOL    HW2 1734   6.125   3.262   3.360
  279SOL     OW 1735   0.705   3.750   4.574
  279SOL    HW1 1736   0.751   3.685   4.635
  279SOL    HW2 1737   0.767   3.825   4.554
  280SOL     OW 1738   3.604   0.642   3.431
  280SOL    HW1 1739   3.641   0.710   3.367
  280SOL    HW2 1740   3.508   0.625   3.409
  281SOL     OW 1741   5.564   6.768   4.051
  281SOL    HW1 1742   5.524   6.858   4.070
  281SOL    HW2 1743   5.500   6.713   3.998
  282SOL     OW 1744   2.357   2.237   0.648
  282SOL    HW1 1745   2.453   2.210   0.642
  282SOL    HW2 1746   2.321   2.254   0.556
  283SOL     OW 1747   6.600   2.607   4.779
  283SOL    HW1 1748   6.523   2.569   4.828
  283SOL    HW2 1749   6.684   2.594   4.832
  284SOL     OW 1750   4.798   5.688   3.057
  284SOL    HW1 1751   4.766   5.639   2.976
  284SOL    HW2 1752   4.744   5.771   3.069
  285SOL     OW 1753   4.463   0.282   5.722
  285SOL    HW1 1754   4.418   0.358   5.769
  285SOL    HW2 1755   4.560   0.303   5.712
  286SOL     OW 1756   2.537   4.632   5.548
  286SOL    HW1 1757   2.610   4.691   5.584
  286SOL    HW2 1758   2.450   4.657   5.592
  287SOL     OW 1759   3.163   0.067   6.722
  287SOL    HW1 1760   3.154   0.142   6.657
  287SOL    HW2 1761   3.219   7.018   6.682
  288SOL     OW 1762   4.323   0.745   1.048
  288SOL    HW1 1763   4.306   0.650   1.022
  288SOL    HW2 1764   4.263   0.805   0.995
  289SOL     OW 1765   5.883   6.099   3.868
  289SOL    HW1 1766   5.801   6.143   3.832
  289SOL    HW2 1767   5.858   6.028   3.934
  290SOL     OW 1768   3.585   0.383   6.227
  290SOL    HW1 1769   3.625   0.464   6.185
  290SOL    HW2 1770   3.499   0.409   6.272
  291SOL     OW 1771   3.170   6.834   4.633
  291SOL    HW1 1772   3.081   6.844   4.588
  291SOL    HW2 1773   3.157   6.795   4.724
  292SOL     OW 1774   5.121   0.557   4.053
  292SOL    HW1 1775   5.027   0.557   4.089
  292SOL    HW2 1776   5.122   0.512   3.964
  293SOL     OW 1777   5.960   0.105   2.138
  293SOL    HW1 1778   5.977   0.201   2.116
  293SOL    HW2 1779   6.030   0.048   2.095
  294SOL     OW 1780   6.231   0.827   6.427
  294SOL    HW1 1781   6.206   0.913   6.384
  294SOL    HW2 1782   6.223   0.835   6.526
  295SOL     OW 1783   1.446   1.650   5.025
  295SOL    HW1 1784   1.425   1.708   4.946
  295SOL    HW2 1785   1.397   1.683   5.105
  296SOL     OW 1786   0.002   2.158   0.975
  296SOL    HW1 1787   6.972   2.159   1.059
  296SOL    HW2 1788   6.981   2.218   0.907
  297SOL     OW 1789   5.387   3.276   3.276
  297SOL    HW1 1790   5.302   3.250   3.230
  297SOL    HW2 1791   5.399   3.375   3.270
  298SOL     OW 1792   4.192   0.312   5.911
  298SOL    HW1 1793   4.258   0.357   5.971
  298SOL    HW2 1794   4.181   0.366   5.827
  299SOL     OW 1795   0.370   0.733   0.002
  299SOL    HW1 1796   0.419   0.750   0.088
  299SOL    HW2 1797   0.309   0.810   7.007
  300SOL     OW 1798   4.193   0.177   3.511
  300SOL    HW1 1799   4.093   0.181   3.522
  300SOL    HW2 1800   4.230   0.106   3.571
  301SOL     OW 1801   6.651   5.685   0.676
  301SOL    HW1 1802   6.595   5.758   0.636
  301SOL    HW2 1803   6.693   5.632   0.602
  302SOL     OW 1804   0.626   5.497   1.896
  302SOL    HW1 1805   0.681   5.557   1.954
  302SOL    HW2 1806   0.595   5.548   1.816
  303SOL     OW 1807   5.500   5.964   3.382
  303SOL    HW1 1808   5.443   5.934   3.305
  303SOL    HW2 1809   5.504   6.064   3.383
  304SOL     OW 1810   2.469   5.839   4.884
  304SOL    HW1 1811   2.484   5.840   4.983
  304SOL    HW2 1812   2.418   5.921   4.857
  305SOL     OW 1813   0.903   3.059   2.077
  305SOL    HW1 1814   0.985   3.113   2.055
  305SOL    HW2 1815   0.841   3.115   2.132
  306SOL     OW 1816   0.243   6.472   3.321
  306SOL    HW1 1817   0.310   6.541   3.295
  306SOL    HW2 1818   0.280   6.381   3.301
  307SOL     OW 1819   3.170   2.969   3.945
  307SOL    HW1 1820   3.104   3.038   3.915
  307SOL    HW2 1821   3.172   2.894   3.879
  308SOL     OW 1822   5.899   2.516   3.268
  308SOL    HW1 1823   5.884   2.544   3.173
  308SOL    HW2 1824   5.988   2.550   3.299
  309SOL     OW 1825   1.744   6.260   6.668
  309SOL    HW1 1826   1.655   6.304   6.681
  309SOL    HW2 1827   1.773   6.216   6.753
  310SOL     OW 1828   5.328   0.245   5.548
  310SOL    HW1 1829   5.327   0.309   5.625
  310SOL    HW2 1830   5.280   0.161   5.574
  311SOL     OW 1831   1.975   5.952   2.584
  311SOL    HW1 1832   1.996   6.042   2.546
  311SOL    HW2 1833   2.060   5.905   2.607
  312SOL     OW 1834   3.819   0.556   3.118
  312SOL    HW1 1835   3.881   0.524   3.190
  312SOL    HW2 1836   3.811   0.655   3.122
  313SOL     OW 1837   3.778   3.242   2.681
  313SOL    HW1 1838   3.791   3.221   2.778
  313SOL    HW2 1839   3.859   3.288   2.645
  314SOL     OW 1840   2.974   5.671   5.748
  314SOL    HW1 1841   2.917   5.591   5.763
  314SOL    HW2 1842   2.916   5.753   5.746
  315SOL     OW 1843   6.182   0.617   3.991
  315SOL    HW1 1844   6.217   0.538   3.941
  315SOL    HW2 1845   6.154   0.688   3.927
  316SOL     OW 1846   4.119   1.563   6.283
  316SOL    HW1 1847   4.131   1.659   6.308
  316SOL    HW2 1848   4.159   1.547   6.192
  317SOL     OW 1849   1.190   1.900   1.546
  317SOL    HW1 1850   1.099   1.940   1.535
  317SOL    HW2 1851   1.186   1.825   1.612
  318SOL     OW 1852   0.960   0.534   4.736
  318SOL    HW1 1853   0.871   0.490   4.727
  318SOL    HW2 1854   0.994   0.560   4.646
  319SOL     OW 1855   0.980   1.315   2.647
  319SOL    HW1 1856   0.998   1.407   2.612
  319SOL    HW2 1857   1.000   1.313   2.745
  320SOL     OW 1858   6.028   2.263   6.220
  320SOL    HW1 1859   5.961   2.327   6.181
  320SOL    HW2 1860   5.987   2.172   6.228
  321SOL     OW 1861   4.907   3.186   0.588
  321SOL    HW1 1862   4.916   3.168   0.490
  321SOL    HW2 1863   4.939   3.279   0.608
  322SOL     OW 1864   2.987   3.403   6.117
  322SOL    HW1 1865   3.079   3.386   6.154
  322SOL    HW2 1866   2.956   3.321   6.068
  323SOL     OW 1867   0.714   3.565   1.942
  323SOL    HW1 1868   0.758   3.567   1.852
  323SOL    HW2 1869   0.781   3.540   2.012
  324SOL     OW 1870   0.188   0.031   3.336
  324SOL    HW1 1871   0.215   0.098   3.266
  324SOL    HW2 1872   0.226   0.058   3.424
  325SOL     OW 1873   6.774   4.026   1.670
  325SOL    HW1 1874   6.716   4.027   1.589
  325SOL    HW2 1875   6.752   3.946   1.726
  326SOL     OW 1876   1.215   6.431   6.207
  326SOL    HW1 1877   1.274   6.487   6.267
  326SOL    HW2 1878   1.144   6.387   6.262
  327SOL     OW 1879   5.371   5.328   3.877
  327SOL    HW1 1880   5.414   5.301   3.963
  327SOL    HW2 1881   5.284   5.281   3.866
  328SOL     OW 1882   1.877   3.640   2.722
  328SOL    HW1 1883   1.977   3.642   2.708
  328SOL    HW2 1884   1.832   3.633   2.634
  329SOL     OW 1885   3.195   2.829   1.692
  329SOL    HW1 1886   3.265   2.832   1.764
  329SOL    HW2 1887   3.126   2.761   1.715
  330SOL     OW 1888   3.184   5.213   0.904
  330SOL    HW1 1889   3.192   5.114   0.893
  330SOL    HW2 1890   3.098   5.244   0.863
  331SOL     OW 1891   5.888   5.487   6.869
  331SOL    HW1 1892   5.956   5.438   6.814
  331SOL    HW2 1893   5.833   5.420   6.920
  332SOL     OW 1894   5.918   2.338   3.926
  332SOL    HW1 1895   6.011   2.336   3.961
  332SOL    HW2 1896   5.866   2.410   3.973
  333SOL     OW 1897   3.128   0.995   5.842
  333SOL    HW1 1898   3.092   0.907   5.813
  333SOL    HW2 1899   3.162   1.045   5.762
  334SOL     OW 1900   3.629   3.212   3.445
  334SOL    HW1 1901   3.653   3.303   3.479
  334SOL    HW2 1902   3.616   3.216   3.346
  335SOL     OW 1903   3.624   1.030   0.583
  335SOL    HW1 1904   3.682   0.977   0.521
  335SOL    HW2 1905   3.534   1.043   0.542
  336SOL     OW 1906   2.718   1.943   3.854
  336SOL    HW1 1907   2.715   1.887   3.936
  336SOL    HW2 1908   2.680   2.034   3.875
  337SOL     OW 1909   1.292   0.678   5.999
  337SOL    HW1 1910   1.220   0.622   6.041
  337SOL    HW2 1911   1.303   0.653   5.903
  338SOL     OW 1912   4.134   1.424   1.211
  338SOL    HW1 1913   4.047   1.381   1.231
  338SOL    HW2 1914   4.182   1.445   1.296
  339SOL     OW 1915   3.766   6.075   4.792
  339SOL    HW1 1916   3.666   6.084   4.782
  339SOL    HW2 1917   3.786   5.999   4.854
  340SOL     OW 1918   5.281   2.400   4.366
  340SOL    HW1 1919   5.223   2.355   4.298
  340SOL    HW2 1920   5.227   2.424   4.446
  341SOL     OW 1921   6.203   6.644   3.006
  341SOL    HW1 1922   6.263   6.571   2.974
  341SOL    HW2 1923   6.219   6.726   2.952
  342SOL     OW 1924   4.368   2.362   2.224
  342SOL    HW1 1925   4.358   2.299   2.147
  342SOL    HW2 1926   4.301   2.340   2.294
  343SOL     OW 1927   0.314   5.808   2.599
  343SOL    HW1 1928   0.228   5.857   2.586
  343SOL    HW2 1929   0.302   5.713   2.570
  344SOL     OW 1930   1.399   2.629   1.141
  344SOL    HW1 1931   1.345   2.555   1.181
  344SOL    HW2 1932   1.349   2.716   1.150
  345SOL     OW 1933   6.920   3.705   3.927
  345SOL    HW1 1934   6.858   3.759   3.983
  345SOL    HW2 1935   6.899   3.720   3.830
  346SOL     OW 1936   1.885   6.758   3.449
  346SOL    HW1 1937   1.800   6.715   3.418
  346SOL    HW2 1938   1.890   6.851   3.411
  347SOL     OW 1939   2.196   4.790   0.944
  347SOL    HW1 1940   2.148   4.727   1.006
  347SOL    HW2 1941   2.241   4.861   0.998
  348SOL     OW 1942   4.468   5.199   1.351
  348SOL    HW1 1943   4.555   5.151   1.361
  348SOL    HW2 1944   4.410   5.181   1.431
  349SOL     OW 1945   6.105   4.478   1.244
  349SOL    HW1 1946   6.186   4.423   1.222
  349SOL    HW2 1947   6.024   4.434   1.205
  350SOL     OW 1948   3.346   2.764   0.355
  350SOL    HW1 1949   3.323   2.718   0.440
  350SOL    HW2 1950   3.268   2.819   0.324
  351SOL     OW 1951   3.287   4.276   0.928
  351SOL    HW1 1952   3.348   4.239   0.997
  351SOL    HW2 1953   3.206   4.315   0.972
  352SOL     OW 1954   3.923   6.981   2.884
  352SOL    HW1 1955   3.936   0.053   2.909
  352SOL    HW2 1956   3.988   6.924   2.936
  353SOL     OW 1957   2.456   6.757   6.441
  353SOL    HW1 1958   2.504   6.844   6.437
  353SOL    HW2 1959   2.360   6.772   6.463
  354SOL     OW 1960   0.184   2.770   0.217
  354SOL    HW1 1961   0.219   2.820   0.296
  354SOL    HW2 1962   0.152   2.680   0.246
  355SOL     OW 1963   1.580   1.519   2.393
  355SOL    HW1 1964   1.543   1.575   2.319
  355SOL    HW2 1965   1.510   1.505   2.463
  356SOL     OW 1966   1.506   0.596   6.154
  356SOL    HW1 1967   1.416   0.614   6.193
  356SOL    HW2 1968   1.501   0.596   6.054
  357SOL     OW 1969   5.417   6.948   5.020
  357SOL    HW1 1970   5.396   6.854   5.048
  357SOL    HW2 1971   5.345   7.009   5.053
  358SOL     OW 1972   4.091   5.466   0.055
  358SOL    HW1 1973   4.129   5.558   0.039
  358SOL    HW2 1974   4.021   5.447   7.010
  359SOL     OW 1975   2.030   1.551   2.753
  359SOL    HW1 1976   1.967   1.505   2.690
  359SOL    HW2 1977   1.981   1.620   2.805
  360SOL     OW 1978   1.374   4.203   4.215
  360SOL    HW1 1979   1.441   4.243   4.151
  360SOL    HW2 1980   1.352   4.270   4.285
  361SOL     OW 1981   6.456   1.394   3.127
  361SOL    HW1 1982   6.378   1.335   3.107
  361SOL    HW2 1983   6.423   1.487   3.146
  362SOL     OW 1984   4.084   4.659   0.955
  362SOL    HW1 1985   4.044   4.604   1.028
  362SOL    HW2 1986   4.150   4.723   0.995
  363SOL     OW 1987   5.787   5.401   1.924
  363SOL    HW1 1988   5.731   5.320   1.909
  363SOL    HW2 1989   5.743   5.480   1.881
  364SOL     OW 1990   0.674   6.445   6.253
  364SOL    HW1 1991   0.613   6.476   6.325
  364SOL    HW2 1992   0.680   6.514   6.181
  365SOL     OW 1993   4.733   1.881   3.565
  365SOL    HW1 1994   4.765   1.813   3.631
  365SOL    HW2 1995   4.670   1.944   3.610
  366SOL     OW 1996   5.086   2.182   6.712
  366SOL    HW1 1997   5.133   2.240   6.779
  366SOL    HW2 1998   5.124   2.199   6.621
  367SOL     OW 1999   5.468   1.944   5.864
  367SOL    HW1 2000   5.467   2.042   5.884
  367SOL    HW2 2001   5.381   1.903   5.892
  368SOL     OW 2002   6.463   2.408   5.883
  368SOL    HW1 2003   6.510   2.373   5.964
  368SOL    HW2 2004   6.468   2.507   5.880
  369SOL     OW 2005   5.996   3.403   2.280
  369SOL    HW1 2006   6.001   3.304   2.293
  369SOL    HW2 2007   5.945   3.444   2.356
  370SOL     OW 2008   1.728   3.224   3.759
  370SOL    HW1 2009   1.753   3.184   3.847
  370SOL    HW2 2010   1.752   3.161   3.685
  371SOL     OW 2011   1.361   5.157   6.944
  371SOL    HW1 2012   1.271   5.129   6.909
  371SOL    HW2 2013   1.420   5.077   6.950
  372SOL     OW 2014   3.298   6.140   6.189
  372SOL    HW1 2015   3.201   6.122   6.202
  372SOL    HW2 2016   3.309   6.207   6.115
  373SOL     OW 2017   5.687   5.461   4.040
  373SOL    HW1 2018   5.757   5.403   4.082
  373SOL    HW2 2019   5.718   5.490   3.950
  374SOL     OW 2020   2.664   1.897   3.109
  374SOL    HW1 2021   2.672   1.813   3.163
  374SOL    HW2 2022   2.718   1.970   3.151
  375SOL     OW 2023   1.508   4.914   4.836
  375SOL    HW1 2024   1.577   4.847   4.864
  375SOL    HW2 2025   1.471   4.960   4.917
  376SOL     OW 2026   2.629   0.722   4.656
  376SOL    HW1 2027   2.669   0.806   4.694
  376SOL    HW2 2028   2.552   0.694   4.713
  377SOL     OW 2029   1.009   1.680   6.273
  377SOL    HW1 2030   1.057   1.756   6.230
  377SOL    HW2 2031   1.068   1.635   6.339
  378SOL     OW 2032   4.181   1.139   1.664
  378SOL    HW1 2033   4.234   1.152   1.580
  378SOL    HW2 2034   4.138   1.049   1.663
  379SOL     OW 2035   5.961   1.622   6.581
  379SOL    HW1 2036   6.012   1.613   6.496
  379SOL    HW2 2037   5.879   1.565   6.577
  380SOL     OW 2038   4.037   2.034   1.039
  380SOL    HW1 2039   3.960   2.092   1.012
  380SOL    HW2 2040   4.032   1.947   0.990
  381SOL     OW 2041   1.857   3.756   2.971
  381SOL    HW1 2042   1.944   3.804   2.960
  381SOL    HW2 2043   1.845   3.692   2.895
  382SOL     OW 2044   5.181   0.646   0.010
  382SOL    HW1 2045   5.248   0.627   6.962
  382SOL    HW2 2046   5.222   0.704   0.080
  383SOL     OW 2047   4.143   2.667   0.694
  383SOL    HW1 2048   4.144   2.588   0.633
  383SOL    HW2 2049   4.188   2.644   0.780
  384SOL     OW 2050   5.494   3.820   4.670
  384SOL    HW1 2051   5.521   3.757   4.597
  384SOL    HW2 2052   5.466   3.767   4.750
  385SOL     OW 2053   4.531   3.971   0.254
  385SOL    HW1 2054   4.564   4.065   0.264
  385SOL    HW2 2055   4.609   3.909   0.249
  386SOL     OW 2056   3.484   6.569   3.544
  386SOL    HW1 2057   3.459   6.528   3.457
  386SOL    HW2 2058   3.443   6.517   3.619
  387SOL     OW 2059   2.386   5.993   3.482
  387SOL    HW1 2060   2.443   5.954   3.555
  387SOL    HW2 2061   2.289   5.982   3.505
  388SOL     OW 2062   1.972   3.515   6.358
  388SOL    HW1 2063   1.998   3.562   6.274
  388SOL    HW2 2064   2.013   3.424   6.360
  389SOL     OW 2065   3.043   3.923   2.988
  389SOL    HW1 2066   3.093   3.995   2.940
  389SOL    HW2 2067   3.032   3.844   2.928
  390SOL     OW 2068   2.237   1.072   4.382
  390SOL    HW1 2069   2.289   1.109   4.305
  390SOL    HW2 2070   2.298   1.022   4.444
  391SOL     OW 2071   0.621   3.031   6.822
  391SOL    HW1 2072   0.618   3.011   6.920
  391SOL    HW2 2073   0.609   3.129   6.807
  392SOL     OW 2074   2.457   5.190   2.910
  392SOL    HW1 2075   2.541   5.178   2.857
  392SOL    HW2 2076   2.458   5.279   2.954
  393SOL     OW 2077   6.294   4.514   4.704
  393SOL    HW1 2078   6.319   4.564   4.621
  393SOL    HW2 2079   6.305   4.416   4.689
  394SOL     OW 2080   2.159   0.403   6.994
  394SOL    HW1 2081   2.099   0.376   0.046
  394SOL    HW2 2082   2.108   0.464   6.932
  395SOL     OW 2083   5.224   3.706   1.332
  395SOL    HW1 2084   5.295   3.708   1.403
  395SOL    HW2 2085   5.136   3.683   1.374
  396SOL     OW 2086   3.423   4.122   3.832
  396SOL    HW1 2087   3.368   4.102   3.750
  396SOL    HW2 2088   3.520   4.116   3.809
  397SOL     OW 2089   4.283   2.390   5.723
  397SOL    HW1 2090   4.362   2.428   5.675
  397SOL    HW2 2091   4.206   2.382   5.660
  398SOL     OW 2092   1.421   5.258   2.389
  398SOL    HW1 2093   1.387   5.274   2.297
  398SOL    HW2 2094   1.470   5.171   2.393
  399SOL     OW 2095   4.758   5.325   1.593
  399SOL    HW1 2096   4.787   5.300   1.500
  399SOL    HW2 2097   4.839   5.350   1.647
  400SOL     OW 2098   0.696   5.740   5.143
  400SOL    HW1 2099   0.651   5.658   5.107
  400SOL    HW2 2100   0.678   5.818   5.084
  401SOL     OW 2101   4.873   2.109   6.528
  401SOL    HW1 2102   4.928   2.100   6.611
  401SOL    HW2 2103   4.878   2.202   6.493
  402SOL     OW 2104   5.626   5.606   1.789
  402SOL    HW1 2105   5.527   5.608   1.776
  402SOL    HW2 2106   5.671   5.653   1.713
  403SOL     OW 2107   4.973   2.303   5.877
  403SOL    HW1 2108   4.931   2.390   5.904
  403SOL    HW2 2109   4.949   2.232   5.944
  404SOL     OW 2110   1.259   0.089   4.435
  404SOL    HW1 2111   1.297   7.021   4.430
  404SOL    HW2 2112   1.276   0.137   4.349
  405SOL     OW 2113   0.545   2.537   0.788
  405SOL    HW1 2114   0.640   2.532   0.757
  405SOL    HW2 2115   0.490   2.469   0.738
  406SOL     OW 2116   1.979   2.662   4.061
  406SOL    HW1 2117   1.894   2.669   4.113
  406SOL    HW2 2118   1.958   2.662   3.963
  407SOL     OW 2119   3.063   0.494   4.931
  407SOL    HW1 2120   3.039   0.561   4.861
  407SOL    HW2 2121   3.158   0.507   4.959
  408SOL     OW 2122   2.107   0.581   3.845
  408SOL    HW1 2123   2.126   0.634   3.928
  408SOL    HW2 2124   2.059   0.638   3.779
  409SOL     OW 2125   5.571   3.371   3.681
  409SOL    HW1 2126   5.509   3.309   3.729
  409SOL    HW2 2127   5.658   3.375   3.731
  410SOL     OW 2128   2.813   1.236   6.446
  410SOL    HW1 2129   2.844   1.149   6.406
  410SOL    HW2 2130   2.860   1.312   6.400
  411SOL     OW 2131   6.205   4.452   5.039
  411SOL    HW1 2132   6.255   4.521   4.988
  411SOL    HW2 2133   6.123   4.425   4.988
  412SOL     OW 2134   3.690   0.457   2.396
  412SOL    HW1 2135   3.694   0.517   2.315
  412SOL    HW2 2136   3.672   0.512   2.477
  413SOL     OW 2137   3.142   6.624   0.584
  413SOL    HW1 2138   3.116   6.699   0.645
  413SOL    HW2 2139   3.095   6.540   0.612
  414SOL     OW 2140   4.382   3.956   0.519
  414SOL    HW1 2141   4.421   3.953   0.427
  414SOL    HW2 2142   4.304   4.018   0.520
  415SOL     OW 2143   2.144   6.636   1.394
  415SOL    HW1 2144   2.190   6.601   1.475
  415SOL    HW2 2145   2.048   6.654   1.415
  416SOL     OW 2146   4.445   6.351   4.941
  416SOL    HW1 2147   4.461   6.353   4.842
  416SOL    HW2 2148   4.353   6.385   4.961
  417SOL     OW 2149   4.290   6.134   1.699
  417SOL    HW1 2150   4.302   6.211   1.762
  417SOL    HW2 2151   4.342   6.151   1.615
  418SOL     OW 2152   4.958   5.781   0.672
  418SOL    HW1 2153   4.943   5.692   0.628
  418SOL    HW2 2154   4.882   5.801   0.734
  419SOL     OW 2155   0.183   6.631   1.339
  419SOL    HW1 2156   0.276   6.663   1.358
  419SOL    HW2 2157   0.175   6.607   1.242
  420SOL     OW 2158   5.109   4.498   0.199
  420SOL    HW1 2159   5.020   4.507   0.245
  420SOL    HW2 2160   5.095   4.496   0.100
  421SOL     OW 2161   2.561   6.288   6.459
  421SOL    HW1 2162   2.568   6.374   6.510
  421SOL    HW2 2163   2.525   6.217   6.519
  422SOL     OW 2164   5.882   4.247   6.717
  422SOL    HW1 2165   5.901   4.317   6.648
  422SOL    HW2 2166   5.895   4.157   6.675
  423SOL     OW 2167   6.622   3.306   6.776
  423SOL    HW1 2168   6.526   3.280   6.778
  423SOL    HW2 2169   6.634   3.395   6.821
  424SOL     OW 2170   3.067   3.944   0.356
  424SOL    HW1 2171   3.035   4.037   0.339
  424SOL    HW2 2172   2.989   3.882   0.364
  425SOL     OW 2173   3.437   1.225   0.815
  425SOL    HW1 2174   3.533   1.246   0.829
  425SOL    HW2 2175   3.417   1.132   0.847
  426SOL     OW 2176   5.350   3.829   6.558
  426SOL    HW1 2177   5.256   3.810   6.532
  426SOL    HW2 2178   5.370   3.788   6.647
  427SOL     OW 2179   5.430   3.909   1.451
  427SOL    HW1 2180   5.504   3.847   1.478
  427SOL    HW2 2181   5.399   3.961   1.531
  428SOL     OW 2182   4.095   0.397   5.380
  428SOL    HW1 2183   4.189   0.430   5.389
  428SOL    HW2 2184   4.093   0.321   5.315
  429SOL     OW 2185   1.678   5.023   7.005
  429SOL    HW1 2186   1.755   5.064   6.957
  429SOL    HW2 2187   1.687   5.039   0.080
  430SOL     OW 2188   1.414   6.717   4.872
  430SOL    HW1 2189   1.471   6.683   4.947
  430SOL    HW2 2190   1.473   6.744   4.796
  431SOL     OW 2191   3.684   1.813   0.637
  431SOL    HW1 2192   3.723   1.738   0.691
  431SOL    HW2 2193   3.717   1.808   0.543
  432SOL     OW 2194   6.847   1.213   0.773
  432SOL    HW1 2195   6.833   1.196   0.675
  432SOL    HW2 2196   6.926   1.161   0.805
  433SOL     OW 2197   3.103   6.633   4.921
  433SOL    HW1 2198   3.183   6.602   4.870
  433SOL    HW2 2199   3.021   6.623   4.864
  434SOL     OW 2200   5.837   3.320   1.129
  434SOL    HW1 2201   5.758   3.259   1.122
  434SOL    HW2 2202   5.858   3.359   1.040
  435SOL     OW 2203   3.234   4.415   6.584
  435SOL    HW1 2204   3.136   4.419   6.566
  435SOL    HW2 2205   3.249   4.394   6.681
  436SOL     OW 2206   1.874   1.109   0.513
  436SOL    HW1 2207   1.873   1.201   0.474
  436SOL    HW2 2208   1.897   1.042   0.442
  437SOL     OW 2209   6.840   6.935   6.407
  437SOL    HW1 2210   6.897   6.997   6.353
  437SOL    HW2 2211   6.899   6.876   6.462
  438SOL     OW 2212   1.408   3.286   1.730
  438SOL    HW1 2213   1.417   3.359   1.662
  438SOL    HW2 2214   1.493   3.277   1.781
  439SOL     OW 2215   6.176   5.034   2.531
  439SOL    HW1 2216   6.268   5.020   2.569
  439SOL    HW2 2217   6.180   5.104   2.459
  440SOL     OW 2218   0.946   2.538   3.688
  440SOL    HW1 2219   1.028   2.585   3.720
  440SOL    HW2 2220   0.972   2.463   3.628
  441SOL     OW 2221   1.438   1.500   2.952
  441SOL    HW1 2222   1.459   1.423   3.012
  441SOL    HW2 2223   1.375   1.470   2.880
  442SOL     OW 2224   6.739   4.248   7.017
  442SOL    HW1 2225   6.722   4.280   0.087
  442SOL    HW2 2226   6.761   4.151   7.019
  443SOL     OW 2227   1.212   3.839   5.045
  443SOL    HW1 2228   1.261   3.917   5.007
  443SOL    HW2 2229   1.266   3.756   5.031
  444SOL     OW 2230   4.708   2.463   6.182
  444SOL    HW1 2231   4.652   2.386   6.150
  444SOL    HW2 2232   4.649   2.540   6.205
  445SOL     OW 2233   2.454   4.679   3.662
  445SOL    HW1 2234   2.471   4.705   3.567
  445SOL    HW2 2235   2.425   4.583   3.666
  446SOL     OW 2236   3.692   5.075   3.910
  446SOL    HW1 2237   3.763   5.036   3.968
  446SOL    HW2 2238   3.731   5.150   3.856
  447SOL     OW 2239   0.187   5.475   0.659
  447SOL    HW1 2240   0.148   5.437   0.743
  447SOL    HW2 2241   0.115   5.522   0.607
  448SOL     OW 2242   4.458   0.979   4.800
  448SOL    HW1 2243   4.500   0.889   4.815
  448SOL    HW2 2244   4.359   0.971   4.806
  449SOL     OW 2245   5.716   1.173   4.946
  449SOL    HW1 2246   5.783   1.201   5.015
  449SOL    HW2 2247   5.759   1.109   4.883
  450SOL     OW 2248   0.229   5.815   3.829
  450SOL    HW1 2249   0.192   5.793   3.739
  450SOL    HW2 2250   0.263   5.731   3.872
  451SOL     OW 2251   0.528   1.556   2.680
  451SOL    HW1 2252   0.521   1.513   2.591
  451SOL    HW2 2253   0.518   1.487   2.752
  452SOL     OW 2254   0.382   4.311   0.040
  452SOL    HW1 2255   0.334   4.312   0.127
  452SOL    HW2 2256   0.469   4.359   0.049
  453SOL     OW 2257   3.020   1.874   6.316
  453SOL    HW1 2258   3.032   1.938   6.393
  453SOL    HW2 2259   2.938   1.900   6.264
  454SOL     OW 2260   0.841   6.150   6.633
  454SOL    HW1 2261   0.888   6.226   6.678
  454SOL    HW2 2262   0.908   6.084   6.601
  455SOL     OW 2263   6.132   0.599   4.265
  455SOL    HW1 2264   6.060   0.660   4.298
  455SOL    HW2 2265   6.138   0.606   4.165
  456SOL     OW 2266   4.077   6.397   6.316
  456SOL    HW1 2267   4.039   6.370   6.404
  456SOL    HW2 2268   4.039   6.338   6.244
  457SOL     OW 2269   2.430   4.419   3.423
  457SOL    HW1 2270   2.381   4.347   3.373
  457SOL    HW2 2271   2.441   4.391   3.518
  458SOL     OW 2272   5.976   5.471   5.711
  458SOL    HW1 2273   5.949   5.428   5.625
  458SOL    HW2 2274   5.898   5.522   5.748
  459SOL     OW 2275   1.585   0.572   2.786
  459SOL    HW1 2276   1.543   0.525   2.709
  459SOL    HW2 2277   1.591   0.509   2.864
  460SOL     OW 2278   6.528   1.857   2.520
  460SOL    HW1 2279   6.446   1.845   2.576
  460SOL    HW2 2280   6.607   1.874   2.580
  461SOL     OW 2281   4.690   7.010   5.013
  461SOL    HW1 2282   4.734   0.064   5.059
  461SOL    HW2 2283   4.757   6.966   4.954
  462SOL     OW 2284   3.184   3.161   6.420
  462SOL    HW1 2285   3.279   3.138   6.443
  462SOL    HW2 2286   3.139   3.201   6.500
  463SOL     OW 2287   6.863   5.299   3.184
  463SOL    HW1 2288   6.908   5.251   3.109
  463SOL    HW2 2289   6.859   5.240   3.265
  464SOL     OW 2290   1.329   1.376   6.430
  464SOL    HW1 2291   1.283   1.287   6.425
  464SOL    HW2 2292   1.322   1.422   6.342
  465SOL     OW 2293   0.911   2.242   3.777
  465SOL    HW1 2294   1.009   2.258   3.790
  465SOL    HW2 2295   0.896   2.195   3.689
  466SOL     OW 2296   1.081   6.992   4.044
  466SOL    HW1 2297   1.006   7.009   4.108
  466SOL    HW2 2298   1.101   6.894   4.042
  467SOL     OW 2299   1.595   0.242   5.285
  467SOL    HW1 2300   1.646   0.259   5.201
  467SOL    HW2 2301   1.649   0.271   5.364
  468SOL     OW 2302   4.124   5.568   1.220
  468SOL    HW1 2303   4.169   5.614   1.297
  468SOL    HW2 2304   4.190   5.507   1.175
  469SOL     OW 2305   2.249   6.016   0.092
  469SOL    HW1 2306   2.257   5.922   0.058
  469SOL    HW2 2307   2.238   6.015   0.191
  470SOL     OW 2308   3.953   0.721   2.365
  470SOL    HW1 2309   4.026   0.783   2.336
  470SOL    HW2 2310   3.880   0.723   2.297
  471SOL     OW 2311   2.317   2.658   4.979
  471SOL    HW1 2312   2.289   2.754   4.966
  471SOL    HW2 2313   2.416   2.654   4.990
  472SOL     OW 2314   4.601   5.672   6.333
  472SOL    HW1 2315   4.557   5.762   6.336
  472SOL    HW2 2316   4.555   5.611   6.398
  473SOL     OW 2317   0.617   2.869   2.675
  473SOL    HW1 2318   0.565   2.786   2.657
  473SOL    HW2 2319   0.565   2.927   2.739
  474SOL     OW 2320   4.119   5.059   4.726
  474SOL    HW1 2321   4.209   5.028   4.695
  474SOL    HW2 2322   4.078   5.117   4.656
  475SOL     OW 2323   0.185   6.714   6.390
  475SOL    HW1 2324   0.102   6.673   6.426
  475SOL    HW2 2325   0.218   6.785   6.452
  476SOL     OW 2326   6.002   4.809   2.206
  476SOL    HW1 2327   6.066   4.876   2.168
  476SOL    HW2 2328   5.942   4.855   2.271
  477SOL     OW 2329   1.995   4.849   4.263
  477SOL    HW1 2330   2.094   4.836   4.270
  477SOL    HW2 2331   1.949   4.762   4.280
  478SOL     OW 2332   3.530   5.538   3.517
  478SOL    HW1 2333   3.465   5.464   3.501
  478SOL    HW2 2334   3.485   5.626   3.502
  479SOL     OW 2335   2.963   2.753   0.657
  479SOL    HW1 2336   3.062   2.747   0.671
  479SOL    HW2 2337   2.920   2.667   0.686
  480SOL     OW 2338   1.480   0.136   2.282
  480SOL    HW1 2339   1.531   0.179   2.207
  480SOL    HW2 2340   1.490   0.037   2.275
  481SOL     OW 2341   2.821   0.067   1.458
  481SOL    HW1 2342   2.887   0.025   1.520
  481SOL    HW2 2343   2.744   0.104   1.510
  482SOL     OW 2344   5.243   4.634   2.500
  482SOL    HW1 2345   5.230   4.584   2.415
  482SOL    HW2 2346   5.286   4.722   2.481
  483SOL     OW 2347   5.891   1.809   1.994
  483SOL    HW1 2348   5.906   1.711   2.006
  483SOL    HW2 2349   5.924   1.858   2.075
  484SOL     OW 2350   0.573   3.287   4.032
  484SOL    HW1 2351   0.586   3.358   3.963
  484SOL    HW2 2352   0.476   3.271   4.046
  485SOL     OW 2353   3.434   4.909   2.558
  485SOL    HW1 2354   3.417   4.887   2.462
  485SOL    HW2 2355   3.354   4.884   2.613
  486SOL     OW 2356   0.916   1.377   0.514
  486SOL    HW1 2357   0.965   1.454   0.472
  486SOL    HW2 2358   0.981   1.306   0.538
  487SOL     OW 2359   0.637   2.296   0.033
  487SOL    HW1 2360   0.730   2.268   0.059
  487SOL    HW2 2361   0.623   2.278   6.959
  488SOL     OW 2362   0.401   2.095   2.036
  488SOL    HW1 2363   0.304   2.117   2.022
  488SOL    HW2 2364   0.415   2.066   2.130
  489SOL     OW 2365   3.640   5.718   0.212
  489SOL    HW1 2366   3.674   5.671   0.131
  489SOL    HW2 2367   3.550   5.682   0.236
  490SOL     OW 2368   6.295   6.611   4.260
  490SOL    HW1 2369   6.318   6.576   4.169
  490SOL    HW2 2370   6.285   6.710   4.256
  491SOL     OW 2371   0.227   2.305   3.175
  491SOL    HW1 2372   0.301   2.370   3.189
  491SOL    HW2 2373   0.260   2.227   3.122
  492SOL     OW 2374   2.740   0.436   6.192
  492SOL    HW1 2375   2.825   0.472   6.155
  492SOL    HW2 2376   2.707   0.496   6.264
  493SOL     OW 2377   6.335   4.597   5.858
  493SOL    HW1 2378   6.390   4.592   5.774
  493SOL    HW2 2379   6.263   4.528   5.855
  494SOL     OW 2380   0.542   6.602   6.996
  494SOL    HW1 2381   0.571   6.533   6.930
  494SOL    HW2 2382   0.442   6.607   6.997
  495SOL     OW 2383   4.974   4.655   2.236
  495SOL    HW1 2384   5.000   4.738   2.285
  495SOL    HW2 2385   5.025   4.650   2.150
  496SOL     OW 2386   5.504   3.179   2.833
  496SOL    HW1 2387   5.413   3.205   2.863
  496SOL    HW2 2388   5.524   3.223   2.745
  497SOL     OW 2389   3.397   1.313   5.065
  497SOL    HW1 2390   3.429   1.223   5.036
  497SOL    HW2 2391   3.439   1.384   5.008
  498SOL     OW 2392   0.423   2.834   2.269
  498SOL    HW1 2393   0.520   2.858   2.279
  498SOL    HW2 2394   0.371   2.877   2.342
  499SOL     OW 2395   3.400   0.219   4.425
  499SOL    HW1 2396   3.339   0.283   4.471
  499SOL    HW2 2397   3.494   0.252   4.432
  500SOL     OW 2398   0.607   3.803   2.888
  500SOL    HW1 2399   0.575   3.712   2.913
  500SOL    HW2 2400   0.707   3.807   2.893
  501SOL     OW 2401   2.414   3.071   6.851
  501SOL    HW1 2402   2.341   3.014   6.813
  501SOL    HW2 2403   2.465   3.113   6.776
  502SOL     OW 2404   4.875   4.935   6.240
  502SOL    HW1 2405   4.828   4.912   6.155
  502SOL    HW2 2406   4.928   5.019   6.228
  503SOL     OW 2407   6.078   4.564   5.528
  503SOL    HW1 2408   6.144   4.541   5.456
  503SOL    HW2 2409   5.986   4.567   5.489
  504SOL     OW 2410   2.252   5.956   4.568
  504SOL    HW1 2411   2.255   5.858   4.546
  504SOL    HW2 2412   2.340   5.998   4.546
  505SOL     OW 2413   4.625   0.553   5.976
  505SOL    HW1 2414   4.563   0.578   5.902
  505SOL    HW2 2415   4.626   0.626   6.045
  506SOL     OW 2416   1.777   4.117   5.419
  506SOL    HW1 2417   1.715   4.039   5.413
  506SOL    HW2 2418   1.725   4.202   5.421
  507SOL     OW 2419   3.016   7.001   4.248
  507SOL    HW1 2420   3.092   0.042   4.249
  507SOL    HW2 2421   2.997   6.970   4.341
  508SOL     OW 2422   5.873   3.992   2.534
  508SOL    HW1 2423   5.926   4.043   2.602
  508SOL    HW2 2424   5.775   4.006   2.550
  509SOL     OW 2425   4.288   1.429   1.513
  509SOL    HW1 2426   4.340   1.379   1.444
  509SOL    HW2 2427   4.339   1.431   1.599
  510SOL     OW 2428   6.889   4.786   5.684
  510SOL    HW1 2429   6.830   4.745   5.754
  510SOL    HW2 2430   6.833   4.836   5.619
  511SOL     OW 2431   0.179   6.372   0.467
  511SOL    HW1 2432   0.274   6.341   0.461
  511SOL    HW2 2433   0.119   6.303   0.427
  512SOL     OW 2434   1.538   3.171   6.847
  512SOL    HW1 2435   1.452   3.206   6.884
  512SOL    HW2 2436   1.554   3.209   6.756
  513SOL     OW 2437   6.368   6.061   3.359
  513SOL    HW1 2438   6.406   6.150   3.335
  513SOL    HW2 2439   6.432   5.989   3.330
  514SOL     OW 2440   6.655   2.115   4.283
  514SOL    HW1 2441   6.574   2.134   4.339
  514SOL    HW2 2442   6.705   2.200   4.265
  515SOL     OW 2443   2.182   0.129   5.759
  515SOL    HW1 2444   2.168   0.036   5.791
  515SOL    HW2 2445   2.158   0.136   5.662
  516SOL     OW 2446   2.401   4.820   1.864
  516SOL    HW1 2447   2.422   4.915   1.845
  516SOL    HW2 2448   2.325   4.814   1.929
  517SOL     OW 2449   5.295   6.979   1.790
  517SOL    HW1 2450   5.322   6.883   1.779
  517SOL    HW2 2451   5.293   7.003   1.887
  518SOL     OW 2452   2.096   2.313   1.569
  518SOL    HW1 2453   2.109   2.355   1.659
  518SOL    HW2 2454   2.100   2.213   1.579
  519SOL     OW 2455   0.497   0.442   5.710
  519SOL    HW1 2456   0.469   0.537   5.720
  519SOL    HW2 2457   0.577   0.436   5.651
  520SOL     OW 2458   5.699   5.022   5.940
  520SOL    HW1 2459   5.786   5.008   5.892
  520SOL    HW2 2460   5.673   4.937   5.986
  521SOL     OW 2461   0.161   1.900   6.406
  521SOL    HW1 2462   0.144   1.917   6.309
  521SOL    HW2 2463   0.227   1.967   6.440
  522SOL     OW 2464   3.752   3.098   5.292
  522SOL    HW1 2465   3.713   3.028   5.232
  522SOL    HW2 2466   3.785   3.175   5.237
  523SOL     OW 2467   6.965   7.022   3.772
  523SOL    HW1 2468   6.984   0.095   3.754
  523SOL    HW2 2469   6.866   7.006   3.766
  524SOL     OW 2470   2.857   1.150   6.696
  524SOL    HW1 2471   2.842   1.187   6.604
  524SOL    HW2 2472   2.913   1.214   6.748
  525SOL     OW 2473   3.033   3.946   6.647
  525SOL    HW1 2474   3.020   3.856   6.687
  525SOL    HW2 2475   3.129   3.975   6.659
  526SOL     OW 2476   3.093   5.332   4.561
  526SOL    HW1 2477   3.036   5.305   4.638
  526SOL    HW2 2478   3.111   5.253   4.502
  527SOL     OW 2479   6.889   1.658   6.485
  527SOL    HW1 2480   6.878   1.757   6.473
  527SOL    HW2 2481   6.960   1.625   6.423
  528SOL     OW 2482   1.798   1.324   5.396
  528SOL    HW1 2483   1.872   1.391   5.392
  528SOL    HW2 2484   1.807   1.260   5.320
  529SOL     OW 2485   1.315   5.016   5.019
  529SOL    HW1 2486   1.275   4.929   5.048
  529SOL    HW2 2487   1.244   5.074   4.980
  530SOL     OW 2488   2.425   3.193   5.375
  530SOL    HW1 2489   2.339   3.224   5.335
  530SOL    HW2 2490   2.467   3.125   5.315
  531SOL     OW 2491   0.628   0.440   1.178
  531SOL    HW1 2492   0.675   0.367   1.228
  531SOL    HW2 2493   0.674   0.528   1.196
  532SOL     OW 2494   1.307   2.091   5.923
  532SOL    HW1 2495   1.406   2.080   5.912
  532SOL    HW2 2496   1.290   2.167   5.986
  533SOL     OW 2497   5.464   6.355   4.551
  533SOL    HW1 2498   5.493   6.260   4.565
  533SOL    HW2 2499   5.483   6.408   4.634
  534SOL     OW 2500   4.290   5.460   2.870
  534SOL    HW1 2501   4.210   5.520   2.876
  534SOL    HW2 2502   4.297   5.405   2.953
  535SOL     OW 2503   0.587   4.098   3.759
  535SOL    HW1 2504   0.634   4.071   3.675
  535SOL    HW2 2505   0.510   4.037   3.775
  536SOL     OW 2506   1.339   5.372   1.454
  536SOL    HW1 2507   1.325   5.450   1.515
  536SOL    HW2 2508   1.410   5.313   1.492
  537SOL     OW 2509   2.515   6.785   2.927
  537SOL    HW1 2510   2.518   6.799   2.828
  537SOL    HW2 2511   2.528   6.688   2.947
  538SOL     OW 2512   1.328   5.918   3.307
  538SOL    HW1 2513   1.329   5.849   3.380
  538SOL    HW2 2514   1.279   5.881   3.227
  539SOL     OW 2515   1.636   5.270   1.649
  539SOL    HW1 2516   1.661   5.174   1.644
  539SOL    HW2 2517   1.718   5.325   1.665
  540SOL     OW 2518   1.128   2.244   2.138
  540SOL    HW1 2519   1.041   2.294   2.139
  540SOL    HW2 2520   1.115   2.155   2.181
  541SOL     OW 2521   2.870   6.347   5.420
  541SOL    HW1 2522   2.888   6.279   5.349
  541SOL    HW2 2523   2.876   6.439   5.381
  542SOL     OW 2524   5.502   6.086   6.908
  542SOL    HW1 2525   5.529   6.180   6.927
  542SOL    HW2 2526   5.444   6.052   6.983
  543SOL     OW 2527   1.256   4.503   6.954
  543SOL    HW1 2528   1.355   4.520   6.954
  543SOL    HW2 2529   1.230   4.459   0.017
  544SOL     OW 2530   0.698   5.593   0.661
  544SOL    HW1 2531   0.762   5.539   0.605
  544SOL    HW2 2532   0.670   5.538   0.740
  545SOL     OW 2533   4.013   1.274   2.702
  545SOL    HW1 2534   3.983   1.323   2.784
  545SOL    HW2 2535   4.104   1.307   2.675
  546SOL     OW 2536   1.032   3.665   1.211
  546SOL    HW1 2537   1.090   3.590   1.180
  546SOL    HW2 2538   0.992   3.712   1.132
  547SOL     OW 2539   2.644   3.113   0.720
  547SOL    HW1 2540   2.706   3.142   0.793
  547SOL    HW2 2541   2.562   3.073   0.759
  548SOL     OW 2542   3.539   3.031   4.334
  548SOL    HW1 2543   3.460   3.018   4.274
  548SOL    HW2 2544   3.529   2.972   4.415
  549SOL     OW 2545   5.003   3.604   1.435
  549SOL    HW1 2546   4.973   3.579   1.343
  549SOL    HW2 2547   5.001   3.523   1.494
  550SOL     OW 2548   6.425   2.793   2.423
  550SOL    HW1 2549   6.367   2.874   2.433
  550SOL    HW2 2550   6.441   2.776   2.326
  551SOL     OW 2551   6.606   1.706   1.099
  551SOL    HW1 2552   6.672   1.666   1.164
  551SOL    HW2 2553   6.599   1.647   1.019
  552SOL     OW 2554   3.670   5.269   0.785
  552SOL    HW1 2555   3.664   5.275   0.685
  552SOL    HW2 2556   3.608   5.197   0.818
  553SOL     OW 2557   2.474   1.292   1.330
  553SOL    HW1 2558   2.567   1.255   1.332
  553SOL    HW2 2559   2.472   1.373   1.271
  554SOL     OW 2560   6.023   6.914   5.611
  554SOL    HW1 2561   5.948   6.937   5.549
  554SOL    HW2 2562   6.108   6.953   5.575
  555SOL     OW 2563   1.419   4.518   4.231
  555SOL    HW1 2564   1.371   4.492   4.314
  555SOL    HW2 2565   1.471   4.602   4.247
  556SOL     OW 2566   5.943   2.633   3.617
  556SOL    HW1 2567   5.886   2.552   3.602
  556SOL    HW2 2568   5.886   2.715   3.611
  557SOL     OW 2569   6.895   5.967   6.274
  557SOL    HW1 2570   6.913   6.019   6.190
  557SOL    HW2 2571   6.907   5.869   6.254
  558SOL     OW 2572   4.376   3.574   5.292
  558SOL    HW1 2573   4.335   3.484   5.313
  558SOL    HW2 2574   4.457   3.561   5.235
  559SOL     OW 2575   0.571   5.869   6.528
  559SOL    HW1 2576   0.571   5.830   6.437
  559SOL    HW2 2577   0.498   5.828   6.582
  560SOL     OW 2578   4.785   6.796   0.184
  560SOL    HW1 2579   4.739   6.881   0.159
  560SOL    HW2 2580   4.811   6.800   0.280
  561SOL     OW 2581   5.825   0.011   0.564
  561SOL    HW1 2582   5.821   0.018   0.464
  561SOL    HW2 2583   5.881   0.085   0.601
  562SOL     OW 2584   5.134   1.019   6.099
  562SOL    HW1 2585   5.232   1.036   6.097
  562SOL    HW2 2586   5.101   1.003   6.006
  563SOL     OW 2587   2.931   6.255   4.308
  563SOL    HW1 2588   3.008   6.306   4.271
  563SOL    HW2 2589   2.913   6.285   4.402
  564SOL     OW 2590   0.510   1.453   6.807
  564SOL    HW1 2591   0.431   1.504   6.773
  564SOL    HW2 2592   0.479   1.370   6.854
  565SOL     OW 2593   4.679   3.831   5.685
  565SOL    HW1 2594   4.693   3.826   5.784
  565SOL    HW2 2595   4.581   3.838   5.666
  566SOL     OW 2596   4.474   4.474   3.401
  566SOL    HW1 2597   4.554   4.481   3.461
  566SOL    HW2 2598   4.505   4.459   3.307
  567SOL     OW 2599   3.060   3.599   4.895
  567SOL    HW1 2600   2.976   3.587   4.843
  567SOL    HW2 2601   3.112   3.513   4.894
  568SOL     OW 2602   2.590   1.878   0.326
  568SOL    HW1 2603   2.673   1.835   0.291
  568SOL    HW2 2604   2.614   1.962   0.375
  569SOL     OW 2605   1.637   3.128   1.022
  569SOL    HW1 2606   1.670   3.053   1.080
  569SOL    HW2 2607   1.609   3.091   0.933
  570SOL     OW 2608   1.075   6.066   0.675
  570SOL    HW1 2609   1.116   6.152   0.645
  570SOL    HW2 2610   0.993   6.085   0.729
  571SOL     OW 2611   3.684   5.518   2.822
  571SOL    HW1 2612   3.769   5.487   2.780
  571SOL    HW2 2613   3.625   5.558   2.751
  572SOL     OW 2614   1.535   4.174   5.190
  572SOL    HW1 2615   1.535   4.216   5.281
  572SOL    HW2 2616   1.620   4.197   5.142
  573SOL     OW 2617   3.958   1.575   5.524
  573SOL    HW1 2618   3.995   1.560   5.616
  573SOL    HW2 2619   3.902   1.657   5.524
  574SOL     OW 2620   2.177   2.067   4.234
  574SOL    HW1 2621   2.247   2.136   4.217
  574SOL    HW2 2622   2.167   2.054   4.333
  575SOL     OW 2623   6.752   2.489   0.264
  575SOL    HW1 2624   6.815   2.554   0.222
  575SOL    HW2 2625   6.783   2.467   0.356
  576SOL     OW 2626   1.262   1.801   2.442
  576SOL    HW1 2627   1.235   1.893   2.470
  576SOL    HW2 2628   1.361   1.790   2.453
  577SOL     OW 2629   2.881   1.861   3.649
  577SOL    HW1 2630   2.912   1.947   3.608
  577SOL    HW2 2631   2.831   1.879   3.733
  578SOL     OW 2632   0.533   3.183   3.507
  578SOL    HW1 2633   0.508   3.235   3.425
  578SOL    HW2 2634   0.632   3.184   3.518
  579SOL     OW 2635   4.959   2.173   0.196
  579SOL    HW1 2636   4.916   2.220   0.273
  579SOL    HW2 2637   5.056   2.160   0.215
  580SOL     OW 2638   1.353   5.344   6.520
  580SOL    HW1 2639   1.263   5.371   6.554
  580SOL    HW2 2640   1.417   5.337   6.596
  581SOL     OW 2641   3.780   2.986   2.834
  581SOL    HW1 2642   3.753   2.981   2.738
  581SOL    HW2 2643   3.709   2.944   2.891
  582SOL     OW 2644   5.381   3.663   2.583
  582SOL    HW1 2645   5.313   3.733   2.562
  582SOL    HW2 2646   5.344   3.572   2.562
  583SOL     OW 2647   2.286   4.459   0.658
  583SOL    HW1 2648   2.315   4.555   0.653
  583SOL    HW2 2649   2.302   4.425   0.751
  584SOL     OW 2650   6.898   4.761   4.949
  584SOL    HW1 2651   6.997   4.746   4.957
  584SOL    HW2 2652   6.878   4.859   4.959
  585SOL     OW 2653   0.042   1.496   6.311
  585SOL    HW1 2654   0.021   1.436   6.388
  585SOL    HW2 2655   0.083   1.442   6.237
  586SOL     OW 2656   1.911   6.895   0.604
  586SOL    HW1 2657   1.947   6.986   0.624
  586SOL    HW2 2658   1.812   6.895   0.612
  587SOL     OW 2659   0.978   3.439   5.610
  587SOL    HW1 2660   1.073   3.450   5.581
  587SOL    HW2 2661   0.933   3.370   5.552
  588SOL     OW 2662   3.322   6.204   1.679
  588SOL    HW1 2663   3.310   6.302   1.662
  588SOL    HW2 2664   3.278   6.152   1.606
  589SOL     OW 2665   3.488   5.199   2.523
  589SOL    HW1 2666   3.494   5.247   2.610
  589SOL    HW2 2667   3.459   5.105   2.538
  590SOL     OW 2668   6.988   1.805   1.753
  590SOL    HW1 2669   6.955   1.763   1.837
  590SOL    HW2 2670   6.981   1.740   1.678
  591SOL     OW 2671   3.918   0.041   3.217
  591SOL    HW1 2672   3.952   7.004   3.145
  591SOL    HW2 2673   3.853   7.015   3.275
  592SOL     OW 2674   5.135   0.918   0.224
  592SOL    HW1 2675   5.218   0.882   0.181
  592SOL    HW2 2676   5.139   1.018   0.228
  593SOL     OW 2677   4.805   2.379   3.916
  593SOL    HW1 2678   4.889   2.434   3.919
  593SOL    HW2 2679   4.796   2.327   4.001
  594SOL     OW 2680   3.887   3.713   1.284
  594SOL    HW1 2681   3.884   3.615   1.306
  594SOL    HW2 2682   3.981   3.738   1.258
  595SOL     OW 2683   3.619   6.155   3.756
  595SOL    HW1 2684   3.538   6.198   3.718
  595SOL    HW2 2685   3.601   6.058   3.773
  596SOL     OW 2686   1.085   3.876   3.008
  596SOL    HW1 2687   1.147   3.953   2.994
  596SOL    HW2 2688   1.009   3.882   2.943
  597SOL     OW 2689   4.498   0.852   5.378
  597SOL    HW1 2690   4.470   0.862   5.474
  597SOL    HW2 2691   4.418   0.865   5.319
  598SOL     OW 2692   3.896   4.522   0.795
  598SOL    HW1 2693   3.911   4.436   0.844
  598SOL    HW2 2694   3.964   4.589   0.825
  599SOL     OW 2695   6.379   0.099   2.610
  599SOL    HW1 2696   6.337   0.109   2.520
  599SOL    HW2 2697   6.440   0.175   2.628
  600SOL     OW 2698   2.031   0.320   0.227
  600SOL    HW1 2699   1.960   0.361   0.284
  600SOL    HW2 2700   2.101   0.280   0.286
  601SOL     OW 2701   3.165   5.480   4.282
  601SOL    HW1 2702   3.109   5.511   4.358
  601SOL    HW2 2703   3.181   5.382   4.288
  602SOL     OW 2704   2.077   0.203   1.230
  602SOL    HW1 2705   2.090   0.188   1.328
  602SOL    HW2 2706   2.104   0.297   1.207
  603SOL     OW 2707   4.149   2.211   3.262
  603SOL    HW1 2708   4.201   2.276   3.317
  603SOL    HW2 2709   4.187   2.207   3.170
  604SOL     OW 2710   0.685   4.038   6.274
  604SOL    HW1 2711   0.683   4.124   6.223
  604SOL    HW2 2712   0.777   4.000   6.271
  605SOL     OW 2713   5.743   0.078   3.838
  605SOL    HW1 2714   5.833   0.096   3.877
  605SOL    HW2 2715   5.731   7.003   3.827
  606SOL     OW 2716   3.946   0.202   3.594
  606SOL    HW1 2717   3.944   0.204   3.694
  606SOL    HW2 2718   3.857   0.169   3.559
  607SOL     OW 2719   5.330   0.906   4.102
  607SOL    HW1 2720   5.272   0.954   4.036
  607SOL    HW2 2721   5.375   0.972   4.162
  608SOL     OW 2722   3.618   0.817   0.760
  608SOL    HW1 2723   3.620   0.899   0.702
  608SOL    HW2 2724   3.712   0.788   0.778
  609SOL     OW 2725   3.379   3.626   4.482
  609SOL    HW1 2726   3.440   3.656   4.555
  609SOL    HW2 2727   3.410   3.663   4.394
  610SOL     OW 2728   5.048   2.550   4.078
  610SOL    HW1 2729   5.114   2.479   4.052
  610SOL    HW2 2730   5.054   2.626   4.014
  611SOL     OW 2731   0.264   6.732   0.370
  611SOL    HW1 2732   0.214   6.660   0.322
  611SOL    HW2 2733   0.256   6.818   0.320
  612SOL     OW 2734   2.975   5.743   6.092
  612SOL    HW1 2735   2.928   5.796   6.021
  612SOL    HW2 2736   3.034   5.675   6.048
  613SOL     OW 2737   3.265   1.872   0.021
  613SOL    HW1 2738   3.339   1.809   7.021
  613SOL    HW2 2739   3.267   1.890   0.119
  614SOL     OW 2740   5.207   4.806   1.098
  614SOL    HW1 2741   5.272   4.740   1.136
  614SOL    HW2 2742   5.246   4.898   1.103
  615SOL     OW 2743   6.920   6.836   1.007
  615SOL    HW1 2744   6.821   6.830   1.020
  615SOL    HW2 2745   6.951   6.760   0.950
  616SOL     OW 2746   6.176   1.353   4.319
  616SOL    HW1 2747   6.252   1.418   4.304
  616SOL    HW2 2748   6.105   1.369   4.250
  617SOL     OW 2749   0.624   4.785   5.610
  617SOL    HW1 2750   0.585   4.851   5.546
  617SOL    HW2 2751   0.706   4.823   5.652
  618SOL     OW 2752   6.225   3.413   0.297
  618SOL    HW1 2753   6.267   3.335   0.342
  618SOL    HW2 2754   6.283   3.494   0.308
  619SOL     OW 2755   2.422   0.607   0.302
  619SOL    HW1 2756   2.426   0.690   0.357
  619SOL    HW2 2757   2.515   0.580   0.276
  620SOL     OW 2758   6.677   1.713   2.308
  620SOL    HW1 2759   6.628   1.792   2.345
  620SOL    HW2 2760   6.630   1.629   2.335
  621SOL     OW 2761   3.598   1.183   6.900
  621SOL    HW1 2762   3.522   1.204   6.839
  621SOL    HW2 2763   3.674   1.245   6.880
  622SOL     OW 2764   1.292   1.990   5.034
  622SOL    HW1 2765   1.362   2.054   5.063
  622SOL    HW2 2766   1.301   1.972   4.936
  623SOL     OW 2767   5.926   6.984   4.345
  623SOL    HW1 2768   5.841   6.935   4.360
  623SOL    HW2 2769   5.964   7.013   4.433
  624SOL     OW 2770   6.406   0.598   6.369
  624SOL    HW1 2771   6.460   0.623   6.288
  624SOL    HW2 2772   6.344   0.673   6.392
  625SOL     OW 2773   2.394   1.422   0.378
  625SOL    HW1 2774   2.429   1.462   0.293
  625SOL    HW2 2775   2.406   1.323   0.375
  626SOL     OW 2776   0.541   5.104   3.846
  626SOL    HW1 2777   0.533   5.052   3.762
  626SOL    HW2 2778   0.637   5.127   3.862
  627SOL     OW 2779   6.357   0.181   7.001
  627SOL    HW1 2780   6.407   0.191   0.063
  627SOL    HW2 2781   6.318   0.089   6.996
  628SOL     OW 2782   5.018   4.999   5.485
  628SOL    HW1 2783   5.029   5.065   5.559
  628SOL    HW2 2784   4.998   4.909   5.524
  629SOL     OW 2785   0.244   6.303   6.038
  629SOL    HW1 2786   0.239   6.394   6.079
  629SOL    HW2 2787   0.322   6.254   6.075
  630SOL     OW 2788   6.844   1.014   1.017
  630SOL    HW1 2789   6.744   1.024   1.015
  630SOL    HW2 2790   6.871   0.937   0.961
  631SOL     OW 2791   2.161   2.448   4.817
  631SOL    HW1 2792   2.227   2.381   4.784
  631SOL    HW2 2793   2.209   2.520   4.867
  632SOL     OW 2794   2.947   3.255   6.963
  632SOL    HW1 2795   2.926   3.158   6.972
  632SOL    HW2 2796   2.880   3.299   6.903
  633SOL     OW 2797   1.942   5.792   1.587
  633SOL    HW1 2798   1.916   5.752   1.499
  633SOL    HW2 2799   1.937   5.892   1.582
  634SOL     OW 2800   3.034   3.201   3.878
  634SOL    HW1 2801   3.012   3.292   3.913
  634SOL    HW2 2802   3.023   3.199   3.779
  635SOL     OW 2803   5.724   0.862   6.328
  635SOL    HW1 2804   5.799   0.885   6.266
  635SOL    HW2 2805   5.754   0.793   6.393
  636SOL     OW 2806   2.550   1.122   6.693
  636SOL    HW1 2807   2.647   1.107   6.713
  636SOL    HW2 2808   2.539   1.210   6.647
  637SOL     OW 2809   6.650   1.117   1.806
  637SOL    HW1 2810   6.644   1.076   1.897
  637SOL    HW2 2811   6.588   1.195   1.800
  638SOL     OW 2812   6.524   3.336   3.940
  638SOL    HW1 2813   6.569   3.393   4.008
  638SOL    HW2 2814   6.554   3.363   3.848
  639SOL     OW 2815   4.699   4.855   2.918
  639SOL    HW1 2816   4.703   4.755   2.909
  639SOL    HW2 2817   4.603   4.884   2.923
  640SOL     OW 2818   0.619   2.375   2.080
  640SOL    HW1 2819   0.648   2.349   1.988
  640SOL    HW2 2820   0.590   2.471   2.081
  641SOL     OW 2821   2.019   5.125   4.386
  641SOL    HW1 2822   2.006   5.035   4.345
  641SOL    HW2 2823   2.056   5.114   4.479
  642SOL     OW 2824   0.802   3.515   4.943
  642SOL    HW1 2825   0.777   3.419   4.930
  642SOL    HW2 2826   0.836   3.553   4.857
  643SOL     OW 2827   5.060   5.015   6.883
  643SOL    HW1 2828   4.999   5.025   6.962
  643SOL    HW2 2829   5.026   4.942   6.824
  644SOL     OW 2830   6.589   6.936   5.033
  644SOL    HW1 2831   6.528   6.920   4.956
  644SOL    HW2 2832   6.666   6.993   5.005
  645SOL     OW 2833   4.063   4.989   2.152
  645SOL    HW1 2834   4.161   4.995   2.171
  645SOL    HW2 2835   4.013   4.986   2.239
  646SOL     OW 2836   3.907   0.974   5.442
  646SOL    HW1 2837   3.821   0.982   5.493
  646SOL    HW2 2838   3.981   0.952   5.506
  647SOL     OW 2839   4.536   2.461   5.653
  647SOL    HW1 2840   4.516   2.487   5.559
  647SOL    HW2 2841   4.603   2.524   5.692
  648SOL     OW 2842   5.664   2.129   3.387
  648SOL    HW1 2843   5.729   2.157   3.457
  648SOL    HW2 2844   5.572   2.157   3.414
  649SOL     OW 2845   2.337   5.730   0.846
  649SOL    HW1 2846   2.372   5.672   0.773
  649SOL    HW2 2847   2.287   5.674   0.912
  650SOL     OW 2848   0.017   5.003   1.178
  650SOL    HW1 2849   6.982   4.927   1.152
  650SOL    HW2 2850   0.014   5.017   1.277
  651SOL     OW 2851   1.584   0.334   4.916
  651SOL    HW1 2852   1.566   0.363   4.822
  651SOL    HW2 2853   1.505   0.358   4.973
  652SOL     OW 2854   3.373   6.432   1.509
  652SOL    HW1 2855   3.386   6.531   1.514
  652SOL    HW2 2856   3.459   6.387   1.484
  653SOL     OW 2857   0.815   6.939   1.832
  653SOL    HW1 2858   0.779   7.003   1.764
  653SOL    HW2 2859   0.832   6.851   1.789
  654SOL     OW 2860   0.140   6.753   4.900
  654SOL    HW1 2861   0.073   6.722   4.966
  654SOL    HW2 2862   0.218   6.690   4.899
  655SOL     OW 2863   6.920   4.330   2.103
  655SOL    HW1 2864   6.885   4.262   2.038
  655SOL    HW2 2865   6.846   4.360   2.163
  656SOL     OW 2866   3.552   6.376   0.818
  656SOL    HW1 2867   3.568   6.340   0.726
  656SOL    HW2 2868   3.455   6.367   0.841
  657SOL     OW 2869   3.750   2.875   2.255
  657SOL    HW1 2870   3.827   2.937   2.265
  657SOL    HW2 2871   3.771   2.806   2.186
  658SOL     OW 2872   2.151   3.119   3.858
  658SOL    HW1 2873   2.121   3.209   3.891
  658SOL    HW2 2874   2.154   3.120   3.758
  659SOL     OW 2875   2.658   6.370   5.931
  659SOL    HW1 2876   2.635   6.297   5.867
  659SOL    HW2 2877   2.691   6.329   6.017
  660SOL     OW 2878   5.068   4.234   2.495
  660SOL    HW1 2879   5.139   4.164   2.493
  660SOL    HW2 2880   4.978   4.190   2.502
  661SOL     OW 2881   4.233   4.730   4.338
  661SOL    HW1 2882   4.271   4.776   4.258
  661SOL    HW2 2883   4.289   4.751   4.418
  662SOL     OW 2884   4.876   3.295   0.192
  662SOL    HW1 2885   4.883   3.288   0.093
  662SOL    HW2 2886   4.810   3.366   0.217
  663SOL     OW 2887   0.418   4.360   0.540
  663SOL    HW1 2888   0.442   4.356   0.636
  663SOL    HW2 2889   0.325   4.396   0.530
  664SOL     OW 2890   1.863   6.900   6.901
  664SOL    HW1 2891   1.895   6.935   6.989
  664SOL    HW2 2892   1.942   6.880   6.842
  665SOL     OW 2893   4.296   5.390   0.899
  665SOL    HW1 2894   4.224   5.383   0.829
  665SOL    HW2 2895   4.356   5.467   0.877
  666SOL     OW 2896   3.307   1.929   0.269
  666SOL    HW1 2897   3.273   1.854   0.327
  666SOL    HW2 2898   3.385   1.972   0.314
  667SOL     OW 2899   0.704   2.497   2.771
  667SOL    HW1 2900   0.701   2.591   2.806
  667SOL    HW2 2901   0.628   2.445   2.808
  668SOL     OW 2902   5.417   0.119   0.586
  668SOL    HW1 2903   5.319   0.135   0.591
  668SOL    HW2 2904   5.445   0.060   0.662
  669SOL     OW 2905   1.910   6.358   3.199
  669SOL    HW1 2906   1.932   6.437   3.257
  669SOL    HW2 2907   1.954   6.367   3.110
  670SOL     OW 2908   3.219   3.443   3.582
  670SOL    HW1 2909   3.143   3.379   3.589
  670SOL    HW2 2910   3.250   3.468   3.674
  671SOL     OW 2911   1.726   0.146   6.206
  671SOL    HW1 2912   1.669   0.153   6.125
  671SOL    HW2 2913   1.800   0.213   6.200
  672SOL     OW 2914   2.238   2.864   4.002
  672SOL    HW1 2915   2.156   2.808   4.016
  672SOL    HW2 2916   2.211   2.952   3.963
  673SOL     OW 2917   5.685   0.102   1.104
  673SOL    HW1 2918   5.722   0.149   1.023
  673SOL    HW2 2919   5.703   0.157   1.185
  674SOL     OW 2920   0.411   1.775   3.537
  674SOL    HW1 2921   0.464   1.773   3.452
  674SOL    HW2 2922   0.420   1.864   3.581
  675SOL     OW 2923   6.881   2.930   4.940
  675SOL    HW1 2924   6.842   2.919   4.849
  675SOL    HW2 2925   6.848   2.857   5.000
  676SOL     OW 2926   2.103   4.665   4.559
  676SOL    HW1 2927   2.190   4.713   4.546
  676SOL    HW2 2928   2.060   4.649   4.471
  677SOL     OW 2929   6.528   0.063   1.024
  677SOL    HW1 2930   6.484   7.011   0.975
  677SOL    HW2 2931   6.618   0.081   0.984
  678SOL     OW 2932   2.485   1.603   6.094
  678SOL    HW1 2933   2.403   1.621   6.039
  678SOL    HW2 2934   2.561   1.581   6.033
  679SOL     OW 2935   4.533   0.108   2.626
  679SOL    HW1 2936   4.527   0.204   2.598
  679SOL    HW2 2937   4.599   0.061   2.567
  680SOL     OW 2938   4.804   4.115   5.618
  680SOL    HW1 2939   4.705   4.106   5.618
  680SOL    HW2 2940   4.842   4.070   5.699
  681SOL     OW 2941   1.049   7.015   1.437
  681SOL    HW1 2942   0.960   6.987   1.473
  681SOL    HW2 2943   1.049   0.090   1.423
  682SOL     OW 2944   1.979   5.960   0.334
  682SOL    HW1 2945   1.880   5.944   0.324
  682SOL    HW2 2946   1.994   6.032   0.402
  683SOL     OW 2947   5.378   1.364   0.387
  683SOL    HW1 2948   5.331   1.429   0.446
  683SOL    HW2 2949   5.328   1.277   0.386
  684SOL     OW 2950   0.177   5.487   6.181
  684SOL    HW1 2951   0.128   5.566   6.215
  684SOL    HW2 2952   0.216   5.508   6.091
  685SOL     OW 2953   5.993   0.268   5.215
  685SOL    HW1 2954   5.987   0.368   5.217
  685SOL    HW2 2955   6.068   0.240   5.155
  686SOL     OW 2956   5.280   4.943   3.009
  686SOL    HW1 2957   5.194   4.976   2.970
  686SOL    HW2 2958   5.311   4.863   2.958
  687SOL     OW 2959   6.459   3.624   5.847
  687SOL    HW1 2960   6.397   3.547   5.834
  687SOL    HW2 2961   6.417   3.707   5.811
  688SOL     OW 2962   6.714   3.964   5.804
  688SOL    HW1 2963   6.763   3.895   5.857
  688SOL    HW2 2964   6.650   4.013   5.864
  689SOL     OW 2965   5.776   3.597   5.922
  689SOL    HW1 2966   5.725   3.511   5.914
  689SOL    HW2 2967   5.735   3.653   5.994
  690SOL     OW 2968   1.363   2.389   3.037
  690SOL    HW1 2969   1.305   2.385   2.956
  690SOL    HW2 2970   1.313   2.351   3.115
  691SOL     OW 2971   0.903   2.809   6.533
  691SOL    HW1 2972   0.809   2.825   6.503
  691SOL    HW2 2973   0.916   2.712   6.551
  692SOL     OW 2974   2.485   0.132   2.959
  692SOL    HW1 2975   2.556   0.071   2.993
  692SOL    HW2 2976   2.482   0.128   2.859
  693SOL     OW 2977   6.804   2.284   2.004
  693SOL    HW1 2978   6.873   2.214   2.020
  693SOL    HW2 2979   6.776   2.282   1.908
  694SOL     OW 2980   1.844   0.338   1.062
  694SOL    HW1 2981   1.808   0.257   1.017
  694SOL    HW2 2982   1.942   0.325   1.082
  695SOL     OW 2983   4.564   6.122   5.517
  695SOL    HW1 2984   4.611   6.130   5.429
  695SOL    HW2 2985   4.471   6.157   5.509
  696SOL     OW 2986   4.202   4.984   2.480
  696SOL    HW1 2987   4.229   5.079   2.467
  696SOL    HW2 2988   4.282   4.925   2.471
  697SOL     OW 2989   1.175   4.066   3.827
  697SOL    HW1 2990   1.192   3.969   3.845
  697SOL    HW2 2991   1.083   4.090   3.859
  698SOL     OW 2992   4.702   0.343   3.489
  698SOL    HW1 2993   4.637   0.412   3.457
  698SOL    HW2 2994   4.782   0.388   3.528
  699SOL     OW 2995   1.726   4.613   0.986
  699SOL    HW1 2996   1.717   4.712   0.971
  699SOL    HW2 2997   1.771   4.572   0.907
  700SOL     OW 2998   2.496   2.108   4.381
  700SOL    HW1 2999   2.590   2.100   4.347
  700SOL    HW2 3000   2.479   2.035   4.447
  701SOL     OW 3001   0.045   4.137   5.866
  701SOL    HW1 3002   0.048   4.175   5.958
  701SOL    HW2 3003   7.003   4.190   5.811
  702SOL     OW 3004   5.296   6.038   4.325
  702SOL    HW1 3005   5.208   5.995   4.305
  702SOL    HW2 3006   5.298   6.129   4.283
  703SOL     OW 3007   3.824   3.739   6.586
  703SOL    HW1 3008   3.854   3.660   6.639
  703SOL    HW2 3009   3.766   3.709   6.510
  704SOL     OW 3010   1.588   0.422   0.065
  704SOL    HW1 3011   1.655   0.416   0.140
  704SOL    HW2 3012   1.570   0.518   0.045
  705SOL     OW 3013   5.990   1.954   2.561
  705SOL    HW1 3014   5.919   2.024   2.551
  705SOL    HW2 3015   6.075   1.987   2.519
  706SOL     OW 3016   3.753   1.890   3.541
  706SOL    HW1 3017   3.816   1.852   3.608
  706SOL    HW2 3018   3.780   1.862   3.449
  707SOL     OW 3019   4.749   0.477   1.394
  707SOL    HW1 3020   4.776   0.570   1.417
  707SOL    HW2 3021   4.828   0.428   1.357
  708SOL     OW 3022   4.086   0.753   1.303
  708SOL    HW1 3023   4.001   0.708   1.331
  708SOL    HW2 3024   4.066   0.846   1.272
  709SOL     OW 3025   0.824   4.574   0.326
  709SOL    HW1 3026   0.761   4.568   0.403
  709SOL    HW2 3027   0.783   4.629   0.254
  710SOL     OW 3028   3.122   3.704   2.762
  710SOL    HW1 3029   3.063   3.752   2.697
  710SOL    HW2 3030   3.067   3.643   2.818
  711SOL     OW 3031   0.151   0.898   4.334
  711SOL    HW1 3032   0.064   0.866   4.297
  711SOL    HW2 3033   0.222   0.888   4.264
  712SOL     OW 3034   1.383   4.017   1.566
  712SOL    HW1 3035   1.337   3.994   1.652
  712SOL    HW2 3036   1.319   4.067   1.507
  713SOL     OW 3037   3.431   2.931   2.668
  713SOL    HW1 3038   3.440   2.866   2.743
  713SOL    HW2 3039   3.337   2.929   2.633
  714SOL     OW 3040   4.895   4.693   5.074
  714SOL    HW1 3041   4.908   4.789   5.049
  714SOL    HW2 3042   4.924   4.634   4.998
  715SOL     OW 3043   4.607   0.038   6.392
  715SOL    HW1 3044   4.681   0.005   6.333
  715SOL    HW2 3045   4.519   0.012   6.352
  716SOL     OW 3046   0.127   4.861   1.426
  716SOL    HW1 3047   0.029   4.847   1.410
  716SOL    HW2 3048   0.170   4.892   1.342
  717SOL     OW 3049   6.321   2.504   0.532
  717SOL    HW1 3050   6.362   2.445   0.463
  717SOL    HW2 3051   6.240   2.459   0.570
  718SOL     OW 3052   3.574   3.513   5.930
  718SOL    HW1 3053   3.523   3.598   5.938
  718SOL    HW2 3054   3.637   3.519   5.852
  719SOL     OW 3055   5.660   4.032   1.276
  719SOL    HW1 3056   5.622   3.957   1.221
  719SOL    HW2 3057   5.759   4.020   1.285
  720SOL     OW 3058   2.229   1.706   6.041
  720SOL    HW1 3059   2.261   1.800   6.026
  720SOL    HW2 3060   2.156   1.685   5.976
  721SOL     OW 3061   1.579   0.150   5.968
  721SOL    HW1 3062   1.595   0.053   5.947
  721SOL    HW2 3063   1.504   0.157   6.033
  722SOL     OW 3064   3.878   0.144   4.678
  722SOL    HW1 3065   3.937   0.223   4.662
  722SOL    HW2 3066   3.824   0.126   4.596
  723SOL     OW 3067   1.057   2.963   2.310
  723SOL    HW1 3068   1.014   2.989   2.224
  723SOL    HW2 3069   1.077   2.865   2.309
  724SOL     OW 3070   6.956   1.014   4.615
  724SOL    HW1 3071   6.953   1.019   4.516
  724SOL    HW2 3072   6.886   0.950   4.648
  725SOL     OW 3073   1.963   4.573   2.097
  725SOL    HW1 3074   1.934   4.544   2.188
  725SOL    HW2 3075   1.923   4.662   2.076
  726SOL     OW 3076   4.171   6.822   6.820
  726SOL    HW1 3077   4.123   6.873   6.749
  726SOL    HW2 3078   4.114   6.744   6.849
  727SOL     OW 3079   2.653   5.364   4.051
  727SOL    HW1 3080   2.569   5.311   4.040
  727SOL    HW2 3081   2.690   5.349   4.143
  728SOL     OW 3082   6.856   4.149   4.399
  728SOL    HW1 3083   6.953   4.155   4.422
  728SOL    HW2 3084   6.820   4.241   4.381
  729SOL     OW 3085   2.213   0.284   1.596
  729SOL    HW1 3086   2.246   0.340   1.520
  729SOL    HW2 3087   2.249   0.320   1.682
  730SOL     OW 3088   6.346   0.704   3.556
  730SOL    HW1 3089   6.349   0.611   3.593
  730SOL    HW2 3090   6.436   0.728   3.520
  731SOL     OW 3091   5.378   3.603   4.431
  731SOL    HW1 3092   5.462   3.637   4.388
  731SOL    HW2 3093   5.401   3.552   4.514
  732SOL     OW 3094   6.446   2.633   1.083
  732SOL    HW1 3095   6.442   2.683   1.169
  732SOL    HW2 3096   6.364   2.576   1.074
  733SOL     OW 3097   4.683   4.326   3.967
  733SOL    HW1 3098   4.747   4.279   3.906
  733SOL    HW2 3099   4.667   4.270   4.048
  734SOL     OW 3100   6.290   4.701   1.174
  734SOL    HW1 3101   6.264   4.606   1.153
  734SOL    HW2 3102   6.378   4.721   1.131
  735SOL     OW 3103   1.587   4.444   6.123
  735SOL    HW1 3104   1.661   4.495   6.079
  735SOL    HW2 3105   1.616   4.350   6.140
  736SOL     OW 3106   6.633   0.859   3.439
  736SOL    HW1 3107   6.570   0.862   3.362
  736SOL    HW2 3108   6.719   0.904   3.414
  737SOL     OW 3109   5.413   3.335   0.891
  737SOL    HW1 3110   5.411   3.255   0.831
  737SOL    HW2 3111   5.419   3.418   0.836
  738SOL     OW 3112   0.628   3.783   3.752
  738SOL    HW1 3113   0.569   3.714   3.711
  738SOL    HW2 3114   0.698   3.811   3.686
  739SOL     OW 3115   3.998   6.250   5.617
  739SOL    HW1 3116   3.994   6.248   5.717
  739SOL    HW2 3117   3.980   6.159   5.582
  740SOL     OW 3118   6.520   6.524   1.576
  740SOL    HW1 3119   6.488   6.444   1.525
  740SOL    HW2 3120   6.450   6.595   1.573
  741SOL     OW 3121   2.258   7.022   2.965
  741SOL    HW1 3122   2.177   6.966   2.946
  741SOL    HW2 3123   2.296   0.033   2.879
  742SOL     OW 3124   1.505   0.216   3.388
  742SOL    HW1 3125   1.582   0.214   3.323
  742SOL    HW2 3126   1.448   0.136   3.374
  743SOL     OW 3127   1.895   3.684   4.444
  743SOL    HW1 3128   1.901   3.780   4.473
  743SOL    HW2 3129   1.982   3.657   4.402
  744SOL     OW 3130   0.250   5.433   0.371
  744SOL    HW1 3131   0.251   5.445   0.470
  744SOL    HW2 3132   0.273   5.520   0.327
  745SOL     OW 3133   1.710   6.261   2.660
  745SOL    HW1 3134   1.795   6.222   2.695
  745SOL    HW2 3135   1.707   6.254   2.561
  746SOL     OW 3136   1.607   0.755   5.052
  746SOL    HW1 3137   1.561   0.668   5.071
  746SOL    HW2 3138   1.583   0.822   5.123
  747SOL     OW 3139   4.654   4.800   3.447
  747SOL    HW1 3140   4.612   4.746   3.521
  747SOL    HW2 3141   4.714   4.741   3.393
  748SOL     OW 3142   4.879   3.543   1.208
  748SOL    HW1 3143   4.848   3.456   1.246
  748SOL    HW2 3144   4.801   3.603   1.193
  749SOL     OW 3145   0.487   2.193   5.439
  749SOL    HW1 3146   0.496   2.110   5.494
  749SOL    HW2 3147   0.533   2.179   5.351
  750SOL     OW 3148   2.540   4.129   7.012
  750SOL    HW1 3149   2.469   4.071   6.971
  750SOL    HW2 3150   2.552   4.211   6.955
  751SOL     OW 3151   4.106   0.788   0.187
  751SOL    HW1 3152   4.109   0.867   0.126
  751SOL    HW2 3153   4.059   0.713   0.141
  752SOL     OW 3154   4.612   2.398   1.601
  752SOL    HW1 3155   4.582   2.440   1.515
  752SOL    HW2 3156   4.643   2.304   1.583
  753SOL     OW 3157   2.346   2.816   4.609
  753SOL    HW1 3158   2.343   2.815   4.509
  753SOL    HW2 3159   2.294   2.893   4.644
  754SOL     OW 3160   3.792   5.251   6.754
  754SOL    HW1 3161   3.704   5.214   6.725
  754SOL    HW2 3162   3.790   5.269   6.853
  755SOL     OW 3163   0.320   6.125   0.145
  755SOL    HW1 3164   0.281   6.193   0.082
  755SOL    HW2 3165   0.284   6.035   0.121
  756SOL     OW 3166   4.870   0.726   1.757
  756SOL    HW1 3167   4.844   0.630   1.768
  756SOL    HW2 3168   4.809   0.784   1.811
  757SOL     OW 3169   0.545   6.548   3.769
  757SOL    HW1 3170   0.452   6.517   3.748
  757SOL    HW2 3171   0.611   6.484   3.729
  758SOL     OW 3172   3.746   1.942   1.247
  758SOL    HW1 3173   3.742   1.852   1.291
  758SOL    HW2 3174   3.660   1.957   1.196
  759SOL     OW 3175   1.152   2.066   0.539
  759SOL    HW1 3176   1.170   1.973   0.571
  759SOL    HW2 3177   1.128   2.124   0.617
  760SOL     OW 3178   5.229   0.906   6.762
  760SOL    HW1 3179   5.161   0.904   6.690
  760SOL    HW2 3180   5.198   0.966   6.836
  761SOL     OW 3181   5.963   2.369   0.024
  761SOL    HW1 3182   5.922   2.457   0.002
  761SOL    HW2 3183   6.029   2.344   6.976
  762SOL     OW 3184   2.492   6.480   3.751
  762SOL    HW1 3185   2.493   6.561   3.809
  762SOL    HW2 3186   2.556   6.493   3.675
  763SOL     OW 3187   4.077   6.459   6.663
  763SOL    HW1 3188   4.127   6.501   6.739
  763SOL    HW2 3189   4.076   6.522   6.585
  764SOL     OW 3190   3.586   1.805   1.653
  764SOL    HW1 3191   3.508   1.795   1.592
  764SOL    HW2 3192   3.566   1.760   1.740
  765SOL     OW 3193   6.885   0.149   2.812
  765SOL    HW1 3194   6.922   0.224   2.866
  765SOL    HW2 3195   6.819   0.098   2.867
  766SOL     OW 3196   0.256   6.592   6.980
  766SOL    HW1 3197   0.247   6.497   6.949
  766SOL    HW2 3198   0.204   6.605   0.040
  767SOL     OW 3199   6.439   6.839   2.512
  767SOL    HW1 3200   6.411   6.927   2.472
  767SOL    HW2 3201   6.398   6.765   2.459
  768SOL     OW 3202   2.734   6.364   2.702
  768SOL    HW1 3203   2.646   6.367   2.654
  768SOL    HW2 3204   2.791   6.441   2.672
  769SOL     OW 3205   4.336   0.487   5.483
  769SOL    HW1 3206   4.387   0.412   5.441
  769SOL    HW2 3207   4.397   0.565   5.495
  770SOL     OW 3208   2.883   4.740   4.013
  770SOL    HW1 3209   2.811   4.746   4.082
  770SOL    HW2 3210   2.880   4.651   3.969
  771SOL     OW 3211   0.634   5.229   3.502
  771SOL    HW1 3212   0.570   5.299   3.469
  771SOL    HW2 3213   0.599   5.138   3.480
  772SOL     OW 3214   6.880   3.979   7.016
  772SOL    HW1 3215   6.846   3.947   6.928
  772SOL    HW2 3216   6.818   3.951   0.065
  773SOL     OW 3217   6.561   3.996   2.123
  773SOL    HW1 3218   6.615   4.048   2.189
  773SOL    HW2 3219   6.542   3.905   2.160
  774SOL     OW 3220   1.616   1.429   1.093
  774SOL    HW1 3221   1.587   1.523   1.113
  774SOL    HW2 3222   1.670   1.393   1.168
  775SOL     OW 3223   1.122   1.898   4.406
  775SOL    HW1 3224   1.057   1.829   4.439
  775SOL    HW2 3225   1.180   1.929   4.482
  776SOL     OW 3226   2.303   0.454   6.292
  776SOL    HW1 3227   2.277   0.518   6.364
  776SOL    HW2 3228   2.232   0.384   6.281
  777SOL     OW 3229   4.126   1.197   1.064
  777SOL    HW1 3230   4.142   1.139   1.144
  777SOL    HW2 3231   4.165   1.288   1.080
  778SOL     OW 3232   4.467   0.236   3.716
  778SOL    HW1 3233   4.459   0.297   3.636
  778SOL    HW2 3234   4.446   0.287   3.799
  779SOL     OW 3235   0.473   2.297   2.299
  779SOL    HW1 3236   0.512   2.331   2.214
  779SOL    HW2 3237   0.465   2.198   2.295
  780SOL     OW 3238   5.987   3.494   4.494
  780SOL    HW1 3239   6.061   3.445   4.540
  780SOL    HW2 3240   5.955   3.441   4.416
  781SOL     OW 3241   6.748   0.979   6.401
  781SOL    HW1 3242   6.843   0.957   6.426
  781SOL    HW2 3243   6.700   1.016   6.480
  782SOL     OW 3244   0.003   2.877   0.924
  782SOL    HW1 3245   0.070   2.949   0.906
  782SOL    HW2 3246   0.046   2.804   0.977
  783SOL     OW 3247   3.053   5.067   0.150
  783SOL    HW1 3248   3.110   5.006   0.096
  783SOL    HW2 3249   2.977   5.016   0.189
  784SOL     OW 3250   4.317   0.646   4.986
  784SOL    HW1 3251   4.299   0.588   5.065
  784SOL    HW2 3252   4.411   0.678   4.989
  785SOL     OW 3253   5.919   1.412   3.502
  785SOL    HW1 3254   5.887   1.501   3.533
  785SOL    HW2 3255   6.018   1.405   3.518
  786SOL     OW 3256   6.828   6.427   0.161
  786SOL    HW1 3257   6.920   6.391   0.145
  786SOL    HW2 3258   6.828   6.481   0.245
  787SOL     OW 3259   2.536   2.333   6.481
  787SOL    HW1 3260   2.594   2.414   6.493
  787SOL    HW2 3261   2.471   2.349   6.407
  788SOL     OW 3262   1.820   3.332   4.073
  788SOL    HW1 3263   1.830   3.329   4.173
  788SOL    HW2 3264   1.748   3.397   4.049
  789SOL     OW 3265   5.321   3.738   1.817
  789SOL    HW1 3266   5.265   3.726   1.899
  789SOL    HW2 3267   5.301   3.666   1.751
  790SOL     OW 3268   2.885   1.058   3.550
  790SOL    HW1 3269   2.917   1.144   3.510
  790SOL    HW2 3270   2.840   1.077   3.637
  791SOL     OW 3271   3.334   1.185   4.731
  791SOL    HW1 3272   3.371   1.155   4.819
  791SOL    HW2 3273   3.370   1.126   4.659
  792SOL     OW 3274   5.902   0.124   3.129
  792SOL    HW1 3275   5.854   0.129   3.041
  792SOL    HW2 3276   5.928   0.029   3.147
  793SOL     OW 3277   5.378   0.308   0.172
  793SOL    HW1 3278   5.293   0.301   0.224
  793SOL    HW2 3279   5.424   0.394   0.195
  794SOL     OW 3280   2.458   5.071   5.712
  794SOL    HW1 3281   2.392   5.075   5.787
  794SOL    HW2 3282   2.536   5.014   5.740
  795SOL     OW 3283   4.728   4.800   6.031
  795SOL    HW1 3284   4.642   4.777   6.076
  795SOL    HW2 3285   4.719   4.887   5.983
  796SOL     OW 3286   6.975   2.306   6.564
  796SOL    HW1 3287   6.898   2.278   6.622
  796SOL    HW2 3288   6.987   2.239   6.490
  797SOL     OW 3289   6.092   2.721   4.313
  797SOL    HW1 3290   6.097   2.670   4.227
  797SOL    HW2 3291   6.038   2.669   4.379
  798SOL     OW 3292   5.402   0.693   6.850
  798SOL    HW1 3293   5.335   0.746   6.798
  798SOL    HW2 3294   5.462   0.754   6.901
  799SOL     OW 3295   6.635   2.221   3.354
  799SOL    HW1 3296   6.638   2.121   3.359
  799SOL    HW2 3297   6.540   2.250   3.336
  800SOL     OW 3298   5.790   1.059   2.244
  800SOL    HW1 3299   5.867   1.075   2.305
  800SOL    HW2 3300   5.711   1.111   2.275
  801SOL     OW 3301   6.973   2.155   3.582
  801SOL    HW1 3302   7.007   2.207   3.660
  801SOL    HW2 3303   7.021   2.185   3.499
  802SOL     OW 3304   5.664   1.367   0.277
  802SOL    HW1 3305   5.568   1.366   0.304
  802SOL    HW2 3306   5.698   1.461   0.279
  803SOL     OW 3307   6.302   5.540   4.228
  803SOL    HW1 3308   6.397   5.521   4.202
  803SOL    HW2 3309   6.275   5.630   4.193
  804SOL     OW 3310   0.942   6.692   0.089
  804SOL    HW1 3311   1.023   6.636   0.068
  804SOL    HW2 3312   0.883   6.641   0.151
  805SOL     OW 3313   3.067   2.908   5.911
  805SOL    HW1 3314   3.136   2.959   5.963
  805SOL    HW2 3315   3.084   2.810   5.920
  806SOL     OW 3316   5.118   1.534   7.004
  806SOL    HW1 3317   5.020   1.526   6.986
  806SOL    HW2 3318   5.132   1.563   0.075
  807SOL     OW 3319   1.339   0.506   3.207
  807SOL    HW1 3320   1.286   0.591   3.211
  807SOL    HW2 3321   1.387   0.493   3.294
  808SOL     OW 3322   5.525   3.382   5.904
  808SOL    HW1 3323   5.529   3.468   5.853
  808SOL    HW2 3324   5.437   3.338   5.888
  809SOL     OW 3325   0.908   4.298   0.135
  809SOL    HW1 3326   0.912   4.313   0.234
  809SOL    HW2 3327   0.963   4.218   0.111
  810SOL     OW 3328   5.741   3.932   0.284
  810SOL    HW1 3329   5.808   3.918   0.211
  810SOL    HW2 3330   5.667   3.990   0.250
  811SOL     OW 3331   5.329   4.867   3.797
  811SOL    HW1 3332   5.311   4.907   3.887
  811SOL    HW2 3333   5.261   4.796   3.778
  812SOL     OW 3334   0.537   0.009   1.463
  812SOL    HW1 3335   0.463   0.067   1.497
  812SOL    HW2 3336   0.543   6.949   1.517
  813SOL     OW 3337   4.808   5.473   2.292
  813SOL    HW1 3338   4.810   5.512   2.200
  813SOL    HW2 3339   4.878   5.402   2.299
  814SOL     OW 3340   6.387   6.123   2.258
  814SOL    HW1 3341   6.288   6.125   2.248
  814SOL    HW2 3342   6.428   6.193   2.199
  815SOL     OW 3343   6.580   2.214   0.721
  815SOL    HW1 3344   6.573   2.310   0.747
  815SOL    HW2 3345   6.630   2.164   0.792
  816SOL     OW 3346   6.385   6.056   1.234
  816SOL    HW1 3347   6.315   6.097   1.293
  816SOL    HW2 3348   6.342   5.991   1.172
  817SOL     OW 3349   1.989   3.345   2.453
  817SOL    HW1 3350   2.047   3.367   2.375
  817SOL    HW2 3351   1.916   3.284   2.423
  818SOL     OW 3352   5.998   1.192   0.911
  818SOL    HW1 3353   5.943   1.109   0.916
  818SOL    HW2 3354   5.980   1.249   0.991
  819SOL     OW 3355   6.986   2.649   3.095
  819SOL    HW1 3356   0.041   2.629   3.155
  819SOL    HW2 3357   6.902   2.617   3.140
  820SOL     OW 3358   0.979   2.500   4.561
  820SOL    HW1 3359   0.971   2.586   4.612
  820SOL    HW2 3360   0.994   2.425   4.624
  821SOL     OW 3361   1.325   3.486   6.644
  821SOL    HW1 3362   1.240   3.434   6.645
  821SOL    HW2 3363   1.341   3.525   6.735
  822SOL     OW 3364   1.348   3.956   4.382
  822SOL    HW1 3365   1.439   3.921   4.402
  822SOL    HW2 3366   1.353   4.022   4.307
  823SOL     OW 3367   4.315   4.452   0.056
  823SOL    HW1 3368   4.317   4.501   0.143
  823SOL    HW2 3369   4.375   4.372   0.062
  824SOL     OW 3370   5.237   2.582   5.155
  824SOL    HW1 3371   5.176   2.653   5.119
  824SOL    HW2 3372   5.197   2.492   5.137
  825SOL     OW 3373   2.163   3.600   2.673
  825SOL    HW1 3374   2.180   3.505   2.701
  825SOL    HW2 3375   2.239   3.658   2.702
  826SOL     OW 3376   6.628   3.177   6.345
  826SOL    HW1 3377   6.718   3.142   6.320
  826SOL    HW2 3378   6.638   3.248   6.416
  827SOL     OW 3379   3.707   5.454   0.294
  827SOL    HW1 3380   3.789   5.480   0.346
  827SOL    HW2 3381   3.690   5.523   0.223
  828SOL     OW 3382   5.814   0.868   5.789
  828SOL    HW1 3383   5.830   0.942   5.855
  828SOL    HW2 3384   5.736   0.813   5.820
  829SOL     OW 3385   3.021   3.126   4.325
  829SOL    HW1 3386   2.945   3.131   4.261
  829SOL    HW2 3387   2.987   3.107   4.417
  830SOL     OW 3388   4.824   3.929   5.408
  830SOL    HW1 3389   4.741   3.920   5.353
  830SOL    HW2 3390   4.815   4.006   5.471
  831SOL     OW 3391   6.903   0.738   5.579
  831SOL    HW1 3392   6.907   0.787   5.492
  831SOL    HW2 3393   6.918   0.640   5.563
  832SOL     OW 3394   2.133   2.149   6.214
  832SOL    HW1 3395   2.088   2.167   6.302
  832SOL    HW2 3396   2.230   2.135   6.228
  833SOL     OW 3397   6.235   6.677   6.584
  833SOL    HW1 3398   6.226   6.770   6.547
  833SOL    HW2 3399   6.218   6.610   6.512
  834SOL     OW 3400   3.082   3.808   4.160
  834SOL    HW1 3401   3.157   3.863   4.123
  834SOL    HW2 3402   3.042   3.855   4.238
  835SOL     OW 3403   3.672   0.118   3.784
  835SOL    HW1 3404   3.573   0.116   3.768
  835SOL    HW2 3405   3.695   0.199   3.839
  836SOL     OW 3406   3.130   0.483   0.089
  836SOL    HW1 3407   3.156   0.570   0.047
  836SOL    HW2 3408   3.078   0.428   0.024
  837SOL     OW 3409   4.761   0.774   5.713
  837SOL    HW1 3410   4.719   0.864   5.722
  837SOL    HW2 3411   4.845   0.782   5.659
  838SOL     OW 3412   1.993   5.560   3.917
  838SOL    HW1 3413   2.000   5.660   3.913
  838SOL    HW2 3414   2.017   5.529   4.009
  839SOL     OW 3415   3.038   1.680   3.195
  839SOL    HW1 3416   2.975   1.653   3.267
  839SOL    HW2 3417   3.016   1.630   3.111
  840SOL     OW 3418   0.795   1.244   6.672
  840SOL    HW1 3419   0.879   1.217   6.625
  840SOL    HW2 3420   0.806   1.229   6.770
  841SOL     OW 3421   0.085   3.621   6.933
  841SOL    HW1 3422   0.010   3.621   6.999
  841SOL    HW2 3423   0.067   3.552   6.863
  842SOL     OW 3424   3.782   4.857   3.022
  842SOL    HW1 3425   3.757   4.952   3.004
  842SOL    HW2 3426   3.842   4.824   2.949
  843SOL     OW 3427   6.405   2.030   2.285
  843SOL    HW1 3428   6.496   2.045   2.246
  843SOL    HW2 3429   6.386   1.932   2.290
  844SOL     OW 3430   4.749   5.879   0.815
  844SOL    HW1 3431   4.731   5.959   0.757
  844SOL    HW2 3432   4.711   5.894   0.906
  845SOL     OW 3433   0.011   4.542   4.401
  845SOL    HW1 3434   0.035   4.545   4.498
  845SOL    HW2 3435   6.939   4.569   4.390
  846SOL     OW 3436   6.470   1.625   6.877
  846SOL    HW1 3437   6.488   1.710   6.828
  846SOL    HW2 3438   6.461   1.550   6.811
  847SOL     OW 3439   5.303   3.316   2.244
  847SOL    HW1 3440   5.371   3.291   2.175
  847SOL    HW2 3441   5.217   3.339   2.198
  848SOL     OW 3442   5.895   0.354   6.135
  848SOL    HW1 3443   5.965   0.385   6.199
  848SOL    HW2 3444   5.821   0.422   6.131
  849SOL     OW 3445   0.557   5.137   4.597
  849SOL    HW1 3446   0.636   5.126   4.536
  849SOL    HW2 3447   0.558   5.229   4.635
  850SOL     OW 3448   4.230   0.976   2.992
  850SOL    HW1 3449   4.238   0.997   2.895
  850SOL    HW2 3450   4.210   1.060   3.043
  851SOL     OW 3451   0.938   0.765   7.011
  851SOL    HW1 3452   0.985   0.846   6.977
  851SOL    HW2 3453   0.959   0.753   0.085
  852SOL     OW 3454   2.301   3.588   6.516
  852SOL    HW1 3455   2.303   3.493   6.545
  852SOL    HW2 3456   2.215   3.630   6.545
  853SOL     OW 3457   0.845   2.999   1.385
  853SOL    HW1 3458   0.823   3.066   1.314
  853SOL    HW2 3459   0.878   2.915   1.342
  854SOL     OW 3460   5.118   5.466   2.380
  854SOL    HW1 3461   5.204   5.491   2.425
  854SOL    HW2 3462   5.091   5.537   2.316
  855SOL     OW 3463   5.223   6.574   1.828
  855SOL    HW1 3464   5.295   6.628   1.784
  855SOL    HW2 3465   5.264   6.502   1.883
  856SOL     OW 3466   2.341   6.228   5.323
  856SOL    HW1 3467   2.247   6.220   5.291
  856SOL    HW2 3468   2.353   6.314   5.373
  857SOL     OW 3469   6.221   3.243   1.328
  857SOL    HW1 3470   6.230   3.222   1.231
  857SOL    HW2 3471   6.135   3.206   1.363
  858SOL     OW 3472   3.062   4.897   1.058
  858SOL    HW1 3473   3.010   4.970   1.103
  858SOL    HW2 3474   3.032   4.808   1.092
  859SOL     OW 3475   6.773   5.036   0.301
  859SOL    HW1 3476   6.842   5.052   0.371
  859SOL    HW2 3477   6.807   5.067   0.213
  860SOL     OW 3478   2.012   4.866   1.314
  860SOL    HW1 3479   2.045   4.789   1.260
  860SOL    HW2 3480   1.917   4.849   1.341
  861SOL     OW 3481   3.504   5.733   5.653
  861SOL    HW1 3482   3.470   5.656   5.708
  861SOL    HW2 3483   3.594   5.710   5.617
  862SOL     OW 3484   4.668   4.335   4.446
  862SOL    HW1 3485   4.690   4.330   4.543
  862SOL    HW2 3486   4.701   4.253   4.400
  863SOL     OW 3487   6.399   0.934   1.258
  863SOL    HW1 3488   6.323   0.996   1.238
  863SOL    HW2 3489   6.440   0.959   1.346
  864SOL     OW 3490   6.196   4.480   2.431
  864SOL    HW1 3491   6.210   4.543   2.355
  864SOL    HW2 3492   6.265   4.498   2.502
  865SOL     OW 3493   2.018   6.388   4.051
  865SOL    HW1 3494   2.038   6.351   4.142
  865SOL    HW2 3495   1.938   6.448   4.056
  866SOL     OW 3496   2.973   1.756   2.067
  866SOL    HW1 3497   2.880   1.731   2.038
  866SOL    HW2 3498   3.039   1.694   2.024
  867SOL     OW 3499   2.354   3.310   6.486
  867SOL    HW1 3500   2.415   3.358   6.423
  867SOL    HW2 3501   2.406   3.278   6.565
  868SOL     OW 3502   5.168   1.888   3.218
  868SOL    HW1 3503   5.165   1.955   3.292
  868SOL    HW2 3504   5.108   1.811   3.241
  869SOL     OW 3505   6.294   6.024   2.682
  869SOL    HW1 3506   6.229   6.057   2.750
  869SOL    HW2 3507   6.245   5.995   2.600
  870SOL     OW 3508   6.773   1.247   1.165
  870SOL    HW1 3509   6.702   1.266   1.097
  870SOL    HW2 3510   6.808   1.155   1.152
  871SOL     OW 3511   5.933   2.628   1.175
  871SOL    HW1 3512   5.899   2.701   1.234
  871SOL    HW2 3513   5.920   2.655   1.079
  872SOL     OW 3514   6.442   2.445   3.605
  872SOL    HW1 3515   6.419   2.401   3.518
  872SOL    HW2 3516   6.525   2.404   3.642
  873SOL     OW 3517   3.865   6.666   4.803
  873SOL    HW1 3518   3.822   6.576   4.802
  873SOL    HW2 3519   3.889   6.691   4.897
  874SOL     OW 3520   0.979   3.535   5.270
  874SOL    HW1 3521   1.013   3.553   5.177
  874SOL    HW2 3522   1.022   3.452   5.305
  875SOL     OW 3523   6.309   3.972   0.218
  875SOL    HW1 3524   6.265   4.032   0.150
  875SOL    HW2 3525   6.299   4.014   0.309
  876SOL     OW 3526   0.071   3.204   1.861
  876SOL    HW1 3527   0.153   3.162   1.823
  876SOL    HW2 3528   7.020   3.137   1.860
  877SOL     OW 3529   5.348   6.009   0.098
  877SOL    HW1 3530   5.280   5.940   0.123
  877SOL    HW2 3531   5.307   6.100   0.104
  878SOL     OW 3532   2.586   4.738   0.492
  878SOL    HW1 3533   2.612   4.821   0.541
  878SOL    HW2 3534   2.524   4.684   0.549
  879SOL     OW 3535   4.443   2.422   2.534
  879SOL    HW1 3536   4.513   2.491   2.551
  879SOL    HW2 3537   4.365   2.465   2.489
  880SOL     OW 3538   4.103   5.378   0.385
  880SOL    HW1 3539   4.073   5.331   0.302
  880SOL    HW2 3540   4.028   5.433   0.421
  881SOL     OW 3541   4.024   4.821   5.111
  881SOL    HW1 3542   4.116   4.859   5.103
  881SOL    HW2 3543   3.995   4.786   5.022
  882SOL     OW 3544   1.109   1.428   4.475
  882SOL    HW1 3545   1.185   1.405   4.416
  882SOL    HW2 3546   1.071   1.344   4.515
  883SOL     OW 3547   3.246   5.672   6.239
  883SOL    HW1 3548   3.194   5.683   6.155
  883SOL    HW2 3549   3.281   5.578   6.244
  884SOL     OW 3550   4.913   3.199   1.709
  884SOL    HW1 3551   4.907   3.101   1.687
  884SOL    HW2 3552   4.941   3.210   1.804
  885SOL     OW 3553   5.457   6.489   0.295
  885SOL    HW1 3554   5.395   6.437   0.353
  885SOL    HW2 3555   5.404   6.549   0.235
  886SOL     OW 3556   4.283   1.967   6.088
  886SOL    HW1 3557   4.272   2.050   6.033
  886SOL    HW2 3558   4.324   1.991   6.176
  887SOL     OW 3559   3.943   0.333   5.994
  887SOL    HW1 3560   3.916   0.420   6.035
  887SOL    HW2 3561   4.038   0.339   5.962
  888SOL     OW 3562   6.219   6.018   3.124
  888SOL    HW1 3563   6.256   6.050   3.211
  888SOL    HW2 3564   6.279   6.048   3.049
  889SOL     OW 3565   0.736   6.745   4.906
  889SOL    HW1 3566   0.677   6.749   4.987
  889SOL    HW2 3567   0.733   6.834   4.859
  890SOL     OW 3568   2.633   4.655   2.170
  890SOL    HW1 3569   2.595   4.574   2.215
  890SOL    HW2 3570   2.704   4.627   2.106
  891SOL     OW 3571   5.368   3.177   6.694
  891SOL    HW1 3572   5.418   3.262   6.680
  891SOL    HW2 3573   5.269   3.195   6.691
  892SOL     OW 3574   2.564   4.637   1.302
  892SOL    HW1 3575   2.546   4.685   1.388
  892SOL    HW2 3576   2.562   4.538   1.318
  893SOL     OW 3577   1.350   0.326   0.128
  893SOL    HW1 3578   1.442   0.350   0.097
  893SOL    HW2 3579   1.350   0.232   0.163
  894SOL     OW 3580   1.157   5.676   4.239
  894SOL    HW1 3581   1.063   5.668   4.204
  894SOL    HW2 3582   1.156   5.730   4.323
  895SOL     OW 3583   2.563   6.504   4.913
  895SOL    HW1 3584   2.590   6.462   5.000
  895SOL    HW2 3585   2.496   6.446   4.867
  896SOL     OW 3586   5.579   6.796   2.504
  896SOL    HW1 3587   5.533   6.708   2.491
  896SOL    HW2 3588   5.660   6.784   2.561
  897SOL     OW 3589   5.211   2.172   5.893
  897SOL    HW1 3590   5.135   2.236   5.889
  897SOL    HW2 3591   5.180   2.081   5.864
  898SOL     OW 3592   5.956   6.339   3.730
  898SOL    HW1 3593   5.934   6.284   3.811
  898SOL    HW2 3594   5.883   6.406   3.715
  899SOL     OW 3595   0.414   4.694   5.375
  899SOL    HW1 3596   0.441   4.789   5.393
  899SOL    HW2 3597   0.429   4.639   5.457
  900SOL     OW 3598   0.946   5.842   3.052
  900SOL    HW1 3599   0.867   5.807   3.003
  900SOL    HW2 3600   0.918   5.870   3.144
  901SOL     OW 3601   6.167   1.410   4.004
  901SOL    HW1 3602   6.122   1.460   4.078
  901SOL    HW2 3603   6.116   1.424   3.919
  902SOL     OW 3604   0.055   6.312   0.178
  902SOL    HW1 3605   0.115   6.288   0.102
  902SOL    HW2 3606   0.039   6.232   0.236
  903SOL     OW 3607   1.380   5.003   0.242
  903SOL    HW1 3608   1.405   5.034   0.150
  903SOL    HW2 3609   1.396   4.905   0.250
  904SOL     OW 3610   1.910   1.468   3.601
  904SOL    HW1 3611   1.906   1.434   3.507
  904SOL    HW2 3612   1.997   1.440   3.642
  905SOL     OW 3613   5.743   2.590   5.282
  905SOL    HW1 3614   5.661   2.624   5.236
  905SOL    HW2 3615   5.731   2.597   5.381
  906SOL     OW 3616   6.242   3.446   5.843
  906SOL    HW1 3617   6.161   3.502   5.864
  906SOL    HW2 3618   6.251   3.374   5.913
  907SOL     OW 3619   6.432   2.581   2.789
  907SOL    HW1 3620   6.446   2.577   2.690
  907SOL    HW2 3621   6.482   2.506   2.833
  908SOL     OW 3622   1.948   0.906   4.092
  908SOL    HW1 3623   1.855   0.903   4.056
  908SOL    HW2 3624   1.947   0.947   4.184
  909SOL     OW 3625   3.505   1.315   2.011
  909SOL    HW1 3626   3.491   1.252   1.935
  909SOL    HW2 3627   3.603   1.329   2.026
  910SOL     OW 3628   2.409   2.153   0.947
  910SOL    HW1 3629   2.347   2.156   1.025
  910SOL    HW2 3630   2.375   2.213   0.875
  911SOL     OW 3631   0.363   4.471   0.978
  911SOL    HW1 3632   0.369   4.449   1.075
  911SOL    HW2 3633   0.394   4.564   0.962
  912SOL     OW 3634   1.004   0.661   6.194
  912SOL    HW1 3635   0.925   0.632   6.248
  912SOL    HW2 3636   1.004   0.613   6.107
  913SOL     OW 3637   2.679   1.050   2.188
  913SOL    HW1 3638   2.644   1.007   2.271
  913SOL    HW2 3639   2.769   1.088   2.205
  914SOL     OW 3640   3.107   6.303   2.795
  914SOL    HW1 3641   3.150   6.265   2.714
  914SOL    HW2 3642   3.165   6.375   2.834
  915SOL     OW 3643   0.573   2.789   0.349
  915SOL    HW1 3644   0.531   2.704   0.316
  915SOL    HW2 3645   0.506   2.841   0.401
  916SOL     OW 3646   2.188   3.002   2.782
  916SOL    HW1 3647   2.188   3.066   2.705
  916SOL    HW2 3648   2.218   3.048   2.865
  917SOL     OW 3649   3.926   1.930   0.456
  917SOL    HW1 3650   3.996   1.951   0.388
  917SOL    HW2 3651   3.842   1.903   0.409
  918SOL     OW 3652   1.525   0.512   6.414
  918SOL    HW1 3653   1.546   0.561   6.329
  918SOL    HW2 3654   1.511   0.415   6.395
  919SOL     OW 3655   2.926   6.164   2.607
  919SOL    HW1 3656   2.999   6.138   2.670
  919SOL    HW2 3657   2.851   6.206   2.658
  920SOL     OW 3658   2.589   0.576   3.871
  920SOL    HW1 3659   2.612   0.613   3.961
  920SOL    HW2 3660   2.655   0.505   3.846
  921SOL     OW 3661   5.702   4.727   5.398
  921SOL    HW1 3662   5.764   4.790   5.444
  921SOL    HW2 3663   5.659   4.773   5.320
  922SOL     OW 3664   2.738   3.963   6.957
  922SOL    HW1 3665   2.659   4.024   6.969
  922SOL    HW2 3666   2.819   4.018   6.938
  923SOL     OW 3667   3.985   0.277   6.404
  923SOL    HW1 3668   3.905   0.231   6.367
  923SOL    HW2 3669   3.976   0.376   6.392
  924SOL     OW 3670   5.714   3.413   3.428
  924SOL    HW1 3671   5.689   3.400   3.524
  924SOL    HW2 3672   5.730   3.324   3.385
  925SOL     OW 3673   6.579   1.940   3.372
  925SOL    HW1 3674   6.609   1.897   3.286
  925SOL    HW2 3675   6.602   1.880   3.449
  926SOL     OW 3676   5.158   5.806   0.981
  926SOL    HW1 3677   5.188   5.851   1.065
  926SOL    HW2 3678   5.166   5.870   0.904
  927SOL     OW 3679   3.985   5.175   4.988
  927SOL    HW1 3680   4.052   5.104   4.968
  927SOL    HW2 3681   3.919   5.181   4.913
  928SOL     OW 3682   0.937   1.594   1.130
  928SOL    HW1 3683   0.991   1.630   1.055
  928SOL    HW2 3684   0.891   1.670   1.177
  929SOL     OW 3685   0.215   2.254   2.331
  929SOL    HW1 3686   0.162   2.291   2.408
  929SOL    HW2 3687   0.307   2.294   2.332
  930SOL     OW 3688   5.053   6.003   3.873
  930SOL    HW1 3689   5.134   6.002   3.932
  930SOL    HW2 3690   5.034   5.910   3.841
  931SOL     OW 3691   1.879   2.432   2.345
  931SOL    HW1 3692   1.876   2.473   2.436
  931SOL    HW2 3693   1.925   2.495   2.281
  932SOL     OW 3694   4.641   6.279   0.881
  932SOL    HW1 3695   4.635   6.369   0.925
  932SOL    HW2 3696   4.665   6.290   0.785
  933SOL     OW 3697   2.146   6.071   2.820
  933SOL    HW1 3698   2.077   6.108   2.759
  933SOL    HW2 3699   2.186   5.989   2.779
  934SOL     OW 3700   3.303   0.692   5.442
  934SOL    HW1 3701   3.332   0.720   5.534
  934SOL    HW2 3702   3.330   0.598   5.425
  935SOL     OW 3703   3.371   3.541   6.323
  935SOL    HW1 3704   3.445   3.488   6.364
  935SOL    HW2 3705   3.405   3.589   6.242
  936SOL     OW 3706   0.832   1.798   1.282
  936SOL    HW1 3707   0.849   1.760   1.373
  936SOL    HW2 3708   0.735   1.821   1.274
  937SOL     OW 3709   4.753   2.420   4.432
  937SOL    HW1 3710   4.811   2.486   4.383
  937SOL    HW2 3711   4.660   2.455   4.438
  938SOL     OW 3712   0.348   2.413   6.493
  938SOL    HW1 3713   0.336   2.408   6.394
  938SOL    HW2 3714   0.270   2.460   6.534
  939SOL     OW 3715   6.058   0.995   5.961
  939SOL    HW1 3716   6.069   1.038   5.872
  939SOL    HW2 3717   6.139   1.013   6.017
  940SOL     OW 3718   6.731   0.956   4.249
  940SOL    HW1 3719   6.819   0.916   4.224
  940SOL    HW2 3720   6.670   0.885   4.285
  941SOL     OW 3721   5.677   2.867   4.655
  941SOL    HW1 3722   5.665   2.839   4.560
  941SOL    HW2 3723   5.663   2.789   4.715
  942SOL     OW 3724   5.627   6.364   5.099
  942SOL    HW1 3725   5.664   6.446   5.055
  942SOL    HW2 3726   5.702   6.311   5.138
  943SOL     OW 3727   5.748   2.025   1.281
  943SOL    HW1 3728   5.796   1.943   1.249
  943SOL    HW2 3729   5.649   2.008   1.280
  944SOL     OW 3730   5.868   4.293   4.253
  944SOL    HW1 3731   5.770   4.272   4.249
  944SOL    HW2 3732   5.913   4.228   4.315
  945SOL     OW 3733   5.068   4.102   4.725
  945SOL    HW1 3734   5.168   4.111   4.725
  945SOL    HW2 3735   5.033   4.123   4.634
  946SOL     OW 3736   5.452   2.402   5.579
  946SOL    HW1 3737   5.510   2.484   5.581
  946SOL    HW2 3738   5.504   2.324   5.546
  947SOL     OW 3739   2.046   2.915   5.679
  947SOL    HW1 3740   2.120   2.849   5.693
  947SOL    HW2 3741   1.982   2.879   5.611
  948SOL     OW 3742   3.697   2.048   0.815
  948SOL    HW1 3743   3.702   1.984   0.738
  948SOL    HW2 3744   3.603   2.083   0.822
  949SOL     OW 3745   5.655   5.934   6.379
  949SOL    HW1 3746   5.754   5.918   6.387
  949SOL    HW2 3747   5.623   5.983   6.460
  950SOL     OW 3748   4.292   5.136   1.570
  950SOL    HW1 3749   4.231   5.208   1.537
  950SOL    HW2 3750   4.324   5.160   1.662
  951SOL     OW 3751   0.611   2.068   2.944
  951SOL    HW1 3752   0.683   2.020   2.894
  951SOL    HW2 3753   0.522   2.041   2.907
  952SOL     OW 3754   4.669   2.007   2.115
  952SOL    HW1 3755   4.650   2.014   2.213
  952SOL    HW2 3756   4.605   2.065   2.065
  953SOL     OW 3757   4.201   6.990   0.031
  953SOL    HW1 3758   4.156   6.920   6.999
  953SOL    HW2 3759   4.269   0.014   6.999
  954SOL     OW 3760   6.286   6.425   0.963
  954SOL    HW1 3761   6.234   6.345   0.994
  954SOL    HW2 3762   6.283   6.496   1.033
  955SOL     OW 3763   0.168   6.535   2.845
  955SOL    HW1 3764   0.169   6.438   2.819
  955SOL    HW2 3765   0.104   6.584   2.787
  956SOL     OW 3766   0.812   2.612   0.766
  956SOL    HW1 3767   0.806   2.710   0.787
  956SOL    HW2 3768   0.881   2.570   0.826
  957SOL     OW 3769   2.286   6.035   4.825
  957SOL    HW1 3770   2.218   6.091   4.872
  957SOL    HW2 3771   2.257   6.019   4.731
  958SOL     OW 3772   5.066   2.566   0.913
  958SOL    HW1 3773   5.134   2.496   0.888
  958SOL    HW2 3774   5.046   2.622   0.833
  959SOL     OW 3775   1.805   4.382   2.704
  959SOL    HW1 3776   1.863   4.458   2.674
  959SOL    HW2 3777   1.838   4.297   2.662
  960SOL     OW 3778   1.262   5.475   4.950
  960SOL    HW1 3779   1.197   5.467   4.874
  960SOL    HW2 3780   1.353   5.450   4.918
  961SOL     OW 3781   3.728   0.598   1.805
  961SOL    HW1 3782   3.784   0.680   1.819
  961SOL    HW2 3783   3.631   0.623   1.807
  962SOL     OW 3784   1.585   0.455   4.393
  962SOL    HW1 3785   1.674   0.489   4.363
  962SOL    HW2 3786   1.518   0.467   4.320
  963SOL     OW 3787   6.757   6.590   0.774
  963SOL    HW1 3788   6.698   6.539   0.711
  963SOL    HW2 3789   6.745   6.688   0.758
  964SOL     OW 3790   5.137   3.754   2.059
  964SOL    HW1 3791   5.077   3.674   2.063
  964SOL    HW2 3792   5.205   3.748   2.133
  965SOL     OW 3793   0.623   1.871   0.837
  965SOL    HW1 3794   0.549   1.939   0.834
  965SOL    HW2 3795   0.643   1.840   0.744
  966SOL     OW 3796   6.775   2.295   2.666
  966SOL    HW1 3797   6.774   2.337   2.575
  966SOL    HW2 3798   6.746   2.200   2.659
  967SOL     OW 3799   1.247   6.393   2.320
  967SOL    HW1 3800   1.327   6.430   2.272
  967SOL    HW2 3801   1.164   6.418   2.271
  968SOL     OW 3802   5.119   2.969   2.514
  968SOL    HW1 3803   5.065   3.004   2.591
  968SOL    HW2 3804   5.113   3.033   2.437
  969SOL     OW 3805   4.335   5.905   5.396
  969SOL    HW1 3806   4.347   5.876   5.301
  969SOL    HW2 3807   4.369   5.833   5.457
  970SOL     OW 3808   4.366   2.317   5.252
  970SOL    HW1 3809   4.328   2.280   5.337
  970SOL    HW2 3810   4.303   2.384   5.214
  971SOL     OW 3811   6.586   1.807   1.570
  971SOL    HW1 3812   6.531   1.729   1.600
  971SOL    HW2 3813   6.529   1.889   1.566
  972SOL     OW 3814   6.585   5.740   1.085
  972SOL    HW1 3815   6.563   5.690   1.169
  972SOL    HW2 3816   6.684   5.756   1.081
  973SOL     OW 3817   5.653   4.033   5.878
  973SOL    HW1 3818   5.642   4.128   5.906
  973SOL    HW2 3819   5.745   4.018   5.844
  974SOL     OW 3820   2.696   0.819   4.001
  974SOL    HW1 3821   2.752   0.882   3.947
  974SOL    HW2 3822   2.729   0.818   4.096
  975SOL     OW 3823   3.167   6.750   5.374
  975SOL    HW1 3824   3.076   6.749   5.416
  975SOL    HW2 3825   3.170   6.822   5.304
  976SOL     OW 3826   0.286   4.456   3.802
  976SOL    HW1 3827   0.321   4.390   3.735
  976SOL    HW2 3828   0.231   4.525   3.755
  977SOL     OW 3829   2.353   1.115   3.727
  977SOL    HW1 3830   2.256   1.091   3.736
  977SOL    HW2 3831   2.404   1.034   3.699
  978SOL     OW 3832   5.869   3.381   4.238
  978SOL    HW1 3833   5.807   3.338   4.304
  978SOL    HW2 3834   5.823   3.459   4.195
  979SOL     OW 3835   6.197   0.980   3.461
  979SOL    HW1 3836   6.103   0.968   3.431
  979SOL    HW2 3837   6.243   0.891   3.462
  980SOL     OW 3838   6.433   1.405   4.659
  980SOL    HW1 3839   6.429   1.421   4.560
  980SOL    HW2 3840   6.508   1.458   4.698
  981SOL     OW 3841   6.827   2.294   5.027
  981SOL    HW1 3842   6.781   2.268   5.111
  981SOL    HW2 3843   6.924   2.270   5.033
  982SOL     OW 3844   1.562   3.239   1.464
  982SOL    HW1 3845   1.469   3.272   1.446
  982SOL    HW2 3846   1.617   3.314   1.501
  983SOL     OW 3847   5.788   1.877   3.413
  983SOL    HW1 3848   5.802   1.815   3.336
  983SOL    HW2 3849   5.728   1.952   3.385
  984SOL     OW 3850   4.684   1.704   4.806
  984SOL    HW1 3851   4.713   1.775   4.870
  984SOL    HW2 3852   4.585   1.708   4.794
  985SOL     OW 3853   3.632   5.292   0.497
  985SOL    HW1 3854   3.695   5.221   0.468
  985SOL    HW2 3855   3.651   5.376   0.446
  986SOL     OW 3856   4.524   5.026   6.044
  986SOL    HW1 3857   4.492   5.060   5.955
  986SOL    HW2 3858   4.540   5.103   6.105
  987SOL     OW 3859   4.047   6.694   2.379
  987SOL    HW1 3860   4.030   6.766   2.446
  987SOL    HW2 3861   4.013   6.607   2.413
  988SOL     OW 3862   3.662   3.781   2.164
  988SOL    HW1 3863   3.724   3.857   2.184
  988SOL    HW2 3864   3.620   3.795   2.074
  989SOL     OW 3865   0.171   0.258   5.955
  989SOL    HW1 3866   0.077   0.224   5.951
  989SOL    HW2 3867   0.233   0.181   5.975
  990SOL     OW 3868   4.731   0.300   3.800
  990SOL    HW1 3869   4.776   0.237   3.864
  990SOL    HW2 3870   4.645   0.259   3.769
  991SOL     OW 3871   6.730   1.120   4.928
  991SOL    HW1 3872   6.763   1.157   4.841
  991SOL    HW2 3873   6.740   1.189   4.999
  992SOL     OW 3874   0.680   3.592   0.191
  992SOL    HW1 3875   0.586   3.563   0.176
  992SOL    HW2 3876   0.706   3.660   0.122
  993SOL     OW 3877   3.104   5.074   3.209
  993SOL    HW1 3878   3.050   5.047   3.288
  993SOL    HW2 3879   3.145   5.164   3.225
  994SOL     OW 3880   2.922   3.530   2.908
  994SOL    HW1 3881   2.884   3.537   3.000
  994SOL    HW2 3882   2.917   3.435   2.877
  995SOL     OW 3883   2.013   1.606   4.773
  995SOL    HW1 3884   2.082   1.534   4.779
  995SOL    HW2 3885   2.035   1.678   4.840
  996SOL     OW 3886   2.041   3.965   2.375
  996SOL    HW1 3887   2.085   3.969   2.285
  996SOL    HW2 3888   2.015   3.870   2.395
  997SOL     OW 3889   6.887   1.152   1.690
  997SOL    HW1 3890   6.948   1.076   1.668
  997SOL    HW2 3891   6.806   1.117   1.736
  998SOL     OW 3892   4.808   6.979   2.632
  998SOL    HW1 3893   4.766   6.988   2.541
  998SOL    HW2 3894   4.904   7.006   2.627
  999SOL     OW 3895   6.836   5.342   1.322
  999SOL    HW1 3896   6.797   5.291   1.399
  999SOL    HW2 3897   6.766   5.353   1.251
 1000SOL     OW 3898   3.395   1.763   3.991
 1000SOL    HW1 3899   3.450   1.807   3.920
 1000SOL    HW2 3900   3.456   1.715   4.055
 1001SOL     OW 3901   4.957   0.114   5.779
 1001SOL    HW1 3902   4.955   0.062   5.864
 1001SOL    HW2 3903   5.046   0.158   5.769
 1002SOL     OW 3904   6.597   0.897   0.656
 1002SOL    HW1 3905   6.526   0.926   0.720
 1002SOL    HW2 3906   6.583   0.941   0.568
 1003SOL     OW 3907   3.847   5.789   2.726
 1003SOL    HW1 3908   3.887   5.747   2.644
 1003SOL    HW2 3909   3.907   5.863   2.758
 1004SOL     OW 3910   5.874   0.008   0.269
 1004SOL    HW1 3911   5.961   0.036   0.230
 1004SOL    HW2 3912   5.852   6.939   0.240
 1005SOL     OW 3913   0.454   6.625   3.219
 1005SOL    HW1 3914   0.531   6.568   3.189
 1005SOL    HW2 3915   0.486   6.691   3.287
 1006SOL     OW 3916   2.157   5.067   1.160
 1006SOL    HW1 3917   2.249   5.068   1.198
 1006SOL    HW2 3918   2.095   5.020   1.224
 1007SOL     OW 3919   0.177   1.370   3.690
 1007SOL    HW1 3920   0.162   1.420   3.776
 1007SOL    HW2 3921   0.253   1.412   3.640
 1008SOL     OW 3922   1.979   3.388   3.652
 1008SOL    HW1 3923   1.938   3.362   3.739
 1008SOL    HW2 3924   1.927   3.346   3.577
 1009SOL     OW 3925   0.732   6.272   5.231
 1009SOL    HW1 3926   0.693   6.242   5.145
 1009SOL    HW2 3927   0.667   6.254   5.305
 1010SOL     OW 3928   4.555   2.281   0.147
 1010SOL    HW1 3929   4.525   2.308   0.056
 1010SOL    HW2 3930   4.584   2.362   0.198
 1011SOL     OW 3931   2.550   6.272   3.292
 1011SOL    HW1 3932   2.548   6.212   3.372
 1011SOL    HW2 3933   2.540   6.216   3.209
 1012SOL     OW 3934   5.326   5.082   0.039
 1012SOL    HW1 3935   5.338   4.987   0.065
 1012SOL    HW2 3936   5.234   5.113   0.064
 1013SOL     OW 3937   0.682   1.282   1.197
 1013SOL    HW1 3938   0.741   1.263   1.118
 1013SOL    HW2 3939   0.711   1.227   1.275
 1014SOL     OW 3940   4.425   6.958   5.646
 1014SOL    HW1 3941   4.397   0.008   5.584
 1014SOL    HW2 3942   4.522   6.939   5.633
 1015SOL     OW 3943   3.276   5.713   4.519
 1015SOL    HW1 3944   3.367   5.676   4.501
 1015SOL    HW2 3945   3.238   5.670   4.601
 1016SOL     OW 3946   4.067   2.760   1.359
 1016SOL    HW1 3947   4.077   2.789   1.264
 1016SOL    HW2 3948   4.157   2.750   1.400
 1017SOL     OW 3949   4.125   2.404   6.925
 1017SOL    HW1 3950   4.105   2.328   6.864
 1017SOL    HW2 3951   4.175   2.475   6.875
 1018SOL     OW 3952   1.456   2.720   2.805
 1018SOL    HW1 3953   1.445   2.815   2.831
 1018SOL    HW2 3954   1.510   2.672   2.874
 1019SOL     OW 3955   0.231   1.826   6.703
 1019SOL    HW1 3956   0.185   1.810   6.790
 1019SOL    HW2 3957   0.226   1.744   6.646
 1020SOL     OW 3958   2.966   1.420   1.368
 1020SOL    HW1 3959   2.904   1.386   1.440
 1020SOL    HW2 3960   2.961   1.520   1.366
 1021SOL     OW 3961   6.590   1.299   0.964
 1021SOL    HW1 3962   6.590   1.230   0.891
 1021SOL    HW2 3963   6.620   1.387   0.926
 1022SOL     OW 3964   4.357   3.555   5.971
 1022SOL    HW1 3965   4.353   3.648   5.932
 1022SOL    HW2 3966   4.268   3.533   6.010
 1023SOL     OW 3967   5.601   0.850   2.476
 1023SOL    HW1 3968   5.519   0.824   2.528
 1023SOL    HW2 3969   5.597   0.809   2.385
 1024SOL     OW 3970   6.707   1.257   3.825
 1024SOL    HW1 3971   6.799   1.272   3.789
 1024SOL    HW2 3972   6.709   1.179   3.889
 1025SOL     OW 3973   3.466   4.771   1.026
 1025SOL    HW1 3974   3.509   4.695   0.977
 1025SOL    HW2 3975   3.383   4.798   0.978
 1026SOL     OW 3976   1.747   2.323   0.436
 1026SOL    HW1 3977   1.653   2.343   0.408
 1026SOL    HW2 3978   1.802   2.406   0.431
 1027SOL     OW 3979   2.925   4.884   2.571
 1027SOL    HW1 3980   2.899   4.967   2.522
 1027SOL    HW2 3981   3.024   4.881   2.583
 1028SOL     OW 3982   1.373   5.907   0.873
 1028SOL    HW1 3983   1.303   5.890   0.803
 1028SOL    HW2 3984   1.423   5.991   0.850
 1029SOL     OW 3985   2.133   0.163   6.296
 1029SOL    HW1 3986   2.043   0.197   6.268
 1029SOL    HW2 3987   2.144   0.177   6.395
 1030SOL     OW 3988   4.079   3.428   4.949
 1030SOL    HW1 3989   4.103   3.518   4.913
 1030SOL    HW2 3990   4.100   3.425   5.047
 1031SOL     OW 3991   2.482   5.563   2.138
 1031SOL    HW1 3992   2.482   5.615   2.223
 1031SOL    HW2 3993   2.433   5.615   2.067
 1032SOL     OW 3994   1.327   1.210   4.503
 1032SOL    HW1 3995   1.286   1.196   4.412
 1032SOL    HW2 3996   1.393   1.285   4.498
 1033SOL     OW 3997   2.297   5.920   2.453
 1033SOL    HW1 3998   2.330   5.826   2.448
 1033SOL    HW2 3999   2.375   5.982   2.447
 1034SOL     OW 4000   1.821   4.715   3.930
 1034SOL    HW1 4001   1.878   4.656   3.873
 1034SOL    HW2 4002   1.725   4.700   3.907
 1035SOL     OW 4003   2.672   1.258   4.527
 1035SOL    HW1 4004   2.625   1.210   4.601
 1035SOL    HW2 4005   2.725   1.334   4.564
 1036SOL     OW 4006   4.423   2.368   0.657
 1036SOL    HW1 4007   4.444   2.459   0.621
 1036SOL    HW2 4008   4.454   2.298   0.592
 1037SOL     OW 4009   2.235   1.802   0.045
 1037SOL    HW1 4010   2.244   1.755   0.133
 1037SOL    HW2 4011   2.224   1.734   6.996
 1038SOL     OW 4012   2.108   1.223   5.156
 1038SOL    HW1 4013   2.116   1.190   5.250
 1038SOL    HW2 4014   2.198   1.254   5.124
 1039SOL     OW 4015   4.008   2.259   4.189
 1039SOL    HW1 4016   4.010   2.197   4.110
 1039SOL    HW2 4017   3.913   2.276   4.214
 1040SOL     OW 4018   6.378   4.451   2.624
 1040SOL    HW1 4019   6.465   4.495   2.601
 1040SOL    HW2 4020   6.393   4.353   2.637
 1041SOL     OW 4021   0.855   0.981   4.180
 1041SOL    HW1 4022   0.813   0.938   4.101
 1041SOL    HW2 4023   0.954   0.967   4.178
 1042SOL     OW 4024   5.731   4.808   0.661
 1042SOL    HW1 4025   5.734   4.847   0.569
 1042SOL    HW2 4026   5.735   4.708   0.654
 1043SOL     OW 4027   3.028   2.224   6.336
 1043SOL    HW1 4028   3.115   2.257   6.373
 1043SOL    HW2 4029   2.965   2.204   6.411
 1044SOL     OW 4030   4.154   3.295   1.956
 1044SOL    HW1 4031   4.148   3.197   1.940
 1044SOL    HW2 4032   4.183   3.341   1.872
 1045SOL     OW 4033   3.029   1.307   3.507
 1045SOL    HW1 4034   3.025   1.290   3.409
 1045SOL    HW2 4035   2.987   1.396   3.528
 1046SOL     OW 4036   4.239   0.158   1.771
 1046SOL    HW1 4037   4.264   0.125   1.862
 1046SOL    HW2 4038   4.300   0.232   1.744
 1047SOL     OW 4039   0.801   4.801   2.751
 1047SOL    HW1 4040   0.852   4.863   2.811
 1047SOL    HW2 4041   0.840   4.805   2.659
 1048SOL     OW 4042   4.868   4.376   5.511
 1048SOL    HW1 4043   4.867   4.454   5.574
 1048SOL    HW2 4044   4.868   4.291   5.564
 1049SOL     OW 4045   0.045   3.590   4.957
 1049SOL    HW1 4046   6.992   3.652   4.941
 1049SOL    HW2 4047   0.012   3.505   4.998
 1050SOL     OW 4048   3.508   0.537   6.981
 1050SOL    HW1 4049   3.471   0.445   6.988
 1050SOL    HW2 4050   3.521   0.575   0.050
 1051SOL     OW 4051   4.820   4.257   1.090
 1051SOL    HW1 4052   4.798   4.346   1.132
 1051SOL    HW2 4053   4.917   4.254   1.068
 1052SOL     OW 4054   3.674   0.241   4.374
 1052SOL    HW1 4055   3.707   0.147   4.382
 1052SOL    HW2 4056   3.735   0.302   4.425
 1053SOL     OW 4057   4.791   4.576   4.066
 1053SOL    HW1 4058   4.819   4.559   4.161
 1053SOL    HW2 4059   4.749   4.494   4.029
 1054SOL     OW 4060   3.318   5.886   4.772
 1054SOL    HW1 4061   3.231   5.903   4.727
 1054SOL    HW2 4062   3.310   5.907   4.870
 1055SOL     OW 4063   4.251   6.084   5.058
 1055SOL    HW1 4064   4.293   5.999   5.089
 1055SOL    HW2 4065   4.322   6.150   5.036
 1056SOL     OW 4066   1.906   6.625   4.990
 1056SOL    HW1 4067   1.986   6.599   5.044
 1056SOL    HW2 4068   1.870   6.712   5.024
 1057SOL     OW 4069   3.121   4.063   2.583
 1057SOL    HW1 4070   3.148   4.109   2.498
 1057SOL    HW2 4071   3.107   3.966   2.566
 1058SOL     OW 4072   3.725   0.967   1.618
 1058SOL    HW1 4073   3.756   0.921   1.702
 1058SOL    HW2 4074   3.793   1.035   1.591
 1059SOL     OW 4075   3.976   1.828   1.486
 1059SOL    HW1 4076   3.889   1.791   1.453
 1059SOL    HW2 4077   3.992   1.918   1.445
 1060SOL     OW 4078   1.679   1.881   5.588
 1060SOL    HW1 4079   1.711   1.792   5.622
 1060SOL    HW2 4080   1.709   1.953   5.650
 1061SOL     OW 4081   3.303   5.016   1.642
 1061SOL    HW1 4082   3.236   5.035   1.714
 1061SOL    HW2 4083   3.395   5.017   1.682
 1062SOL     OW 4084   5.548   5.608   4.922
 1062SOL    HW1 4085   5.556   5.551   4.841
 1062SOL    HW2 4086   5.469   5.580   4.976
 1063SOL     OW 4087   1.623   2.750   6.618
 1063SOL    HW1 4088   1.666   2.790   6.537
 1063SOL    HW2 4089   1.531   2.719   6.593
 1064SOL     OW 4090   6.548   2.833   2.123
 1064SOL    HW1 4091   6.629   2.867   2.173
 1064SOL    HW2 4092   6.521   2.899   2.054
 1065SOL     OW 4093   6.326   6.662   4.858
 1065SOL    HW1 4094   6.250   6.600   4.837
 1065SOL    HW2 4095   6.409   6.609   4.875
 1066SOL     OW 4096   4.957   0.436   3.513
 1066SOL    HW1 4097   5.048   0.447   3.474
 1066SOL    HW2 4098   4.899   0.512   3.485
 1067SOL     OW 4099   1.918   3.001   2.258
 1067SOL    HW1 4100   1.959   2.944   2.329
 1067SOL    HW2 4101   1.881   3.084   2.299
 1068SOL     OW 4102   0.241   3.515   2.059
 1068SOL    HW1 4103   0.233   3.611   2.086
 1068SOL    HW2 4104   0.155   3.484   2.020
 1069SOL     OW 4105   3.876   4.142   1.401
 1069SOL    HW1 4106   3.900   4.196   1.482
 1069SOL    HW2 4107   3.829   4.058   1.431
 1070SOL     OW 4108   2.540   0.961   0.131
 1070SOL    HW1 4109   2.541   1.044   0.075
 1070SOL    HW2 4110   2.477   0.894   0.091
 1071SOL     OW 4111   4.107   6.575   3.024
 1071SOL    HW1 4112   4.166   6.494   3.034
 1071SOL    HW2 4113   4.022   6.560   3.075
 1072SOL     OW 4114   4.100   5.890   2.861
 1072SOL    HW1 4115   4.159   5.820   2.822
 1072SOL    HW2 4116   4.081   5.960   2.792
 1073SOL     OW 4117   2.218   4.805   2.765
 1073SOL    HW1 4118   2.290   4.823   2.698
 1073SOL    HW2 4119   2.216   4.708   2.786
 1074SOL     OW 4120   1.373   5.429   1.775
 1074SOL    HW1 4121   1.448   5.381   1.729
 1074SOL    HW2 4122   1.307   5.364   1.809
 1075SOL     OW 4123   6.330   4.487   4.314
 1075SOL    HW1 4124   6.263   4.519   4.380
 1075SOL    HW2 4125   6.373   4.565   4.268
 1076SOL     OW 4126   0.414   4.795   3.804
 1076SOL    HW1 4127   0.479   4.828   3.736
 1076SOL    HW2 4128   0.321   4.805   3.769
 1077SOL     OW 4129   4.645   0.280   0.998
 1077SOL    HW1 4130   4.586   0.260   0.920
 1077SOL    HW2 4131   4.613   0.363   1.044
 1078SOL     OW 4132   0.977   2.264   1.279
 1078SOL    HW1 4133   0.926   2.249   1.363
 1078SOL    HW2 4134   0.979   2.180   1.225
 1079SOL     OW 4135   2.208   5.735   3.512
 1079SOL    HW1 4136   2.206   5.641   3.547
 1079SOL    HW2 4137   2.190   5.734   3.413
 1080SOL     OW 4138   1.515   5.352   4.879
 1080SOL    HW1 4139   1.564   5.302   4.950
 1080SOL    HW2 4140   1.506   5.294   4.798
 1081SOL     OW 4141   1.582   1.060   0.315
 1081SOL    HW1 4142   1.546   1.069   0.222
 1081SOL    HW2 4143   1.659   0.997   0.315
 1082SOL     OW 4144   2.320   6.754   6.024
 1082SOL    HW1 4145   2.371   6.835   6.051
 1082SOL    HW2 4146   2.352   6.675   6.078
 1083SOL     OW 4147   3.627   3.418   1.184
 1083SOL    HW1 4148   3.529   3.425   1.164
 1083SOL    HW2 4149   3.646   3.326   1.218
 1084SOL     OW 4150   6.299   3.876   0.700
 1084SOL    HW1 4151   6.327   3.894   0.794
 1084SOL    HW2 4152   6.225   3.808   0.700
 1085SOL     OW 4153   2.236   3.889   4.038
 1085SOL    HW1 4154   2.207   3.952   3.965
 1085SOL    HW2 4155   2.276   3.942   4.113
 1086SOL     OW 4156   4.208   4.671   2.217
 1086SOL    HW1 4157   4.126   4.617   2.200
 1086SOL    HW2 4158   4.289   4.614   2.204
 1087SOL     OW 4159   4.303   2.902   5.417
 1087SOL    HW1 4160   4.213   2.938   5.394
 1087SOL    HW2 4161   4.364   2.977   5.442
 1088SOL     OW 4162   5.038   3.947   3.568
 1088SOL    HW1 4163   5.015   3.856   3.534
 1088SOL    HW2 4164   5.025   4.014   3.495
 1089SOL     OW 4165   0.017   6.704   3.061
 1089SOL    HW1 4166   0.005   6.605   3.053
 1089SOL    HW2 4167   0.065   6.725   3.146
 1090SOL     OW 4168   1.050   1.571   5.849
 1090SOL    HW1 4169   1.115   1.631   5.897
 1090SOL    HW2 4170   0.958   1.586   5.885
 1091SOL     OW 4171   1.576   2.033   4.908
 1091SOL    HW1 4172   1.548   2.102   4.841
 1091SOL    HW2 4173   1.555   2.064   5.000
 1092SOL     OW 4174   2.487   4.171   1.483
 1092SOL    HW1 4175   2.520   4.194   1.575
 1092SOL    HW2 4176   2.524   4.236   1.417
 1093SOL     OW 4177   0.429   1.787   2.542
 1093SOL    HW1 4178   0.336   1.759   2.519
 1093SOL    HW2 4179   0.460   1.737   2.624
 1094SOL     OW 4180   0.626   6.251   1.445
 1094SOL    HW1 4181   0.716   6.267   1.486
 1094SOL    HW2 4182   0.628   6.165   1.394
 1095SOL     OW 4183   5.791   3.953   6.135
 1095SOL    HW1 4184   5.736   3.972   6.053
 1095SOL    HW2 4185   5.871   3.899   6.109
 1096SOL     OW 4186   3.305   4.616   1.701
 1096SOL    HW1 4187   3.230   4.664   1.745
 1096SOL    HW2 4188   3.385   4.615   1.761
 1097SOL     OW 4189   1.044   5.365   5.717
 1097SOL    HW1 4190   1.068   5.299   5.645
 1097SOL    HW2 4191   1.062   5.458   5.685
 1098SOL     OW 4192   4.128   1.994   2.463
 1098SOL    HW1 4193   4.203   2.036   2.514
 1098SOL    HW2 4194   4.139   2.013   2.365
 1099SOL     OW 4195   4.193   1.967   3.411
 1099SOL    HW1 4196   4.192   2.031   3.334
 1099SOL    HW2 4197   4.205   2.018   3.496
 1100SOL     OW 4198   0.525   0.786   0.249
 1100SOL    HW1 4199   0.509   0.872   0.296
 1100SOL    HW2 4200   0.617   0.784   0.212
 1101SOL     OW 4201   5.570   2.525   1.051
 1101SOL    HW1 4202   5.563   2.515   0.952
 1101SOL    HW2 4203   5.607   2.442   1.091
 1102SOL     OW 4204   0.627   4.635   3.456
 1102SOL    HW1 4205   0.602   4.650   3.360
 1102SOL    HW2 4206   0.556   4.672   3.515
 1103SOL     OW 4207   0.951   2.973   0.993
 1103SOL    HW1 4208   0.925   3.063   1.025
 1103SOL    HW2 4209   0.955   2.910   1.071
 1104SOL     OW 4210   3.084   5.111   6.271
 1104SOL    HW1 4211   3.097   5.037   6.336
 1104SOL    HW2 4212   3.152   5.105   6.198
 1105SOL     OW 4213   4.441   4.726   6.661
 1105SOL    HW1 4214   4.535   4.694   6.671
 1105SOL    HW2 4215   4.383   4.680   6.729
 1106SOL     OW 4216   0.324   2.223   6.259
 1106SOL    HW1 4217   0.407   2.201   6.310
 1106SOL    HW2 4218   0.348   2.267   6.173
 1107SOL     OW 4219   0.812   0.611   0.800
 1107SOL    HW1 4220   0.905   0.622   0.834
 1107SOL    HW2 4221   0.795   0.675   0.726
 1108SOL     OW 4222   0.665   1.662   5.215
 1108SOL    HW1 4223   0.699   1.568   5.215
 1108SOL    HW2 4224   0.651   1.693   5.121
 1109SOL     OW 4225   4.859   0.496   4.131
 1109SOL    HW1 4226   4.810   0.583   4.138
 1109SOL    HW2 4227   4.805   0.424   4.174
 1110SOL     OW 4228   2.922   3.208   2.163
 1110SOL    HW1 4229   2.864   3.231   2.084
 1110SOL    HW2 4230   2.945   3.292   2.213
 1111SOL     OW 4231   5.786   0.089   6.965
 1111SOL    HW1 4232   5.734   0.089   0.026
 1111SOL    HW2 4233   5.811   0.183   6.940
 1112SOL     OW 4234   6.726   0.854   2.569
 1112SOL    HW1 4235   6.802   0.790   2.560
 1112SOL    HW2 4236   6.661   0.820   2.637
 1113SOL     OW 4237   6.493   3.639   1.814
 1113SOL    HW1 4238   6.482   3.551   1.859
 1113SOL    HW2 4239   6.460   3.712   1.875
 1114SOL     OW 4240   4.977   1.473   4.874
 1114SOL    HW1 4241   4.911   1.482   4.799
 1114SOL    HW2 4242   5.027   1.559   4.886
 1115SOL     OW 4243   2.885   3.737   0.820
 1115SOL    HW1 4244   2.907   3.749   0.917
 1115SOL    HW2 4245   2.967   3.706   0.771
 1116SOL     OW 4246   4.807   6.944   4.393
 1116SOL    HW1 4247   4.817   7.003   4.473
 1116SOL    HW2 4248   4.711   6.922   4.379
 1117SOL     OW 4249   2.719   3.158   1.433
 1117SOL    HW1 4250   2.776   3.116   1.504
 1117SOL    HW2 4251   2.631   3.183   1.473
 1118SOL     OW 4252   2.162   3.676   3.881
 1118SOL    HW1 4253   2.221   3.720   3.949
 1118SOL    HW2 4254   2.215   3.655   3.799
 1119SOL     OW 4255   4.041   3.790   1.900
 1119SOL    HW1 4256   4.066   3.822   1.991
 1119SOL    HW2 4257   4.053   3.864   1.834
 1120SOL     OW 4258   4.100   0.749   4.807
 1120SOL    HW1 4259   4.132   0.843   4.819
 1120SOL    HW2 4260   4.138   0.692   4.881
 1121SOL     OW 4261   5.650   2.951   1.934
 1121SOL    HW1 4262   5.730   2.943   1.874
 1121SOL    HW2 4263   5.664   3.026   1.998
 1122SOL     OW 4264   5.213   4.034   6.797
 1122SOL    HW1 4265   5.146   4.011   6.726
 1122SOL    HW2 4266   5.175   4.106   6.856
 1123SOL     OW 4267   3.489   0.164   2.234
 1123SOL    HW1 4268   3.588   0.165   2.247
 1123SOL    HW2 4269   3.460   0.249   2.190
 1124SOL     OW 4270   0.805   4.137   4.762
 1124SOL    HW1 4271   0.887   4.131   4.706
 1124SOL    HW2 4272   0.807   4.065   4.832
 1125SOL     OW 4273   3.329   3.240   5.088
 1125SOL    HW1 4274   3.394   3.240   5.164
 1125SOL    HW2 4275   3.237   3.261   5.123
 1126SOL     OW 4276   5.359   6.382   1.969
 1126SOL    HW1 4277   5.401   6.451   2.028
 1126SOL    HW2 4278   5.421   6.304   1.959
 1127SOL     OW 4279   1.547   4.992   6.776
 1127SOL    HW1 4280   1.523   4.907   6.729
 1127SOL    HW2 4281   1.583   4.969   6.867
 1128SOL     OW 4282   2.622   1.953   4.857
 1128SOL    HW1 4283   2.627   2.051   4.873
 1128SOL    HW2 4284   2.709   1.921   4.819
 1129SOL     OW 4285   5.661   0.560   6.809
 1129SOL    HW1 4286   5.569   0.597   6.794
 1129SOL    HW2 4287   5.729   0.627   6.780
 1130SOL     OW 4288   0.207   4.665   6.651
 1130SOL    HW1 4289   0.113   4.670   6.619
 1130SOL    HW2 4290   0.217   4.587   6.714
 1131SOL     OW 4291   0.518   5.340   5.638
 1131SOL    HW1 4292   0.477   5.249   5.649
 1131SOL    HW2 4293   0.513   5.367   5.542
 1132SOL     OW 4294   5.766   6.660   5.370
 1132SOL    HW1 4295   5.781   6.708   5.283
 1132SOL    HW2 4296   5.668   6.654   5.387
 1133SOL     OW 4297   0.106   3.863   1.696
 1133SOL    HW1 4298   0.138   3.955   1.720
 1133SOL    HW2 4299   0.162   3.827   1.622
 1134SOL     OW 4300   5.100   2.427   6.183
 1134SOL    HW1 4301   5.150   2.341   6.197
 1134SOL    HW2 4302   5.131   2.471   6.100
 1135SOL     OW 4303   2.958   2.209   2.975
 1135SOL    HW1 4304   3.052   2.220   2.944
 1135SOL    HW2 4305   2.957   2.195   3.074
 1136SOL     OW 4306   3.230   5.181   3.855
 1136SOL    HW1 4307   3.201   5.264   3.903
 1136SOL    HW2 4308   3.300   5.134   3.908
 1137SOL     OW 4309   1.636   0.991   6.139
 1137SOL    HW1 4310   1.572   0.938   6.195
 1137SOL    HW2 4311   1.729   0.975   6.171
 1138SOL     OW 4312   0.635   4.136   5.675
 1138SOL    HW1 4313   0.576   4.109   5.751
 1138SOL    HW2 4314   0.583   4.194   5.611
 1139SOL     OW 4315   1.544   6.160   2.001
 1139SOL    HW1 4316   1.488   6.090   1.956
 1139SOL    HW2 4317   1.586   6.219   1.932
 1140SOL     OW 4318   3.784   1.723   3.921
 1140SOL    HW1 4319   3.753   1.655   3.988
 1140SOL    HW2 4320   3.706   1.774   3.886
 1141SOL     OW 4321   6.428   5.533   5.277
 1141SOL    HW1 4322   6.402   5.629   5.267
 1141SOL    HW2 4323   6.346   5.479   5.298
 1142SOL     OW 4324   6.532   0.802   4.323
 1142SOL    HW1 4325   6.457   0.839   4.270
 1142SOL    HW2 4326   6.499   0.773   4.413
 1143SOL     OW 4327   4.334   1.985   2.811
 1143SOL    HW1 4328   4.387   1.920   2.758
 1143SOL    HW2 4329   4.354   2.078   2.779
 1144SOL     OW 4330   0.424   5.629   4.594
 1144SOL    HW1 4331   0.372   5.686   4.657
 1144SOL    HW2 4332   0.361   5.571   4.542
 1145SOL     OW 4333   0.833   5.802   4.825
 1145SOL    HW1 4334   0.803   5.828   4.734
 1145SOL    HW2 4335   0.796   5.866   4.892
 1146SOL     OW 4336   5.804   2.094   0.783
 1146SOL    HW1 4337   5.789   1.995   0.776
 1146SOL    HW2 4338   5.719   2.142   0.760
 1147SOL     OW 4339   6.793   2.787   1.945
 1147SOL    HW1 4340   6.830   2.807   1.855
 1147SOL    HW2 4341   6.699   2.752   1.936
 1148SOL     OW 4342   3.626   6.966   0.766
 1148SOL    HW1 4343   3.618   0.032   0.810
 1148SOL    HW2 4344   3.544   6.949   0.712
 1149SOL     OW 4345   6.208   2.980   1.821
 1149SOL    HW1 4346   6.202   2.982   1.921
 1149SOL    HW2 4347   6.254   3.062   1.788
 1150SOL     OW 4348   1.490   4.617   6.938
 1150SOL    HW1 4349   1.439   4.702   6.921
 1150SOL    HW2 4350   1.586   4.631   6.913
 1151SOL     OW 4351   4.760   5.262   6.353
 1151SOL    HW1 4352   4.788   5.358   6.343
 1151SOL    HW2 4353   4.837   5.203   6.327
 1152SOL     OW 4354   1.238   0.189   4.706
 1152SOL    HW1 4355   1.251   0.187   4.607
 1152SOL    HW2 4356   1.222   0.096   4.740
 1153SOL     OW 4357   2.179   5.058   3.252
 1153SOL    HW1 4358   2.099   5.003   3.273
 1153SOL    HW2 4359   2.261   5.001   3.255
 1154SOL     OW 4360   1.362   5.083   1.689
 1154SOL    HW1 4361   1.367   5.080   1.590
 1154SOL    HW2 4362   1.267   5.078   1.718
 1155SOL     OW 4363   3.530   5.967   1.711
 1155SOL    HW1 4364   3.465   6.042   1.698
 1155SOL    HW2 4365   3.485   5.892   1.760
 1156SOL     OW 4366   2.286   0.195   4.186
 1156SOL    HW1 4367   2.225   0.174   4.263
 1156SOL    HW2 4368   2.301   0.112   4.132
 1157SOL     OW 4369   0.756   2.815   4.054
 1157SOL    HW1 4370   0.726   2.729   4.013
 1157SOL    HW2 4371   0.700   2.890   4.017
 1158SOL     OW 4372   4.441   5.421   5.441
 1158SOL    HW1 4373   4.510   5.348   5.438
 1158SOL    HW2 4374   4.430   5.460   5.349
 1159SOL     OW 4375   4.552   5.138   3.675
 1159SOL    HW1 4376   4.505   5.089   3.748
 1159SOL    HW2 4377   4.645   5.104   3.667
 1160SOL     OW 4378   3.140   3.844   0.741
 1160SOL    HW1 4379   3.100   3.936   0.739
 1160SOL    HW2 4380   3.169   3.819   0.649
 1161SOL     OW 4381   5.328   0.950   3.591
 1161SOL    HW1 4382   5.323   0.868   3.649
 1161SOL    HW2 4383   5.284   1.027   3.638
 1162SOL     OW 4384   3.708   4.088   1.986
 1162SOL    HW1 4385   3.621   4.120   2.022
 1162SOL    HW2 4386   3.693   4.040   1.900
 1163SOL     OW 4387   5.075   2.187   2.864
 1163SOL    HW1 4388   5.064   2.146   2.774
 1163SOL    HW2 4389   5.128   2.124   2.922
 1164SOL     OW 4390   5.778   3.644   4.137
 1164SOL    HW1 4391   5.758   3.660   4.040
 1164SOL    HW2 4392   5.875   3.659   4.154
 1165SOL     OW 4393   0.948   4.981   2.939
 1165SOL    HW1 4394   1.004   5.058   2.908
 1165SOL    HW2 4395   1.007   4.911   2.979
 1166SOL     OW 4396   4.381   2.966   6.482
 1166SOL    HW1 4397   4.367   2.967   6.383
 1166SOL    HW2 4398   4.388   2.871   6.515
 1167SOL     OW 4399   4.619   1.677   5.205
 1167SOL    HW1 4400   4.607   1.610   5.132
 1167SOL    HW2 4401   4.698   1.735   5.184
 1168SOL     OW 4402   5.988   6.528   3.439
 1168SOL    HW1 4403   5.914   6.550   3.502
 1168SOL    HW2 4404   5.970   6.441   3.394
 1169SOL     OW 4405   0.478   3.385   1.963
 1169SOL    HW1 4406   0.401   3.444   1.989
 1169SOL    HW2 4407   0.562   3.439   1.964
 1170SOL     OW 4408   2.924   0.759   1.278
 1170SOL    HW1 4409   2.929   0.667   1.316
 1170SOL    HW2 4410   2.844   0.806   1.316
 1171SOL     OW 4411   2.937   6.460   0.407
 1171SOL    HW1 4412   2.987   6.527   0.353
 1171SOL    HW2 4413   2.961   6.368   0.376
 1172SOL     OW 4414   3.156   3.614   5.190
 1172SOL    HW1 4415   3.119   3.678   5.257
 1172SOL    HW2 4416   3.151   3.655   5.099
 1173SOL     OW 4417   3.607   1.049   6.578
 1173SOL    HW1 4418   3.540   1.110   6.621
 1173SOL    HW2 4419   3.617   0.966   6.633
 1174SOL     OW 4420   2.916   6.124   0.635
 1174SOL    HW1 4421   2.845   6.191   0.611
 1174SOL    HW2 4422   2.875   6.033   0.641
 1175SOL     OW 4423   6.051   4.825   6.151
 1175SOL    HW1 4424   6.048   4.739   6.100
 1175SOL    HW2 4425   6.061   4.806   6.249
 1176SOL     OW 4426   5.603   4.183   0.989
 1176SOL    HW1 4427   5.599   4.201   1.087
 1176SOL    HW2 4428   5.602   4.084   0.973
 1177SOL     OW 4429   6.510   2.573   6.173
 1177SOL    HW1 4430   6.541   2.479   6.157
 1177SOL    HW2 4431   6.419   2.571   6.214
 1178SOL     OW 4432   6.150   3.752   1.937
 1178SOL    HW1 4433   6.086   3.749   1.860
 1178SOL    HW2 4434   6.137   3.672   1.994
 1179SOL     OW 4435   2.822   5.704   6.312
 1179SOL    HW1 4436   2.753   5.640   6.278
 1179SOL    HW2 4437   2.885   5.728   6.238
 1180SOL     OW 4438   2.731   1.857   4.115
 1180SOL    HW1 4439   2.762   1.762   4.124
 1180SOL    HW2 4440   2.632   1.858   4.102
 1181SOL     OW 4441   2.252   4.158   3.042
 1181SOL    HW1 4442   2.332   4.200   3.084
 1181SOL    HW2 4443   2.200   4.227   2.992
 1182SOL     OW 4444   1.806   4.028   3.388
 1182SOL    HW1 4445   1.831   3.948   3.443
 1182SOL    HW2 4446   1.759   3.998   3.305
 1183SOL     OW 4447   4.541   5.456   1.252
 1183SOL    HW1 4448   4.499   5.525   1.311
 1183SOL    HW2 4449   4.509   5.365   1.280
 1184SOL     OW 4450   2.999   2.975   5.442
 1184SOL    HW1 4451   2.924   3.027   5.401
 1184SOL    HW2 4452   3.048   2.924   5.371
 1185SOL     OW 4453   1.890   1.238   6.573
 1185SOL    HW1 4454   1.989   1.252   6.581
 1185SOL    HW2 4455   1.854   1.300   6.502
 1186SOL     OW 4456   4.630   1.500   4.997
 1186SOL    HW1 4457   4.705   1.543   4.946
 1186SOL    HW2 4458   4.664   1.417   5.042
 1187SOL     OW 4459   6.497   0.601   5.534
 1187SOL    HW1 4460   6.582   0.601   5.587
 1187SOL    HW2 4461   6.504   0.667   5.459
 1188SOL     OW 4462   1.504   0.446   5.663
 1188SOL    HW1 4463   1.569   0.431   5.589
 1188SOL    HW2 4464   1.458   0.360   5.685
 1189SOL     OW 4465   5.607   1.001   1.902
 1189SOL    HW1 4466   5.549   0.993   1.983
 1189SOL    HW2 4467   5.583   1.085   1.853
 1190SOL     OW 4468   4.243   5.103   2.785
 1190SOL    HW1 4469   4.238   5.189   2.735
 1190SOL    HW2 4470   4.156   5.085   2.831
 1191SOL     OW 4471   3.556   5.434   6.321
 1191SOL    HW1 4472   3.629   5.382   6.364
 1191SOL    HW2 4473   3.545   5.521   6.369
 1192SOL     OW 4474   5.022   5.275   2.832
 1192SOL    HW1 4475   5.082   5.297   2.908
 1192SOL    HW2 4476   5.004   5.358   2.778
 1193SOL     OW 4477   4.875   0.743   3.744
 1193SOL    HW1 4478   4.898   0.650   3.772
 1193SOL    HW2 4479   4.779   0.762   3.764
 1194SOL     OW 4480   6.183   0.051   1.005
 1194SOL    HW1 4481   6.131   6.993   0.978
 1194SOL    HW2 4482   6.229   0.089   0.925
 1195SOL     OW 4483   4.519   0.784   6.516
 1195SOL    HW1 4484   4.528   0.828   6.605
 1195SOL    HW2 4485   4.526   0.685   6.526
 1196SOL     OW 4486   0.854   5.451   2.254
 1196SOL    HW1 4487   0.950   5.454   2.225
 1196SOL    HW2 4488   0.798   5.414   2.179
 1197SOL     OW 4489   3.522   5.143   6.036
 1197SOL    HW1 4490   3.563   5.234   6.031
 1197SOL    HW2 4491   3.558   5.094   6.116
 1198SOL     OW 4492   2.834   1.989   2.855
 1198SOL    HW1 4493   2.755   1.954   2.904
 1198SOL    HW2 4494   2.877   2.063   2.907
 1199SOL     OW 4495   4.137   3.537   2.890
 1199SOL    HW1 4496   4.154   3.441   2.865
 1199SOL    HW2 4497   4.115   3.543   2.987
 1200SOL     OW 4498   3.480   4.000   0.346
 1200SOL    HW1 4499   3.524   3.926   0.397
 1200SOL    HW2 4500   3.417   4.049   0.407
 1201SOL     OW 4501   1.195   0.912   5.248
 1201SOL    HW1 4502   1.290   0.945   5.245
 1201SOL    HW2 4503   1.139   0.978   5.298
 1202SOL     OW 4504   6.144   7.002   4.627
 1202SOL    HW1 4505   6.124   0.066   4.583
 1202SOL    HW2 4506   6.214   6.954   4.574
 1203SOL     OW 4507   5.245   0.179   1.634
 1203SOL    HW1 4508   5.283   0.104   1.687
 1203SOL    HW2 4509   5.199   0.143   1.553
 1204SOL     OW 4510   3.009   0.523   0.364
 1204SOL    HW1 4511   3.107   0.524   0.383
 1204SOL    HW2 4512   2.993   0.481   0.274
 1205SOL     OW 4513   6.892   2.815   5.469
 1205SOL    HW1 4514   6.914   2.909   5.441
 1205SOL    HW2 4515   6.868   2.814   5.566
 1206SOL     OW 4516   2.163   1.351   4.819
 1206SOL    HW1 4517   2.117   1.262   4.823
 1206SOL    HW2 4518   2.231   1.357   4.891
 1207SOL     OW 4519   5.706   7.005   6.567
 1207SOL    HW1 4520   5.668   0.012   6.654
 1207SOL    HW2 4521   5.688   6.908   6.555
 1208SOL     OW 4522   4.110   3.448   3.573
 1208SOL    HW1 4523   4.183   3.473   3.636
 1208SOL    HW2 4524   4.056   3.374   3.613
 1209SOL     OW 4525   5.941   5.344   4.109
 1209SOL    HW1 4526   6.009   5.358   4.181
 1209SOL    HW2 4527   5.987   5.313   4.025
 1210SOL     OW 4528   3.306   6.718   2.468
 1210SOL    HW1 4529   3.399   6.737   2.499
 1210SOL    HW2 4530   3.291   6.758   2.378
 1211SOL     OW 4531   0.604   4.220   4.546
 1211SOL    HW1 4532   0.523   4.239   4.602
 1211SOL    HW2 4533   0.673   4.174   4.601
 1212SOL     OW 4534   1.953   4.025   5.115
 1212SOL    HW1 4535   1.978   4.011   5.211
 1212SOL    HW2 4536   1.919   4.118   5.103
 1213SOL     OW 4537   5.831   2.126   5.804
 1213SOL    HW1 4538   5.797   2.106   5.712
 1213SOL    HW2 4539   5.819   2.046   5.862
 1214SOL     OW 4540   2.250   3.032   3.339
 1214SOL    HW1 4541   2.236   3.121   3.296
 1214SOL    HW2 4542   2.233   2.960   3.271
 1215SOL     OW 4543   0.930   4.622   1.687
 1215SOL    HW1 4544   0.892   4.630   1.780
 1215SOL    HW2 4545   0.891   4.694   1.630
 1216SOL     OW 4546   2.512   0.223   1.852
 1216SOL    HW1 4547   2.431   0.166   1.837
 1216SOL    HW2 4548   2.484   0.318   1.864
 1217SOL     OW 4549   1.184   0.258   2.016
 1217SOL    HW1 4550   1.175   0.225   2.109
 1217SOL    HW2 4551   1.243   0.339   2.015
 1218SOL     OW 4552   0.694   3.813   3.221
 1218SOL    HW1 4553   0.673   3.733   3.277
 1218SOL    HW2 4554   0.751   3.785   3.143
 1219SOL     OW 4555   3.289   5.808   2.415
 1219SOL    HW1 4556   3.204   5.822   2.466
 1219SOL    HW2 4557   3.367   5.833   2.473
 1220SOL     OW 4558   6.192   3.633   3.458
 1220SOL    HW1 4559   6.122   3.578   3.414
 1220SOL    HW2 4560   6.193   3.614   3.556
 1221SOL     OW 4561   4.801   3.314   6.944
 1221SOL    HW1 4562   4.821   3.275   6.855
 1221SOL    HW2 4563   4.703   3.334   6.950
 1222SOL     OW 4564   6.826   6.309   1.533
 1222SOL    HW1 4565   6.838   6.212   1.509
 1222SOL    HW2 4566   6.783   6.357   1.457
 1223SOL     OW 4567   6.364   6.865   5.721
 1223SOL    HW1 4568   6.393   6.947   5.672
 1223SOL    HW2 4569   6.364   6.787   5.658
 1224SOL     OW 4570   5.490   4.915   2.391
 1224SOL    HW1 4571   5.471   4.856   2.313
 1224SOL    HW2 4572   5.490   5.011   2.361
 1225SOL     OW 4573   4.748   2.393   6.837
 1225SOL    HW1 4574   4.744   2.474   6.897
 1225SOL    HW2 4575   4.752   2.310   6.893
 1226SOL     OW 4576   5.563   5.517   0.915
 1226SOL    HW1 4577   5.574   5.483   1.009
 1226SOL    HW2 4578   5.609   5.454   0.852
 1227SOL     OW 4579   4.691   4.199   6.231
 1227SOL    HW1 4580   4.642   4.284   6.247
 1227SOL    HW2 4581   4.728   4.198   6.138
 1228SOL     OW 4582   3.571   2.973   2.998
 1228SOL    HW1 4583   3.600   2.935   3.086
 1228SOL    HW2 4584   3.610   3.065   2.987
 1229SOL     OW 4585   2.200   5.234   3.042
 1229SOL    HW1 4586   2.180   5.190   3.130
 1229SOL    HW2 4587   2.286   5.197   3.005
 1230SOL     OW 4588   5.398   5.142   1.409
 1230SOL    HW1 4589   5.412   5.186   1.321
 1230SOL    HW2 4590   5.447   5.192   1.480
 1231SOL     OW 4591   1.584   2.307   6.184
 1231SOL    HW1 4592   1.652   2.301   6.258
 1231SOL    HW2 4593   1.610   2.380   6.121
 1232SOL     OW 4594   3.382   0.401   5.602
 1232SOL    HW1 4595   3.352   0.352   5.520
 1232SOL    HW2 4596   3.334   0.365   5.682
 1233SOL     OW 4597   0.486   5.401   5.369
 1233SOL    HW1 4598   0.581   5.379   5.348
 1233SOL    HW2 4599   0.477   5.501   5.379
 1234SOL     OW 4600   6.932   3.081   0.156
 1234SOL    HW1 4601   6.852   3.023   0.138
 1234SOL    HW2 4602   6.951   3.138   0.076
 1235SOL     OW 4603   6.107   5.335   0.805
 1235SOL    HW1 4604   6.112   5.242   0.769
 1235SOL    HW2 4605   6.194   5.359   0.849
 1236SOL     OW 4606   1.059   2.014   2.282
 1236SOL    HW1 4607   1.124   2.004   2.357
 1236SOL    HW2 4608   0.970   2.042   2.319
 1237SOL     OW 4609   0.679   6.929   4.532
 1237SOL    HW1 4610   0.750   6.859   4.518
 1237SOL    HW2 4611   0.660   6.937   4.630
 1238SOL     OW 4612   0.399   0.472   4.569
 1238SOL    HW1 4613   0.348   0.501   4.488
 1238SOL    HW2 4614   0.391   0.542   4.640
 1239SOL     OW 4615   5.777   4.688   4.847
 1239SOL    HW1 4616   5.706   4.620   4.866
 1239SOL    HW2 4617   5.820   4.715   4.933
 1240SOL     OW 4618   6.347   4.470   3.221
 1240SOL    HW1 4619   6.430   4.415   3.222
 1240SOL    HW2 4620   6.341   4.524   3.305
 1241SOL     OW 4621   4.502   5.037   5.118
 1241SOL    HW1 4622   4.594   5.003   5.141
 1241SOL    HW2 4623   4.477   5.111   5.180
 1242SOL     OW 4624   1.139   4.990   6.794
 1242SOL    HW1 4625   1.072   4.918   6.811
 1242SOL    HW2 4626   1.131   5.022   6.700
 1243SOL     OW 4627   1.147   4.289   4.652
 1243SOL    HW1 4628   1.070   4.277   4.590
 1243SOL    HW2 4629   1.141   4.378   4.697
 1244SOL     OW 4630   5.675   0.481   5.129
 1244SOL    HW1 4631   5.691   0.483   5.227
 1244SOL    HW2 4632   5.677   0.574   5.093
 1245SOL     OW 4633   4.752   6.914   1.251
 1245SOL    HW1 4634   4.845   6.912   1.214
 1245SOL    HW2 4635   4.747   6.855   1.332
 1246SOL     OW 4636   5.114   1.258   6.943
 1246SOL    HW1 4637   5.134   1.356   6.936
 1246SOL    HW2 4638   5.120   1.230   0.016
 1247SOL     OW 4639   0.260   6.933   3.743
 1247SOL    HW1 4640   0.195   6.880   3.687
 1247SOL    HW2 4641   0.215   6.959   3.828
 1248SOL     OW 4642   1.440   6.480   4.178
 1248SOL    HW1 4643   1.519   6.482   4.117
 1248SOL    HW2 4644   1.405   6.573   4.190
 1249SOL     OW 4645   5.699   5.002   6.824
 1249SOL    HW1 4646   5.666   4.908   6.819
 1249SOL    HW2 4647   5.799   5.002   6.817
 1250SOL     OW 4648   6.571   3.296   4.902
 1250SOL    HW1 4649   6.559   3.277   4.804
 1250SOL    HW2 4650   6.560   3.211   4.954
 1251SOL     OW 4651   3.042   0.431   2.698
 1251SOL    HW1 4652   2.976   0.501   2.671
 1251SOL    HW2 4653   3.065   0.375   2.618
 1252SOL     OW 4654   1.898   5.602   6.912
 1252SOL    HW1 4655   1.889   5.688   6.862
 1252SOL    HW2 4656   1.989   5.564   6.896
 1253SOL     OW 4657   3.051   1.074   0.984
 1253SOL    HW1 4658   2.975   1.013   0.962
 1253SOL    HW2 4659   3.065   1.077   1.083
 1254SOL     OW 4660   6.343   1.147   2.126
 1254SOL    HW1 4661   6.341   1.080   2.201
 1254SOL    HW2 4662   6.340   1.099   2.039
 1255SOL     OW 4663   5.751   1.540   5.360
 1255SOL    HW1 4664   5.842   1.556   5.324
 1255SOL    HW2 4665   5.709   1.462   5.312
 1256SOL     OW 4666   1.334   5.419   4.335
 1256SOL    HW1 4667   1.305   5.338   4.284
 1256SOL    HW2 4668   1.303   5.501   4.288
 1257SOL     OW 4669   0.733   5.710   3.708
 1257SOL    HW1 4670   0.639   5.739   3.694
 1257SOL    HW2 4671   0.749   5.624   3.660
 1258SOL     OW 4672   4.480   6.694   4.860
 1258SOL    HW1 4673   4.473   6.777   4.805
 1258SOL    HW2 4674   4.499   6.616   4.800
 1259SOL     OW 4675   6.034   0.129   4.155
 1259SOL    HW1 4676   6.017   0.219   4.194
 1259SOL    HW2 4677   6.001   0.058   4.217
 1260SOL     OW 4678   2.578   0.828   1.825
 1260SOL    HW1 4679   2.605   0.830   1.729
 1260SOL    HW2 4680   2.557   0.921   1.855
 1261SOL     OW 4681   6.426   4.505   6.363
 1261SOL    HW1 4682   6.435   4.498   6.264
 1261SOL    HW2 4683   6.392   4.596   6.387
 1262SOL     OW 4684   4.440   5.141   0.820
 1262SOL    HW1 4685   4.373   5.215   0.820
 1262SOL    HW2 4686   4.454   5.108   0.913
 1263SOL     OW 4687   6.820   2.362   1.125
 1263SOL    HW1 4688   6.888   2.299   1.163
 1263SOL    HW2 4689   6.728   2.331   1.151
 1264SOL     OW 4690   0.415   3.434   3.411
 1264SOL    HW1 4691   0.432   3.510   3.349
 1264SOL    HW2 4692   0.337   3.380   3.378
 1265SOL     OW 4693   6.406   5.010   5.224
 1265SOL    HW1 4694   6.346   5.028   5.146
 1265SOL    HW2 4695   6.383   4.921   5.264
 1266SOL     OW 4696   2.858   2.083   4.548
 1266SOL    HW1 4697   2.951   2.119   4.560
 1266SOL    HW2 4698   2.826   2.103   4.456
 1267SOL     OW 4699   0.176   4.962   2.714
 1267SOL    HW1 4700   0.195   5.059   2.702
 1267SOL    HW2 4701   0.258   4.917   2.749
 1268SOL     OW 4702   6.090   3.025   0.062
 1268SOL    HW1 4703   6.067   2.949   0.001
 1268SOL    HW2 4704   6.030   3.022   0.142
 1269SOL     OW 4705   6.856   5.340   5.455
 1269SOL    HW1 4706   6.870   5.249   5.416
 1269SOL    HW2 4707   6.901   5.346   5.544
 1270SOL     OW 4708   2.012   3.075   4.839
 1270SOL    HW1 4709   2.010   3.147   4.909
 1270SOL    HW2 4710   1.925   3.074   4.790
 1271SOL     OW 4711   4.165   0.884   2.340
 1271SOL    HW1 4712   4.222   0.939   2.279
 1271SOL    HW2 4713   4.196   0.896   2.434
 1272SOL     OW 4714   0.624   5.637   1.665
 1272SOL    HW1 4715   0.648   5.717   1.609
 1272SOL    HW2 4716   0.524   5.628   1.668
 1273SOL     OW 4717   2.469   6.129   6.673
 1273SOL    HW1 4718   2.492   6.031   6.678
 1273SOL    HW2 4719   2.494   6.172   6.760
 1274SOL     OW 4720   0.014   2.359   1.712
 1274SOL    HW1 4721   0.013   2.317   1.621
 1274SOL    HW2 4722   0.063   2.299   1.775
 1275SOL     OW 4723   3.436   1.736   4.306
 1275SOL    HW1 4724   3.398   1.828   4.291
 1275SOL    HW2 4725   3.524   1.728   4.261
 1276SOL     OW 4726   6.910   7.021   3.375
 1276SOL    HW1 4727   7.003   6.998   3.405
 1276SOL    HW2 4728   6.875   0.074   3.428
 1277SOL     OW 4729   0.216   0.399   5.116
 1277SOL    HW1 4730   0.178   0.464   5.182
 1277SOL    HW2 4731   0.238   0.313   5.163
 1278SOL     OW 4732   2.010   1.936   5.775
 1278SOL    HW1 4733   1.994   1.838   5.783
 1278SOL    HW2 4734   2.107   1.952   5.756
 1279SOL     OW 4735   2.813   5.354   0.111
 1279SOL    HW1 4736   2.828   5.357   0.012
 1279SOL    HW2 4737   2.811   5.259   0.142
 1280SOL     OW 4738   2.905   6.799   3.523
 1280SOL    HW1 4739   2.840   6.727   3.548
 1280SOL    HW2 4740   2.918   6.800   3.424
 1281SOL     OW 4741   1.092   6.255   3.343
 1281SOL    HW1 4742   1.006   6.231   3.298
 1281SOL    HW2 4743   1.153   6.299   3.277
 1282SOL     OW 4744   0.406   1.005   1.815
 1282SOL    HW1 4745   0.400   0.928   1.751
 1282SOL    HW2 4746   0.473   1.071   1.782
 1283SOL     OW 4747   5.619   5.193   5.302
 1283SOL    HW1 4748   5.596   5.228   5.393
 1283SOL    HW2 4749   5.543   5.211   5.239
 1284SOL     OW 4750   2.647   2.548   1.794
 1284SOL    HW1 4751   2.607   2.587   1.877
 1284SOL    HW2 4752   2.711   2.475   1.818
 1285SOL     OW 4753   4.341   2.640   5.292
 1285SOL    HW1 4754   4.325   2.738   5.302
 1285SOL    HW2 4755   4.258   2.595   5.261
 1286SOL     OW 4756   5.907   4.771   1.944
 1286SOL    HW1 4757   5.904   4.674   1.921
 1286SOL    HW2 4758   5.922   4.782   2.042
 1287SOL     OW 4759   7.005   5.760   6.602
 1287SOL    HW1 4760   6.966   5.845   6.568
 1287SOL    HW2 4761   6.933   5.692   6.612
 1288SOL     OW 4762   6.522   3.352   1.085
 1288SOL    HW1 4763   6.460   3.412   1.136
 1288SOL    HW2 4764   6.483   3.332   0.996
 1289SOL     OW 4765   0.925   5.885   2.689
 1289SOL    HW1 4766   0.948   5.795   2.725
 1289SOL    HW2 4767   0.835   5.881   2.644
 1290SOL     OW 4768   0.808   5.874   0.884
 1290SOL    HW1 4769   0.815   5.910   0.791
 1290SOL    HW2 4770   0.848   5.939   0.948
 1291SOL     OW 4771   1.733   6.076   0.084
 1291SOL    HW1 4772   1.807   6.020   0.047
 1291SOL    HW2 4773   1.733   6.165   0.040
 1292SOL     OW 4774   0.832   5.683   0.419
 1292SOL    HW1 4775   0.905   5.726   0.365
 1292SOL    HW2 4776   0.810   5.741   0.497
 1293SOL     OW 4777   0.589   2.418   6.325
 1293SOL    HW1 4778   0.592   2.342   6.389
 1293SOL    HW2 4779   0.619   2.386   6.235
 1294SOL     OW 4780   0.448   2.553   2.405
 1294SOL    HW1 4781   0.489   2.614   2.338
 1294SOL    HW2 4782   0.464   2.458   2.377
 1295SOL     OW 4783   5.901   2.525   1.703
 1295SOL    HW1 4784   5.964   2.550   1.630
 1295SOL    HW2 4785   5.808   2.527   1.669
 1296SOL     OW 4786   3.422   2.001   6.310
 1296SOL    HW1 4787   3.496   2.016   6.375
 1296SOL    HW2 4788   3.423   2.073   6.241
 1297SOL     OW 4789   6.725   1.593   5.832
 1297SOL    HW1 4790   6.752   1.567   5.924
 1297SOL    HW2 4791   6.703   1.510   5.779
 1298SOL     OW 4792   6.162   2.551   3.362
 1298SOL    HW1 4793   6.115   2.574   3.448
 1298SOL    HW2 4794   6.257   2.583   3.366
 1299SOL     OW 4795   1.449   3.709   3.943
 1299SOL    HW1 4796   1.494   3.797   3.932
 1299SOL    HW2 4797   1.370   3.718   4.004
 1300SOL     OW 4798   3.627   2.979   1.852
 1300SOL    HW1 4799   3.605   2.911   1.782
 1300SOL    HW2 4800   3.723   2.968   1.880
 1301SOL     OW 4801   1.401   6.779   4.123
 1301SOL    HW1 4802   1.489   6.815   4.093
 1301SOL    HW2 4803   1.338   6.775   4.046
 1302SOL     OW 4804   3.107   6.232   4.783
 1302SOL    HW1 4805   3.178   6.272   4.725
 1302SOL    HW2 4806   3.094   6.136   4.758
 1303SOL     OW 4807   3.484   1.675   0.960
 1303SOL    HW1 4808   3.411   1.656   1.026
 1303SOL    HW2 4809   3.446   1.677   0.868
 1304SOL     OW 4810   2.796   0.598   6.588
 1304SOL    HW1 4811   2.887   0.630   6.561
 1304SOL    HW2 4812   2.736   0.596   6.508
 1305SOL     OW 4813   4.749   0.347   5.132
 1305SOL    HW1 4814   4.821   0.279   5.114
 1305SOL    HW2 4815   4.785   0.418   5.192
 1306SOL     OW 4816   0.611   4.447   4.319
 1306SOL    HW1 4817   0.591   4.400   4.406
 1306SOL    HW2 4818   0.693   4.408   4.279
 1307SOL     OW 4819   1.389   2.156   4.137
 1307SOL    HW1 4820   1.429   2.112   4.217
 1307SOL    HW2 4821   1.335   2.235   4.165
 1308SOL     OW 4822   4.712   6.348   3.678
 1308SOL    HW1 4823   4.810   6.329   3.691
 1308SOL    HW2 4824   4.661   6.262   3.680
 1309SOL     OW 4825   6.527   2.808   4.615
 1309SOL    HW1 4826   6.545   2.727   4.671
 1309SOL    HW2 4827   6.492   2.882   4.673
 1310SOL     OW 4828   5.794   3.831   4.578
 1310SOL    HW1 4829   5.858   3.907   4.589
 1310SOL    HW2 4830   5.712   3.864   4.531
 1311SOL     OW 4831   6.311   5.795   5.310
 1311SOL    HW1 4832   6.366   5.874   5.282
 1311SOL    HW2 4833   6.216   5.823   5.322
 1312SOL     OW 4834   0.783   6.746   0.630
 1312SOL    HW1 4835   0.717   6.762   0.704
 1312SOL    HW2 4836   0.754   6.666   0.577
 1313SOL     OW 4837   3.462   5.305   4.844
 1313SOL    HW1 4838   3.464   5.390   4.792
 1313SOL    HW2 4839   3.389   5.310   4.913
 1314SOL     OW 4840   0.786   1.390   5.265
 1314SOL    HW1 4841   0.880   1.411   5.291
 1314SOL    HW2 4842   0.756   1.308   5.314
 1315SOL     OW 4843   2.271   1.439   2.188
 1315SOL    HW1 4844   2.244   1.443   2.284
 1315SOL    HW2 4845   2.253   1.527   2.144
 1316SOL     OW 4846   2.963   6.751   3.931
 1316SOL    HW1 4847   2.924   6.839   3.958
 1316SOL    HW2 4848   3.049   6.766   3.884
 1317SOL     OW 4849   6.736   5.225   4.203
 1317SOL    HW1 4850   6.771   5.306   4.156
 1317SOL    HW2 4851   6.809   5.156   4.209
 1318SOL     OW 4852   0.468   6.739   0.529
 1318SOL    HW1 4853   0.540   6.675   0.503
 1318SOL    HW2 4854   0.388   6.724   0.472
 1319SOL     OW 4855   6.231   1.201   6.832
 1319SOL    HW1 4856   6.211   1.261   6.754
 1319SOL    HW2 4857   6.234   1.255   6.916
 1320SOL     OW 4858   5.334   5.341   5.866
 1320SOL    HW1 4859   5.430   5.367   5.861
 1320SOL    HW2 4860   5.325   5.242   5.851
 1321SOL     OW 4861   3.352   2.409   0.116
 1321SOL    HW1 4862   3.414   2.336   0.145
 1321SOL    HW2 4863   3.400   2.497   0.121
 1322SOL     OW 4864   6.650   1.426   4.034
 1322SOL    HW1 4865   6.622   1.387   4.122
 1322SOL    HW2 4866   6.653   1.353   3.966
 1323SOL     OW 4867   6.956   1.831   4.869
 1323SOL    HW1 4868   6.976   1.858   4.775
 1323SOL    HW2 4869   6.954   1.912   4.927
 1324SOL     OW 4870   1.575   3.559   1.681
 1324SOL    HW1 4871   1.651   3.516   1.633
 1324SOL    HW2 4872   1.544   3.639   1.630
 1325SOL     OW 4873   2.992   5.981   2.918
 1325SOL    HW1 4874   2.982   5.896   2.865
 1325SOL    HW2 4875   3.070   6.032   2.882
 1326SOL     OW 4876   5.675   3.360   4.441
 1326SOL    HW1 4877   5.630   3.427   4.500
 1326SOL    HW2 4878   5.752   3.319   4.490
 1327SOL     OW 4879   4.006   5.301   3.097
 1327SOL    HW1 4880   3.918   5.255   3.097
 1327SOL    HW2 4881   3.992   5.399   3.116
 1328SOL     OW 4882   2.144   2.253   6.469
 1328SOL    HW1 4883   2.085   2.296   6.538
 1328SOL    HW2 4884   2.207   2.190   6.513
 1329SOL     OW 4885   0.457   1.281   0.223
 1329SOL    HW1 4886   0.479   1.326   0.310
 1329SOL    HW2 4887   0.536   1.286   0.162
 1330SOL     OW 4888   6.695   6.814   1.205
 1330SOL    HW1 4889   6.697   6.899   1.258
 1330SOL    HW2 4890   6.601   6.779   1.203
 1331SOL     OW 4891   5.039   0.405   1.958
 1331SOL    HW1 4892   4.973   0.478   1.977
 1331SOL    HW2 4893   5.128   0.445   1.936
 1332SOL     OW 4894   4.454   1.406   1.279
 1332SOL    HW1 4895   4.451   1.463   1.197
 1332SOL    HW2 4896   4.471   1.311   1.254
 1333SOL     OW 4897   3.988   4.051   5.041
 1333SOL    HW1 4898   4.037   4.129   5.079
 1333SOL    HW2 4899   3.889   4.068   5.045
 1334SOL     OW 4900   0.097   4.114   4.440
 1334SOL    HW1 4901   0.125   4.080   4.530
 1334SOL    HW2 4902   0.082   4.036   4.378
 1335SOL     OW 4903   2.388   4.870   3.305
 1335SOL    HW1 4904   2.437   4.787   3.333
 1335SOL    HW2 4905   2.449   4.929   3.253
 1336SOL     OW 4906   0.650   0.758   5.252
 1336SOL    HW1 4907   0.616   0.664   5.252
 1336SOL    HW2 4908   0.584   0.817   5.298
 1337SOL     OW 4909   1.949   2.292   6.028
 1337SOL    HW1 4910   1.983   2.386   6.023
 1337SOL    HW2 4911   1.972   2.253   6.117
 1338SOL     OW 4912   4.266   5.470   6.816
 1338SOL    HW1 4913   4.188   5.429   6.768
 1338SOL    HW2 4914   4.350   5.423   6.789
 1339SOL     OW 4915   6.405   4.229   5.278
 1339SOL    HW1 4916   6.364   4.140   5.255
 1339SOL    HW2 4917   6.504   4.223   5.271
 1340SOL     OW 4918   1.421   2.249   0.623
 1340SOL    HW1 4919   1.423   2.151   0.602
 1340SOL    HW2 4920   1.396   2.300   0.541
 1341SOL     OW 4921   3.686   1.473   3.753
 1341SOL    HW1 4922   3.710   1.474   3.656
 1341SOL    HW2 4923   3.590   1.498   3.765
 1342SOL     OW 4924   0.567   6.772   0.786
 1342SOL    HW1 4925   0.497   6.740   0.722
 1342SOL    HW2 4926   0.522   6.816   0.864
 1343SOL     OW 4927   3.811   5.589   3.468
 1343SOL    HW1 4928   3.723   5.592   3.516
 1343SOL    HW2 4929   3.886   5.597   3.533
 1344SOL     OW 4930   6.101   0.922   2.630
 1344SOL    HW1 4931   6.118   0.961   2.721
 1344SOL    HW2 4932   6.160   0.843   2.616
 1345SOL     OW 4933   0.470   0.194   2.584
 1345SOL    HW1 4934   0.518   0.264   2.531
 1345SOL    HW2 4935   0.445   0.118   2.523
 1346SOL     OW 4936   0.375   0.474   3.649
 1346SOL    HW1 4937   0.366   0.574   3.658
 1346SOL    HW2 4938   0.387   0.451   3.553
 1347SOL     OW 4939   6.175   6.887   3.648
 1347SOL    HW1 4940   6.262   6.865   3.691
 1347SOL    HW2 4941   6.103   6.828   3.686
 1348SOL     OW 4942   5.898   4.364   4.541
 1348SOL    HW1 4943   5.812   4.410   4.516
 1348SOL    HW2 4944   5.973   4.429   4.533
 1349SOL     OW 4945   3.755   3.025   6.652
 1349SOL    HW1 4946   3.844   3.004   6.611
 1349SOL    HW2 4947   3.765   3.029   6.752
 1350SOL     OW 4948   3.104   0.610   6.565
 1350SOL    HW1 4949   3.175   0.660   6.615
 1350SOL    HW2 4950   3.051   0.555   6.629
 1351SOL     OW 4951   0.436   0.991   3.731
 1351SOL    HW1 4952   0.519   0.989   3.677
 1351SOL    HW2 4953   0.456   0.963   3.825
 1352SOL     OW 4954   0.345   0.853   3.473
 1352SOL    HW1 4955   0.392   0.912   3.539
 1352SOL    HW2 4956   0.403   0.840   3.392
 1353SOL     OW 4957   0.916   4.108   3.889
 1353SOL    HW1 4958   0.871   4.179   3.834
 1353SOL    HW2 4959   0.848   4.039   3.915
 1354SOL     OW 4960   0.441   6.475   2.829
 1354SOL    HW1 4961   0.488   6.534   2.763
 1354SOL    HW2 4962   0.349   6.510   2.846
 1355SOL     OW 4963   4.611   2.793   0.186
 1355SOL    HW1 4964   4.524   2.745   0.193
 1355SOL    HW2 4965   4.632   2.837   0.274
 1356SOL     OW 4966   3.553   3.413   2.502
 1356SOL    HW1 4967   3.540   3.336   2.564
 1356SOL    HW2 4968   3.615   3.479   2.544
 1357SOL     OW 4969   2.705   2.927   5.562
 1357SOL    HW1 4970   2.719   2.831   5.536
 1357SOL    HW2 4971   2.684   2.932   5.660
 1358SOL     OW 4972   2.024   2.613   6.400
 1358SOL    HW1 4973   2.099   2.629   6.336
 1358SOL    HW2 4974   2.031   2.676   6.477
 1359SOL     OW 4975   6.295   2.112   0.236
 1359SOL    HW1 4976   6.269   2.030   0.288
 1359SOL    HW2 4977   6.299   2.090   0.139
 1360SOL     OW 4978   3.738   3.817   4.065
 1360SOL    HW1 4979   3.744   3.916   4.059
 1360SOL    HW2 4980   3.759   3.788   4.158
 1361SOL     OW 4981   1.057   6.137   0.229
 1361SOL    HW1 4982   1.132   6.164   0.290
 1361SOL    HW2 4983   1.077   6.168   0.136
 1362SOL     OW 4984   2.902   3.126   6.063
 1362SOL    HW1 4985   2.901   3.108   6.162
 1362SOL    HW2 4986   2.985   3.087   6.023
 1363SOL     OW 4987   6.393   6.439   2.553
 1363SOL    HW1 4988   6.461   6.490   2.500
 1363SOL    HW2 4989   6.435   6.356   2.589
 1364SOL     OW 4990   6.663   3.591   1.029
 1364SOL    HW1 4991   6.646   3.496   1.055
 1364SOL    HW2 4992   6.649   3.650   1.108
 1365SOL     OW 4993   0.386   3.860   6.685
 1365SOL    HW1 4994   0.412   3.927   6.753
 1365SOL    HW2 4995   0.287   3.865   6.670
 1366SOL     OW 4996   6.431   1.600   0.596
 1366SOL    HW1 4997   6.481   1.687   0.589
 1366SOL    HW2 4998   6.354   1.601   0.532
 1367SOL     OW 4999   0.426   5.942   4.333
 1367SOL    HW1 5000   0.331   5.967   4.314
 1367SOL    HW2 5001   0.477   6.024   4.360
 1368SOL     OW 5002   0.241   6.993   4.975
 1368SOL    HW1 5003   0.325   6.962   5.021
 1368SOL    HW2 5004   0.195   6.914   4.934
 1369SOL     OW 5005   2.864   6.366   3.255
 1369SOL    HW1 5006   2.771   6.337   3.276
 1369SOL    HW2 5007   2.884   6.348   3.159
 1370SOL     OW 5008   6.493   2.762   3.103
 1370SOL    HW1 5009   6.482   2.859   3.080
 1370SOL    HW2 5010   6.404   2.716   3.098
 1371SOL     OW 5011   6.187   1.798   5.272
 1371SOL    HW1 5012   6.222   1.758   5.188
 1371SOL    HW2 5013   6.222   1.891   5.282
 1372SOL     OW 5014   6.522   2.798   7.003
 1372SOL    HW1 5015   6.597   2.733   7.011
 1372SOL    HW2 5016   6.502   2.815   6.907
 1373SOL     OW 5017   4.541   2.553   2.177
 1373SOL    HW1 5018   4.455   2.508   2.200
 1373SOL    HW2 5019   4.528   2.652   2.181
 1374SOL     OW 5020   4.681   5.313   0.542
 1374SOL    HW1 5021   4.710   5.270   0.627
 1374SOL    HW2 5022   4.721   5.405   0.535
 1375SOL     OW 5023   6.087   5.740   4.766
 1375SOL    HW1 5024   6.008   5.801   4.776
 1375SOL    HW2 5025   6.089   5.705   4.672
 1376SOL     OW 5026   2.121   5.333   6.130
 1376SOL    HW1 5027   2.101   5.266   6.201
 1376SOL    HW2 5028   2.057   5.323   6.055
 1377SOL     OW 5029   1.293   1.302   2.805
 1377SOL    HW1 5030   1.309   1.203   2.803
 1377SOL    HW2 5031   1.212   1.322   2.860
 1378SOL     OW 5032   4.935   2.645   4.349
 1378SOL    HW1 5033   4.996   2.707   4.398
 1378SOL    HW2 5034   4.985   2.602   4.274
 1379SOL     OW 5035   5.135   5.308   1.191
 1379SOL    HW1 5036   5.102   5.308   1.096
 1379SOL    HW2 5037   5.126   5.399   1.230
 1380SOL     OW 5038   0.217   5.544   1.424
 1380SOL    HW1 5039   0.140   5.545   1.360
 1380SOL    HW2 5040   0.302   5.536   1.372
 1381SOL     OW 5041   6.074   2.393   5.894
 1381SOL    HW1 5042   6.030   2.406   5.983
 1381SOL    HW2 5043   6.158   2.447   5.891
 1382SOL     OW 5044   4.417   3.006   0.731
 1382SOL    HW1 5045   4.473   3.087   0.748
 1382SOL    HW2 5046   4.349   3.027   0.661
 1383SOL     OW 5047   0.432   0.752   1.967
 1383SOL    HW1 5048   0.449   0.842   1.927
 1383SOL    HW2 5049   0.463   0.752   2.062
 1384SOL     OW 5050   5.253   1.000   1.563
 1384SOL    HW1 5051   5.295   0.912   1.583
 1384SOL    HW2 5052   5.311   1.051   1.500
 1385SOL     OW 5053   1.800   5.600   2.233
 1385SOL    HW1 5054   1.846   5.623   2.147
 1385SOL    HW2 5055   1.780   5.684   2.284
 1386SOL     OW 5056   3.128   5.701   4.125
 1386SOL    HW1 5057   3.031   5.709   4.103
 1386SOL    HW2 5058   3.142   5.627   4.190
 1387SOL     OW 5059   3.633   6.014   2.025
 1387SOL    HW1 5060   3.537   6.038   2.037
 1387SOL    HW2 5061   3.640   5.924   1.981
 1388SOL     OW 5062   6.955   0.251   1.367
 1388SOL    HW1 5063   7.003   0.171   1.405
 1388SOL    HW2 5064   6.857   0.233   1.366
 1389SOL     OW 5065   6.468   0.893   3.242
 1389SOL    HW1 5066   6.485   0.961   3.170
 1389SOL    HW2 5067   6.372   0.865   3.239
 1390SOL     OW 5068   6.813   1.985   5.701
 1390SOL    HW1 5069   6.794   2.058   5.767
 1390SOL    HW2 5070   6.750   1.909   5.716
 1391SOL     OW 5071   6.797   1.702   3.000
 1391SOL    HW1 5072   6.877   1.761   2.986
 1391SOL    HW2 5073   6.796   1.631   2.930
 1392SOL     OW 5074   4.764   5.011   5.370
 1392SOL    HW1 5075   4.850   5.012   5.422
 1392SOL    HW2 5076   4.754   5.098   5.322
 1393SOL     OW 5077   4.392   0.097   5.235
 1393SOL    HW1 5078   4.419   0.008   5.198
 1393SOL    HW2 5079   4.361   0.086   5.330
 1394SOL     OW 5080   2.826   5.744   5.473
 1394SOL    HW1 5081   2.751   5.779   5.529
 1394SOL    HW2 5082   2.870   5.819   5.425
 1395SOL     OW 5083   3.734   4.775   5.872
 1395SOL    HW1 5084   3.808   4.780   5.805
 1395SOL    HW2 5085   3.679   4.693   5.855
 1396SOL     OW 5086   6.360   6.159   4.461
 1396SOL    HW1 5087   6.346   6.068   4.421
 1396SOL    HW2 5088   6.274   6.193   4.498
 1397SOL     OW 5089   5.084   6.948   4.488
 1397SOL    HW1 5090   5.149   6.896   4.431
 1397SOL    HW2 5091   4.999   6.960   4.438
 1398SOL     OW 5092   1.351   1.519   5.344
 1398SOL    HW1 5093   1.254   1.503   5.367
 1398SOL    HW2 5094   1.359   1.601   5.288
 1399SOL     OW 5095   3.226   5.654   1.285
 1399SOL    HW1 5096   3.249   5.752   1.283
 1399SOL    HW2 5097   3.185   5.629   1.197
 1400SOL     OW 5098   6.534   0.800   2.127
 1400SOL    HW1 5099   6.475   0.847   2.062
 1400SOL    HW2 5100   6.603   0.747   2.077
 1401SOL     OW 5101   0.491   1.940   5.583
 1401SOL    HW1 5102   0.508   1.875   5.657
 1401SOL    HW2 5103   0.509   1.895   5.495
 1402SOL     OW 5104   0.211   3.131   0.288
 1402SOL    HW1 5105   0.245   3.181   0.208
 1402SOL    HW2 5106   0.118   3.098   0.269
 1403SOL     OW 5107   2.931   6.592   2.256
 1403SOL    HW1 5108   2.970   6.550   2.175
 1403SOL    HW2 5109   2.863   6.531   2.297
 1404SOL     OW 5110   5.746   0.696   0.051
 1404SOL    HW1 5111   5.687   0.636   7.021
 1404SOL    HW2 5112   5.741   0.670   0.148
 1405SOL     OW 5113   2.042   4.201   0.830
 1405SOL    HW1 5114   1.951   4.206   0.788
 1405SOL    HW2 5115   2.081   4.110   0.814
 1406SOL     OW 5116   0.659   4.020   1.736
 1406SOL    HW1 5117   0.669   4.120   1.741
 1406SOL    HW2 5118   0.681   3.980   1.825
 1407SOL     OW 5119   6.463   1.541   2.378
 1407SOL    HW1 5120   6.429   1.481   2.306
 1407SOL    HW2 5121   6.421   1.514   2.465
 1408SOL     OW 5122   5.474   0.789   6.233
 1408SOL    HW1 5123   5.410   0.803   6.308
 1408SOL    HW2 5124   5.567   0.807   6.264
 1409SOL     OW 5125   0.298   0.751   4.500
 1409SOL    HW1 5126   0.395   0.762   4.478
 1409SOL    HW2 5127   0.244   0.816   4.446
 1410SOL     OW 5128   0.635   3.000   0.064
 1410SOL    HW1 5129   0.543   2.962   0.062
 1410SOL    HW2 5130   0.697   2.937   0.110
 1411SOL     OW 5131   2.064   6.483   2.754
 1411SOL    HW1 5132   1.983   6.529   2.791
 1411SOL    HW2 5133   2.131   6.550   2.724
 1412SOL     OW 5134   1.624   3.065   0.378
 1412SOL    HW1 5135   1.545   3.009   0.355
 1412SOL    HW2 5136   1.653   3.047   0.472
 1413SOL     OW 5137   2.417   0.629   4.261
 1413SOL    HW1 5138   2.459   0.718   4.247
 1413SOL    HW2 5139   2.366   0.628   4.347
 1414SOL     OW 5140   2.583   2.032   2.037
 1414SOL    HW1 5141   2.640   2.063   1.961
 1414SOL    HW2 5142   2.554   2.111   2.091
 1415SOL     OW 5143   3.417   6.413   5.017
 1415SOL    HW1 5144   3.405   6.457   4.928
 1415SOL    HW2 5145   3.348   6.448   5.081
 1416SOL     OW 5146   4.260   4.685   2.587
 1416SOL    HW1 5147   4.216   4.695   2.497
 1416SOL    HW2 5148   4.190   4.690   2.658
 1417SOL     OW 5149   2.624   2.846   6.711
 1417SOL    HW1 5150   2.573   2.788   6.775
 1417SOL    HW2 5151   2.716   2.809   6.699
 1418SOL     OW 5152   3.208   4.097   2.860
 1418SOL    HW1 5153   3.133   4.160   2.840
 1418SOL    HW2 5154   3.250   4.068   2.774
 1419SOL     OW 5155   3.301   6.532   4.773
 1419SOL    HW1 5156   3.378   6.585   4.737
 1419SOL    HW2 5157   3.278   6.459   4.709
 1420SOL     OW 5158   1.153   6.317   2.561
 1420SOL    HW1 5159   1.232   6.275   2.606
 1420SOL    HW2 5160   1.178   6.344   2.468
 1421SOL     OW 5161   2.103   2.179   2.938
 1421SOL    HW1 5162   2.181   2.212   2.991
 1421SOL    HW2 5163   2.065   2.254   2.884
 1422SOL     OW 5164   2.077   4.919   1.942
 1422SOL    HW1 5165   1.994   4.867   1.959
 1422SOL    HW2 5166   2.128   4.930   2.027
 1423SOL     OW 5167   5.178   6.442   2.597
 1423SOL    HW1 5168   5.144   6.349   2.609
 1423SOL    HW2 5169   5.106   6.499   2.557
 1424SOL     OW 5170   5.519   4.856   4.999
 1424SOL    HW1 5171   5.607   4.856   4.952
 1424SOL    HW2 5172   5.531   4.831   5.095
 1425SOL     OW 5173   2.157   6.592   3.907
 1425SOL    HW1 5174   2.112   6.608   3.819
 1425SOL    HW2 5175   2.106   6.524   3.959
 1426SOL     OW 5176   1.045   1.698   5.603
 1426SOL    HW1 5177   1.095   1.776   5.642
 1426SOL    HW2 5178   1.035   1.627   5.673
 1427SOL     OW 5179   6.650   0.104   3.820
 1427SOL    HW1 5180   6.599   0.038   3.765
 1427SOL    HW2 5181   6.600   0.191   3.821
 1428SOL     OW 5182   6.101   2.313   0.268
 1428SOL    HW1 5183   6.157   2.234   0.244
 1428SOL    HW2 5184   6.045   2.339   0.190
 1429SOL     OW 5185   6.547   0.256   0.747
 1429SOL    HW1 5186   6.530   0.201   0.665
 1429SOL    HW2 5187   6.603   0.203   0.811
 1430SOL     OW 5188   1.649   3.956   3.773
 1430SOL    HW1 5189   1.716   3.920   3.708
 1430SOL    HW2 5190   1.558   3.953   3.732
 1431SOL     OW 5191   2.591   1.492   2.202
 1431SOL    HW1 5192   2.593   1.496   2.102
 1431SOL    HW2 5193   2.651   1.419   2.234
 1432SOL     OW 5194   2.316   1.300   3.112
 1432SOL    HW1 5195   2.379   1.374   3.089
 1432SOL    HW2 5196   2.251   1.286   3.038
 1433SOL     OW 5197   4.415   0.410   3.910
 1433SOL    HW1 5198   4.323   0.447   3.921
 1433SOL    HW2 5199   4.455   0.392   4.001
 1434SOL     OW 5200   0.313   0.896   5.848
 1434SOL    HW1 5201   0.374   0.853   5.916
 1434SOL    HW2 5202   0.356   0.978   5.812
 1435SOL     OW 5203   5.733   1.497   3.020
 1435SOL    HW1 5204   5.733   1.571   2.953
 1435SOL    HW2 5205   5.707   1.412   2.974
 1436SOL     OW 5206   4.061   3.918   6.826
 1436SOL    HW1 5207   4.001   3.914   6.746
 1436SOL    HW2 5208   4.060   4.010   6.865
 1437SOL     OW 5209   3.058   1.281   3.217
 1437SOL    HW1 5210   3.103   1.196   3.244
 1437SOL    HW2 5211   3.088   1.307   3.125
 1438SOL     OW 5212   3.205   6.716   1.763
 1438SOL    HW1 5213   3.264   6.709   1.682
 1438SOL    HW2 5214   3.121   6.664   1.747
 1439SOL     OW 5215   0.720   5.959   2.381
 1439SOL    HW1 5216   0.665   5.964   2.297
 1439SOL    HW2 5217   0.662   5.930   2.457
 1440SOL     OW 5218   2.798   4.179   0.973
 1440SOL    HW1 5219   2.764   4.257   0.920
 1440SOL    HW2 5220   2.733   4.103   0.966
 1441SOL     OW 5221   6.090   6.530   1.570
 1441SOL    HW1 5222   6.069   6.459   1.503
 1441SOL    HW2 5223   6.005   6.563   1.611
 1442SOL     OW 5224   5.821   6.032   0.371
 1442SOL    HW1 5225   5.722   6.034   0.365
 1442SOL    HW2 5226   5.851   5.941   0.403
 1443SOL     OW 5227   0.731   2.315   2.583
 1443SOL    HW1 5228   0.783   2.349   2.504
 1443SOL    HW2 5229   0.736   2.380   2.658
 1444SOL     OW 5230   5.667   6.640   0.363
 1444SOL    HW1 5231   5.585   6.585   0.344
 1444SOL    HW2 5232   5.667   6.721   0.305
 1445SOL     OW 5233   0.468   3.436   2.723
 1445SOL    HW1 5234   0.528   3.385   2.662
 1445SOL    HW2 5235   0.502   3.530   2.732
 1446SOL     OW 5236   5.976   6.839   6.577
 1446SOL    HW1 5237   6.034   6.893   6.516
 1446SOL    HW2 5238   5.920   6.900   6.632
 1447SOL     OW 5239   5.854   5.284   3.575
 1447SOL    HW1 5240   5.954   5.285   3.571
 1447SOL    HW2 5241   5.823   5.330   3.658
 1448SOL     OW 5242   0.728   2.692   5.156
 1448SOL    HW1 5243   0.692   2.770   5.105
 1448SOL    HW2 5244   0.792   2.724   5.226
 1449SOL     OW 5245   1.438   4.005   5.008
 1449SOL    HW1 5246   1.471   4.069   5.078
 1449SOL    HW2 5247   1.435   4.051   4.919
 1450SOL     OW 5248   1.703   1.958   5.283
 1450SOL    HW1 5249   1.696   1.937   5.381
 1450SOL    HW2 5250   1.723   1.874   5.232
 1451SOL     OW 5251   2.277   6.308   1.184
 1451SOL    HW1 5252   2.373   6.292   1.161
 1451SOL    HW2 5253   2.257   6.406   1.175
 1452SOL     OW 5254   4.417   3.285   6.497
 1452SOL    HW1 5255   4.342   3.343   6.466
 1452SOL    HW2 5256   4.391   3.240   6.583
 1453SOL     OW 5257   0.463   4.348   5.520
 1453SOL    HW1 5258   0.460   4.441   5.556
 1453SOL    HW2 5259   0.387   4.295   5.559
 1454SOL     OW 5260   3.013   2.114   3.627
 1454SOL    HW1 5261   3.022   2.115   3.727
 1454SOL    HW2 5262   3.104   2.126   3.586
 1455SOL     OW 5263   1.362   6.470   2.853
 1455SOL    HW1 5264   1.403   6.427   2.934
 1455SOL    HW2 5265   1.374   6.410   2.774
 1456SOL     OW 5266   6.423   5.657   6.089
 1456SOL    HW1 5267   6.452   5.696   6.002
 1456SOL    HW2 5268   6.355   5.586   6.073
 1457SOL     OW 5269   0.612   4.127   0.175
 1457SOL    HW1 5270   0.696   4.081   0.205
 1457SOL    HW2 5271   0.635   4.196   0.107
 1458SOL     OW 5272   5.602   5.033   5.687
 1458SOL    HW1 5273   5.650   5.024   5.774
 1458SOL    HW2 5274   5.668   5.028   5.612
 1459SOL     OW 5275   5.014   6.341   5.379
 1459SOL    HW1 5276   4.969   6.256   5.406
 1459SOL    HW2 5277   4.969   6.418   5.425
 1460SOL     OW 5278   1.965   6.299   5.445
 1460SOL    HW1 5279   1.998   6.251   5.364
 1460SOL    HW2 5280   1.867   6.315   5.437
 1461SOL     OW 5281   7.001   2.991   2.348
 1461SOL    HW1 5282   7.000   2.922   2.276
 1461SOL    HW2 5283   0.066   2.989   2.395
 1462SOL     OW 5284   0.780   0.162   0.312
 1462SOL    HW1 5285   0.803   0.076   0.268
 1462SOL    HW2 5286   0.782   0.151   0.411
 1463SOL     OW 5287   1.892   6.244   6.909
 1463SOL    HW1 5288   1.930   6.328   6.949
 1463SOL    HW2 5289   1.962   6.199   6.855
 1464SOL     OW 5290   6.244   4.218   4.299
 1464SOL    HW1 5291   6.255   4.317   4.295
 1464SOL    HW2 5292   6.319   4.174   4.250
 1465SOL     OW 5293   1.528   1.446   3.385
 1465SOL    HW1 5294   1.574   1.362   3.357
 1465SOL    HW2 5295   1.494   1.494   3.304
 1466SOL     OW 5296   3.683   2.488   1.640
 1466SOL    HW1 5297   3.618   2.449   1.575
 1466SOL    HW2 5298   3.698   2.424   1.716
 1467SOL     OW 5299   1.064   1.227   3.703
 1467SOL    HW1 5300   1.060   1.235   3.803
 1467SOL    HW2 5301   1.051   1.317   3.662
 1468SOL     OW 5302   3.073   5.704   1.704
 1468SOL    HW1 5303   2.980   5.738   1.692
 1468SOL    HW2 5304   3.087   5.624   1.645
 1469SOL     OW 5305   6.102   6.007   3.727
 1469SOL    HW1 5306   6.026   6.040   3.785
 1469SOL    HW2 5307   6.069   5.993   3.634
 1470SOL     OW 5308   6.694   2.750   1.059
 1470SOL    HW1 5309   6.689   2.825   1.124
 1470SOL    HW2 5310   6.638   2.673   1.092
 1471SOL     OW 5311   6.321   6.704   1.581
 1471SOL    HW1 5312   6.308   6.793   1.624
 1471SOL    HW2 5313   6.240   6.648   1.596
 1472SOL     OW 5314   2.838   0.042   6.083
 1472SOL    HW1 5315   2.808   0.072   6.174
 1472SOL    HW2 5316   2.796   0.099   6.013
 1473SOL     OW 5317   3.483   4.911   4.294
 1473SOL    HW1 5318   3.462   4.984   4.229
 1473SOL    HW2 5319   3.512   4.829   4.243
 1474SOL     OW 5320   4.111   4.531   1.546
 1474SOL    HW1 5321   4.131   4.579   1.632
 1474SOL    HW2 5322   4.189   4.540   1.484
 1475SOL     OW 5323   5.387   0.828   0.145
 1475SOL    HW1 5324   5.420   0.855   0.054
 1475SOL    HW2 5325   5.423   0.892   0.213
 1476SOL     OW 5326   3.434   1.087   1.495
 1476SOL    HW1 5327   3.348   1.042   1.474
 1476SOL    HW2 5328   3.490   1.092   1.413
 1477SOL     OW 5329   4.357   5.814   1.043
 1477SOL    HW1 5330   4.404   5.885   0.991
 1477SOL    HW2 5331   4.322   5.852   1.128
 1478SOL     OW 5332   5.044   5.808   5.139
 1478SOL    HW1 5333   5.090   5.888   5.100
 1478SOL    HW2 5334   4.972   5.839   5.202
 1479SOL     OW 5335   3.666   3.686   1.103
 1479SOL    HW1 5336   3.615   3.611   1.145
 1479SOL    HW2 5337   3.744   3.710   1.161
 1480SOL     OW 5338   2.954   0.651   5.163
 1480SOL    HW1 5339   2.926   0.741   5.129
 1480SOL    HW2 5340   3.006   0.603   5.093
 1481SOL     OW 5341   5.139   2.807   5.031
 1481SOL    HW1 5342   5.065   2.803   4.964
 1481SOL    HW2 5343   5.192   2.891   5.016
 1482SOL     OW 5344   4.547   0.210   0.767
 1482SOL    HW1 5345   4.520   0.126   0.720
 1482SOL    HW2 5346   4.526   0.289   0.710
 1483SOL     OW 5347   4.481   1.052   6.140
 1483SOL    HW1 5348   4.410   1.121   6.153
 1483SOL    HW2 5349   4.568   1.096   6.123
 1484SOL     OW 5350   2.786   5.282   4.354
 1484SOL    HW1 5351   2.821   5.216   4.420
 1484SOL    HW2 5352   2.815   5.374   4.380
 1485SOL     OW 5353   4.763   1.906   2.396
 1485SOL    HW1 5354   4.855   1.944   2.399
 1485SOL    HW2 5355   4.767   1.815   2.354
 1486SOL     OW 5356   4.990   6.838   3.162
 1486SOL    HW1 5357   5.026   6.800   3.077
 1486SOL    HW2 5358   5.018   6.781   3.239
 1487SOL     OW 5359   0.083   0.559   0.958
 1487SOL    HW1 5360   0.046   0.489   1.020
 1487SOL    HW2 5361   0.167   0.597   0.997
 1488SOL     OW 5362   6.559   0.732   2.732
 1488SOL    HW1 5363   6.616   0.715   2.812
 1488SOL    HW2 5364   6.491   0.660   2.723
 1489SOL     OW 5365   3.923   5.064   6.456
 1489SOL    HW1 5366   4.018   5.093   6.465
 1489SOL    HW2 5367   3.920   4.970   6.422
 1490SOL     OW 5368   0.093   2.425   2.144
 1490SOL    HW1 5369   0.137   2.358   2.203
 1490SOL    HW2 5370   0.050   2.496   2.199
 1491SOL     OW 5371   6.660   3.398   1.385
 1491SOL    HW1 5372   6.709   3.479   1.415
 1491SOL    HW2 5373   6.697   3.367   1.297
 1492SOL     OW 5374   5.886   1.071   2.870
 1492SOL    HW1 5375   5.829   1.083   2.788
 1492SOL    HW2 5376   5.914   0.976   2.878
 1493SOL     OW 5377   4.560   1.899   5.906
 1493SOL    HW1 5378   4.492   1.840   5.863
 1493SOL    HW2 5379   4.646   1.894   5.856
 1494SOL     OW 5380   5.548   3.009   6.088
 1494SOL    HW1 5381   5.635   3.057   6.082
 1494SOL    HW2 5382   5.548   2.932   6.024
 1495SOL     OW 5383   6.038   3.759   4.269
 1495SOL    HW1 5384   6.069   3.746   4.363
 1495SOL    HW2 5385   5.981   3.841   4.263
 1496SOL     OW 5386   6.736   6.169   0.016
 1496SOL    HW1 5387   6.755   6.108   0.093
 1496SOL    HW2 5388   6.789   6.253   0.026
 1497SOL     OW 5389   5.518   2.752   2.631
 1497SOL    HW1 5390   5.551   2.807   2.708
 1497SOL    HW2 5391   5.449   2.805   2.581
 1498SOL     OW 5392   3.236   4.855   0.855
 1498SOL    HW1 5393   3.168   4.869   0.928
 1498SOL    HW2 5394   3.195   4.801   0.781
 1499SOL     OW 5395   6.857   3.829   6.033
 1499SOL    HW1 5396   6.946   3.820   5.987
 1499SOL    HW2 5397   6.861   3.785   6.123
 1500SOL     OW 5398   0.478   6.031   0.645
 1500SOL    HW1 5399   0.453   6.116   0.599
 1500SOL    HW2 5400   0.445   5.953   0.592
 1501SOL     OW 5401   5.412   1.066   6.116
 1501SOL    HW1 5402   5.413   0.966   6.128
 1501SOL    HW2 5403   5.473   1.092   6.041
 1502SOL     OW 5404   6.896   0.784   6.657
 1502SOL    HW1 5405   6.847   0.699   6.641
 1502SOL    HW2 5406   6.920   0.827   6.570
 1503SOL     OW 5407   0.445   4.073   1.934
 1503SOL    HW1 5408   0.412   4.118   2.017
 1503SOL    HW2 5409   0.544   4.061   1.939
 1504SOL     OW 5410   0.532   0.230   3.299
 1504SOL    HW1 5411   0.494   0.227   3.392
 1504SOL    HW2 5412   0.560   0.139   3.271
 1505SOL     OW 5413   6.157   6.268   4.931
 1505SOL    HW1 5414   6.060   6.290   4.936
 1505SOL    HW2 5415   6.206   6.344   4.887
 1506SOL     OW 5416   1.382   1.371   0.967
 1506SOL    HW1 5417   1.295   1.384   1.015
 1506SOL    HW2 5418   1.458   1.390   1.030
 1507SOL     OW 5419   1.079   2.145   4.335
 1507SOL    HW1 5420   1.108   2.055   4.368
 1507SOL    HW2 5421   1.052   2.139   4.239
 1508SOL     OW 5422   0.751   0.805   0.602
 1508SOL    HW1 5423   0.833   0.862   0.595
 1508SOL    HW2 5424   0.682   0.852   0.657
 1509SOL     OW 5425   4.865   1.330   5.094
 1509SOL    HW1 5426   4.932   1.361   5.026
 1509SOL    HW2 5427   4.863   1.395   5.170
 1510SOL     OW 5428   3.130   0.108   3.812
 1510SOL    HW1 5429   3.124   0.050   3.730
 1510SOL    HW2 5430   3.223   0.144   3.820
 1511SOL     OW 5431   3.828   3.658   3.868
 1511SOL    HW1 5432   3.768   3.668   3.788
 1511SOL    HW2 5433   3.797   3.719   3.941
 1512SOL     OW 5434   6.304   5.668   1.460
 1512SOL    HW1 5435   6.279   5.748   1.514
 1512SOL    HW2 5436   6.249   5.590   1.489
 1513SOL     OW 5437   3.269   6.927   5.813
 1513SOL    HW1 5438   3.340   6.862   5.785
 1513SOL    HW2 5439   3.233   6.901   5.903
 1514SOL     OW 5440   3.131   2.394   5.862
 1514SOL    HW1 5441   3.162   2.375   5.769
 1514SOL    HW2 5442   3.074   2.477   5.861
 1515SOL     OW 5443   6.139   2.078   2.365
 1515SOL    HW1 5444   6.235   2.065   2.341
 1515SOL    HW2 5445   6.101   2.153   2.311
 1516SOL     OW 5446   6.510   6.156   4.837
 1516SOL    HW1 5447   6.435   6.216   4.812
 1516SOL    HW2 5448   6.476   6.062   4.847
 1517SOL     OW 5449   3.710   6.138   3.474
 1517SOL    HW1 5450   3.766   6.201   3.421
 1517SOL    HW2 5451   3.704   6.169   3.569
 1518SOL     OW 5452   6.951   2.441   0.573
 1518SOL    HW1 5453   6.902   2.528   0.570
 1518SOL    HW2 5454   6.989   2.422   0.482
 1519SOL     OW 5455   0.197   3.955   0.529
 1519SOL    HW1 5456   0.157   4.007   0.605
 1519SOL    HW2 5457   0.296   3.948   0.543
 1520SOL     OW 5458   0.913   5.292   1.690
 1520SOL    HW1 5459   0.820   5.304   1.655
 1520SOL    HW2 5460   0.970   5.249   1.620
 1521SOL     OW 5461   2.257   4.661   6.212
 1521SOL    HW1 5462   2.344   4.692   6.176
 1521SOL    HW2 5463   2.186   4.671   6.142
 1522SOL     OW 5464   4.864   5.830   4.627
 1522SOL    HW1 5465   4.957   5.832   4.665
 1522SOL    HW2 5466   4.824   5.740   4.641
 1523SOL     OW 5467   3.742   6.229   0.050
 1523SOL    HW1 5468   3.742   6.133   0.080
 1523SOL    HW2 5469   3.811   6.280   0.101
 1524SOL     OW 5470   2.096   2.347   2.518
 1524SOL    HW1 5471   2.022   2.359   2.452
 1524SOL    HW2 5472   2.167   2.289   2.478
 1525SOL     OW 5473   5.992   2.584   0.878
 1525SOL    HW1 5474   5.946   2.598   0.791
 1525SOL    HW2 5475   6.039   2.496   0.877
 1526SOL     OW 5476   0.654   1.742   0.321
 1526SOL    HW1 5477   0.750   1.751   0.298
 1526SOL    HW2 5478   0.645   1.721   0.419
 1527SOL     OW 5479   3.318   1.633   4.537
 1527SOL    HW1 5480   3.372   1.687   4.472
 1527SOL    HW2 5481   3.227   1.616   4.499
 1528SOL     OW 5482   5.044   3.585   0.972
 1528SOL    HW1 5483   5.139   3.586   1.001
 1528SOL    HW2 5484   4.985   3.557   1.048
 1529SOL     OW 5485   5.006   0.940   6.601
 1529SOL    HW1 5486   4.924   0.939   6.659
 1529SOL    HW2 5487   4.992   0.878   6.524
 1530SOL     OW 5488   2.955   0.223   1.279
 1530SOL    HW1 5489   2.896   0.172   1.342
 1530SOL    HW2 5490   2.926   0.205   1.185
 1531SOL     OW 5491   3.637   0.428   4.172
 1531SOL    HW1 5492   3.661   0.344   4.221
 1531SOL    HW2 5493   3.711   0.494   4.180
 1532SOL     OW 5494   3.294   5.020   6.117
 1532SOL    HW1 5495   3.290   4.927   6.079
 1532SOL    HW2 5496   3.357   5.075   6.064
 1533SOL     OW 5497   5.396   5.256   1.158
 1533SOL    HW1 5498   5.444   5.343   1.148
 1533SOL    HW2 5499   5.298   5.273   1.169
 1534SOL     OW 5500   3.988   6.010   0.027
 1534SOL    HW1 5501   3.905   5.989   6.999
 1534SOL    HW2 5502   4.068   5.984   6.997
 1535SOL     OW 5503   6.583   6.337   4.524
 1535SOL    HW1 5504   6.578   6.392   4.441
 1535SOL    HW2 5505   6.515   6.264   4.521
 1536SOL     OW 5506   4.073   4.131   0.028
 1536SOL    HW1 5507   4.125   4.116   0.113
 1536SOL    HW2 5508   3.980   4.160   0.051
 1537SOL     OW 5509   3.105   4.921   3.661
 1537SOL    HW1 5510   3.157   4.933   3.577
 1537SOL    HW2 5511   3.168   4.904   3.737
 1538SOL     OW 5512   3.175   1.727   0.428
 1538SOL    HW1 5513   3.183   1.628   0.412
 1538SOL    HW2 5514   3.100   1.744   0.493
 1539SOL     OW 5515   5.062   3.338   1.521
 1539SOL    HW1 5516   5.014   3.306   1.603
 1539SOL    HW2 5517   5.024   3.293   1.440
 1540SOL     OW 5518   2.266   6.705   4.416
 1540SOL    HW1 5519   2.204   6.758   4.360
 1540SOL    HW2 5520   2.319   6.766   4.475
 1541SOL     OW 5521   3.299   3.112   4.600
 1541SOL    HW1 5522   3.291   3.185   4.532
 1541SOL    HW2 5523   3.352   3.036   4.561
 1542SOL     OW 5524   6.589   6.760   2.167
 1542SOL    HW1 5525   6.671   6.808   2.134
 1542SOL    HW2 5526   6.508   6.800   2.125
 1543SOL     OW 5527   3.297   5.387   6.209
 1543SOL    HW1 5528   3.289   5.334   6.124
 1543SOL    HW2 5529   3.393   5.406   6.228
 1544SOL     OW 5530   3.879   2.999   3.696
 1544SOL    HW1 5531   3.792   2.969   3.736
 1544SOL    HW2 5532   3.880   2.979   3.598
 1545SOL     OW 5533   6.266   0.488   1.865
 1545SOL    HW1 5534   6.348   0.468   1.811
 1545SOL    HW2 5535   6.293   0.530   1.952
 1546SOL     OW 5536   5.098   6.729   5.684
 1546SOL    HW1 5537   5.143   6.656   5.632
 1546SOL    HW2 5538   5.119   6.719   5.781
 1547SOL     OW 5539   1.452   4.071   0.504
 1547SOL    HW1 5540   1.488   4.164   0.498
 1547SOL    HW2 5541   1.388   4.054   0.429
 1548SOL     OW 5542   6.531   2.573   0.111
 1548SOL    HW1 5543   6.589   2.541   0.186
 1548SOL    HW2 5544   6.435   2.569   0.139
 1549SOL     OW 5545   4.002   1.407   4.734
 1549SOL    HW1 5546   3.906   1.379   4.741
 1549SOL    HW2 5547   4.053   1.336   4.684
 1550SOL     OW 5548   3.709   3.177   2.300
 1550SOL    HW1 5549   3.739   3.271   2.317
 1550SOL    HW2 5550   3.718   3.123   2.384
 1551SOL     OW 5551   1.129   5.366   6.681
 1551SOL    HW1 5552   1.094   5.276   6.654
 1551SOL    HW2 5553   1.090   5.391   6.770
 1552SOL     OW 5554   2.763   4.868   1.400
 1552SOL    HW1 5555   2.728   4.778   1.376
 1552SOL    HW2 5556   2.725   4.897   1.488
 1553SOL     OW 5557   6.974   1.519   6.023
 1553SOL    HW1 5558   6.887   1.549   6.062
 1553SOL    HW2 5559   0.003   1.598   5.992
 1554SOL     OW 5560   3.239   2.103   3.492
 1554SOL    HW1 5561   3.189   2.053   3.421
 1554SOL    HW2 5562   3.335   2.111   3.466
 1555SOL     OW 5563   5.841   2.665   6.305
 1555SOL    HW1 5564   5.894   2.731   6.358
 1555SOL    HW2 5565   5.754   2.706   6.279
 1556SOL     OW 5566   2.419   1.152   6.405
 1556SOL    HW1 5567   2.466   1.219   6.462
 1556SOL    HW2 5568   2.455   1.061   6.424
 1557SOL     OW 5569   1.723   3.349   6.290
 1557SOL    HW1 5570   1.765   3.428   6.336
 1557SOL    HW2 5571   1.662   3.381   6.218
 1558SOL     OW 5572   6.814   0.088   4.934
 1558SOL    HW1 5573   6.882   0.023   4.899
 1558SOL    HW2 5574   6.843   0.181   4.913
 1559SOL     OW 5575   0.522   2.682   6.288
 1559SOL    HW1 5576   0.461   2.695   6.366
 1559SOL    HW2 5577   0.555   2.588   6.286
 1560SOL     OW 5578   7.010   0.890   6.407
 1560SOL    HW1 5579   0.017   0.985   6.403
 1560SOL    HW2 5580   0.065   0.829   6.399
 1561SOL     OW 5581   4.946   6.032   2.311
 1561SOL    HW1 5582   4.888   6.101   2.268
 1561SOL    HW2 5583   4.908   6.008   2.400
 1562SOL     OW 5584   4.828   0.249   2.616
 1562SOL    HW1 5585   4.748   0.302   2.642
 1562SOL    HW2 5586   4.845   0.178   2.685
 1563SOL     OW 5587   3.381   1.536   6.179
 1563SOL    HW1 5588   3.314   1.462   6.188
 1563SOL    HW2 5589   3.333   1.624   6.172
 1564SOL     OW 5590   1.210   1.551   2.300
 1564SOL    HW1 5591   1.281   1.491   2.338
 1564SOL    HW2 5592   1.218   1.642   2.341
 1565SOL     OW 5593   4.889   3.685   2.313
 1565SOL    HW1 5594   4.847   3.731   2.234
 1565SOL    HW2 5595   4.834   3.605   2.337
 1566SOL     OW 5596   5.409   4.207   3.626
 1566SOL    HW1 5597   5.500   4.230   3.661
 1566SOL    HW2 5598   5.412   4.116   3.584
 1567SOL     OW 5599   6.020   5.749   6.144
 1567SOL    HW1 5600   6.091   5.812   6.114
 1567SOL    HW2 5601   6.040   5.719   6.238
 1568SOL     OW 5602   0.899   0.345   0.698
 1568SOL    HW1 5603   0.852   0.433   0.698
 1568SOL    HW2 5604   0.981   0.351   0.755
 1569SOL     OW 5605   4.050   6.752   4.595
 1569SOL    HW1 5606   4.124   6.684   4.594
 1569SOL    HW2 5607   3.987   6.732   4.670
 1570SOL     OW 5608   2.540   1.855   1.590
 1570SOL    HW1 5609   2.549   1.859   1.491
 1570SOL    HW2 5610   2.623   1.889   1.633
 1571SOL     OW 5611   5.800   3.269   1.774
 1571SOL    HW1 5612   5.767   3.278   1.680
 1571SOL    HW2 5613   5.875   3.333   1.789
 1572SOL     OW 5614   0.463   6.827   1.979
 1572SOL    HW1 5615   0.533   6.756   1.973
 1572SOL    HW2 5616   0.486   6.902   1.917
 1573SOL     OW 5617   4.871   6.810   1.579
 1573SOL    HW1 5618   4.893   6.880   1.647
 1573SOL    HW2 5619   4.933   6.820   1.501
 1574SOL     OW 5620   0.019   2.203   1.488
 1574SOL    HW1 5621   6.958   2.151   1.487
 1574SOL    HW2 5622   0.093   2.149   1.447
 1575SOL     OW 5623   1.574   2.612   0.546
 1575SOL    HW1 5624   1.556   2.528   0.495
 1575SOL    HW2 5625   1.657   2.656   0.509
 1576SOL     OW 5626   5.570   5.954   4.249
 1576SOL    HW1 5627   5.570   5.855   4.258
 1576SOL    HW2 5628   5.483   5.991   4.284
 1577SOL     OW 5629   2.764   0.454   5.592
 1577SOL    HW1 5630   2.822   0.467   5.672
 1577SOL    HW2 5631   2.668   0.461   5.618
 1578SOL     OW 5632   5.440   3.921   5.636
 1578SOL    HW1 5633   5.523   3.977   5.636
 1578SOL    HW2 5634   5.361   3.979   5.615
 1579SOL     OW 5635   0.397   1.487   3.571
 1579SOL    HW1 5636   0.408   1.576   3.526
 1579SOL    HW2 5637   0.405   1.499   3.670
 1580SOL     OW 5638   2.729   4.441   5.368
 1580SOL    HW1 5639   2.724   4.538   5.389
 1580SOL    HW2 5640   2.801   4.424   5.301
 1581SOL     OW 5641   6.611   3.607   4.524
 1581SOL    HW1 5642   6.627   3.520   4.478
 1581SOL    HW2 5643   6.677   3.675   4.491
 1582SOL     OW 5644   0.775   5.053   4.426
 1582SOL    HW1 5645   0.837   5.036   4.503
 1582SOL    HW2 5646   0.777   4.975   4.364
 1583SOL     OW 5647   2.242   2.829   3.653
 1583SOL    HW1 5648   2.292   2.914   3.664
 1583SOL    HW2 5649   2.152   2.837   3.696
 1584SOL     OW 5650   2.142   6.938   5.458
 1584SOL    HW1 5651   2.150   6.902   5.365
 1584SOL    HW2 5652   2.220   6.906   5.513
 1585SOL     OW 5653   5.350   1.352   3.473
 1585SOL    HW1 5654   5.414   1.277   3.453
 1585SOL    HW2 5655   5.398   1.425   3.522
 1586SOL     OW 5656   3.898   3.906   2.546
 1586SOL    HW1 5657   3.988   3.871   2.574
 1586SOL    HW2 5658   3.828   3.839   2.569
 1587SOL     OW 5659   3.570   6.992   6.874
 1587SOL    HW1 5660   3.613   6.918   6.823
 1587SOL    HW2 5661   3.620   7.009   6.959
 1588SOL     OW 5662   5.195   1.881   1.852
 1588SOL    HW1 5663   5.291   1.903   1.862
 1588SOL    HW2 5664   5.185   1.782   1.838
 1589SOL     OW 5665   6.055   4.587   4.464
 1589SOL    HW1 5666   6.078   4.615   4.557
 1589SOL    HW2 5667   6.069   4.665   4.402
 1590SOL     OW 5668   1.918   0.618   0.058
 1590SOL    HW1 5669   1.955   0.591   6.993
 1590SOL    HW2 5670   1.931   0.543   0.123
 1591SOL     OW 5671   1.281   4.648   2.282
 1591SOL    HW1 5672   1.329   4.729   2.316
 1591SOL    HW2 5673   1.237   4.669   2.195
 1592SOL     OW 5674   2.950   3.814   2.567
 1592SOL    HW1 5675   2.888   3.889   2.592
 1592SOL    HW2 5676   2.948   3.801   2.468
 1593SOL     OW 5677   1.127   5.941   4.342
 1593SOL    HW1 5678   1.202   5.957   4.278
 1593SOL    HW2 5679   1.161   5.894   4.423
 1594SOL     OW 5680   7.001   5.244   2.394
 1594SOL    HW1 5681   0.062   5.237   2.448
 1594SOL    HW2 5682   6.928   5.279   2.452
 1595SOL     OW 5683   6.934   4.626   6.806
 1595SOL    HW1 5684   6.904   4.530   6.805
 1595SOL    HW2 5685   6.956   4.655   6.713
 1596SOL     OW 5686   2.397   5.602   6.112
 1596SOL    HW1 5687   2.389   5.693   6.154
 1596SOL    HW2 5688   2.481   5.558   6.145
 1597SOL     OW 5689   2.461   6.265   1.591
 1597SOL    HW1 5690   2.526   6.189   1.586
 1597SOL    HW2 5691   2.372   6.235   1.557
 1598SOL     OW 5692   0.541   4.762   1.244
 1598SOL    HW1 5693   0.503   4.690   1.302
 1598SOL    HW2 5694   0.641   4.761   1.250
 1599SOL     OW 5695   3.692   4.905   0.103
 1599SOL    HW1 5696   3.789   4.921   0.120
 1599SOL    HW2 5697   3.642   4.991   0.112
 1600SOL     OW 5698   5.322   1.376   4.901
 1600SOL    HW1 5699   5.374   1.290   4.897
 1600SOL    HW2 5700   5.339   1.428   4.817
 1601SOL     OW 5701   1.051   4.981   5.238
 1601SOL    HW1 5702   1.101   4.911   5.186
 1601SOL    HW2 5703   1.028   4.945   5.328
 1602SOL     OW 5704   1.452   5.639   3.805
 1602SOL    HW1 5705   1.522   5.570   3.791
 1602SOL    HW2 5706   1.397   5.616   3.886
 1603SOL     OW 5707   0.184   6.392   2.393
 1603SOL    HW1 5708   0.236   6.470   2.359
 1603SOL    HW2 5709   0.247   6.317   2.415
 1604SOL     OW 5710   0.057   4.960   6.469
 1604SOL    HW1 5711   0.026   4.949   6.374
 1604SOL    HW2 5712   0.155   4.975   6.471
 1605SOL     OW 5713   6.451   6.236   2.747
 1605SOL    HW1 5714   6.520   6.218   2.676
 1605SOL    HW2 5715   6.370   6.180   2.730
 1606SOL     OW 5716   4.973   6.756   6.004
 1606SOL    HW1 5717   4.874   6.764   5.996
 1606SOL    HW2 5718   5.014   6.847   6.002
 1607SOL     OW 5719   4.760   2.491   0.616
 1607SOL    HW1 5720   4.704   2.574   0.627
 1607SOL    HW2 5721   4.730   2.422   0.681
 1608SOL     OW 5722   2.156   0.078   0.888
 1608SOL    HW1 5723   2.243   0.035   0.914
 1608SOL    HW2 5724   2.083   0.042   0.946
 1609SOL     OW 5725   4.679   2.040   6.145
 1609SOL    HW1 5726   4.649   1.981   6.070
 1609SOL    HW2 5727   4.604   2.100   6.173
 1610SOL     OW 5728   6.087   6.072   4.197
 1610SOL    HW1 5729   6.180   6.103   4.178
 1610SOL    HW2 5730   6.023   6.147   4.179
 1611SOL     OW 5731   3.614   3.788   1.880
 1611SOL    HW1 5732   3.675   3.844   1.824
 1611SOL    HW2 5733   3.524   3.783   1.836
 1612SOL     OW 5734   2.332   1.028   4.771
 1612SOL    HW1 5735   2.352   0.978   4.687
 1612SOL    HW2 5736   2.239   1.065   4.767
 1613SOL     OW 5737   2.246   5.954   0.635
 1613SOL    HW1 5738   2.223   5.904   0.551
 1613SOL    HW2 5739   2.278   5.890   0.704
 1614SOL     OW 5740   6.352   2.378   0.004
 1614SOL    HW1 5741   6.420   2.450   0.018
 1614SOL    HW2 5742   6.267   2.418   6.995
 1615SOL     OW 5743   6.964   4.732   6.568
 1615SOL    HW1 5744   7.003   4.820   6.541
 1615SOL    HW2 5745   6.890   4.707   6.505
 1616SOL     OW 5746   3.318   1.947   5.851
 1616SOL    HW1 5747   3.285   2.034   5.888
 1616SOL    HW2 5748   3.247   1.877   5.860
 1617SOL     OW 5749   5.152   0.852   3.369
 1617SOL    HW1 5750   5.178   0.856   3.465
 1617SOL    HW2 5751   5.218   0.904   3.315
 1618SOL     OW 5752   6.131   3.135   1.063
 1618SOL    HW1 5753   6.132   3.037   1.083
 1618SOL    HW2 5754   6.057   3.179   1.114
 1619SOL     OW 5755   1.806   3.321   4.351
 1619SOL    HW1 5756   1.878   3.347   4.416
 1619SOL    HW2 5757   1.729   3.384   4.360
 1620SOL     OW 5758   2.714   5.297   1.626
 1620SOL    HW1 5759   2.643   5.253   1.571
 1620SOL    HW2 5760   2.762   5.365   1.571
 1621SOL     OW 5761   1.349   0.562   0.853
 1621SOL    HW1 5762   1.411   0.563   0.774
 1621SOL    HW2 5763   1.400   0.590   0.934
 1622SOL     OW 5764   2.020   1.677   4.302
 1622SOL    HW1 5765   1.981   1.767   4.283
 1622SOL    HW2 5766   1.948   1.615   4.332
 1623SOL     OW 5767   2.521   2.117   5.775
 1623SOL    HW1 5768   2.472   2.188   5.826
 1623SOL    HW2 5769   2.613   2.108   5.812
 1624SOL     OW 5770   2.887   1.496   0.337
 1624SOL    HW1 5771   2.854   1.532   0.424
 1624SOL    HW2 5772   2.985   1.480   0.342
 1625SOL     OW 5773   0.803   5.059   2.107
 1625SOL    HW1 5774   0.862   5.056   2.187
 1625SOL    HW2 5775   0.827   5.138   2.051
 1626SOL     OW 5776   2.060   2.844   6.560
 1626SOL    HW1 5777   1.989   2.887   6.505
 1626SOL    HW2 5778   2.148   2.886   6.541
 1627SOL     OW 5779   6.065   2.925   3.750
 1627SOL    HW1 5780   6.125   3.004   3.761
 1627SOL    HW2 5781   6.027   2.925   3.657
 1628SOL     OW 5782   3.447   4.425   0.526
 1628SOL    HW1 5783   3.475   4.474   0.608
 1628SOL    HW2 5784   3.361   4.376   0.543
 1629SOL     OW 5785   3.778   1.807   4.376
 1629SOL    HW1 5786   3.808   1.730   4.320
 1629SOL    HW2 5787   3.684   1.792   4.406
 1630SOL     OW 5788   0.732   4.587   5.440
 1630SOL    HW1 5789   0.686   4.648   5.505
 1630SOL    HW2 5790   0.694   4.495   5.448
 1631SOL     OW 5791   0.027   6.760   5.499
 1631SOL    HW1 5792   6.978   6.696   5.475
 1631SOL    HW2 5793   0.047   6.753   5.597
 1632SOL     OW 5794   6.499   0.654   1.221
 1632SOL    HW1 5795   6.458   0.745   1.230
 1632SOL    HW2 5796   6.544   0.647   1.132
 1633SOL     OW 5797   6.409   2.101   3.978
 1633SOL    HW1 5798   6.449   2.033   4.040
 1633SOL    HW2 5799   6.471   2.178   3.969
 1634SOL     OW 5800   2.703   0.275   6.549
 1634SOL    HW1 5801   2.737   0.329   6.626
 1634SOL    HW2 5802   2.606   0.294   6.536
 1635SOL     OW 5803   0.148   5.781   5.062
 1635SOL    HW1 5804   0.052   5.811   5.059
 1635SOL    HW2 5805   0.182   5.772   4.969
 1636SOL     OW 5806   2.189   6.226   1.916
 1636SOL    HW1 5807   2.157   6.225   2.011
 1636SOL    HW2 5808   2.126   6.173   1.859
 1637SOL     OW 5809   6.741   3.139   2.026
 1637SOL    HW1 5810   6.703   3.073   1.961
 1637SOL    HW2 5811   6.742   3.099   2.118
 1638SOL     OW 5812   6.968   3.462   4.374
 1638SOL    HW1 5813   6.942   3.513   4.292
 1638SOL    HW2 5814   0.010   3.516   4.427
 1639SOL     OW 5815   4.981   5.488   2.629
 1639SOL    HW1 5816   4.898   5.542   2.630
 1639SOL    HW2 5817   4.996   5.451   2.538
 1640SOL     OW 5818   6.460   0.434   0.955
 1640SOL    HW1 5819   6.512   0.392   0.880
 1640SOL    HW2 5820   6.500   0.523   0.977
 1641SOL     OW 5821   5.181   3.027   5.305
 1641SOL    HW1 5822   5.237   2.970   5.245
 1641SOL    HW2 5823   5.106   2.972   5.342
 1642SOL     OW 5824   6.871   2.252   0.754
 1642SOL    HW1 5825   6.905   2.322   0.692
 1642SOL    HW2 5826   6.869   2.163   0.708
 1643SOL     OW 5827   3.881   6.663   5.079
 1643SOL    HW1 5828   3.966   6.687   5.125
 1643SOL    HW2 5829   3.842   6.581   5.121
 1644SOL     OW 5830   2.974   1.126   1.457
 1644SOL    HW1 5831   3.030   1.202   1.489
 1644SOL    HW2 5832   2.893   1.162   1.410
 1645SOL     OW 5833   3.018   6.659   6.605
 1645SOL    HW1 5834   3.110   6.660   6.566
 1645SOL    HW2 5835   2.966   6.737   6.572
 1646SOL     OW 5836   1.332   4.259   0.891
 1646SOL    HW1 5837   1.289   4.302   0.811
 1646SOL    HW2 5838   1.283   4.175   0.914
 1647SOL     OW 5839   5.877   3.121   3.917
 1647SOL    HW1 5840   5.930   3.195   3.957
 1647SOL    HW2 5841   5.940   3.054   3.876
 1648SOL     OW 5842   4.650   7.023   2.392
 1648SOL    HW1 5843   4.661   0.081   2.335
 1648SOL    HW2 5844   4.630   6.944   2.333
 1649SOL     OW 5845   3.341   1.411   3.226
 1649SOL    HW1 5846   3.254   1.461   3.221
 1649SOL    HW2 5847   3.356   1.379   3.319
 1650SOL     OW 5848   2.699   7.023   3.851
 1650SOL    HW1 5849   2.637   0.075   3.872
 1650SOL    HW2 5850   2.792   0.026   3.878
 1651SOL     OW 5851   0.960   0.369   0.304
 1651SOL    HW1 5852   0.915   0.283   0.326
 1651SOL    HW2 5853   1.044   0.378   0.358
 1652SOL     OW 5854   2.897   2.330   1.648
 1652SOL    HW1 5855   2.878   2.366   1.740
 1652SOL    HW2 5856   2.889   2.404   1.581
 1653SOL     OW 5857   0.892   5.487   1.079
 1653SOL    HW1 5858   0.939   5.404   1.052
 1653SOL    HW2 5859   0.905   5.557   1.009
 1654SOL     OW 5860   6.602   3.412   2.813
 1654SOL    HW1 5861   6.519   3.437   2.763
 1654SOL    HW2 5862   6.580   3.344   2.883
 1655SOL     OW 5863   4.869   4.079   6.389
 1655SOL    HW1 5864   4.902   4.145   6.456
 1655SOL    HW2 5865   4.810   4.125   6.323
 1656SOL     OW 5866   1.494   4.803   3.248
 1656SOL    HW1 5867   1.480   4.857   3.165
 1656SOL    HW2 5868   1.512   4.864   3.325
 1657SOL     OW 5869   1.206   0.677   5.428
 1657SOL    HW1 5870   1.108   0.658   5.428
 1657SOL    HW2 5871   1.229   0.739   5.353
 1658SOL     OW 5872   6.020   6.428   2.897
 1658SOL    HW1 5873   5.922   6.414   2.913
 1658SOL    HW2 5874   6.054   6.497   2.961
 1659SOL     OW 5875   3.702   2.547   6.442
 1659SOL    HW1 5876   3.618   2.537   6.496
 1659SOL    HW2 5877   3.720   2.645   6.427
 1660SOL     OW 5878   1.590   5.700   3.528
 1660SOL    HW1 5879   1.670   5.709   3.588
 1660SOL    HW2 5880   1.586   5.779   3.466
 1661SOL     OW 5881   3.538   1.102   2.203
 1661SOL    HW1 5882   3.490   1.176   2.156
 1661SOL    HW2 5883   3.480   1.068   2.277
 1662SOL     OW 5884   0.226   1.154   3.525
 1662SOL    HW1 5885   0.188   1.223   3.585
 1662SOL    HW2 5886   0.155   1.089   3.499
 1663SOL     OW 5887   3.158   0.282   2.503
 1663SOL    HW1 5888   3.145   0.188   2.471
 1663SOL    HW2 5889   3.247   0.316   2.471
 1664SOL     OW 5890   2.242   5.815   4.282
 1664SOL    HW1 5891   2.286   5.780   4.364
 1664SOL    HW2 5892   2.311   5.830   4.210
 1665SOL     OW 5893   0.074   0.888   2.996
 1665SOL    HW1 5894   0.119   0.830   2.928
 1665SOL    HW2 5895   0.056   0.978   2.957
 1666SOL     OW 5896   5.847   2.816   5.833
 1666SOL    HW1 5897   5.859   2.884   5.760
 1666SOL    HW2 5898   5.877   2.726   5.801
 1667SOL     OW 5899   6.488   6.845   5.991
 1667SOL    HW1 5900   6.478   6.877   5.897
 1667SOL    HW2 5901   6.404   6.862   6.042
 1668SOL     OW 5902   4.259   0.206   5.035
 1668SOL    HW1 5903   4.169   0.205   5.078
 1668SOL    HW2 5904   4.327   0.173   5.100
 1669SOL     OW 5905   5.522   6.978   5.928
 1669SOL    HW1 5906   5.574   0.019   5.871
 1669SOL    HW2 5907   5.575   6.953   6.008
 1670SOL     OW 5908   5.547   4.511   5.496
 1670SOL    HW1 5909   5.595   4.569   5.430
 1670SOL    HW2 5910   5.542   4.558   5.584
 1671SOL     OW 5911   4.560   3.250   0.280
 1671SOL    HW1 5912   4.627   3.323   0.282
 1671SOL    HW2 5913   4.483   3.277   0.222
 1672SOL     OW 5914   1.950   5.097   2.268
 1672SOL    HW1 5915   1.897   5.179   2.285
 1672SOL    HW2 5916   2.032   5.120   2.215
 1673SOL     OW 5917   6.826   3.447   3.953
 1673SOL    HW1 5918   6.778   3.442   3.865
 1673SOL    HW2 5919   6.886   3.527   3.954
 1674SOL     OW 5920   1.355   3.927   0.293
 1674SOL    HW1 5921   1.276   3.989   0.290
 1674SOL    HW2 5922   1.365   3.883   0.204
 1675SOL     OW 5923   4.625   1.628   6.605
 1675SOL    HW1 5924   4.654   1.674   6.521
 1675SOL    HW2 5925   4.697   1.635   6.674
 1676SOL     OW 5926   1.742   0.574   3.014
 1676SOL    HW1 5927   1.813   0.644   3.011
 1676SOL    HW2 5928   1.769   0.503   3.079
 1677SOL     OW 5929   5.828   1.943   5.590
 1677SOL    HW1 5930   5.768   1.963   5.512
 1677SOL    HW2 5931   5.830   1.845   5.606
 1678SOL     OW 5932   5.150   6.781   2.103
 1678SOL    HW1 5933   5.125   6.692   2.141
 1678SOL    HW2 5934   5.142   6.779   2.003
 1679SOL     OW 5935   0.884   3.458   6.609
 1679SOL    HW1 5936   0.875   3.556   6.591
 1679SOL    HW2 5937   0.819   3.408   6.551
 1680SOL     OW 5938   0.593   1.681   4.081
 1680SOL    HW1 5939   0.633   1.604   4.032
 1680SOL    HW2 5940   0.529   1.730   4.021
 1681SOL     OW 5941   6.502   5.577   0.876
 1681SOL    HW1 5942   6.521   5.655   0.937
 1681SOL    HW2 5943   6.553   5.589   0.791
 1682SOL     OW 5944   6.518   3.204   5.496
 1682SOL    HW1 5945   6.441   3.223   5.556
 1682SOL    HW2 5946   6.494   3.228   5.402
 1683SOL     OW 5947   4.764   6.581   1.625
 1683SOL    HW1 5948   4.665   6.588   1.613
 1683SOL    HW2 5949   4.808   6.663   1.590
 1684SOL     OW 5950   0.184   6.485   5.527
 1684SOL    HW1 5951   0.248   6.437   5.466
 1684SOL    HW2 5952   0.090   6.470   5.495
 1685SOL     OW 5953   1.384   1.482   0.320
 1685SOL    HW1 5954   1.446   1.406   0.337
 1685SOL    HW2 5955   1.383   1.504   0.222
 1686SOL     OW 5956   1.428   6.554   6.316
 1686SOL    HW1 5957   1.513   6.533   6.365
 1686SOL    HW2 5958   1.451   6.599   6.229
 1687SOL     OW 5959   1.777   5.870   2.362
 1687SOL    HW1 5960   1.835   5.865   2.443
 1687SOL    HW2 5961   1.683   5.892   2.389
 1688SOL     OW 5962   1.591   2.016   2.802
 1688SOL    HW1 5963   1.571   1.928   2.844
 1688SOL    HW2 5964   1.677   2.011   2.753
 1689SOL     OW 5965   2.397   1.120   2.431
 1689SOL    HW1 5966   2.488   1.114   2.469
 1689SOL    HW2 5967   2.401   1.165   2.341
 1690SOL     OW 5968   1.736   1.609   1.455
 1690SOL    HW1 5969   1.761   1.644   1.545
 1690SOL    HW2 5970   1.811   1.625   1.391
 1691SOL     OW 5971   4.879   3.881   2.862
 1691SOL    HW1 5972   4.867   3.806   2.797
 1691SOL    HW2 5973   4.864   3.968   2.815
 1692SOL     OW 5974   0.830   0.381   2.083
 1692SOL    HW1 5975   0.739   0.370   2.045
 1692SOL    HW2 5976   0.889   0.424   2.015
 1693SOL     OW 5977   2.813   2.219   3.468
 1693SOL    HW1 5978   2.861   2.204   3.554
 1693SOL    HW2 5979   2.739   2.285   3.482
 1694SOL     OW 5980   4.602   5.695   4.924
 1694SOL    HW1 5981   4.516   5.741   4.903
 1694SOL    HW2 5982   4.609   5.679   5.022
 1695SOL     OW 5983   2.945   2.475   5.383
 1695SOL    HW1 5984   2.990   2.513   5.463
 1695SOL    HW2 5985   3.012   2.462   5.310
 1696SOL     OW 5986   5.147   5.988   0.415
 1696SOL    HW1 5987   5.191   5.941   0.491
 1696SOL    HW2 5988   5.143   5.927   0.336
 1697SOL     OW 5989   1.503   1.133   1.349
 1697SOL    HW1 5990   1.405   1.149   1.362
 1697SOL    HW2 5991   1.551   1.221   1.344
 1698SOL     OW 5992   4.465   2.139   1.399
 1698SOL    HW1 5993   4.546   2.124   1.455
 1698SOL    HW2 5994   4.385   2.149   1.458
 1699SOL     OW 5995   2.496   3.458   1.199
 1699SOL    HW1 5996   2.553   3.382   1.165
 1699SOL    HW2 5997   2.406   3.453   1.156
 1700SOL     OW 5998   0.146   3.041   3.000
 1700SOL    HW1 5999   0.195   2.989   3.070
 1700SOL    HW2 6000   0.066   2.989   2.969
 1701SOL     OW 6001   6.266   3.409   3.900
 1701SOL    HW1 6002   6.220   3.414   3.988
 1701SOL    HW2 6003   6.356   3.366   3.911
 1702SOL     OW 6004   5.308   3.960   1.213
 1702SOL    HW1 6005   5.343   3.934   1.303
 1702SOL    HW2 6006   5.214   3.928   1.204
 1703SOL     OW 6007   2.235   3.873   0.300
 1703SOL    HW1 6008   2.226   3.778   0.330
 1703SOL    HW2 6009   2.227   3.877   0.200
 1704SOL     OW 6010   0.304   0.134   1.598
 1704SOL    HW1 6011   0.242   0.213   1.595
 1704SOL    HW2 6012   0.303   0.095   1.690
 1705SOL     OW 6013   4.402   2.913   1.705
 1705SOL    HW1 6014   4.392   2.818   1.735
 1705SOL    HW2 6015   4.461   2.962   1.769
 1706SOL     OW 6016   3.375   0.660   1.021
 1706SOL    HW1 6017   3.335   0.752   1.013
 1706SOL    HW2 6018   3.306   0.597   1.058
 1707SOL     OW 6019   5.746   2.138   3.862
 1707SOL    HW1 6020   5.791   2.222   3.893
 1707SOL    HW2 6021   5.814   2.077   3.821
 1708SOL     OW 6022   6.697   5.564   3.276
 1708SOL    HW1 6023   6.695   5.663   3.292
 1708SOL    HW2 6024   6.744   5.519   3.352
 1709SOL     OW 6025   3.186   5.997   2.685
 1709SOL    HW1 6026   3.222   6.072   2.630
 1709SOL    HW2 6027   3.262   5.950   2.730
 1710SOL     OW 6028   0.306   5.258   4.364
 1710SOL    HW1 6029   0.285   5.184   4.299
 1710SOL    HW2 6030   0.375   5.318   4.325
 1711SOL     OW 6031   1.430   4.591   5.032
 1711SOL    HW1 6032   1.411   4.494   5.045
 1711SOL    HW2 6033   1.457   4.608   4.938
 1712SOL     OW 6034   0.147   4.432   0.576
 1712SOL    HW1 6035   0.056   4.394   0.558
 1712SOL    HW2 6036   0.146   4.477   0.666
 1713SOL     OW 6037   1.563   2.790   1.524
 1713SOL    HW1 6038   1.465   2.811   1.525
 1713SOL    HW2 6039   1.615   2.875   1.520
 1714SOL     OW 6040   3.442   2.260   0.500
 1714SOL    HW1 6041   3.492   2.302   0.576
 1714SOL    HW2 6042   3.405   2.332   0.441
 1715SOL     OW 6043   0.215   3.007   2.725
 1715SOL    HW1 6044   0.120   3.020   2.697
 1715SOL    HW2 6045   0.220   2.995   2.824
 1716SOL     OW 6046   0.195   6.226   6.960
 1716SOL    HW1 6047   0.114   6.170   6.944
 1716SOL    HW2 6048   0.245   6.237   6.874
 1717SOL     OW 6049   2.675   0.048   6.868
 1717SOL    HW1 6050   2.609   0.031   6.795
 1717SOL    HW2 6051   2.766   0.020   6.838
 1718SOL     OW 6052   1.624   4.534   0.127
 1718SOL    HW1 6053   1.566   4.546   0.047
 1718SOL    HW2 6054   1.650   4.624   0.163
 1719SOL     OW 6055   2.086   3.482   1.575
 1719SOL    HW1 6056   2.176   3.439   1.582
 1719SOL    HW2 6057   2.048   3.467   1.483
 1720SOL     OW 6058   6.474   1.339   0.268
 1720SOL    HW1 6059   6.498   1.388   0.184
 1720SOL    HW2 6060   6.428   1.253   0.245
 1721SOL     OW 6061   1.931   6.331   3.532
 1721SOL    HW1 6062   2.025   6.328   3.499
 1721SOL    HW2 6063   1.873   6.376   3.463
 1722SOL     OW 6064   6.160   6.952   2.016
 1722SOL    HW1 6065   6.260   6.964   2.019
 1722SOL    HW2 6066   6.138   6.859   2.045
 1723SOL     OW 6067   6.986   1.838   2.387
 1723SOL    HW1 6068   7.020   1.831   2.481
 1723SOL    HW2 6069   6.887   1.823   2.387
 1724SOL     OW 6070   4.491   1.004   6.765
 1724SOL    HW1 6071   4.587   1.033   6.766
 1724SOL    HW2 6072   4.461   0.986   6.858
 1725SOL     OW 6073   3.518   4.402   1.227
 1725SOL    HW1 6074   3.480   4.414   1.319
 1725SOL    HW2 6075   3.479   4.320   1.186
 1726SOL     OW 6076   0.239   4.340   4.363
 1726SOL    HW1 6077   0.214   4.265   4.302
 1726SOL    HW2 6078   0.249   4.304   4.456
 1727SOL     OW 6079   3.961   3.776   5.128
 1727SOL    HW1 6080   3.974   3.865   5.085
 1727SOL    HW2 6081   4.039   3.756   5.187
 1728SOL     OW 6082   4.489   4.716   3.775
 1728SOL    HW1 6083   4.530   4.741   3.862
 1728SOL    HW2 6084   4.450   4.797   3.731
 1729SOL     OW 6085   1.553   3.395   2.446
 1729SOL    HW1 6086   1.559   3.476   2.504
 1729SOL    HW2 6087   1.541   3.422   2.351
 1730SOL     OW 6088   6.399   2.557   4.963
 1730SOL    HW1 6089   6.413   2.580   5.060
 1730SOL    HW2 6090   6.342   2.626   4.920
 1731SOL     OW 6091   1.975   5.076   0.616
 1731SOL    HW1 6092   2.017   5.093   0.705
 1731SOL    HW2 6093   1.924   5.157   0.587
 1732SOL     OW 6094   1.126   4.523   0.204
 1732SOL    HW1 6095   1.058   4.456   0.233
 1732SOL    HW2 6096   1.080   4.607   0.176
 1733SOL     OW 6097   1.227   3.653   1.602
 1733SOL    HW1 6098   1.189   3.644   1.694
 1733SOL    HW2 6099   1.183   3.729   1.556
 1734SOL     OW 6100   4.021   2.919   1.103
 1734SOL    HW1 6101   4.011   2.870   1.016
 1734SOL    HW2 6102   3.969   3.004   1.099
 1735SOL     OW 6103   6.020   5.070   1.613
 1735SOL    HW1 6104   6.059   5.053   1.522
 1735SOL    HW2 6105   6.086   5.043   1.683
 1736SOL     OW 6106   3.583   3.029   6.931
 1736SOL    HW1 6107   3.563   2.932   6.949
 1736SOL    HW2 6108   3.507   3.085   6.963
 1737SOL     OW 6109   2.193   7.000   3.371
 1737SOL    HW1 6110   2.261   0.040   3.407
 1737SOL    HW2 6111   2.212   6.908   3.406
 1738SOL     OW 6112   2.214   2.965   2.409
 1738SOL    HW1 6113   2.226   3.039   2.475
 1738SOL    HW2 6114   2.246   2.879   2.449
 1739SOL     OW 6115   4.704   2.262   4.934
 1739SOL    HW1 6116   4.711   2.178   4.880
 1739SOL    HW2 6117   4.770   2.329   4.899
 1740SOL     OW 6118   0.118   0.837   6.144
 1740SOL    HW1 6119   0.192   0.879   6.092
 1740SOL    HW2 6120   0.042   0.902   6.152
 1741SOL     OW 6121   1.370   0.759   2.730
 1741SOL    HW1 6122   1.359   0.758   2.631
 1741SOL    HW2 6123   1.451   0.706   2.755
 1742SOL     OW 6124   6.143   0.716   4.707
 1742SOL    HW1 6125   6.169   0.650   4.777
 1742SOL    HW2 6126   6.224   0.746   4.657
 1743SOL     OW 6127   3.567   1.089   1.254
 1743SOL    HW1 6128   3.500   1.035   1.203
 1743SOL    HW2 6129   3.643   1.114   1.194
 1744SOL     OW 6130   2.610   1.167   1.655
 1744SOL    HW1 6131   2.520   1.137   1.625
 1744SOL    HW2 6132   2.624   1.140   1.751
 1745SOL     OW 6133   6.320   2.062   3.334
 1745SOL    HW1 6134   6.383   2.009   3.391
 1745SOL    HW2 6135   6.330   2.034   3.239
 1746SOL     OW 6136   3.120   0.630   5.884
 1746SOL    HW1 6137   3.205   0.579   5.872
 1746SOL    HW2 6138   3.104   0.688   5.805
 1747SOL     OW 6139   3.248   0.737   1.941
 1747SOL    HW1 6140   3.186   0.715   1.867
 1747SOL    HW2 6141   3.199   0.787   2.013
 1748SOL     OW 6142   5.896   1.950   3.753
 1748SOL    HW1 6143   5.967   1.950   3.683
 1748SOL    HW2 6144   5.854   1.859   3.759
 1749SOL     OW 6145   4.365   6.791   6.609
 1749SOL    HW1 6146   4.357   6.698   6.645
 1749SOL    HW2 6147   4.345   6.857   6.681
 1750SOL     OW 6148   4.749   1.741   2.783
 1750SOL    HW1 6149   4.731   1.839   2.786
 1750SOL    HW2 6150   4.700   1.701   2.706
 1751SOL     OW 6151   1.515   5.149   4.670
 1751SOL    HW1 6152   1.555   5.069   4.715
 1751SOL    HW2 6153   1.517   5.137   4.571
 1752SOL     OW 6154   6.565   1.557   0.834
 1752SOL    HW1 6155   6.640   1.552   0.768
 1752SOL    HW2 6156   6.478   1.539   0.788
 1753SOL     OW 6157   0.576   7.023   1.177
 1753SOL    HW1 6158   0.581   7.023   1.277
 1753SOL    HW2 6159   0.662   0.034   1.139
 1754SOL     OW 6160   3.748   3.317   0.964
 1754SOL    HW1 6161   3.715   3.379   1.035
 1754SOL    HW2 6162   3.773   3.229   1.005
 1755SOL     OW 6163   5.416   4.666   1.236
 1755SOL    HW1 6164   5.440   4.733   1.306
 1755SOL    HW2 6165   5.355   4.597   1.275
 1756SOL     OW 6166   6.385   5.373   3.927
 1756SOL    HW1 6167   6.410   5.284   3.890
 1756SOL    HW2 6168   6.432   5.387   4.015
 1757SOL     OW 6169   3.165   6.393   4.574
 1757SOL    HW1 6170   3.067   6.404   4.587
 1757SOL    HW2 6171   3.188   6.406   4.478
 1758SOL     OW 6172   2.428   0.561   3.362
 1758SOL    HW1 6173   2.492   0.637   3.371
 1758SOL    HW2 6174   2.389   0.561   3.270
 1759SOL     OW 6175   0.559   5.053   5.672
 1759SOL    HW1 6176   0.646   5.055   5.720
 1759SOL    HW2 6177   0.492   5.004   5.727
 1760SOL     OW 6178   6.369   0.976   1.938
 1760SOL    HW1 6179   6.294   0.910   1.947
 1760SOL    HW2 6180   6.381   1.001   1.842
 1761SOL     OW 6181   5.933   0.902   1.019
 1761SOL    HW1 6182   5.861   0.901   1.088
 1761SOL    HW2 6183   6.007   0.841   1.048
 1762SOL     OW 6184   6.170   1.858   6.293
 1762SOL    HW1 6185   6.092   1.918   6.314
 1762SOL    HW2 6186   6.217   1.893   6.212
 1763SOL     OW 6187   1.682   3.544   4.367
 1763SOL    HW1 6188   1.653   3.576   4.277
 1763SOL    HW2 6189   1.769   3.588   4.392
 1764SOL     OW 6190   0.909   3.165   3.083
 1764SOL    HW1 6191   0.820   3.181   3.127
 1764SOL    HW2 6192   0.893   3.135   2.989
 1765SOL     OW 6193   2.281   2.309   6.830
 1765SOL    HW1 6194   2.310   2.246   6.757
 1765SOL    HW2 6195   2.269   2.259   6.915
 1766SOL     OW 6196   5.580   3.088   5.068
 1766SOL    HW1 6197   5.606   3.077   4.973
 1766SOL    HW2 6198   5.572   3.185   5.090
 1767SOL     OW 6199   5.374   3.774   2.246
 1767SOL    HW1 6200   5.368   3.873   2.252
 1767SOL    HW2 6201   5.314   3.732   2.313
 1768SOL     OW 6202   4.525   6.345   3.285
 1768SOL    HW1 6203   4.484   6.435   3.270
 1768SOL    HW2 6204   4.509   6.316   3.379
 1769SOL     OW 6205   3.563   2.038   2.968
 1769SOL    HW1 6206   3.525   1.975   2.900
 1769SOL    HW2 6207   3.663   2.030   2.968
 1770SOL     OW 6208   2.614   5.828   5.620
 1770SOL    HW1 6209   2.620   5.923   5.649
 1770SOL    HW2 6210   2.606   5.769   5.701
 1771SOL     OW 6211   3.301   6.127   0.169
 1771SOL    HW1 6212   3.250   6.176   0.099
 1771SOL    HW2 6213   3.397   6.118   0.141
 1772SOL     OW 6214   3.306   6.665   2.958
 1772SOL    HW1 6215   3.265   6.658   3.049
 1772SOL    HW2 6216   3.352   6.754   2.949
 1773SOL     OW 6217   1.778   5.391   6.396
 1773SOL    HW1 6218   1.839   5.444   6.455
 1773SOL    HW2 6219   1.792   5.418   6.301
 1774SOL     OW 6220   4.377   5.538   1.464
 1774SOL    HW1 6221   4.388   5.497   1.554
 1774SOL    HW2 6222   4.406   5.633   1.466
 1775SOL     OW 6223   1.094   3.970   2.175
 1775SOL    HW1 6224   1.172   4.031   2.189
 1775SOL    HW2 6225   1.085   3.949   2.078
 1776SOL     OW 6226   4.282   6.185   4.014
 1776SOL    HW1 6227   4.248   6.272   3.976
 1776SOL    HW2 6228   4.261   6.181   4.112
 1777SOL     OW 6229   4.267   6.212   0.149
 1777SOL    HW1 6230   4.227   6.204   0.057
 1777SOL    HW2 6231   4.199   6.250   0.212
 1778SOL     OW 6232   4.423   3.183   6.194
 1778SOL    HW1 6233   4.449   3.170   6.290
 1778SOL    HW2 6234   4.408   3.094   6.151
 1779SOL     OW 6235   3.335   0.886   5.242
 1779SOL    HW1 6236   3.298   0.805   5.288
 1779SOL    HW2 6237   3.434   0.874   5.229
 1780SOL     OW 6238   3.683   3.344   6.133
 1780SOL    HW1 6239   3.645   3.417   6.078
 1780SOL    HW2 6240   3.671   3.365   6.230
 1781SOL     OW 6241   4.086   5.858   3.124
 1781SOL    HW1 6242   4.092   5.766   3.161
 1781SOL    HW2 6243   4.094   5.854   3.024
 1782SOL     OW 6244   3.172   1.065   3.342
 1782SOL    HW1 6245   3.157   0.989   3.279
 1782SOL    HW2 6246   3.230   1.035   3.418
 1783SOL     OW 6247   2.600   5.214   6.308
 1783SOL    HW1 6248   2.528   5.148   6.287
 1783SOL    HW2 6249   2.686   5.184   6.265
 1784SOL     OW 6250   3.509   0.202   6.020
 1784SOL    HW1 6251   3.520   0.261   6.100
 1784SOL    HW2 6252   3.578   0.226   5.952
 1785SOL     OW 6253   5.949   3.729   2.613
 1785SOL    HW1 6254   5.899   3.802   2.566
 1785SOL    HW2 6255   5.929   3.641   2.569
 1786SOL     OW 6256   2.298   2.696   0.461
 1786SOL    HW1 6257   2.256   2.617   0.505
 1786SOL    HW2 6258   2.249   2.718   0.377
 1787SOL     OW 6259   3.556   1.391   5.410
 1787SOL    HW1 6260   3.560   1.337   5.326
 1787SOL    HW2 6261   3.463   1.393   5.445
 1788SOL     OW 6262   1.425   5.030   6.106
 1788SOL    HW1 6263   1.378   5.081   6.178
 1788SOL    HW2 6264   1.450   4.940   6.139
 1789SOL     OW 6265   5.544   2.190   0.755
 1789SOL    HW1 6266   5.532   2.276   0.706
 1789SOL    HW2 6267   5.512   2.200   0.850
 1790SOL     OW 6268   3.962   6.733   3.328
 1790SOL    HW1 6269   3.865   6.748   3.308
 1790SOL    HW2 6270   3.971   6.685   3.415
 1791SOL     OW 6271   6.894   6.995   2.418
 1791SOL    HW1 6272   6.905   6.896   2.428
 1791SOL    HW2 6273   6.800   7.015   2.388
 1792SOL     OW 6274   0.568   4.076   5.104
 1792SOL    HW1 6275   0.566   4.078   5.004
 1792SOL    HW2 6276   0.513   4.151   5.140
 1793SOL     OW 6277   6.766   0.654   3.585
 1793SOL    HW1 6278   6.707   0.726   3.550
 1793SOL    HW2 6279   6.787   0.673   3.681
 1794SOL     OW 6280   5.026   5.917   5.716
 1794SOL    HW1 6281   4.945   5.899   5.771
 1794SOL    HW2 6282   5.092   5.970   5.769
 1795SOL     OW 6283   0.209   2.367   0.672
 1795SOL    HW1 6284   0.289   2.387   0.616
 1795SOL    HW2 6285   0.138   2.436   0.653
 1796SOL     OW 6286   2.606   1.098   6.029
 1796SOL    HW1 6287   2.589   1.002   6.010
 1796SOL    HW2 6288   2.527   1.138   6.075
 1797SOL     OW 6289   0.947   6.932   0.577
 1797SOL    HW1 6290   0.926   0.004   0.594
 1797SOL    HW2 6291   0.863   6.879   0.572
 1798SOL     OW 6292   4.500   2.454   4.135
 1798SOL    HW1 6293   4.555   2.534   4.110
 1798SOL    HW2 6294   4.559   2.375   4.151
 1799SOL     OW 6295   0.064   2.556   4.692
 1799SOL    HW1 6296   0.030   2.584   4.781
 1799SOL    HW2 6297   0.158   2.588   4.681
 1800SOL     OW 6298   3.949   4.303   1.617
 1800SOL    HW1 6299   3.871   4.359   1.645
 1800SOL    HW2 6300   4.022   4.363   1.582
 1801SOL     OW 6301   0.071   0.743   2.056
 1801SOL    HW1 6302   0.162   0.709   2.082
 1801SOL    HW2 6303   0.063   0.743   1.956
 1802SOL     OW 6304   6.209   5.752   3.785
 1802SOL    HW1 6305   6.145   5.707   3.847
 1802SOL    HW2 6306   6.168   5.837   3.751
 1803SOL     OW 6307   0.342   5.032   6.888
 1803SOL    HW1 6308   0.366   5.122   6.850
 1803SOL    HW2 6309   0.324   5.041   6.986
 1804SOL     OW 6310   2.741   4.223   5.505
 1804SOL    HW1 6311   2.744   4.306   5.450
 1804SOL    HW2 6312   2.700   4.149   5.452
 1805SOL     OW 6313   5.142   3.725   6.411
 1805SOL    HW1 6314   5.081   3.736   6.333
 1805SOL    HW2 6315   5.091   3.685   6.488
 1806SOL     OW 6316   0.552   0.346   0.919
 1806SOL    HW1 6317   0.635   0.321   0.868
 1806SOL    HW2 6318   0.578   0.381   1.009
 1807SOL     OW 6319   6.265   1.716   4.554
 1807SOL    HW1 6320   6.320   1.676   4.480
 1807SOL    HW2 6321   6.177   1.668   4.560
 1808SOL     OW 6322   0.135   5.327   4.733
 1808SOL    HW1 6323   0.194   5.247   4.729
 1808SOL    HW2 6324   0.176   5.395   4.795
 1809SOL     OW 6325   2.829   1.840   5.794
 1809SOL    HW1 6326   2.876   1.851   5.706
 1809SOL    HW2 6327   2.740   1.798   5.779
 1810SOL     OW 6328   3.411   0.303   3.600
 1810SOL    HW1 6329   3.387   0.215   3.559
 1810SOL    HW2 6330   3.377   0.307   3.694
 1811SOL     OW 6331   5.911   5.975   3.482
 1811SOL    HW1 6332   6.003   5.942   3.459
 1811SOL    HW2 6333   5.845   5.938   3.416
 1812SOL     OW 6334   4.337   5.786   4.843
 1812SOL    HW1 6335   4.286   5.700   4.840
 1812SOL    HW2 6336   4.326   5.834   4.756
 1813SOL     OW 6337   5.689   3.901   0.630
 1813SOL    HW1 6338   5.693   3.832   0.557
 1813SOL    HW2 6339   5.740   3.982   0.602
 1814SOL     OW 6340   4.624   6.869   2.132
 1814SOL    HW1 6341   4.531   6.882   2.099
 1814SOL    HW2 6342   4.686   6.859   2.054
 1815SOL     OW 6343   0.178   1.589   2.901
 1815SOL    HW1 6344   0.271   1.616   2.874
 1815SOL    HW2 6345   0.128   1.557   2.820
 1816SOL     OW 6346   2.052   2.947   1.179
 1816SOL    HW1 6347   2.141   2.989   1.196
 1816SOL    HW2 6348   2.062   2.848   1.172
 1817SOL     OW 6349   1.978   6.782   2.497
 1817SOL    HW1 6350   2.021   6.705   2.452
 1817SOL    HW2 6351   2.033   6.810   2.576
 1818SOL     OW 6352   1.674   0.244   3.160
 1818SOL    HW1 6353   1.717   0.156   3.136
 1818SOL    HW2 6354   1.744   0.307   3.193
 1819SOL     OW 6355   1.185   4.115   1.415
 1819SOL    HW1 6356   1.142   4.165   1.491
 1819SOL    HW2 6357   1.178   4.169   1.331
 1820SOL     OW 6358   4.360   1.084   2.210
 1820SOL    HW1 6359   4.441   1.064   2.156
 1820SOL    HW2 6360   4.303   1.151   2.162
 1821SOL     OW 6361   1.608   1.303   2.622
 1821SOL    HW1 6362   1.599   1.205   2.639
 1821SOL    HW2 6363   1.529   1.336   2.570
 1822SOL     OW 6364   3.573   2.747   1.721
 1822SOL    HW1 6365   3.495   2.714   1.667
 1822SOL    HW2 6366   3.610   2.671   1.774
 1823SOL     OW 6367   3.985   6.457   2.488
 1823SOL    HW1 6368   4.064   6.475   2.546
 1823SOL    HW2 6369   4.000   6.373   2.436
 1824SOL     OW 6370   4.115   2.466   1.407
 1824SOL    HW1 6371   4.129   2.557   1.368
 1824SOL    HW2 6372   4.173   2.400   1.359
 1825SOL     OW 6373   1.063   0.678   1.354
 1825SOL    HW1 6374   0.999   0.650   1.425
 1825SOL    HW2 6375   1.068   0.778   1.351
 1826SOL     OW 6376   3.093   1.377   0.987
 1826SOL    HW1 6377   3.146   1.433   0.924
 1826SOL    HW2 6378   3.086   1.284   0.950
 1827SOL     OW 6379   7.018   5.636   1.665
 1827SOL    HW1 6380   6.925   5.646   1.629
 1827SOL    HW2 6381   0.060   5.671   1.597
 1828SOL     OW 6382   0.966   3.028   0.086
 1828SOL    HW1 6383   0.911   2.981   0.155
 1828SOL    HW2 6384   0.926   3.011   7.019
 1829SOL     OW 6385   5.133   6.083   3.019
 1829SOL    HW1 6386   5.036   6.067   3.035
 1829SOL    HW2 6387   5.150   6.182   3.016
 1830SOL     OW 6388   4.671   6.789   3.784
 1830SOL    HW1 6389   4.658   6.847   3.703
 1830SOL    HW2 6390   4.608   6.712   3.779
 1831SOL     OW 6391   5.745   6.390   2.525
 1831SOL    HW1 6392   5.827   6.392   2.467
 1831SOL    HW2 6393   5.663   6.390   2.468
 1832SOL     OW 6394   4.547   2.570   1.286
 1832SOL    HW1 6395   4.462   2.569   1.233
 1832SOL    HW2 6396   4.620   2.527   1.233
 1833SOL     OW 6397   5.047   0.762   4.826
 1833SOL    HW1 6398   5.003   0.674   4.847
 1833SOL    HW2 6399   5.108   0.751   4.748
 1834SOL     OW 6400   3.337   3.423   0.889
 1834SOL    HW1 6401   3.352   3.324   0.893
 1834SOL    HW2 6402   3.350   3.462   0.980
 1835SOL     OW 6403   1.786   5.089   0.985
 1835SOL    HW1 6404   1.822   5.178   0.955
 1835SOL    HW2 6405   1.793   5.082   1.084
 1836SOL     OW 6406   0.060   1.043   0.781
 1836SOL    HW1 6407   0.074   1.005   0.690
 1836SOL    HW2 6408   0.030   0.970   0.843
 1837SOL     OW 6409   0.779   2.284   4.132
 1837SOL    HW1 6410   0.780   2.287   4.232
 1837SOL    HW2 6411   0.846   2.350   4.097
 1838SOL     OW 6412   0.465   2.683   4.054
 1838SOL    HW1 6413   0.426   2.775   4.061
 1838SOL    HW2 6414   0.512   2.659   4.138
 1839SOL     OW 6415   6.504   3.291   4.611
 1839SOL    HW1 6416   6.491   3.194   4.590
 1839SOL    HW2 6417   6.575   3.329   4.551
 1840SOL     OW 6418   2.558   6.002   0.419
 1840SOL    HW1 6419   2.602   5.922   0.378
 1840SOL    HW2 6420   2.502   6.048   0.351
 1841SOL     OW 6421   2.103   3.426   4.002
 1841SOL    HW1 6422   2.122   3.510   3.950
 1841SOL    HW2 6423   2.012   3.434   4.044
 1842SOL     OW 6424   0.611   5.222   0.499
 1842SOL    HW1 6425   0.704   5.254   0.521
 1842SOL    HW2 6426   0.549   5.246   0.573
 1843SOL     OW 6427   2.288   1.659   5.721
 1843SOL    HW1 6428   2.286   1.702   5.630
 1843SOL    HW2 6429   2.316   1.564   5.712
 1844SOL     OW 6430   3.993   2.051   4.616
 1844SOL    HW1 6431   4.056   2.092   4.550
 1844SOL    HW2 6432   3.900   2.082   4.596
 1845SOL     OW 6433   3.898   0.377   6.738
 1845SOL    HW1 6434   3.810   0.424   6.750
 1845SOL    HW2 6435   3.906   0.346   6.643
 1846SOL     OW 6436   3.859   2.051   6.627
 1846SOL    HW1 6437   3.950   2.018   6.651
 1846SOL    HW2 6438   3.790   1.986   6.659
 1847SOL     OW 6439   0.615   0.026   0.832
 1847SOL    HW1 6440   0.629   7.005   0.920
 1847SOL    HW2 6441   0.699   0.072   0.803
 1848SOL     OW 6442   3.119   6.162   2.255
 1848SOL    HW1 6443   3.055   6.233   2.283
 1848SOL    HW2 6444   3.071   6.075   2.245
 1849SOL     OW 6445   3.606   1.287   0.297
 1849SOL    HW1 6446   3.684   1.224   0.299
 1849SOL    HW2 6447   3.569   1.297   0.389
 1850SOL     OW 6448   6.190   2.346   2.998
 1850SOL    HW1 6449   6.141   2.384   2.920
 1850SOL    HW2 6450   6.132   2.279   3.045
 1851SOL     OW 6451   0.546   1.530   2.396
 1851SOL    HW1 6452   0.505   1.621   2.403
 1851SOL    HW2 6453   0.504   1.480   2.321
 1852SOL     OW 6454   3.829   3.291   0.313
 1852SOL    HW1 6455   3.744   3.342   0.305
 1852SOL    HW2 6456   3.870   3.279   0.223
 1853SOL     OW 6457   0.734   4.117   1.276
 1853SOL    HW1 6458   0.705   4.059   1.200
 1853SOL    HW2 6459   0.777   4.061   1.347
 1854SOL     OW 6460   2.900   5.564   4.605
 1854SOL    HW1 6461   2.899   5.580   4.704
 1854SOL    HW2 6462   2.940   5.474   4.587
 1855SOL     OW 6463   4.844   5.550   0.584
 1855SOL    HW1 6464   4.811   5.546   0.678
 1855SOL    HW2 6465   4.787   5.612   0.530
 1856SOL     OW 6466   5.406   2.895   5.206
 1856SOL    HW1 6467   5.431   2.809   5.162
 1856SOL    HW2 6468   5.435   2.971   5.149
 1857SOL     OW 6469   3.823   0.836   4.712
 1857SOL    HW1 6470   3.865   0.774   4.779
 1857SOL    HW2 6471   3.890   0.859   4.642
 1858SOL     OW 6472   5.175   3.096   3.928
 1858SOL    HW1 6473   5.171   3.001   3.959
 1858SOL    HW2 6474   5.151   3.101   3.831
 1859SOL     OW 6475   4.386   1.912   3.756
 1859SOL    HW1 6476   4.380   2.010   3.774
 1859SOL    HW2 6477   4.326   1.862   3.819
 1860SOL     OW 6478   6.302   0.915   4.218
 1860SOL    HW1 6479   6.204   0.929   4.232
 1860SOL    HW2 6480   6.327   0.940   4.125
 1861SOL     OW 6481   4.861   6.437   2.876
 1861SOL    HW1 6482   4.860   6.492   2.960
 1861SOL    HW2 6483   4.899   6.492   2.802
 1862SOL     OW 6484   1.921   1.247   6.915
 1862SOL    HW1 6485   1.893   1.211   6.826
 1862SOL    HW2 6486   1.844   1.243   6.978
 1863SOL     OW 6487   2.811   2.726   1.347
 1863SOL    HW1 6488   2.750   2.720   1.268
 1863SOL    HW2 6489   2.878   2.799   1.333
 1864SOL     OW 6490   0.487   6.276   4.151
 1864SOL    HW1 6491   0.525   6.368   4.162
 1864SOL    HW2 6492   0.389   6.278   4.171
 1865SOL     OW 6493   3.752   1.770   5.550
 1865SOL    HW1 6494   3.661   1.794   5.584
 1865SOL    HW2 6495   3.782   1.839   5.484
 1866SOL     OW 6496   4.433   4.503   2.191
 1866SOL    HW1 6497   4.411   4.465   2.101
 1866SOL    HW2 6498   4.493   4.440   2.240
 1867SOL     OW 6499   0.315   4.457   6.832
 1867SOL    HW1 6500   0.338   4.390   6.902
 1867SOL    HW2 6501   0.375   4.536   6.840
 1868SOL     OW 6502   5.595   4.910   6.336
 1868SOL    HW1 6503   5.575   4.877   6.244
 1868SOL    HW2 6504   5.534   4.865   6.401
 1869SOL     OW 6505   6.361   1.149   5.160
 1869SOL    HW1 6506   6.424   1.178   5.232
 1869SOL    HW2 6507   6.395   1.181   5.071
 1870SOL     OW 6508   1.632   4.753   5.177
 1870SOL    HW1 6509   1.539   4.726   5.150
 1870SOL    HW2 6510   1.690   4.760   5.096
 1871SOL     OW 6511   2.321   0.446   0.493
 1871SOL    HW1 6512   2.366   0.491   0.416
 1871SOL    HW2 6513   2.290   0.355   0.464
 1872SOL     OW 6514   2.739   4.513   0.363
 1872SOL    HW1 6515   2.691   4.600   0.375
 1872SOL    HW2 6516   2.802   4.498   0.440
 1873SOL     OW 6517   3.824   1.416   5.843
 1873SOL    HW1 6518   3.815   1.364   5.758
 1873SOL    HW2 6519   3.821   1.514   5.823
 1874SOL     OW 6520   1.838   1.656   2.177
 1874SOL    HW1 6521   1.848   1.718   2.254
 1874SOL    HW2 6522   1.821   1.563   2.211
 1875SOL     OW 6523   0.371   6.769   6.172
 1875SOL    HW1 6524   0.283   6.776   6.217
 1875SOL    HW2 6525   0.370   6.823   6.087
 1876SOL     OW 6526   2.702   6.774   4.236
 1876SOL    HW1 6527   2.619   6.807   4.190
 1876SOL    HW2 6528   2.695   6.790   4.334
 1877SOL     OW 6529   1.067   0.672   4.070
 1877SOL    HW1 6530   0.981   0.650   4.114
 1877SOL    HW2 6531   1.143   0.637   4.125
 1878SOL     OW 6532   6.977   2.051   4.152
 1878SOL    HW1 6533   6.967   2.110   4.232
 1878SOL    HW2 6534   6.987   1.956   4.182
 1879SOL     OW 6535   1.341   3.630   4.925
 1879SOL    HW1 6536   1.267   3.577   4.966
 1879SOL    HW2 6537   1.331   3.631   4.826
 1880SOL     OW 6538   6.582   1.775   4.970
 1880SOL    HW1 6539   6.644   1.817   4.904
 1880SOL    HW2 6540   6.497   1.828   4.974
 1881SOL     OW 6541   6.565   1.838   0.467
 1881SOL    HW1 6542   6.617   1.921   0.488
 1881SOL    HW2 6543   6.629   1.762   0.450
 1882SOL     OW 6544   0.982   3.834   6.021
 1882SOL    HW1 6545   1.037   3.857   6.102
 1882SOL    HW2 6546   1.038   3.785   5.955
 1883SOL     OW 6547   6.673   2.112   2.477
 1883SOL    HW1 6548   6.753   2.128   2.420
 1883SOL    HW2 6549   6.620   2.035   2.441
 1884SOL     OW 6550   0.495   2.063   1.592
 1884SOL    HW1 6551   0.489   2.024   1.683
 1884SOL    HW2 6552   0.424   2.133   1.579
 1885SOL     OW 6553   1.810   1.647   5.669
 1885SOL    HW1 6554   1.872   1.640   5.590
 1885SOL    HW2 6555   1.737   1.580   5.660
 1886SOL     OW 6556   1.510   0.160   2.577
 1886SOL    HW1 6557   1.510   0.201   2.486
 1886SOL    HW2 6558   1.475   0.066   2.572
 1887SOL     OW 6559   1.430   6.044   6.054
 1887SOL    HW1 6560   1.343   6.060   6.101
 1887SOL    HW2 6561   1.459   5.949   6.069
 1888SOL     OW 6562   3.230   2.093   0.635
 1888SOL    HW1 6563   3.308   2.143   0.598
 1888SOL    HW2 6564   3.261   2.032   0.708
 1889SOL     OW 6565   1.245   3.553   3.469
 1889SOL    HW1 6566   1.280   3.556   3.563
 1889SOL    HW2 6567   1.286   3.626   3.416
 1890SOL     OW 6568   0.872   5.931   3.330
 1890SOL    HW1 6569   0.832   5.840   3.339
 1890SOL    HW2 6570   0.955   5.937   3.385
 1891SOL     OW 6571   3.943   3.075   2.174
 1891SOL    HW1 6572   4.023   3.132   2.187
 1891SOL    HW2 6573   3.860   3.130   2.184
 1892SOL     OW 6574   0.052   0.018   1.890
 1892SOL    HW1 6575   0.137   0.054   1.927
 1892SOL    HW2 6576   0.064   6.947   1.860
 1893SOL     OW 6577   3.703   3.284   2.991
 1893SOL    HW1 6578   3.679   3.361   2.932
 1893SOL    HW2 6579   3.733   3.318   3.080
 1894SOL     OW 6580   3.384   3.695   4.167
 1894SOL    HW1 6581   3.354   3.607   4.131
 1894SOL    HW2 6582   3.320   3.767   4.139
 1895SOL     OW 6583   4.475   0.440   0.618
 1895SOL    HW1 6584   4.498   0.472   0.710
 1895SOL    HW2 6585   4.438   0.517   0.565
 1896SOL     OW 6586   5.468   1.592   0.901
 1896SOL    HW1 6587   5.484   1.531   0.823
 1896SOL    HW2 6588   5.393   1.655   0.878
 1897SOL     OW 6589   2.282   4.581   3.183
 1897SOL    HW1 6590   2.292   4.524   3.264
 1897SOL    HW2 6591   2.353   4.652   3.183
 1898SOL     OW 6592   1.493   5.234   2.990
 1898SOL    HW1 6593   1.487   5.297   2.913
 1898SOL    HW2 6594   1.436   5.266   3.065
 1899SOL     OW 6595   6.943   0.112   1.638
 1899SOL    HW1 6596   6.867   0.177   1.637
 1899SOL    HW2 6597   6.979   0.105   1.731
 1900SOL     OW 6598   2.743   0.435   6.809
 1900SOL    HW1 6599   2.765   0.504   6.740
 1900SOL    HW2 6600   2.646   0.438   6.830
 1901SOL     OW 6601   2.758   3.618   1.218
 1901SOL    HW1 6602   2.807   3.549   1.165
 1901SOL    HW2 6603   2.660   3.599   1.215
 1902SOL     OW 6604   2.131   0.039   4.374
 1902SOL    HW1 6605   2.102   6.971   4.346
 1902SOL    HW2 6606   2.057   0.104   4.355
 1903SOL     OW 6607   0.716   2.593   3.870
 1903SOL    HW1 6608   0.659   2.516   3.898
 1903SOL    HW2 6609   0.793   2.559   3.816
 1904SOL     OW 6610   5.978   5.576   2.881
 1904SOL    HW1 6611   5.947   5.506   2.944
 1904SOL    HW2 6612   6.037   5.641   2.929
 1905SOL     OW 6613   0.708   0.921   3.889
 1905SOL    HW1 6614   0.699   0.838   3.944
 1905SOL    HW2 6615   0.723   0.895   3.793
 1906SOL     OW 6616   2.489   0.320   6.148
 1906SOL    HW1 6617   2.586   0.323   6.169
 1906SOL    HW2 6618   2.441   0.390   6.201
 1907SOL     OW 6619   5.382   3.008   0.053
 1907SOL    HW1 6620   5.379   2.974   6.983
 1907SOL    HW2 6621   5.350   2.937   0.116
 1908SOL     OW 6622   3.898   0.143   0.372
 1908SOL    HW1 6623   3.833   0.185   0.435
 1908SOL    HW2 6624   3.963   0.087   0.423
 1909SOL     OW 6625   0.067   3.986   4.930
 1909SOL    HW1 6626   0.135   3.918   4.958
 1909SOL    HW2 6627   0.023   4.025   5.011
 1910SOL     OW 6628   6.217   5.881   6.026
 1910SOL    HW1 6629   6.208   5.897   5.928
 1910SOL    HW2 6630   6.311   5.854   6.046
 1911SOL     OW 6631   6.886   5.006   4.210
 1911SOL    HW1 6632   6.841   5.004   4.120
 1911SOL    HW2 6633   6.968   4.950   4.207
 1912SOL     OW 6634   2.660   4.932   2.649
 1912SOL    HW1 6635   2.739   4.917   2.590
 1912SOL    HW2 6636   2.675   5.013   2.706
 1913SOL     OW 6637   2.457   4.918   5.049
 1913SOL    HW1 6638   2.547   4.875   5.053
 1913SOL    HW2 6639   2.466   5.017   5.054
 1914SOL     OW 6640   2.492   4.659   6.034
 1914SOL    HW1 6641   2.532   4.663   6.126
 1914SOL    HW2 6642   2.454   4.568   6.019
 1915SOL     OW 6643   4.925   2.640   6.239
 1915SOL    HW1 6644   4.836   2.596   6.251
 1915SOL    HW2 6645   4.993   2.571   6.214
 1916SOL     OW 6646   4.120   6.989   1.606
 1916SOL    HW1 6647   4.161   0.027   1.673
 1916SOL    HW2 6648   4.175   6.990   1.522
 1917SOL     OW 6649   2.316   4.302   1.168
 1917SOL    HW1 6650   2.364   4.219   1.140
 1917SOL    HW2 6651   2.238   4.277   1.226
 1918SOL     OW 6652   0.278   1.485   4.923
 1918SOL    HW1 6653   0.300   1.509   5.017
 1918SOL    HW2 6654   0.190   1.439   4.919
 1919SOL     OW 6655   1.305   2.469   1.393
 1919SOL    HW1 6656   1.261   2.383   1.421
 1919SOL    HW2 6657   1.396   2.475   1.434
 1920SOL     OW 6658   5.215   2.438   1.421
 1920SOL    HW1 6659   5.170   2.466   1.506
 1920SOL    HW2 6660   5.308   2.475   1.418
 1921SOL     OW 6661   1.438   2.760   6.832
 1921SOL    HW1 6662   1.344   2.789   6.816
 1921SOL    HW2 6663   1.499   2.800   6.764
 1922SOL     OW 6664   3.190   3.473   2.184
 1922SOL    HW1 6665   3.101   3.480   2.229
 1922SOL    HW2 6666   3.192   3.535   2.105
 1923SOL     OW 6667   4.602   0.561   5.570
 1923SOL    HW1 6668   4.666   0.498   5.527
 1923SOL    HW2 6669   4.652   0.622   5.632
 1924SOL     OW 6670   4.544   0.052   1.137
 1924SOL    HW1 6671   4.568   0.106   1.056
 1924SOL    HW2 6672   4.621   7.017   1.162
 1925SOL     OW 6673   1.194   4.382   0.701
 1925SOL    HW1 6674   1.111   4.438   0.692
 1925SOL    HW2 6675   1.242   4.379   0.614
 1926SOL     OW 6676   3.797   0.071   1.818
 1926SOL    HW1 6677   3.710   0.024   1.830
 1926SOL    HW2 6678   3.799   0.154   1.874
 1927SOL     OW 6679   2.065   4.781   1.698
 1927SOL    HW1 6680   2.138   4.795   1.630
 1927SOL    HW2 6681   2.092   4.824   1.784
 1928SOL     OW 6682   4.680   4.226   3.358
 1928SOL    HW1 6683   4.662   4.272   3.270
 1928SOL    HW2 6684   4.686   4.128   3.343
 1929SOL     OW 6685   3.229   0.619   2.781
 1929SOL    HW1 6686   3.165   0.548   2.751
 1929SOL    HW2 6687   3.185   0.709   2.774
 1930SOL     OW 6688   4.817   3.218   6.671
 1930SOL    HW1 6689   4.911   3.197   6.696
 1930SOL    HW2 6690   4.759   3.139   6.689
 1931SOL     OW 6691   0.881   1.364   5.622
 1931SOL    HW1 6692   0.964   1.312   5.598
 1931SOL    HW2 6693   0.800   1.311   5.597
 1932SOL     OW 6694   4.600   2.110   2.982
 1932SOL    HW1 6695   4.679   2.120   3.043
 1932SOL    HW2 6696   4.525   2.167   3.016
 1933SOL     OW 6697   0.697   1.444   0.708
 1933SOL    HW1 6698   0.786   1.444   0.663
 1933SOL    HW2 6699   0.708   1.471   0.804
 1934SOL     OW 6700   7.005   0.025   5.707
 1934SOL    HW1 6701   6.964   0.113   5.684
 1934SOL    HW2 6702   0.031   7.014   5.628
 1935SOL     OW 6703   6.254   4.960   3.885
 1935SOL    HW1 6704   6.209   4.909   3.958
 1935SOL    HW2 6705   6.194   4.965   3.805
 1936SOL     OW 6706   4.958   3.208   4.791
 1936SOL    HW1 6707   4.947   3.298   4.748
 1936SOL    HW2 6708   5.034   3.160   4.747
 1937SOL     OW 6709   5.183   4.698   6.816
 1937SOL    HW1 6710   5.171   4.686   6.717
 1937SOL    HW2 6711   5.196   4.795   6.836
 1938SOL     OW 6712   1.145   2.597   6.711
 1938SOL    HW1 6713   1.078   2.552   6.653
 1938SOL    HW2 6714   1.141   2.558   6.803
 1939SOL     OW 6715   1.272   6.502   4.997
 1939SOL    HW1 6716   1.310   6.567   4.932
 1939SOL    HW2 6717   1.176   6.524   5.014
 1940SOL     OW 6718   6.462   4.907   1.577
 1940SOL    HW1 6719   6.506   4.817   1.570
 1940SOL    HW2 6720   6.514   4.966   1.638
 1941SOL     OW 6721   0.894   3.057   4.136
 1941SOL    HW1 6722   0.885   2.987   4.207
 1941SOL    HW2 6723   0.835   3.034   4.059
 1942SOL     OW 6724   5.684   3.774   2.178
 1942SOL    HW1 6725   5.655   3.867   2.203
 1942SOL    HW2 6726   5.629   3.741   2.102
 1943SOL     OW 6727   1.031   1.174   2.265
 1943SOL    HW1 6728   1.078   1.157   2.178
 1943SOL    HW2 6729   0.984   1.262   2.261
 1944SOL     OW 6730   6.892   2.814   1.322
 1944SOL    HW1 6731   6.983   2.842   1.352
 1944SOL    HW2 6732   6.899   2.734   1.263
 1945SOL     OW 6733   4.583   0.121   1.714
 1945SOL    HW1 6734   4.527   0.120   1.797
 1945SOL    HW2 6735   4.564   0.204   1.662
 1946SOL     OW 6736   6.076   5.905   1.504
 1946SOL    HW1 6737   6.008   5.846   1.459
 1946SOL    HW2 6738   6.099   5.981   1.444
 1947SOL     OW 6739   5.564   4.459   3.413
 1947SOL    HW1 6740   5.517   4.546   3.422
 1947SOL    HW2 6741   5.619   4.442   3.494
 1948SOL     OW 6742   4.876   3.344   3.010
 1948SOL    HW1 6743   4.951   3.332   3.074
 1948SOL    HW2 6744   4.802   3.395   3.055
 1949SOL     OW 6745   3.526   5.199   6.627
 1949SOL    HW1 6746   3.507   5.117   6.681
 1949SOL    HW2 6747   3.460   5.205   6.552
 1950SOL     OW 6748   3.784   4.104   4.352
 1950SOL    HW1 6749   3.731   4.159   4.417
 1950SOL    HW2 6750   3.835   4.035   4.402
 1951SOL     OW 6751   6.697   4.486   5.483
 1951SOL    HW1 6752   6.640   4.476   5.402
 1951SOL    HW2 6753   6.786   4.523   5.457
 1952SOL     OW 6754   5.488   4.320   0.057
 1952SOL    HW1 6755   5.580   4.335   0.018
 1952SOL    HW2 6756   5.420   4.331   7.008
 1953SOL     OW 6757   0.777   1.725   6.498
 1953SOL    HW1 6758   0.832   1.723   6.415
 1953SOL    HW2 6759   0.737   1.635   6.514
 1954SOL     OW 6760   3.918   6.821   1.519
 1954SOL    HW1 6761   3.969   6.893   1.566
 1954SOL    HW2 6762   3.850   6.783   1.582
 1955SOL     OW 6763   0.812   1.268   2.041
 1955SOL    HW1 6764   0.890   1.313   2.085
 1955SOL    HW2 6765   0.758   1.336   1.992
 1956SOL     OW 6766   5.743   0.620   2.015
 1956SOL    HW1 6767   5.822   0.572   2.055
 1956SOL    HW2 6768   5.696   0.672   2.087
 1957SOL     OW 6769   5.579   2.302   4.127
 1957SOL    HW1 6770   5.579   2.237   4.203
 1957SOL    HW2 6771   5.523   2.264   4.052
 1958SOL     OW 6772   4.457   1.518   1.007
 1958SOL    HW1 6773   4.415   1.609   1.010
 1958SOL    HW2 6774   4.555   1.527   0.988
 1959SOL     OW 6775   0.429   0.093   4.318
 1959SOL    HW1 6776   0.435   0.096   4.418
 1959SOL    HW2 6777   0.341   0.052   4.292
 1960SOL     OW 6778   5.694   4.119   3.739
 1960SOL    HW1 6779   5.714   4.069   3.655
 1960SOL    HW2 6780   5.619   4.074   3.787
 1961SOL     OW 6781   6.684   4.052   4.653
 1961SOL    HW1 6782   6.600   4.003   4.629
 1961SOL    HW2 6783   6.724   4.091   4.570
 1962SOL     OW 6784   0.897   0.334   2.887
 1962SOL    HW1 6785   0.967   0.367   2.824
 1962SOL    HW2 6786   0.821   0.294   2.836
 1963SOL     OW 6787   0.399   2.015   2.305
 1963SOL    HW1 6788   0.422   2.002   2.401
 1963SOL    HW2 6789   0.304   1.988   2.290
 1964SOL     OW 6790   5.604   4.686   1.773
 1964SOL    HW1 6791   5.664   4.614   1.810
 1964SOL    HW2 6792   5.600   4.762   1.838
 1965SOL     OW 6793   0.582   4.601   3.941
 1965SOL    HW1 6794   0.676   4.636   3.938
 1965SOL    HW2 6795   0.531   4.635   3.862
 1966SOL     OW 6796   1.705   4.734   0.290
 1966SOL    HW1 6797   1.678   4.783   0.373
 1966SOL    HW2 6798   1.773   4.664   0.314
 1967SOL     OW 6799   5.317   3.071   3.503
 1967SOL    HW1 6800   5.399   3.058   3.560
 1967SOL    HW2 6801   5.342   3.123   3.421
 1968SOL     OW 6802   2.376   1.565   5.320
 1968SOL    HW1 6803   2.329   1.612   5.394
 1968SOL    HW2 6804   2.399   1.472   5.348
 1969SOL     OW 6805   3.005   6.403   0.721
 1969SOL    HW1 6806   3.000   6.334   0.649
 1969SOL    HW2 6807   2.988   6.360   0.810
 1970SOL     OW 6808   6.208   5.499   4.960
 1970SOL    HW1 6809   6.154   5.557   5.021
 1970SOL    HW2 6810   6.159   5.487   4.874
 1971SOL     OW 6811   1.171   6.528   5.687
 1971SOL    HW1 6812   1.093   6.494   5.634
 1971SOL    HW2 6813   1.161   6.501   5.782
 1972SOL     OW 6814   5.818   2.452   2.380
 1972SOL    HW1 6815   5.760   2.506   2.442
 1972SOL    HW2 6816   5.907   2.438   2.422
 1973SOL     OW 6817   1.799   4.437   0.311
 1973SOL    HW1 6818   1.730   4.439   0.239
 1973SOL    HW2 6819   1.876   4.497   0.285
 1974SOL     OW 6820   3.511   6.132   4.756
 1974SOL    HW1 6821   3.464   6.044   4.760
 1974SOL    HW2 6822   3.500   6.171   4.664
 1975SOL     OW 6823   1.264   2.641   3.136
 1975SOL    HW1 6824   1.174   2.635   3.093
 1975SOL    HW2 6825   1.321   2.565   3.105
 1976SOL     OW 6826   6.901   0.246   6.090
 1976SOL    HW1 6827   6.907   0.266   6.188
 1976SOL    HW2 6828   6.907   0.147   6.076
 1977SOL     OW 6829   1.756   4.542   5.832
 1977SOL    HW1 6830   1.838   4.493   5.802
 1977SOL    HW2 6831   1.676   4.505   5.785
 1978SOL     OW 6832   2.465   6.811   2.046
 1978SOL    HW1 6833   2.497   6.906   2.048
 1978SOL    HW2 6834   2.542   6.749   2.058
 1979SOL     OW 6835   6.974   5.065   6.678
 1979SOL    HW1 6836   0.007   5.028   6.752
 1979SOL    HW2 6837   7.014   5.038   6.590
 1980SOL     OW 6838   3.187   1.384   1.247
 1980SOL    HW1 6839   3.180   1.366   1.149
 1980SOL    HW2 6840   3.096   1.380   1.289
 1981SOL     OW 6841   4.439   2.328   3.156
 1981SOL    HW1 6842   4.409   2.397   3.222
 1981SOL    HW2 6843   4.516   2.277   3.194
 1982SOL     OW 6844   0.045   2.802   4.531
 1982SOL    HW1 6845   6.993   2.807   4.596
 1982SOL    HW2 6846   0.120   2.748   4.569
 1983SOL     OW 6847   0.270   0.119   1.167
 1983SOL    HW1 6848   0.260   0.048   1.098
 1983SOL    HW2 6849   0.229   0.089   1.253
 1984SOL     OW 6850   5.630   3.238   5.431
 1984SOL    HW1 6851   5.550   3.292   5.402
 1984SOL    HW2 6852   5.606   3.141   5.432
 1985SOL     OW 6853   6.394   3.913   1.902
 1985SOL    HW1 6854   6.305   3.887   1.941
 1985SOL    HW2 6855   6.460   3.924   1.976
 1986SOL     OW 6856   3.329   2.172   1.304
 1986SOL    HW1 6857   3.303   2.100   1.240
 1986SOL    HW2 6858   3.336   2.134   1.396
 1987SOL     OW 6859   2.325   0.457   2.627
 1987SOL    HW1 6860   2.327   0.554   2.648
 1987SOL    HW2 6861   2.245   0.415   2.670
 1988SOL     OW 6862   7.000   1.663   1.053
 1988SOL    HW1 6863   6.973   1.569   1.031
 1988SOL    HW2 6864   6.948   1.695   1.132
 1989SOL     OW 6865   3.216   4.979   4.937
 1989SOL    HW1 6866   3.197   5.067   4.980
 1989SOL    HW2 6867   3.246   4.913   5.006
 1990SOL     OW 6868   4.089   0.125   0.578
 1990SOL    HW1 6869   4.129   0.050   0.630
 1990SOL    HW2 6870   4.151   0.150   0.502
 1991SOL     OW 6871   3.037   5.334   0.504
 1991SOL    HW1 6872   3.091   5.276   0.442
 1991SOL    HW2 6873   2.983   5.276   0.565
 1992SOL     OW 6874   0.659   5.721   1.192
 1992SOL    HW1 6875   0.756   5.722   1.167
 1992SOL    HW2 6876   0.606   5.677   1.119
 1993SOL     OW 6877   2.138   3.423   4.302
 1993SOL    HW1 6878   2.143   3.523   4.293
 1993SOL    HW2 6879   2.172   3.380   4.218
 1994SOL     OW 6880   3.129   3.378   0.589
 1994SOL    HW1 6881   3.187   3.335   0.519
 1994SOL    HW2 6882   3.091   3.307   0.648
 1995SOL     OW 6883   5.621   2.624   4.768
 1995SOL    HW1 6884   5.562   2.544   4.761
 1995SOL    HW2 6885   5.707   2.598   4.810
 1996SOL     OW 6886   3.942   1.707   0.680
 1996SOL    HW1 6887   3.951   1.765   0.598
 1996SOL    HW2 6888   4.010   1.735   0.747
 1997SOL     OW 6889   4.048   0.884   3.505
 1997SOL    HW1 6890   4.027   0.810   3.441
 1997SOL    HW2 6891   4.132   0.864   3.554
 1998SOL     OW 6892   1.914   3.420   1.349
 1998SOL    HW1 6893   1.849   3.483   1.307
 1998SOL    HW2 6894   1.920   3.337   1.295
 1999SOL     OW 6895   1.454   6.453   5.210
 1999SOL    HW1 6896   1.447   6.364   5.254
 1999SOL    HW2 6897   1.374   6.467   5.152
 2000SOL     OW 6898   3.569   4.560   5.768
 2000SOL    HW1 6899   3.512   4.622   5.714
 2000SOL    HW2 6900   3.524   4.471   5.775
 2001SOL     OW 6901   2.600   1.609   6.540
 2001SOL    HW1 6902   2.663   1.571   6.608
 2001SOL    HW2 6903   2.650   1.674   6.482
 2002SOL     OW 6904   0.188   4.791   1.077
 2002SOL    HW1 6905   0.209   4.884   1.109
 2002SOL    HW2 6906   0.092   4.785   1.051
 2003SOL     OW 6907   6.861   5.432   2.160
 2003SOL    HW1 6908   6.888   5.516   2.208
 2003SOL    HW2 6909   6.891   5.438   2.064
 2004SOL     OW 6910   3.611   0.329   3.235
 2004SOL    HW1 6911   3.627   0.237   3.199
 2004SOL    HW2 6912   3.676   0.347   3.309
 2005SOL     OW 6913   1.635   6.183   1.349
 2005SOL    HW1 6914   1.555   6.184   1.289
 2005SOL    HW2 6915   1.649   6.091   1.384
 2006SOL     OW 6916   5.474   0.033   2.599
 2006SOL    HW1 6917   5.444   7.007   2.680
 2006SOL    HW2 6918   5.520   6.993   2.537
 2007SOL     OW 6919   5.721   4.749   0.213
 2007SOL    HW1 6920   5.628   4.722   0.188
 2007SOL    HW2 6921   5.746   4.832   0.165
 2008SOL     OW 6922   2.178   3.544   3.590
 2008SOL    HW1 6923   2.096   3.495   3.617
 2008SOL    HW2 6924   2.208   3.512   3.500
 2009SOL     OW 6925   6.262   6.602   1.937
 2009SOL    HW1 6926   6.251   6.512   1.894
 2009SOL    HW2 6927   6.223   6.600   2.029
 2010SOL     OW 6928   1.454   1.942   1.417
 2010SOL    HW1 6929   1.418   1.999   1.342
 2010SOL    HW2 6930   1.387   1.938   1.491
 2011SOL     OW 6931   0.605   6.533   5.772
 2011SOL    HW1 6932   0.646   6.442   5.765
 2011SOL    HW2 6933   0.670   6.596   5.814
 2012SOL     OW 6934   1.466   3.111   2.066
 2012SOL    HW1 6935   1.408   3.139   1.990
 2012SOL    HW2 6936   1.410   3.091   2.146
 2013SOL     OW 6937   0.171   3.311   2.990
 2013SOL    HW1 6938   0.099   3.358   2.938
 2013SOL    HW2 6939   0.153   3.213   2.990
 2014SOL     OW 6940   3.462   0.745   4.286
 2014SOL    HW1 6941   3.466   0.845   4.287
 2014SOL    HW2 6942   3.418   0.714   4.202
 2015SOL     OW 6943   4.675   0.842   1.494
 2015SOL    HW1 6944   4.681   0.821   1.396
 2015SOL    HW2 6945   4.764   0.874   1.527
 2016SOL     OW 6946   1.737   0.353   5.506
 2016SOL    HW1 6947   1.793   0.324   5.583
 2016SOL    HW2 6948   1.789   0.416   5.449
 2017SOL     OW 6949   3.501   6.276   2.773
 2017SOL    HW1 6950   3.542   6.283   2.682
 2017SOL    HW2 6951   3.426   6.341   2.781
 2018SOL     OW 6952   1.114   1.004   3.554
 2018SOL    HW1 6953   1.212   1.009   3.533
 2018SOL    HW2 6954   1.089   1.080   3.614
 2019SOL     OW 6955   6.008   4.994   6.582
 2019SOL    HW1 6956   5.997   4.999   6.682
 2019SOL    HW2 6957   5.918   4.997   6.539
 2020SOL     OW 6958   2.364   6.186   6.137
 2020SOL    HW1 6959   2.303   6.218   6.209
 2020SOL    HW2 6960   2.362   6.250   6.060
 2021SOL     OW 6961   6.692   5.726   4.042
 2021SOL    HW1 6962   6.751   5.710   3.962
 2021SOL    HW2 6963   6.603   5.758   4.011
 2022SOL     OW 6964   2.182   3.694   5.042
 2022SOL    HW1 6965   2.236   3.778   5.035
 2022SOL    HW2 6966   2.087   3.717   5.063
 2023SOL     OW 6967   0.368   6.976   0.119
 2023SOL    HW1 6968   0.427   6.985   0.038
 2023SOL    HW2 6969   0.424   6.960   0.200
 2024SOL     OW 6970   0.756   5.768   4.549
 2024SOL    HW1 6971   0.800   5.832   4.486
 2024SOL    HW2 6972   0.753   5.677   4.508
 2025SOL     OW 6973   1.996   0.373   4.627
 2025SOL    HW1 6974   2.016   0.378   4.725
 2025SOL    HW2 6975   1.951   0.286   4.607
 2026SOL     OW 6976   6.315   0.736   5.957
 2026SOL    HW1 6977   6.380   0.664   5.934
 2026SOL    HW2 6978   6.241   0.737   5.889
 2027SOL     OW 6979   0.260   6.144   2.845
 2027SOL    HW1 6980   0.246   6.046   2.857
 2027SOL    HW2 6981   0.184   6.194   2.887
 2028SOL     OW 6982   3.953   5.161   4.205
 2028SOL    HW1 6983   3.876   5.186   4.263
 2028SOL    HW2 6984   3.932   5.078   4.154
 2029SOL     OW 6985   5.555   2.712   6.247
 2029SOL    HW1 6986   5.494   2.680   6.320
 2029SOL    HW2 6987   5.531   2.667   6.161
 2030SOL     OW 6988   2.752   6.539   2.962
 2030SOL    HW1 6989   2.795   6.498   2.882
 2030SOL    HW2 6990   2.822   6.566   3.027
 2031SOL     OW 6991   6.872   5.729   3.822
 2031SOL    HW1 6992   6.932   5.710   3.900
 2031SOL    HW2 6993   6.887   5.659   3.752
 2032SOL     OW 6994   2.745   2.316   5.476
 2032SOL    HW1 6995   2.803   2.380   5.424
 2032SOL    HW2 6996   2.651   2.323   5.443
 2033SOL     OW 6997   1.859   2.150   0.622
 2033SOL    HW1 6998   1.810   2.218   0.568
 2033SOL    HW2 6999   1.909   2.089   0.561
 2034SOL     OW 7000   6.969   4.677   5.434
 2034SOL    HW1 7001   6.923   4.757   5.394
 2034SOL    HW2 7002   6.986   4.694   5.531
 2035SOL     OW 7003   5.792   0.418   2.392
 2035SOL    HW1 7004   5.799   0.351   2.466
 2035SOL    HW2 7005   5.863   0.488   2.403
 2036SOL     OW 7006   1.220   4.312   1.594
 2036SOL    HW1 7007   1.225   4.288   1.691
 2036SOL    HW2 7008   1.295   4.373   1.571
 2037SOL     OW 7009   6.949   3.278   6.636
 2037SOL    HW1 7010   6.965   3.257   6.540
 2037SOL    HW2 7011   0.007   3.321   6.674
 2038SOL     OW 7012   1.905   1.553   6.824
 2038SOL    HW1 7013   1.930   1.458   6.840
 2038SOL    HW2 7014   1.812   1.570   6.858
 2039SOL     OW 7015   6.580   6.003   2.651
 2039SOL    HW1 7016   6.480   6.004   2.649
 2039SOL    HW2 7017   6.614   6.044   2.566
 2040SOL     OW 7018   1.934   2.976   0.265
 2040SOL    HW1 7019   1.931   2.990   0.166
 2040SOL    HW2 7020   1.873   3.042   0.310
 2041SOL     OW 7021   1.931   0.354   6.262
 2041SOL    HW1 7022   1.881   0.398   6.337
 2041SOL    HW2 7023   1.980   0.424   6.210
 2042SOL     OW 7024   5.366   1.333   5.529
 2042SOL    HW1 7025   5.392   1.422   5.492
 2042SOL    HW2 7026   5.398   1.261   5.468
 2043SOL     OW 7027   6.670   4.125   1.160
 2043SOL    HW1 7028   6.654   4.146   1.063
 2043SOL    HW2 7029   6.722   4.040   1.167
 2044SOL     OW 7030   4.368   0.687   0.525
 2044SOL    HW1 7031   4.275   0.672   0.559
 2044SOL    HW2 7032   4.366   0.700   0.426
 2045SOL     OW 7033   2.100   6.520   6.566
 2045SOL    HW1 7034   2.144   6.458   6.631
 2045SOL    HW2 7035   2.013   6.481   6.537
 2046SOL     OW 7036   0.978   2.294   5.217
 2046SOL    HW1 7037   0.966   2.219   5.151
 2046SOL    HW2 7038   1.052   2.353   5.186
 2047SOL     OW 7039   6.953   0.463   0.647
 2047SOL    HW1 7040   6.989   0.514   0.725
 2047SOL    HW2 7041   7.023   0.457   0.576
 2048SOL     OW 7042   0.701   2.006   4.397
 2048SOL    HW1 7043   0.731   1.939   4.329
 2048SOL    HW2 7044   0.736   1.981   4.487
 2049SOL     OW 7045   5.010   2.044   4.925
 2049SOL    HW1 7046   4.969   2.132   4.899
 2049SOL    HW2 7047   5.058   2.006   4.846
 2050SOL     OW 7048   0.826   1.172   3.930
 2050SOL    HW1 7049   0.821   1.079   3.894
 2050SOL    HW2 7050   0.748   1.187   3.992
 2051SOL     OW 7051   3.281   5.828   0.491
 2051SOL    HW1 7052   3.325   5.773   0.421
 2051SOL    HW2 7053   3.223   5.897   0.448
 2052SOL     OW 7054   1.691   4.117   6.433
 2052SOL    HW1 7055   1.780   4.098   6.392
 2052SOL    HW2 7056   1.701   4.127   6.532
 2053SOL     OW 7057   1.211   5.261   3.994
 2053SOL    HW1 7058   1.173   5.264   4.086
 2053SOL    HW2 7059   1.179   5.179   3.947
 2054SOL     OW 7060   3.407   3.226   3.754
 2054SOL    HW1 7061   3.478   3.266   3.697
 2054SOL    HW2 7062   3.352   3.299   3.795
 2055SOL     OW 7063   2.903   2.104   5.814
 2055SOL    HW1 7064   2.884   2.007   5.827
 2055SOL    HW2 7065   2.932   2.144   5.901
 2056SOL     OW 7066   3.872   4.648   1.474
 2056SOL    HW1 7067   3.954   4.594   1.494
 2056SOL    HW2 7068   3.854   4.648   1.376
 2057SOL     OW 7069   5.977   2.329   4.412
 2057SOL    HW1 7070   5.982   2.375   4.323
 2057SOL    HW2 7071   5.942   2.236   4.400
 2058SOL     OW 7072   0.211   5.655   2.867
 2058SOL    HW1 7073   0.205   5.754   2.861
 2058SOL    HW2 7074   0.300   5.629   2.906
 2059SOL     OW 7075   1.805   0.463   6.482
 2059SOL    HW1 7076   1.725   0.520   6.462
 2059SOL    HW2 7077   1.778   0.390   6.546
 2060SOL     OW 7078   1.227   3.214   6.737
 2060SOL    HW1 7079   1.180   3.130   6.763
 2060SOL    HW2 7080   1.237   3.272   6.818
 2061SOL     OW 7081   1.791   2.143   2.432
 2061SOL    HW1 7082   1.777   2.199   2.350
 2061SOL    HW2 7083   1.801   2.047   2.406
 2062SOL     OW 7084   6.933   5.036   4.709
 2062SOL    HW1 7085   6.943   5.128   4.672
 2062SOL    HW2 7086   6.907   5.041   4.805
 2063SOL     OW 7087   0.797   0.843   4.559
 2063SOL    HW1 7088   0.814   0.829   4.656
 2063SOL    HW2 7089   0.855   0.918   4.525
 2064SOL     OW 7090   0.936   3.000   3.441
 2064SOL    HW1 7091   0.999   2.948   3.384
 2064SOL    HW2 7092   0.855   2.945   3.461
 2065SOL     OW 7093   4.300   2.981   5.709
 2065SOL    HW1 7094   4.392   2.960   5.741
 2065SOL    HW2 7095   4.284   2.937   5.621
 2066SOL     OW 7096   6.427   3.554   4.913
 2066SOL    HW1 7097   6.490   3.578   4.987
 2066SOL    HW2 7098   6.447   3.462   4.880
 2067SOL     OW 7099   6.345   5.390   0.973
 2067SOL    HW1 7100   6.286   5.416   1.050
 2067SOL    HW2 7101   6.402   5.468   0.947
 2068SOL     OW 7102   3.774   0.531   4.893
 2068SOL    HW1 7103   3.805   0.529   4.988
 2068SOL    HW2 7104   3.852   0.546   4.833
 2069SOL     OW 7105   0.183   2.583   3.991
 2069SOL    HW1 7106   0.282   2.579   3.978
 2069SOL    HW2 7107   0.137   2.563   3.905
 2070SOL     OW 7108   0.804   4.546   0.740
 2070SOL    HW1 7109   0.841   4.474   0.800
 2070SOL    HW2 7110   0.880   4.590   0.690
 2071SOL     OW 7111   0.026   1.713   5.747
 2071SOL    HW1 7112   6.978   1.652   5.714
 2071SOL    HW2 7113   0.113   1.688   5.704
 2072SOL     OW 7114   4.244   4.355   5.666
 2072SOL    HW1 7115   4.160   4.306   5.644
 2072SOL    HW2 7116   4.321   4.314   5.617
 2073SOL     OW 7117   3.122   5.898   6.760
 2073SOL    HW1 7118   3.079   5.989   6.759
 2073SOL    HW2 7119   3.170   5.885   6.847
 2074SOL     OW 7120   0.842   4.235   5.490
 2074SOL    HW1 7121   0.880   4.196   5.574
 2074SOL    HW2 7122   0.783   4.167   5.446
 2075SOL     OW 7123   6.394   1.599   1.629
 2075SOL    HW1 7124   6.296   1.615   1.639
 2075SOL    HW2 7125   6.426   1.536   1.699
 2076SOL     OW 7126   5.996   7.016   4.852
 2076SOL    HW1 7127   6.065   7.016   4.780
 2076SOL    HW2 7128   5.907   0.016   4.813
 2077SOL     OW 7129   6.634   4.373   0.497
 2077SOL    HW1 7130   6.549   4.320   0.503
 2077SOL    HW2 7131   6.621   4.460   0.544
 2078SOL     OW 7132   0.605   3.029   5.893
 2078SOL    HW1 7133   0.619   2.952   5.955
 2078SOL    HW2 7134   0.546   3.097   5.937
 2079SOL     OW 7135   4.988   2.055   2.645
 2079SOL    HW1 7136   5.060   2.009   2.594
 2079SOL    HW2 7137   4.908   1.995   2.654
 2080SOL     OW 7138   2.448   3.093   5.773
 2080SOL    HW1 7139   2.519   3.059   5.834
 2080SOL    HW2 7140   2.432   3.028   5.699
 2081SOL     OW 7141   5.895   6.542   3.130
 2081SOL    HW1 7142   5.806   6.581   3.106
 2081SOL    HW2 7143   5.950   6.612   3.175
 2082SOL     OW 7144   6.684   6.063   3.561
 2082SOL    HW1 7145   6.619   5.993   3.589
 2082SOL    HW2 7146   6.650   6.153   3.591
 2083SOL     OW 7147   0.579   6.138   3.910
 2083SOL    HW1 7148   0.563   6.175   4.002
 2083SOL    HW2 7149   0.669   6.167   3.878
 2084SOL     OW 7150   6.365   1.945   1.749
 2084SOL    HW1 7151   6.310   1.861   1.744
 2084SOL    HW2 7152   6.368   1.977   1.843
 2085SOL     OW 7153   5.062   5.405   0.897
 2085SOL    HW1 7154   5.142   5.462   0.916
 2085SOL    HW2 7155   4.980   5.448   0.936
 2086SOL     OW 7156   4.536   0.461   6.786
 2086SOL    HW1 7157   4.627   0.502   6.772
 2086SOL    HW2 7158   4.507   0.476   6.880
 2087SOL     OW 7159   4.048   2.326   6.443
 2087SOL    HW1 7160   4.146   2.345   6.446
 2087SOL    HW2 7161   4.023   2.300   6.349
 2088SOL     OW 7162   1.068   5.743   5.823
 2088SOL    HW1 7163   1.144   5.697   5.777
 2088SOL    HW2 7164   1.041   5.824   5.771
 2089SOL     OW 7165   2.861   3.589   7.008
 2089SOL    HW1 7166   2.797   3.653   0.028
 2089SOL    HW2 7167   2.813   3.504   6.986
 2090SOL     OW 7168   4.699   3.078   5.357
 2090SOL    HW1 7169   4.604   3.107   5.370
 2090SOL    HW2 7170   4.760   3.137   5.410
 2091SOL     OW 7171   5.416   5.770   1.992
 2091SOL    HW1 7172   5.512   5.752   1.969
 2091SOL    HW2 7173   5.411   5.821   2.077
 2092SOL     OW 7174   4.616   3.584   1.635
 2092SOL    HW1 7175   4.559   3.622   1.562
 2092SOL    HW2 7176   4.613   3.484   1.630
 2093SOL     OW 7177   3.572   1.180   2.512
 2093SOL    HW1 7178   3.579   1.269   2.467
 2093SOL    HW2 7179   3.603   1.188   2.606
 2094SOL     OW 7180   5.406   2.055   6.347
 2094SOL    HW1 7181   5.342   1.980   6.367
 2094SOL    HW2 7182   5.460   2.074   6.429
 2095SOL     OW 7183   5.164   0.227   3.047
 2095SOL    HW1 7184   5.143   0.275   3.132
 2095SOL    HW2 7185   5.079   0.197   3.004
 2096SOL     OW 7186   4.848   6.743   2.260
 2096SOL    HW1 7187   4.767   6.799   2.277
 2096SOL    HW2 7188   4.872   6.747   2.163
 2097SOL     OW 7189   0.550   5.526   6.349
 2097SOL    HW1 7190   0.589   5.464   6.281
 2097SOL    HW2 7191   0.478   5.479   6.400
 2098SOL     OW 7192   3.038   6.007   3.367
 2098SOL    HW1 7193   3.079   5.952   3.294
 2098SOL    HW2 7194   2.971   5.951   3.417
 2099SOL     OW 7195   4.687   0.972   6.419
 2099SOL    HW1 7196   4.716   1.016   6.504
 2099SOL    HW2 7197   4.617   0.904   6.439
 2100SOL     OW 7198   5.485   0.130   1.386
 2100SOL    HW1 7199   5.571   0.094   1.423
 2100SOL    HW2 7200   5.409   0.096   1.441
 2101SOL     OW 7201   0.087   6.472   2.007
 2101SOL    HW1 7202   0.166   6.532   2.011
 2101SOL    HW2 7203   0.047   6.474   1.915
 2102SOL     OW 7204   3.722   2.795   0.645
 2102SOL    HW1 7205   3.659   2.784   0.722
 2102SOL    HW2 7206   3.777   2.878   0.659
 2103SOL     OW 7207   2.612   5.664   0.378
 2103SOL    HW1 7208   2.650   5.573   0.397
 2103SOL    HW2 7209   2.684   5.723   0.342
 2104SOL     OW 7210   1.257   4.401   3.140
 2104SOL    HW1 7211   1.324   4.329   3.122
 2104SOL    HW2 7212   1.284   4.452   3.222
 2105SOL     OW 7213   6.476   4.489   5.664
 2105SOL    HW1 7214   6.548   4.507   5.597
 2105SOL    HW2 7215   6.421   4.411   5.634
 2106SOL     OW 7216   4.526   3.717   1.408
 2106SOL    HW1 7217   4.450   3.677   1.356
 2106SOL    HW2 7218   4.560   3.798   1.359
 2107SOL     OW 7219   4.832   4.563   5.722
 2107SOL    HW1 7220   4.878   4.580   5.810
 2107SOL    HW2 7221   4.865   4.629   5.655
 2108SOL     OW 7222   5.709   6.982   5.555
 2108SOL    HW1 7223   5.645   6.905   5.563
 2108SOL    HW2 7224   5.717   7.008   5.459
 2109SOL     OW 7225   3.027   6.561   3.390
 2109SOL    HW1 7226   3.001   6.583   3.484
 2109SOL    HW2 7227   2.989   6.472   3.364
 2110SOL     OW 7228   4.049   0.356   6.971
 2110SOL    HW1 7229   3.984   0.357   6.895
 2110SOL    HW2 7230   4.023   0.284   0.012
 2111SOL     OW 7231   1.166   2.564   5.708
 2111SOL    HW1 7232   1.214   2.628   5.768
 2111SOL    HW2 7233   1.226   2.488   5.685
 2112SOL     OW 7234   0.544   0.683   6.601
 2112SOL    HW1 7235   0.477   0.672   6.527
 2112SOL    HW2 7236   0.562   0.594   6.643
 2113SOL     OW 7237   0.951   0.699   4.964
 2113SOL    HW1 7238   0.853   0.713   4.956
 2113SOL    HW2 7239   0.984   0.644   4.887
 2114SOL     OW 7240   1.383   1.624   5.733
 2114SOL    HW1 7241   1.444   1.634   5.811
 2114SOL    HW2 7242   1.407   1.540   5.683
 2115SOL     OW 7243   0.013   5.740   3.105
 2115SOL    HW1 7244   0.009   5.654   3.054
 2115SOL    HW2 7245   6.945   5.780   3.109
 2116SOL     OW 7246   0.955   2.050   0.345
 2116SOL    HW1 7247   1.013   2.061   0.426
 2116SOL    HW2 7248   0.863   2.081   0.366
 2117SOL     OW 7249   5.811   1.601   2.613
 2117SOL    HW1 7250   5.769   1.668   2.674
 2117SOL    HW2 7251   5.814   1.512   2.658
 2118SOL     OW 7252   6.155   2.687   2.132
 2118SOL    HW1 7253   6.208   2.603   2.143
 2118SOL    HW2 7254   6.065   2.664   2.093
 2119SOL     OW 7255   2.606   1.383   6.969
 2119SOL    HW1 7256   2.519   1.389   6.920
 2119SOL    HW2 7257   2.611   1.296   7.018
 2120SOL     OW 7258   5.507   1.050   0.561
 2120SOL    HW1 7259   5.481   0.955   0.548
 2120SOL    HW2 7260   5.455   1.089   0.637
 2121SOL     OW 7261   1.241   0.632   6.873
 2121SOL    HW1 7262   1.177   0.595   6.806
 2121SOL    HW2 7263   1.219   0.596   6.964
 2122SOL     OW 7264   6.177   1.119   4.463
 2122SOL    HW1 7265   6.227   1.043   4.423
 2122SOL    HW2 7266   6.176   1.196   4.400
 2123SOL     OW 7267   1.757   5.967   2.743
 2123SOL    HW1 7268   1.836   5.936   2.690
 2123SOL    HW2 7269   1.703   6.031   2.689
 2124SOL     OW 7270   3.990   3.598   5.914
 2124SOL    HW1 7271   3.980   3.502   5.940
 2124SOL    HW2 7272   4.050   3.605   5.834
 2125SOL     OW 7273   1.708   5.507   4.060
 2125SOL    HW1 7274   1.671   5.600   4.058
 2125SOL    HW2 7275   1.749   5.490   4.150
 2126SOL     OW 7276   3.207   4.927   7.004
 2126SOL    HW1 7277   3.248   4.836   6.994
 2126SOL    HW2 7278   3.142   4.942   6.929
 2127SOL     OW 7279   0.304   2.303   3.886
 2127SOL    HW1 7280   0.359   2.228   3.922
 2127SOL    HW2 7281   0.234   2.329   3.953
 2128SOL     OW 7282   5.290   2.696   1.654
 2128SOL    HW1 7283   5.356   2.660   1.588
 2128SOL    HW2 7284   5.211   2.635   1.659
 2129SOL     OW 7285   4.905   4.932   3.900
 2129SOL    HW1 7286   4.864   4.912   3.811
 2129SOL    HW2 7287   4.962   4.855   3.928
 2130SOL     OW 7288   2.506   0.401   2.901
 2130SOL    HW1 7289   2.489   0.407   2.802
 2130SOL    HW2 7290   2.484   0.309   2.933
 2131SOL     OW 7291   5.446   1.137   5.017
 2131SOL    HW1 7292   5.433   1.080   4.935
 2131SOL    HW2 7293   5.543   1.160   5.026
 2132SOL     OW 7294   2.796   2.866   0.218
 2132SOL    HW1 7295   2.849   2.950   0.231
 2132SOL    HW2 7296   2.714   2.870   0.275
 2133SOL     OW 7297   3.018   2.077   2.153
 2133SOL    HW1 7298   2.975   2.162   2.123
 2133SOL    HW2 7299   3.088   2.049   2.087
 2134SOL     OW 7300   1.760   6.707   4.495
 2134SOL    HW1 7301   1.661   6.722   4.497
 2134SOL    HW2 7302   1.779   6.610   4.510
 2135SOL     OW 7303   1.442   1.308   4.093
 2135SOL    HW1 7304   1.401   1.372   4.027
 2135SOL    HW2 7305   1.462   1.222   4.047
 2136SOL     OW 7306   0.556   4.240   3.407
 2136SOL    HW1 7307   0.526   4.268   3.316
 2136SOL    HW2 7308   0.631   4.174   3.399
 2137SOL     OW 7309   0.931   0.579   5.429
 2137SOL    HW1 7310   0.916   0.498   5.373
 2137SOL    HW2 7311   0.910   0.661   5.376
 2138SOL     OW 7312   1.066   2.661   0.141
 2138SOL    HW1 7313   1.157   2.628   0.114
 2138SOL    HW2 7314   1.032   2.606   0.217
 2139SOL     OW 7315   2.629   1.110   5.471
 2139SOL    HW1 7316   2.537   1.139   5.445
 2139SOL    HW2 7317   2.640   1.120   5.570
 2140SOL     OW 7318   2.195   5.734   3.221
 2140SOL    HW1 7319   2.259   5.810   3.230
 2140SOL    HW2 7320   2.102   5.770   3.215
 2141SOL     OW 7321   5.459   2.047   0.419
 2141SOL    HW1 7322   5.467   2.129   0.476
 2141SOL    HW2 7323   5.434   1.969   0.477
 2142SOL     OW 7324   2.432   2.104   3.199
 2142SOL    HW1 7325   2.486   2.059   3.270
 2142SOL    HW2 7326   2.450   2.061   3.111
 2143SOL     OW 7327   3.440   6.891   0.421
 2143SOL    HW1 7328   3.391   6.967   0.378
 2143SOL    HW2 7329   3.414   6.886   0.518
 2144SOL     OW 7330   6.815   0.955   3.233
 2144SOL    HW1 7331   6.752   0.968   3.156
 2144SOL    HW2 7332   6.892   0.898   3.204
 2145SOL     OW 7333   3.895   5.570   3.092
 2145SOL    HW1 7334   3.845   5.654   3.112
 2145SOL    HW2 7335   3.940   5.578   3.003
 2146SOL     OW 7336   3.478   2.918   2.085
 2146SOL    HW1 7337   3.537   2.945   2.009
 2146SOL    HW2 7338   3.533   2.879   2.158
 2147SOL     OW 7339   1.083   1.217   5.510
 2147SOL    HW1 7340   1.179   1.188   5.520
 2147SOL    HW2 7341   1.034   1.150   5.455
 2148SOL     OW 7342   5.208   2.892   3.123
 2148SOL    HW1 7343   5.240   2.866   3.214
 2148SOL    HW2 7344   5.254   2.835   3.054
 2149SOL     OW 7345   3.560   0.581   3.023
 2149SOL    HW1 7346   3.590   0.674   3.040
 2149SOL    HW2 7347   3.611   0.518   3.082
 2150SOL     OW 7348   3.714   2.102   2.655
 2150SOL    HW1 7349   3.744   2.112   2.750
 2150SOL    HW2 7350   3.615   2.110   2.650
 2151SOL     OW 7351   3.739   2.901   5.852
 2151SOL    HW1 7352   3.726   2.983   5.908
 2151SOL    HW2 7353   3.748   2.821   5.912
 2152SOL     OW 7354   6.596   5.806   1.566
 2152SOL    HW1 7355   6.685   5.812   1.610
 2152SOL    HW2 7356   6.524   5.820   1.634
 2153SOL     OW 7357   5.098   2.434   3.231
 2153SOL    HW1 7358   5.193   2.406   3.217
 2153SOL    HW2 7359   5.042   2.404   3.154
 2154SOL     OW 7360   4.165   6.457   5.247
 2154SOL    HW1 7361   4.141   6.411   5.332
 2154SOL    HW2 7362   4.142   6.554   5.254
 2155SOL     OW 7363   0.109   4.041   0.257
 2155SOL    HW1 7364   0.135   3.992   0.341
 2155SOL    HW2 7365   0.023   4.004   0.223
 2156SOL     OW 7366   1.312   0.820   1.488
 2156SOL    HW1 7367   1.386   0.852   1.429
 2156SOL    HW2 7368   1.224   0.841   1.446
 2157SOL     OW 7369   0.735   1.339   4.973
 2157SOL    HW1 7370   0.825   1.350   4.931
 2157SOL    HW2 7371   0.744   1.344   5.073
 2158SOL     OW 7372   4.141   6.009   2.000
 2158SOL    HW1 7373   4.136   5.915   2.034
 2158SOL    HW2 7374   4.207   6.014   1.925
 2159SOL     OW 7375   2.160   6.221   4.574
 2159SOL    HW1 7376   2.170   6.122   4.565
 2159SOL    HW2 7377   2.065   6.242   4.597
 2160SOL     OW 7378   3.253   3.834   0.986
 2160SOL    HW1 7379   3.212   3.894   1.055
 2160SOL    HW2 7380   3.214   3.855   0.897
 2161SOL     OW 7381   5.557   2.524   3.237
 2161SOL    HW1 7382   5.615   2.500   3.159
 2161SOL    HW2 7383   5.468   2.480   3.227
 2162SOL     OW 7384   0.872   1.184   6.929
 2162SOL    HW1 7385   0.882   1.203   0.003
 2162SOL    HW2 7386   0.939   1.115   6.901
 2163SOL     OW 7387   1.824   2.425   0.818
 2163SOL    HW1 7388   1.860   2.514   0.846
 2163SOL    HW2 7389   1.873   2.393   0.737
 2164SOL     OW 7390   1.257   0.280   1.182
 2164SOL    HW1 7391   1.345   0.241   1.153
 2164SOL    HW2 7392   1.254   0.377   1.158
 2165SOL     OW 7393   2.778   6.452   1.496
 2165SOL    HW1 7394   2.706   6.500   1.446
 2165SOL    HW2 7395   2.846   6.417   1.431
 2166SOL     OW 7396   6.922   1.943   6.495
 2166SOL    HW1 7397   6.906   1.963   6.592
 2166SOL    HW2 7398   7.020   1.943   6.476
 2167SOL     OW 7399   2.730   0.347   2.289
 2167SOL    HW1 7400   2.748   0.286   2.367
 2167SOL    HW2 7401   2.633   0.371   2.287
 2168SOL     OW 7402   5.979   5.247   4.548
 2168SOL    HW1 7403   5.933   5.247   4.637
 2168SOL    HW2 7404   5.966   5.335   4.503
 2169SOL     OW 7405   4.649   2.099   5.462
 2169SOL    HW1 7406   4.668   2.134   5.554
 2169SOL    HW2 7407   4.678   2.167   5.394
 2170SOL     OW 7408   4.764   4.986   4.120
 2170SOL    HW1 7409   4.816   4.971   4.037
 2170SOL    HW2 7410   4.822   5.030   4.189
 2171SOL     OW 7411   0.147   2.581   6.990
 2171SOL    HW1 7412   0.209   2.504   6.974
 2171SOL    HW2 7413   0.170   2.625   0.053
 2172SOL     OW 7414   2.843   0.857   0.977
 2172SOL    HW1 7415   2.757   0.809   0.995
 2172SOL    HW2 7416   2.917   0.810   1.025
 2173SOL     OW 7417   6.025   1.605   5.357
 2173SOL    HW1 7418   6.061   1.604   5.450
 2173SOL    HW2 7419   6.058   1.686   5.309
 2174SOL     OW 7420   0.654   5.956   4.982
 2174SOL    HW1 7421   0.619   5.934   4.891
 2174SOL    HW2 7422   0.666   6.055   4.990
 2175SOL     OW 7423   2.633   6.457   5.163
 2175SOL    HW1 7424   2.607   6.509   5.244
 2175SOL    HW2 7425   2.598   6.363   5.171
 2176SOL     OW 7426   1.233   2.055   2.494
 2176SOL    HW1 7427   1.178   2.134   2.465
 2176SOL    HW2 7428   1.317   2.087   2.537
 2177SOL     OW 7429   6.952   1.603   1.595
 2177SOL    HW1 7430   6.866   1.557   1.622
 2177SOL    HW2 7431   6.991   1.556   1.516
 2178SOL     OW 7432   0.731   5.199   6.954
 2178SOL    HW1 7433   0.676   5.145   6.891
 2178SOL    HW2 7434   0.810   5.145   6.984
 2179SOL     OW 7435   1.132   4.769   3.942
 2179SOL    HW1 7436   1.209   4.818   3.982
 2179SOL    HW2 7437   1.050   4.826   3.948
 2180SOL     OW 7438   3.695   2.914   2.525
 2180SOL    HW1 7439   3.698   2.885   2.429
 2180SOL    HW2 7440   3.602   2.903   2.560
 2181SOL     OW 7441   4.979   5.570   6.088
 2181SOL    HW1 7442   4.883   5.578   6.060
 2181SOL    HW2 7443   4.983   5.530   6.179
 2182SOL     OW 7444   6.523   2.828   6.736
 2182SOL    HW1 7445   6.614   2.788   6.748
 2182SOL    HW2 7446   6.532   2.921   6.700
 2183SOL     OW 7447   2.896   3.209   0.808
 2183SOL    HW1 7448   2.979   3.170   0.770
 2183SOL    HW2 7449   2.875   3.165   0.896
 2184SOL     OW 7450   3.716   2.912   6.151
 2184SOL    HW1 7451   3.744   2.828   6.105
 2184SOL    HW2 7452   3.757   2.991   6.106
 2185SOL     OW 7453   2.002   1.330   1.137
 2185SOL    HW1 7454   1.993   1.341   1.038
 2185SOL    HW2 7455   2.084   1.277   1.157
 2186SOL     OW 7456   0.702   5.712   3.006
 2186SOL    HW1 7457   0.656   5.698   3.094
 2186SOL    HW2 7458   0.646   5.675   2.932
 2187SOL     OW 7459   7.011   1.248   6.791
 2187SOL    HW1 7460   0.023   1.279   6.879
 2187SOL    HW2 7461   0.028   1.160   6.767
 2188SOL     OW 7462   5.459   0.545   2.641
 2188SOL    HW1 7463   5.495   0.453   2.632
 2188SOL    HW2 7464   5.427   0.560   2.735
 2189SOL     OW 7465   2.263   0.561   6.539
 2189SOL    HW1 7466   2.180   0.506   6.545
 2189SOL    HW2 7467   2.240   0.657   6.548
 2190SOL     OW 7468   4.872   1.820   1.711
 2190SOL    HW1 7469   4.783   1.800   1.753
 2190SOL    HW2 7470   4.924   1.881   1.771
 2191SOL     OW 7471   2.958   2.291   0.220
 2191SOL    HW1 7472   3.010   2.307   0.136
 2191SOL    HW2 7473   3.014   2.241   0.285
 2192SOL     OW 7474   4.605   6.131   4.978
 2192SOL    HW1 7475   4.635   6.095   4.890
 2192SOL    HW2 7476   4.548   6.212   4.964
 2193SOL     OW 7477   0.483   4.493   6.190
 2193SOL    HW1 7478   0.519   4.488   6.097
 2193SOL    HW2 7479   0.386   4.519   6.188
 2194SOL     OW 7480   2.456   0.211   1.443
 2194SOL    HW1 7481   2.512   0.229   1.523
 2194SOL    HW2 7482   2.513   0.209   1.361
 2195SOL     OW 7483   1.369   4.172   2.439
 2195SOL    HW1 7484   1.281   4.154   2.484
 2195SOL    HW2 7485   1.377   4.270   2.418
 2196SOL     OW 7486   3.769   2.830   6.428
 2196SOL    HW1 7487   3.723   2.897   6.487
 2196SOL    HW2 7488   3.766   2.863   6.333
 2197SOL     OW 7489   4.502   4.801   0.378
 2197SOL    HW1 7490   4.464   4.863   0.447
 2197SOL    HW2 7491   4.482   4.836   0.287
 2198SOL     OW 7492   6.089   4.462   0.508
 2198SOL    HW1 7493   6.068   4.416   0.595
 2198SOL    HW2 7494   6.004   4.496   0.468
 2199SOL     OW 7495   4.364   0.664   1.400
 2199SOL    HW1 7496   4.370   0.567   1.377
 2199SOL    HW2 7497   4.275   0.700   1.374
 2200SOL     OW 7498   3.022   0.630   4.674
 2200SOL    HW1 7499   3.011   0.531   4.663
 2200SOL    HW2 7500   2.991   0.677   4.591
 2201SOL     OW 7501   4.875   4.047   2.268
 2201SOL    HW1 7502   4.879   4.133   2.217
 2201SOL    HW2 7503   4.833   3.976   2.211
 2202SOL     OW 7504   4.544   6.016   3.453
 2202SOL    HW1 7505   4.535   6.045   3.358
 2202SOL    HW2 7506   4.607   5.938   3.458
 2203SOL     OW 7507   3.530   1.605   3.096
 2203SOL    HW1 7508   3.577   1.572   3.014
 2203SOL    HW2 7509   3.459   1.540   3.121
 2204SOL     OW 7510   2.814   2.799   1.064
 2204SOL    HW1 7511   2.894   2.772   1.010
 2204SOL    HW2 7512   2.742   2.731   1.054
 2205SOL     OW 7513   2.449   0.473   6.901
 2205SOL    HW1 7514   2.349   0.465   6.892
 2205SOL    HW2 7515   2.481   0.408   6.970
 2206SOL     OW 7516   2.173   2.886   6.803
 2206SOL    HW1 7517   2.208   2.792   6.799
 2206SOL    HW2 7518   2.105   2.899   6.730
 2207SOL     OW 7519   1.160   4.150   4.994
 2207SOL    HW1 7520   1.141   4.073   4.933
 2207SOL    HW2 7521   1.085   4.216   4.988
 2208SOL     OW 7522   0.192   4.137   1.793
 2208SOL    HW1 7523   0.200   4.159   1.695
 2208SOL    HW2 7524   0.282   4.113   1.829
 2209SOL     OW 7525   1.248   5.438   1.013
 2209SOL    HW1 7526   1.311   5.515   1.023
 2209SOL    HW2 7527   1.154   5.472   1.009
 2210SOL     OW 7528   0.761   6.026   4.134
 2210SOL    HW1 7529   0.856   6.040   4.108
 2210SOL    HW2 7530   0.701   6.072   4.069
 2211SOL     OW 7531   6.402   1.464   6.087
 2211SOL    HW1 7532   6.429   1.560   6.079
 2211SOL    HW2 7533   6.467   1.407   6.036
 2212SOL     OW 7534   1.528   0.202   6.409
 2212SOL    HW1 7535   1.615   0.187   6.362
 2212SOL    HW2 7536   1.515   0.133   6.480
 2213SOL     OW 7537   3.566   1.106   3.493
 2213SOL    HW1 7538   3.507   1.025   3.488
 2213SOL    HW2 7539   3.567   1.152   3.404
 2214SOL     OW 7540   4.284   0.449   5.187
 2214SOL    HW1 7541   4.383   0.460   5.197
 2214SOL    HW2 7542   4.265   0.376   5.122
 2215SOL     OW 7543   5.820   2.899   5.072
 2215SOL    HW1 7544   5.857   2.920   5.163
 2215SOL    HW2 7545   5.725   2.929   5.067
 2216SOL     OW 7546   2.243   0.378   1.862
 2216SOL    HW1 7547   2.189   0.362   1.944
 2216SOL    HW2 7548   2.300   0.459   1.875
 2217SOL     OW 7549   4.469   0.878   1.230
 2217SOL    HW1 7550   4.478   0.830   1.317
 2217SOL    HW2 7551   4.417   0.822   1.165
 2218SOL     OW 7552   1.108   5.964   1.450
 2218SOL    HW1 7553   1.149   6.020   1.522
 2218SOL    HW2 7554   1.025   6.008   1.416
 2219SOL     OW 7555   1.004   2.990   2.566
 2219SOL    HW1 7556   1.073   3.011   2.635
 2219SOL    HW2 7557   1.048   2.986   2.476
 2220SOL     OW 7558   0.550   6.921   0.308
 2220SOL    HW1 7559   0.528   6.909   0.405
 2220SOL    HW2 7560   0.650   6.918   0.296
 2221SOL     OW 7561   0.334   1.867   0.414
 2221SOL    HW1 7562   0.332   1.864   0.314
 2221SOL    HW2 7563   0.252   1.914   0.448
 2222SOL     OW 7564   5.732   6.342   2.804
 2222SOL    HW1 7565   5.754   6.369   2.710
 2222SOL    HW2 7566   5.782   6.259   2.827
 2223SOL     OW 7567   5.698   5.161   1.855
 2223SOL    HW1 7568   5.751   5.173   1.772
 2223SOL    HW2 7569   5.600   5.161   1.833
 2224SOL     OW 7570   1.140   4.926   1.539
 2224SOL    HW1 7571   1.217   4.941   1.477
 2224SOL    HW2 7572   1.056   4.958   1.495
 2225SOL     OW 7573   6.882   4.850   1.400
 2225SOL    HW1 7574   6.809   4.819   1.338
 2225SOL    HW2 7575   6.851   4.841   1.494
 2226SOL     OW 7576   4.057   3.636   1.589
 2226SOL    HW1 7577   3.957   3.641   1.596
 2226SOL    HW2 7578   4.097   3.719   1.628
 2227SOL     OW 7579   1.103   3.367   3.836
 2227SOL    HW1 7580   1.146   3.404   3.918
 2227SOL    HW2 7581   1.100   3.267   3.843
 2228SOL     OW 7582   2.318   5.241   5.498
 2228SOL    HW1 7583   2.295   5.297   5.578
 2228SOL    HW2 7584   2.340   5.148   5.528
 2229SOL     OW 7585   4.956   0.953   2.815
 2229SOL    HW1 7586   4.873   0.902   2.791
 2229SOL    HW2 7587   5.035   0.894   2.805
 2230SOL     OW 7588   1.639   5.626   0.208
 2230SOL    HW1 7589   1.618   5.631   0.110
 2230SOL    HW2 7590   1.556   5.642   0.261
 2231SOL     OW 7591   2.961   6.402   1.280
 2231SOL    HW1 7592   3.059   6.386   1.280
 2231SOL    HW2 7593   2.922   6.375   1.192
 2232SOL     OW 7594   6.452   2.846   2.769
 2232SOL    HW1 7595   6.377   2.891   2.720
 2232SOL    HW2 7596   6.433   2.748   2.776
 2233SOL     OW 7597   3.730   1.826   0.290
 2233SOL    HW1 7598   3.639   1.865   0.304
 2233SOL    HW2 7599   3.729   1.729   0.315
 2234SOL     OW 7600   2.923   2.185   0.584
 2234SOL    HW1 7601   2.838   2.206   0.632
 2234SOL    HW2 7602   2.905   2.174   0.486
 2235SOL     OW 7603   1.577   0.666   1.297
 2235SOL    HW1 7604   1.613   0.576   1.320
 2235SOL    HW2 7605   1.610   0.733   1.364
 2236SOL     OW 7606   6.689   3.902   6.781
 2236SOL    HW1 7607   6.674   3.997   6.754
 2236SOL    HW2 7608   6.659   3.888   6.875
 2237SOL     OW 7609   6.791   2.472   4.334
 2237SOL    HW1 7610   6.780   2.478   4.434
 2237SOL    HW2 7611   6.821   2.561   4.299
 2238SOL     OW 7612   0.919   5.923   1.969
 2238SOL    HW1 7613   0.987   5.875   1.914
 2238SOL    HW2 7614   0.828   5.911   1.928
 2239SOL     OW 7615   4.863   5.190   3.076
 2239SOL    HW1 7616   4.884   5.207   2.980
 2239SOL    HW2 7617   4.871   5.092   3.095
 2240SOL     OW 7618   5.509   4.254   2.312
 2240SOL    HW1 7619   5.470   4.235   2.402
 2240SOL    HW2 7620   5.590   4.197   2.298
 2241SOL     OW 7621   0.818   0.549   2.526
 2241SOL    HW1 7622   0.773   0.460   2.534
 2241SOL    HW2 7623   0.748   0.620   2.520
 2242SOL     OW 7624   4.911   2.923   2.730
 2242SOL    HW1 7625   4.842   2.852   2.718
 2242SOL    HW2 7626   4.881   3.008   2.688
 2243SOL     OW 7627   2.977   6.001   5.383
 2243SOL    HW1 7628   2.977   6.088   5.333
 2243SOL    HW2 7629   3.034   6.010   5.464
 2244SOL     OW 7630   2.440   0.907   4.998
 2244SOL    HW1 7631   2.449   0.955   5.085
 2244SOL    HW2 7632   2.399   0.967   4.930
 2245SOL     OW 7633   0.484   1.914   1.820
 2245SOL    HW1 7634   0.470   1.979   1.895
 2245SOL    HW2 7635   0.581   1.890   1.815
 2246SOL     OW 7636   1.083   3.845   4.437
 2246SOL    HW1 7637   1.096   3.747   4.452
 2246SOL    HW2 7638   1.168   3.886   4.405
 2247SOL     OW 7639   1.761   1.867   5.938
 2247SOL    HW1 7640   1.754   1.961   5.904
 2247SOL    HW2 7641   1.857   1.840   5.942
 2248SOL     OW 7642   5.070   4.394   5.325
 2248SOL    HW1 7643   5.162   4.389   5.363
 2248SOL    HW2 7644   5.003   4.393   5.399
 2249SOL     OW 7645   4.740   5.595   4.703
 2249SOL    HW1 7646   4.697   5.659   4.767
 2249SOL    HW2 7647   4.670   5.533   4.667
 2250SOL     OW 7648   5.802   5.539   0.261
 2250SOL    HW1 7649   5.748   5.470   0.212
 2250SOL    HW2 7650   5.787   5.629   0.219
 2251SOL     OW 7651   0.029   0.966   0.121
 2251SOL    HW1 7652   0.029   0.866   0.119
 2251SOL    HW2 7653   6.979   1.001   0.062
 2252SOL     OW 7654   3.219   1.164   5.648
 2252SOL    HW1 7655   3.270   1.241   5.684
 2252SOL    HW2 7656   3.149   1.197   5.584
 2253SOL     OW 7657   1.593   2.758   5.912
 2253SOL    HW1 7658   1.591   2.676   5.969
 2253SOL    HW2 7659   1.665   2.819   5.943
 2254SOL     OW 7660   1.633   3.699   6.267
 2254SOL    HW1 7661   1.583   3.785   6.276
 2254SOL    HW2 7662   1.705   3.710   6.199
 2255SOL     OW 7663   5.878   2.258   1.337
 2255SOL    HW1 7664   5.916   2.297   1.253
 2255SOL    HW2 7665   5.827   2.175   1.314
 2256SOL     OW 7666   3.851   5.218   2.220
 2256SOL    HW1 7667   3.789   5.180   2.152
 2256SOL    HW2 7668   3.920   5.150   2.245
 2257SOL     OW 7669   1.697   3.563   3.606
 2257SOL    HW1 7670   1.644   3.478   3.606
 2257SOL    HW2 7671   1.719   3.588   3.700
 2258SOL     OW 7672   2.010   5.777   4.847
 2258SOL    HW1 7673   1.942   5.714   4.884
 2258SOL    HW2 7674   2.071   5.728   4.785
 2259SOL     OW 7675   5.748   3.471   6.598
 2259SOL    HW1 7676   5.662   3.448   6.553
 2259SOL    HW2 7677   5.790   3.388   6.634
 2260SOL     OW 7678   5.026   4.716   0.652
 2260SOL    HW1 7679   5.101   4.725   0.718
 2260SOL    HW2 7680   4.939   4.734   0.698
 2261SOL     OW 7681   4.135   6.814   6.048
 2261SOL    HW1 7682   4.103   6.900   6.088
 2261SOL    HW2 7683   4.235   6.814   6.045
 2262SOL     OW 7684   3.975   1.489   2.901
 2262SOL    HW1 7685   4.016   1.568   2.858
 2262SOL    HW2 7686   3.922   1.518   2.981
 2263SOL     OW 7687   6.898   4.350   6.758
 2263SOL    HW1 7688   6.980   4.294   6.749
 2263SOL    HW2 7689   6.820   4.292   6.778
 2264SOL     OW 7690   3.991   3.242   3.720
 2264SOL    HW1 7691   3.979   3.143   3.711
 2264SOL    HW2 7692   3.996   3.266   3.817
 2265SOL     OW 7693   6.750   0.490   2.322
 2265SOL    HW1 7694   6.786   0.580   2.300
 2265SOL    HW2 7695   6.651   0.489   2.306
 2266SOL     OW 7696   6.000   0.221   0.643
 2266SOL    HW1 7697   5.997   0.281   0.563
 2266SOL    HW2 7698   6.095   0.212   0.675
 2267SOL     OW 7699   5.397   1.631   5.722
 2267SOL    HW1 7700   5.468   1.666   5.783
 2267SOL    HW2 7701   5.436   1.619   5.630
 2268SOL     OW 7702   6.549   5.197   0.853
 2268SOL    HW1 7703   6.488   5.155   0.786
 2268SOL    HW2 7704   6.496   5.253   0.917
 2269SOL     OW 7705   6.945   5.307   4.937
 2269SOL    HW1 7706   7.022   5.299   4.874
 2269SOL    HW2 7707   6.879   5.371   4.900
 2270SOL     OW 7708   4.106   3.075   1.762
 2270SOL    HW1 7709   4.175   3.041   1.698
 2270SOL    HW2 7710   4.087   3.171   1.742
 2271SOL     OW 7711   6.179   4.220   3.061
 2271SOL    HW1 7712   6.187   4.121   3.070
 2271SOL    HW2 7713   6.268   4.263   3.079
 2272SOL     OW 7714   4.503   1.751   6.143
 2272SOL    HW1 7715   4.531   1.791   6.055
 2272SOL    HW2 7716   4.404   1.736   6.143
 2273SOL     OW 7717   1.027   1.681   3.546
 2273SOL    HW1 7718   1.047   1.766   3.595
 2273SOL    HW2 7719   1.112   1.643   3.510
 2274SOL     OW 7720   1.151   3.256   3.001
 2274SOL    HW1 7721   1.218   3.206   3.057
 2274SOL    HW2 7722   1.059   3.241   3.037
 2275SOL     OW 7723   4.820   0.057   3.549
 2275SOL    HW1 7724   4.764   0.118   3.605
 2275SOL    HW2 7725   4.818   0.088   3.454
 2276SOL     OW 7726   4.018   5.303   1.952
 2276SOL    HW1 7727   4.092   5.304   2.019
 2276SOL    HW2 7728   4.050   5.342   1.866
 2277SOL     OW 7729   3.022   3.635   0.536
 2277SOL    HW1 7730   3.026   3.535   0.533
 2277SOL    HW2 7731   3.097   3.674   0.482
 2278SOL     OW 7732   5.228   6.896   0.962
 2278SOL    HW1 7733   5.304   6.960   0.978
 2278SOL    HW2 7734   5.220   6.878   0.864
 2279SOL     OW 7735   4.868   4.612   4.540
 2279SOL    HW1 7736   4.853   4.516   4.561
 2279SOL    HW2 7737   4.901   4.659   4.622
 2280SOL     OW 7738   4.907   6.471   5.973
 2280SOL    HW1 7739   4.839   6.476   6.047
 2280SOL    HW2 7740   4.948   6.561   5.960
 2281SOL     OW 7741   2.783   3.069   0.999
 2281SOL    HW1 7742   2.728   3.121   1.064
 2281SOL    HW2 7743   2.774   2.971   1.020
 2282SOL     OW 7744   4.013   5.569   2.845
 2282SOL    HW1 7745   3.955   5.515   2.784
 2282SOL    HW2 7746   4.036   5.656   2.800
 2283SOL     OW 7747   6.997   3.899   2.538
 2283SOL    HW1 7748   6.961   3.806   2.543
 2283SOL    HW2 7749   0.021   3.922   2.623
 2284SOL     OW 7750   2.521   2.559   2.242
 2284SOL    HW1 7751   2.544   2.655   2.258
 2284SOL    HW2 7752   2.604   2.503   2.251
 2285SOL     OW 7753   1.948   4.136   0.072
 2285SOL    HW1 7754   2.002   4.053   0.053
 2285SOL    HW2 7755   2.003   4.201   0.124
 2286SOL     OW 7756   5.692   6.646   4.476
 2286SOL    HW1 7757   5.598   6.672   4.496
 2286SOL    HW2 7758   5.719   6.685   4.388
 2287SOL     OW 7759   2.185   3.041   1.861
 2287SOL    HW1 7760   2.241   2.966   1.827
 2287SOL    HW2 7761   2.188   3.042   1.961
 2288SOL     OW 7762   1.053   6.396   4.444
 2288SOL    HW1 7763   0.988   6.472   4.438
 2288SOL    HW2 7764   1.005   6.314   4.476
 2289SOL     OW 7765   4.641   2.278   0.802
 2289SOL    HW1 7766   4.553   2.294   0.757
 2289SOL    HW2 7767   4.627   2.265   0.900
 2290SOL     OW 7768   3.521   3.214   2.656
 2290SOL    HW1 7769   3.619   3.203   2.672
 2290SOL    HW2 7770   3.477   3.124   2.658
 2291SOL     OW 7771   1.266   2.249   0.349
 2291SOL    HW1 7772   1.237   2.176   0.412
 2291SOL    HW2 7773   1.244   2.222   0.255
 2292SOL     OW 7774   4.693   2.002   2.760
 2292SOL    HW1 7775   4.661   2.044   2.845
 2292SOL    HW2 7776   4.631   2.029   2.685
 2293SOL     OW 7777   6.956   1.300   0.126
 2293SOL    HW1 7778   0.026   1.280   0.155
 2293SOL    HW2 7779   6.917   1.219   0.081
 2294SOL     OW 7780   6.836   1.582   5.359
 2294SOL    HW1 7781   6.764   1.600   5.291
 2294SOL    HW2 7782   6.896   1.661   5.366
 2295SOL     OW 7783   5.429   6.259   1.269
 2295SOL    HW1 7784   5.347   6.224   1.223
 2295SOL    HW2 7785   5.508   6.247   1.209
 2296SOL     OW 7786   3.951   5.402   4.065
 2296SOL    HW1 7787   3.943   5.314   4.111
 2296SOL    HW2 7788   4.046   5.431   4.062
 2297SOL     OW 7789   4.288   4.041   5.326
 2297SOL    HW1 7790   4.210   4.079   5.277
 2297SOL    HW2 7791   4.367   4.101   5.316
 2298SOL     OW 7792   3.655   3.452   4.855
 2298SOL    HW1 7793   3.734   3.393   4.844
 2298SOL    HW2 7794   3.658   3.525   4.787
 2299SOL     OW 7795   6.181   3.363   4.616
 2299SOL    HW1 7796   6.212   3.439   4.673
 2299SOL    HW2 7797   6.201   3.277   4.662
 2300SOL     OW 7798   4.724   6.205   2.253
 2300SOL    HW1 7799   4.731   6.305   2.249
 2300SOL    HW2 7800   4.631   6.180   2.281
 2301SOL     OW 7801   3.755   3.348   4.584
 2301SOL    HW1 7802   3.789   3.262   4.546
 2301SOL    HW2 7803   3.711   3.402   4.512
 2302SOL     OW 7804   5.578   2.984   0.246
 2302SOL    HW1 7805   5.509   3.018   0.182
 2302SOL    HW2 7806   5.559   3.020   0.337
 2303SOL     OW 7807   3.526   1.938   6.782
 2303SOL    HW1 7808   3.447   1.878   6.792
 2303SOL    HW2 7809   3.522   2.010   6.851
 2304SOL     OW 7810   5.714   5.870   2.564
 2304SOL    HW1 7811   5.755   5.784   2.594
 2304SOL    HW2 7812   5.660   5.909   2.639
 2305SOL     OW 7813   2.408   0.371   4.714
 2305SOL    HW1 7814   2.402   0.454   4.770
 2305SOL    HW2 7815   2.498   0.329   4.725
 2306SOL     OW 7816   0.814   4.828   4.294
 2306SOL    HW1 7817   0.835   4.776   4.376
 2306SOL    HW2 7818   0.720   4.808   4.265
 2307SOL     OW 7819   6.603   3.190   6.031
 2307SOL    HW1 7820   6.619   3.165   6.126
 2307SOL    HW2 7821   6.688   3.224   5.991
 2308SOL     OW 7822   1.723   5.508   1.928
 2308SOL    HW1 7823   1.662   5.496   2.006
 2308SOL    HW2 7824   1.735   5.605   1.909
 2309SOL     OW 7825   2.133   6.854   5.182
 2309SOL    HW1 7826   2.203   6.840   5.112
 2309SOL    HW2 7827   2.044   6.864   5.138
 2310SOL     OW 7828   4.580   6.886   1.635
 2310SOL    HW1 7829   4.567   6.975   1.680
 2310SOL    HW2 7830   4.677   6.872   1.616
 2311SOL     OW 7831   3.383   5.052   1.359
 2311SOL    HW1 7832   3.437   5.136   1.364
 2311SOL    HW2 7833   3.335   5.038   1.445
 2312SOL     OW 7834   3.169   5.139   2.615
 2312SOL    HW1 7835   3.193   5.155   2.519
 2312SOL    HW2 7836   3.150   5.227   2.660
 2313SOL     OW 7837   5.065   5.795   1.405
 2313SOL    HW1 7838   4.996   5.848   1.454
 2313SOL    HW2 7839   5.152   5.802   1.454
 2314SOL     OW 7840   1.303   4.809   4.672
 2314SOL    HW1 7841   1.381   4.846   4.723
 2314SOL    HW2 7842   1.256   4.884   4.626
 2315SOL     OW 7843   4.487   2.588   6.612
 2315SOL    HW1 7844   4.585   2.608   6.619
 2315SOL    HW2 7845   4.474   2.504   6.559
 2316SOL     OW 7846   5.144   3.996   2.354
 2316SOL    HW1 7847   5.205   4.014   2.276
 2316SOL    HW2 7848   5.049   4.002   2.323
 2317SOL     OW 7849   0.301   5.168   3.748
 2317SOL    HW1 7850   0.237   5.195   3.820
 2317SOL    HW2 7851   0.390   5.147   3.790
 2318SOL     OW 7852   0.538   1.033   4.305
 2318SOL    HW1 7853   0.601   1.097   4.350
 2318SOL    HW2 7854   0.537   0.946   4.354
 2319SOL     OW 7855   0.862   4.256   3.358
 2319SOL    HW1 7856   0.907   4.330   3.308
 2319SOL    HW2 7857   0.795   4.212   3.299
 2320SOL     OW 7858   6.361   4.642   4.934
 2320SOL    HW1 7859   6.349   4.741   4.932
 2320SOL    HW2 7860   6.360   4.606   4.841
 2321SOL     OW 7861   2.554   5.551   5.079
 2321SOL    HW1 7862   2.618   5.520   5.151
 2321SOL    HW2 7863   2.589   5.523   4.990
 2322SOL     OW 7864   2.605   0.793   6.005
 2322SOL    HW1 7865   2.525   0.733   6.003
 2322SOL    HW2 7866   2.643   0.799   5.913
 2323SOL     OW 7867   5.281   4.375   1.659
 2323SOL    HW1 7868   5.281   4.471   1.688
 2323SOL    HW2 7869   5.352   4.325   1.709
 2324SOL     OW 7870   0.111   4.610   3.634
 2324SOL    HW1 7871   0.057   4.687   3.670
 2324SOL    HW2 7872   0.049   4.537   3.606
 2325SOL     OW 7873   6.773   2.788   0.809
 2325SOL    HW1 7874   6.721   2.787   0.894
 2325SOL    HW2 7875   6.867   2.817   0.828
 2326SOL     OW 7876   1.937   4.941   6.886
 2326SOL    HW1 7877   1.984   4.903   6.807
 2326SOL    HW2 7878   2.002   4.952   6.962
 2327SOL     OW 7879   5.520   2.104   4.654
 2327SOL    HW1 7880   5.595   2.165   4.627
 2327SOL    HW2 7881   5.550   2.048   4.731
 2328SOL     OW 7882   6.000   6.732   3.779
 2328SOL    HW1 7883   5.959   6.774   3.860
 2328SOL    HW2 7884   5.937   6.663   3.742
 2329SOL     OW 7885   6.641   6.277   3.730
 2329SOL    HW1 7886   6.736   6.299   3.753
 2329SOL    HW2 7887   6.592   6.250   3.813
 2330SOL     OW 7888   6.940   3.669   1.727
 2330SOL    HW1 7889   7.003   3.593   1.742
 2330SOL    HW2 7890   6.992   3.755   1.726
 2331SOL     OW 7891   0.799   4.319   5.827
 2331SOL    HW1 7892   0.883   4.343   5.779
 2331SOL    HW2 7893   0.748   4.252   5.773
 2332SOL     OW 7894   5.846   2.465   4.868
 2332SOL    HW1 7895   5.937   2.505   4.877
 2332SOL    HW2 7896   5.819   2.424   4.955
 2333SOL     OW 7897   1.730   4.459   3.660
 2333SOL    HW1 7898   1.797   4.523   3.620
 2333SOL    HW2 7899   1.640   4.477   3.621
 2334SOL     OW 7900   2.550   0.171   1.190
 2334SOL    HW1 7901   2.505   0.082   1.180
 2334SOL    HW2 7902   2.624   0.179   1.124
 2335SOL     OW 7903   4.785   6.121   4.222
 2335SOL    HW1 7904   4.733   6.121   4.136
 2335SOL    HW2 7905   4.748   6.191   4.283
 2336SOL     OW 7906   4.960   2.250   5.585
 2336SOL    HW1 7907   4.922   2.158   5.579
 2336SOL    HW2 7908   4.955   2.282   5.679
 2337SOL     OW 7909   5.754   0.358   3.256
 2337SOL    HW1 7910   5.814   0.289   3.216
 2337SOL    HW2 7911   5.659   0.326   3.252
 2338SOL     OW 7912   1.675   6.501   6.137
 2338SOL    HW1 7913   1.610   6.427   6.148
 2338SOL    HW2 7914   1.768   6.464   6.131
 2339SOL     OW 7915   3.940   4.665   6.591
 2339SOL    HW1 7916   3.987   4.696   6.674
 2339SOL    HW2 7917   3.945   4.737   6.521
 2340SOL     OW 7918   4.126   5.034   3.942
 2340SOL    HW1 7919   4.034   4.998   3.958
 2340SOL    HW2 7920   4.121   5.107   3.873
 2341SOL     OW 7921   6.276   5.546   0.246
 2341SOL    HW1 7922   6.344   5.481   0.280
 2341SOL    HW2 7923   6.321   5.613   0.187
 2342SOL     OW 7924   6.076   0.336   4.881
 2342SOL    HW1 7925   6.067   0.369   4.786
 2342SOL    HW2 7926   6.114   0.244   4.881
 2343SOL     OW 7927   1.130   6.536   0.563
 2343SOL    HW1 7928   1.103   6.520   0.468
 2343SOL    HW2 7929   1.189   6.617   0.568
 2344SOL     OW 7930   2.321   1.234   2.689
 2344SOL    HW1 7931   2.339   1.210   2.593
 2344SOL    HW2 7932   2.312   1.334   2.697
 2345SOL     OW 7933   2.071   1.177   3.455
 2345SOL    HW1 7934   2.025   1.258   3.417
 2345SOL    HW2 7935   2.117   1.202   3.540
 2346SOL     OW 7936   4.855   3.500   5.920
 2346SOL    HW1 7937   4.894   3.444   5.847
 2346SOL    HW2 7938   4.891   3.468   6.008
 2347SOL     OW 7939   1.074   3.303   1.372
 2347SOL    HW1 7940   1.043   3.263   1.458
 2347SOL    HW2 7941   1.014   3.378   1.346
 2348SOL     OW 7942   2.583   5.767   1.337
 2348SOL    HW1 7943   2.574   5.748   1.435
 2348SOL    HW2 7944   2.528   5.702   1.285
 2349SOL     OW 7945   4.679   5.486   5.707
 2349SOL    HW1 7946   4.644   5.563   5.760
 2349SOL    HW2 7947   4.646   5.494   5.612
 2350SOL     OW 7948   2.776   6.094   5.616
 2350SOL    HW1 7949   2.810   6.061   5.528
 2350SOL    HW2 7950   2.853   6.121   5.674
 2351SOL     OW 7951   1.943   5.562   3.499
 2351SOL    HW1 7952   1.930   5.660   3.517
 2351SOL    HW2 7953   2.014   5.526   3.559
 2352SOL     OW 7954   6.765   3.608   2.124
 2352SOL    HW1 7955   6.676   3.653   2.136
 2352SOL    HW2 7956   6.755   3.528   2.065
 2353SOL     OW 7957   2.951   3.666   6.019
 2353SOL    HW1 7958   2.972   3.658   5.922
 2353SOL    HW2 7959   2.931   3.576   6.057
 2354SOL     OW 7960   3.871   3.021   1.368
 2354SOL    HW1 7961   3.954   2.965   1.371
 2354SOL    HW2 7962   3.793   2.965   1.397
 2355SOL     OW 7963   0.036   0.332   1.126
 2355SOL    HW1 7964   7.005   0.320   1.209
 2355SOL    HW2 7965   0.117   0.274   1.130
 2356SOL     OW 7966   2.777   4.714   3.423
 2356SOL    HW1 7967   2.826   4.750   3.343
 2356SOL    HW2 7968   2.812   4.758   3.506
 2357SOL     OW 7969   6.121   5.005   1.364
 2357SOL    HW1 7970   6.217   5.019   1.341
 2357SOL    HW2 7971   6.101   4.907   1.361
 2358SOL     OW 7972   3.512   1.603   5.921
 2358SOL    HW1 7973   3.598   1.554   5.933
 2358SOL    HW2 7974   3.451   1.582   5.997
 2359SOL     OW 7975   1.965   1.202   5.885
 2359SOL    HW1 7976   2.015   1.157   5.959
 2359SOL    HW2 7977   1.892   1.141   5.852
 2360SOL     OW 7978   4.160   4.145   0.584
 2360SOL    HW1 7979   4.080   4.115   0.533
 2360SOL    HW2 7980   4.137   4.148   0.682
 2361SOL     OW 7981   4.296   5.817   1.712
 2361SOL    HW1 7982   4.264   5.912   1.709
 2361SOL    HW2 7983   4.347   5.796   1.629
 2362SOL     OW 7984   4.668   5.456   3.337
 2362SOL    HW1 7985   4.630   5.495   3.253
 2362SOL    HW2 7986   4.693   5.361   3.321
 2363SOL     OW 7987   2.659   4.333   0.805
 2363SOL    HW1 7988   2.607   4.384   0.873
 2363SOL    HW2 7989   2.597   4.276   0.751
 2364SOL     OW 7990   3.606   1.444   2.435
 2364SOL    HW1 7991   3.661   1.482   2.361
 2364SOL    HW2 7992   3.517   1.489   2.437
 2365SOL     OW 7993   4.911   3.385   3.419
 2365SOL    HW1 7994   4.908   3.295   3.375
 2365SOL    HW2 7995   4.933   3.455   3.350
 2366SOL     OW 7996   2.702   4.784   5.072
 2366SOL    HW1 7997   2.691   4.828   5.162
 2366SOL    HW2 7998   2.786   4.731   5.072
 2367SOL     OW 7999   5.686   4.361   6.458
 2367SOL    HW1 8000   5.735   4.440   6.420
 2367SOL    HW2 8001   5.741   4.279   6.445
 2368SOL     OW 8002   5.485   6.438   4.801
 2368SOL    HW1 8003   5.546   6.416   4.877
 2368SOL    HW2 8004   5.396   6.396   4.816
 2369SOL     OW 8005   3.083   1.919   4.333
 2369SOL    HW1 8006   3.032   2.005   4.335
 2369SOL    HW2 8007   3.023   1.844   4.359
 2370SOL     OW 8008   5.882   2.848   2.073
 2370SOL    HW1 8009   5.917   2.765   2.030
 2370SOL    HW2 8010   5.902   2.927   2.015
 2371SOL     OW 8011   0.340   6.203   3.305
 2371SOL    HW1 8012   0.391   6.220   3.221
 2371SOL    HW2 8013   0.402   6.212   3.384
 2372SOL     OW 8014   6.116   0.107   6.297
 2372SOL    HW1 8015   6.017   0.121   6.291
 2372SOL    HW2 8016   6.163   0.182   6.251
 2373SOL     OW 8017   5.775   5.321   0.073
 2373SOL    HW1 8018   5.848   5.254   0.065
 2373SOL    HW2 8019   5.692   5.277   0.108
 2374SOL     OW 8020   6.730   6.354   2.278
 2374SOL    HW1 8021   6.697   6.362   2.184
 2374SOL    HW2 8022   6.828   6.375   2.281
 2375SOL     OW 8023   1.209   0.505   4.264
 2375SOL    HW1 8024   1.196   0.407   4.249
 2375SOL    HW2 8025   1.188   0.527   4.359
 2376SOL     OW 8026   5.533   1.556   3.574
 2376SOL    HW1 8027   5.540   1.530   3.478
 2376SOL    HW2 8028   5.557   1.479   3.632
 2377SOL     OW 8029   4.477   4.630   5.873
 2377SOL    HW1 8030   4.526   4.702   5.823
 2377SOL    HW2 8031   4.379   4.643   5.862
 2378SOL     OW 8032   6.793   0.701   0.679
 2378SOL    HW1 8033   6.707   0.747   0.660
 2378SOL    HW2 8034   6.778   0.602   0.681
 2379SOL     OW 8035   6.382   5.019   1.332
 2379SOL    HW1 8036   6.412   5.014   1.428
 2379SOL    HW2 8037   6.422   4.943   1.282
 2380SOL     OW 8038   4.588   5.669   5.204
 2380SOL    HW1 8039   4.615   5.647   5.298
 2380SOL    HW2 8040   4.499   5.628   5.185
 2381SOL     OW 8041   2.123   4.566   5.076
 2381SOL    HW1 8042   2.091   4.483   5.121
 2381SOL    HW2 8043   2.045   4.618   5.042
 2382SOL     OW 8044   0.374   6.200   2.572
 2382SOL    HW1 8045   0.341   6.178   2.663
 2382SOL    HW2 8046   0.447   6.268   2.578
 2383SOL     OW 8047   5.354   5.622   5.789
 2383SOL    HW1 8048   5.269   5.606   5.839
 2383SOL    HW2 8049   5.420   5.550   5.813
 2384SOL     OW 8050   0.663   1.440   1.880
 2384SOL    HW1 8051   0.687   1.537   1.870
 2384SOL    HW2 8052   0.634   1.404   1.791
 2385SOL     OW 8053   0.187   1.308   0.625
 2385SOL    HW1 8054   0.151   1.261   0.706
 2385SOL    HW2 8055   0.158   1.403   0.625
 2386SOL     OW 8056   5.648   5.671   3.480
 2386SOL    HW1 8057   5.669   5.763   3.515
 2386SOL    HW2 8058   5.617   5.614   3.556
 2387SOL     OW 8059   1.937   1.582   3.911
 2387SOL    HW1 8060   1.976   1.662   3.865
 2387SOL    HW2 8061   1.931   1.600   4.009
 2388SOL     OW 8062   6.239   2.073   5.254
 2388SOL    HW1 8063   6.326   2.122   5.239
 2388SOL    HW2 8064   6.166   2.140   5.271
 2389SOL     OW 8065   5.000   4.596   4.273
 2389SOL    HW1 8066   5.071   4.529   4.299
 2389SOL    HW2 8067   4.937   4.608   4.350
 2390SOL     OW 8068   4.413   3.514   5.703
 2390SOL    HW1 8069   4.402   3.423   5.664
 2390SOL    HW2 8070   4.405   3.509   5.802
 2391SOL     OW 8071   2.801   5.010   6.243
 2391SOL    HW1 8072   2.810   4.922   6.198
 2391SOL    HW2 8073   2.891   5.042   6.273
 2392SOL     OW 8074   4.082   4.900   5.567
 2392SOL    HW1 8075   4.045   4.992   5.583
 2392SOL    HW2 8076   4.063   4.874   5.472
 2393SOL     OW 8077   4.303   4.596   1.363
 2393SOL    HW1 8078   4.269   4.684   1.331
 2393SOL    HW2 8079   4.334   4.542   1.285
 2394SOL     OW 8080   0.563   2.481   3.460
 2394SOL    HW1 8081   0.493   2.499   3.529
 2394SOL    HW2 8082   0.622   2.406   3.491
 2395SOL     OW 8083   0.631   2.516   4.810
 2395SOL    HW1 8084   0.701   2.488   4.876
 2395SOL    HW2 8085   0.636   2.615   4.798
 2396SOL     OW 8086   0.211   0.142   5.206
 2396SOL    HW1 8087   0.180   0.122   5.113
 2396SOL    HW2 8088   0.159   0.087   5.272
 2397SOL     OW 8089   0.036   4.338   5.638
 2397SOL    HW1 8090   0.065   4.367   5.547
 2397SOL    HW2 8091   6.960   4.332   5.642
 2398SOL     OW 8092   3.938   6.434   4.056
 2398SOL    HW1 8093   3.891   6.446   4.144
 2398SOL    HW2 8094   3.894   6.360   4.005
 2399SOL     OW 8095   3.682   2.157   3.926
 2399SOL    HW1 8096   3.606   2.155   3.861
 2399SOL    HW2 8097   3.646   2.148   4.019
 2400SOL     OW 8098   1.019   4.112   1.001
 2400SOL    HW1 8099   1.107   4.090   0.959
 2400SOL    HW2 8100   1.030   4.127   1.099
 2401SOL     OW 8101   2.505   0.487   5.676
 2401SOL    HW1 8102   2.460   0.446   5.596
 2401SOL    HW2 8103   2.489   0.430   5.756
 2402SOL     OW 8104   1.591   4.352   1.887
 2402SOL    HW1 8105   1.569   4.318   1.795
 2402SOL    HW2 8106   1.646   4.284   1.935
 2403SOL     OW 8107   4.123   3.359   3.308
 2403SOL    HW1 8108   4.165   3.418   3.239
 2403SOL    HW2 8109   4.143   3.395   3.399
 2404SOL     OW 8110   6.177   0.771   1.124
 2404SOL    HW1 8111   6.246   0.844   1.130
 2404SOL    HW2 8112   6.156   0.738   1.216
 2405SOL     OW 8113   1.988   3.022   0.912
 2405SOL    HW1 8114   1.999   2.995   1.007
 2405SOL    HW2 8115   1.915   3.090   0.905
 2406SOL     OW 8116   3.078   5.979   4.689
 2406SOL    HW1 8117   3.032   5.923   4.759
 2406SOL    HW2 8118   3.036   5.960   4.600
 2407SOL     OW 8119   3.111   0.868   3.666
 2407SOL    HW1 8120   3.056   0.789   3.639
 2407SOL    HW2 8121   3.064   0.952   3.640
 2408SOL     OW 8122   3.230   6.094   4.147
 2408SOL    HW1 8123   3.302   6.073   4.214
 2408SOL    HW2 8124   3.141   6.089   4.191
 2409SOL     OW 8125   1.758   3.387   1.547
 2409SOL    HW1 8126   1.814   3.403   1.465
 2409SOL    HW2 8127   1.817   3.354   1.621
 2410SOL     OW 8128   1.070   3.515   4.988
 2410SOL    HW1 8129   1.108   3.430   5.024
 2410SOL    HW2 8130   0.971   3.505   4.976
 2411SOL     OW 8131   2.843   3.800   0.449
 2411SOL    HW1 8132   2.764   3.828   0.504
 2411SOL    HW2 8133   2.900   3.738   0.502
 2412SOL     OW 8134   3.649   1.837   6.559
 2412SOL    HW1 8135   3.566   1.798   6.518
 2412SOL    HW2 8136   3.627   1.873   6.650
 2413SOL     OW 8137   0.278   3.071   6.675
 2413SOL    HW1 8138   0.199   3.119   6.637
 2413SOL    HW2 8139   0.318   3.012   6.605
 2414SOL     OW 8140   6.355   2.371   5.338
 2414SOL    HW1 8141   6.396   2.379   5.429
 2414SOL    HW2 8142   6.256   2.365   5.346
 2415SOL     OW 8143   2.406   5.647   0.562
 2415SOL    HW1 8144   2.333   5.698   0.518
 2415SOL    HW2 8145   2.492   5.662   0.512
 2416SOL     OW 8146   6.729   3.794   1.809
 2416SOL    HW1 8147   6.820   3.755   1.793
 2416SOL    HW2 8148   6.661   3.720   1.808
 2417SOL     OW 8149   3.011   2.623   1.748
 2417SOL    HW1 8150   2.929   2.633   1.692
 2417SOL    HW2 8151   3.000   2.546   1.811
 2418SOL     OW 8152   4.532   4.327   6.520
 2418SOL    HW1 8153   4.569   4.260   6.584
 2418SOL    HW2 8154   4.460   4.285   6.465
 2419SOL     OW 8155   2.478   6.200   3.679
 2419SOL    HW1 8156   2.431   6.135   3.738
 2419SOL    HW2 8157   2.467   6.293   3.716
 2420SOL     OW 8158   1.424   4.006   2.735
 2420SOL    HW1 8159   1.506   4.013   2.791
 2420SOL    HW2 8160   1.449   4.005   2.639
 2421SOL     OW 8161   2.503   6.021   4.162
 2421SOL    HW1 8162   2.555   6.050   4.242
 2421SOL    HW2 8163   2.501   6.095   4.095
 2422SOL     OW 8164   4.777   6.271   0.626
 2422SOL    HW1 8165   4.837   6.337   0.671
 2422SOL    HW2 8166   4.831   6.205   0.576
 2423SOL     OW 8167   2.683   5.183   2.752
 2423SOL    HW1 8168   2.730   5.223   2.830
 2423SOL    HW2 8169   2.692   5.244   2.673
 2424SOL     OW 8170   5.415   0.423   6.163
 2424SOL    HW1 8171   5.474   0.504   6.158
 2424SOL    HW2 8172   5.434   0.373   6.247
 2425SOL     OW 8173   5.205   5.510   4.867
 2425SOL    HW1 8174   5.125   5.498   4.926
 2425SOL    HW2 8175   5.242   5.601   4.880
 2426SOL     OW 8176   2.314   3.892   6.032
 2426SOL    HW1 8177   2.325   3.817   6.098
 2426SOL    HW2 8178   2.340   3.860   5.941
 2427SOL     OW 8179   5.517   0.920   6.935
 2427SOL    HW1 8180   5.563   0.916   6.846
 2427SOL    HW2 8181   5.497   1.015   6.957
 2428SOL     OW 8182   0.895   0.575   3.060
 2428SOL    HW1 8183   0.903   0.557   3.158
 2428SOL    HW2 8184   0.905   0.490   3.009
 2429SOL     OW 8185   6.041   5.033   1.875
 2429SOL    HW1 8186   5.996   4.970   1.811
 2429SOL    HW2 8187   6.076   4.981   1.953
 2430SOL     OW 8188   6.317   1.617   0.090
 2430SOL    HW1 8189   6.351   1.659   0.173
 2430SOL    HW2 8190   6.369   1.650   0.011
 2431SOL     OW 8191   6.802   3.097   1.700
 2431SOL    HW1 8192   6.719   3.059   1.660
 2431SOL    HW2 8193   6.861   3.023   1.731
 2432SOL     OW 8194   3.108   5.114   2.098
 2432SOL    HW1 8195   3.151   5.117   2.007
 2432SOL    HW2 8196   3.050   5.032   2.104
 2433SOL     OW 8197   6.309   4.109   5.771
 2433SOL    HW1 8198   6.318   4.145   5.678
 2433SOL    HW2 8199   6.218   4.130   5.806
 2434SOL     OW 8200   4.889   1.207   2.569
 2434SOL    HW1 8201   4.915   1.117   2.534
 2434SOL    HW2 8202   4.886   1.205   2.669
 2435SOL     OW 8203   6.021   6.617   6.803
 2435SOL    HW1 8204   6.066   6.672   6.732
 2435SOL    HW2 8205   5.977   6.677   6.869
 2436SOL     OW 8206   1.888   1.877   2.337
 2436SOL    HW1 8207   1.933   1.847   2.422
 2436SOL    HW2 8208   1.955   1.925   2.280
 2437SOL     OW 8209   6.966   4.302   2.384
 2437SOL    HW1 8210   6.958   4.318   2.285
 2437SOL    HW2 8211   6.988   4.206   2.400
 2438SOL     OW 8212   3.110   0.924   5.050
 2438SOL    HW1 8213   3.190   0.936   5.109
 2438SOL    HW2 8214   3.134   0.865   4.973
 2439SOL     OW 8215   0.730   0.184   1.704
 2439SOL    HW1 8216   0.813   0.220   1.744
 2439SOL    HW2 8217   0.665   0.259   1.688
 2440SOL     OW 8218   5.651   0.957   5.275
 2440SOL    HW1 8219   5.629   0.903   5.194
 2440SOL    HW2 8220   5.699   0.899   5.341
 2441SOL     OW 8221   6.472   6.975   6.643
 2441SOL    HW1 8222   6.478   6.937   6.551
 2441SOL    HW2 8223   6.428   6.909   6.704
 2442SOL     OW 8224   4.904   3.246   1.976
 2442SOL    HW1 8225   4.958   3.276   2.055
 2442SOL    HW2 8226   4.841   3.174   2.005
 2443SOL     OW 8227   0.428   2.390   1.691
 2443SOL    HW1 8228   0.372   2.470   1.710
 2443SOL    HW2 8229   0.408   2.356   1.599
 2444SOL     OW 8230   3.881   6.197   1.944
 2444SOL    HW1 8231   3.798   6.177   1.996
 2444SOL    HW2 8232   3.952   6.129   1.966
 2445SOL     OW 8233   0.146   2.098   0.754
 2445SOL    HW1 8234   0.093   2.098   0.839
 2445SOL    HW2 8235   0.167   2.193   0.728
 2446SOL     OW 8236   1.708   4.865   1.422
 2446SOL    HW1 8237   1.689   4.792   1.356
 2446SOL    HW2 8238   1.767   4.829   1.495
 2447SOL     OW 8239   2.556   6.969   0.108
 2447SOL    HW1 8240   2.578   6.871   0.106
 2447SOL    HW2 8241   2.631   7.020   0.064
 2448SOL     OW 8242   6.709   1.657   4.573
 2448SOL    HW1 8243   6.635   1.713   4.533
 2448SOL    HW2 8244   6.724   1.685   4.667
 2449SOL     OW 8245   1.539   4.249   1.613
 2449SOL    HW1 8246   1.638   4.246   1.605
 2449SOL    HW2 8247   1.499   4.169   1.568
 2450SOL     OW 8248   1.819   6.735   6.107
 2450SOL    HW1 8249   1.757   6.657   6.107
 2450SOL    HW2 8250   1.912   6.704   6.130
 2451SOL     OW 8251   1.193   6.947   5.572
 2451SOL    HW1 8252   1.121   6.878   5.579
 2451SOL    HW2 8253   1.153   0.014   5.559
 2452SOL     OW 8254   2.836   1.422   3.847
 2452SOL    HW1 8255   2.912   1.394   3.788
 2452SOL    HW2 8256   2.820   1.352   3.917
 2453SOL     OW 8257   1.161   1.580   6.467
 2453SOL    HW1 8258   1.238   1.517   6.455
 2453SOL    HW2 8259   1.163   1.618   6.559
 2454SOL     OW 8260   3.156   5.359   1.155
 2454SOL    HW1 8261   3.166   5.302   1.074
 2454SOL    HW2 8262   3.130   5.303   1.234
 2455SOL     OW 8263   3.587   2.449   0.958
 2455SOL    HW1 8264   3.500   2.492   0.937
 2455SOL    HW2 8265   3.636   2.502   1.026
 2456SOL     OW 8266   1.237   4.352   5.914
 2456SOL    HW1 8267   1.151   4.304   5.896
 2456SOL    HW2 8268   1.285   4.307   5.989
 2457SOL     OW 8269   5.301   2.145   5.272
 2457SOL    HW1 8270   5.323   2.241   5.292
 2457SOL    HW2 8271   5.298   2.093   5.358
 2458SOL     OW 8272   1.806   0.573   1.574
 2458SOL    HW1 8273   1.859   0.590   1.657
 2458SOL    HW2 8274   1.842   0.631   1.500
 2459SOL     OW 8275   2.922   6.153   1.389
 2459SOL    HW1 8276   3.004   6.127   1.440
 2459SOL    HW2 8277   2.939   6.238   1.339
 2460SOL     OW 8278   1.541   1.461   5.533
 2460SOL    HW1 8279   1.623   1.429   5.485
 2460SOL    HW2 8280   1.476   1.498   5.467
 2461SOL     OW 8281   4.114   1.134   3.836
 2461SOL    HW1 8282   4.154   1.164   3.923
 2461SOL    HW2 8283   4.035   1.191   3.814
 2462SOL     OW 8284   6.929   4.316   0.791
 2462SOL    HW1 8285   6.839   4.327   0.833
 2462SOL    HW2 8286   6.995   4.375   0.838
 2463SOL     OW 8287   6.832   1.069   7.013
 2463SOL    HW1 8288   6.793   0.985   6.976
 2463SOL    HW2 8289   6.814   1.144   6.949
 2464SOL     OW 8290   6.952   1.987   3.278
 2464SOL    HW1 8291   0.017   2.022   3.308
 2464SOL    HW2 8292   6.903   1.950   3.356
 2465SOL     OW 8293   0.426   4.598   5.623
 2465SOL    HW1 8294   0.371   4.575   5.703
 2465SOL    HW2 8295   0.453   4.694   5.627
 2466SOL     OW 8296   0.582   2.691   1.789
 2466SOL    HW1 8297   0.558   2.698   1.886
 2466SOL    HW2 8298   0.525   2.621   1.746
 2467SOL     OW 8299   5.105   1.335   6.081
 2467SOL    HW1 8300   5.117   1.348   5.983
 2467SOL    HW2 8301   5.103   1.237   6.102
 2468SOL     OW 8302   3.366   6.463   5.554
 2468SOL    HW1 8303   3.295   6.455   5.624
 2468SOL    HW2 8304   3.450   6.420   5.588
 2469SOL     OW 8305   3.417   2.696   5.962
 2469SOL    HW1 8306   3.401   2.725   6.056
 2469SOL    HW2 8307   3.408   2.775   5.901
 2470SOL     OW 8308   3.162   4.921   6.443
 2470SOL    HW1 8309   3.133   4.845   6.501
 2470SOL    HW2 8310   3.254   4.902   6.408
 2471SOL     OW 8311   4.453   5.813   1.501
 2471SOL    HW1 8312   4.549   5.792   1.485
 2471SOL    HW2 8313   4.419   5.873   1.428
 2472SOL     OW 8314   5.037   1.730   4.209
 2472SOL    HW1 8315   5.036   1.642   4.161
 2472SOL    HW2 8316   5.118   1.782   4.181
 2473SOL     OW 8317   0.548   4.148   4.846
 2473SOL    HW1 8318   0.645   4.139   4.822
 2473SOL    HW2 8319   0.527   4.244   4.865
 2474SOL     OW 8320   1.314   5.617   1.599
 2474SOL    HW1 8321   1.294   5.555   1.674
 2474SOL    HW2 8322   1.405   5.657   1.611
 2475SOL     OW 8323   4.956   0.059   0.852
 2475SOL    HW1 8324   4.995   0.143   0.889
 2475SOL    HW2 8325   5.029   0.005   0.808
 2476SOL     OW 8326   5.952   0.473   0.272
 2476SOL    HW1 8327   5.904   0.398   0.316
 2476SOL    HW2 8328   6.000   0.440   0.191
 2477SOL     OW 8329   4.081   0.256   3.206
 2477SOL    HW1 8330   4.170   0.245   3.252
 2477SOL    HW2 8331   4.034   0.168   3.203
 2478SOL     OW 8332   4.490   0.784   3.318
 2478SOL    HW1 8333   4.447   0.788   3.227
 2478SOL    HW2 8334   4.449   0.854   3.376
 2479SOL     OW 8335   0.500   4.095   0.435
 2479SOL    HW1 8336   0.457   4.177   0.474
 2479SOL    HW2 8337   0.521   4.111   0.339
 2480SOL     OW 8338   3.246   2.747   1.443
 2480SOL    HW1 8339   3.204   2.792   1.522
 2480SOL    HW2 8340   3.293   2.664   1.473
 2481SOL     OW 8341   3.022   0.620   0.703
 2481SOL    HW1 8342   3.114   0.601   0.667
 2481SOL    HW2 8343   2.961   0.544   0.682
 2482SOL     OW 8344   5.152   3.225   0.023
 2482SOL    HW1 8345   5.210   3.300   0.055
 2482SOL    HW2 8346   5.174   3.142   0.073
 2483SOL     OW 8347   0.811   2.093   0.941
 2483SOL    HW1 8348   0.766   2.007   0.918
 2483SOL    HW2 8349   0.855   2.131   0.859
 2484SOL     OW 8350   5.083   1.808   2.098
 2484SOL    HW1 8351   5.119   1.859   2.020
 2484SOL    HW2 8352   5.114   1.713   2.095
 2485SOL     OW 8353   4.862   2.555   5.976
 2485SOL    HW1 8354   4.923   2.630   6.003
 2485SOL    HW2 8355   4.830   2.507   6.058
 2486SOL     OW 8356   0.482   3.941   4.676
 2486SOL    HW1 8357   0.563   3.932   4.618
 2486SOL    HW2 8358   0.495   4.015   4.741
 2487SOL     OW 8359   4.559   6.310   7.016
 2487SOL    HW1 8360   4.507   6.366   0.058
 2487SOL    HW2 8361   4.626   6.367   6.969
 2488SOL     OW 8362   6.727   4.199   1.437
 2488SOL    HW1 8363   6.671   4.177   1.357
 2488SOL    HW2 8364   6.817   4.229   1.408
 2489SOL     OW 8365   0.615   6.159   4.381
 2489SOL    HW1 8366   0.593   6.203   4.295
 2489SOL    HW2 8367   0.700   6.106   4.371
 2490SOL     OW 8368   2.902   5.903   2.457
 2490SOL    HW1 8369   2.920   5.819   2.508
 2490SOL    HW2 8370   2.905   5.981   2.520
 2491SOL     OW 8371   4.102   4.709   1.767
 2491SOL    HW1 8372   4.154   4.637   1.815
 2491SOL    HW2 8373   4.161   4.788   1.753
 2492SOL     OW 8374   6.124   3.661   0.658
 2492SOL    HW1 8375   6.136   3.562   0.653
 2492SOL    HW2 8376   6.101   3.696   0.568
 2493SOL     OW 8377   0.494   6.562   1.746
 2493SOL    HW1 8378   0.559   6.500   1.789
 2493SOL    HW2 8379   0.467   6.526   1.657
 2494SOL     OW 8380   5.826   2.228   1.646
 2494SOL    HW1 8381   5.858   2.256   1.556
 2494SOL    HW2 8382   5.900   2.235   1.712
 2495SOL     OW 8383   6.376   5.690   3.444
 2495SOL    HW1 8384   6.407   5.605   3.486
 2495SOL    HW2 8385   6.455   5.745   3.418
 2496SOL     OW 8386   6.388   5.014   6.855
 2496SOL    HW1 8387   6.326   4.938   6.876
 2496SOL    HW2 8388   6.439   4.993   6.771
 2497SOL     OW 8389   0.407   6.572   2.335
 2497SOL    HW1 8390   0.480   6.579   2.266
 2497SOL    HW2 8391   0.440   6.606   2.423
 2498SOL     OW 8392   2.215   3.210   5.616
 2498SOL    HW1 8393   2.261   3.204   5.704
 2498SOL    HW2 8394   2.282   3.196   5.542
 2499SOL     OW 8395   6.138   3.453   1.527
 2499SOL    HW1 8396   6.090   3.533   1.564
 2499SOL    HW2 8397   6.094   3.425   1.442
 2500SOL     OW 8398   3.601   3.802   6.411
 2500SOL    HW1 8399   3.578   3.772   6.319
 2500SOL    HW2 8400   3.520   3.841   6.455
 2501SOL     OW 8401   5.877   5.794   0.482
 2501SOL    HW1 8402   5.970   5.784   0.447
 2501SOL    HW2 8403   5.831   5.706   0.480
 2502SOL     OW 8404   2.381   5.684   4.491
 2502SOL    HW1 8405   2.406   5.626   4.413
 2502SOL    HW2 8406   2.464   5.707   4.542
 2503SOL     OW 8407   2.660   6.837   5.366
 2503SOL    HW1 8408   2.702   6.901   5.301
 2503SOL    HW2 8409   2.606   6.889   5.433
 2504SOL     OW 8410   3.033   5.722   2.862
 2504SOL    HW1 8411   2.985   5.638   2.887
 2504SOL    HW2 8412   3.132   5.705   2.860
 2505SOL     OW 8413   0.682   5.685   2.121
 2505SOL    HW1 8414   0.765   5.666   2.173
 2505SOL    HW2 8415   0.665   5.784   2.121
 2506SOL     OW 8416   6.177   4.448   6.432
 2506SOL    HW1 8417   6.156   4.497   6.516
 2506SOL    HW2 8418   6.276   4.445   6.419
 2507SOL     OW 8419   6.874   3.247   0.353
 2507SOL    HW1 8420   6.882   3.198   0.266
 2507SOL    HW2 8421   6.945   3.318   0.356
 2508SOL     OW 8422   3.080   2.085   5.317
 2508SOL    HW1 8423   3.031   2.101   5.403
 2508SOL    HW2 8424   3.067   2.164   5.256
 2509SOL     OW 8425   6.502   3.660   6.469
 2509SOL    HW1 8426   6.427   3.631   6.409
 2509SOL    HW2 8427   6.544   3.743   6.432
 2510SOL     OW 8428   3.360   3.778   1.801
 2510SOL    HW1 8429   3.344   3.876   1.811
 2510SOL    HW2 8430   3.345   3.732   1.888
 2511SOL     OW 8431   2.334   0.668   5.122
 2511SOL    HW1 8432   2.292   0.754   5.092
 2511SOL    HW2 8433   2.431   0.669   5.100
 2512SOL     OW 8434   3.540   4.256   5.076
 2512SOL    HW1 8435   3.535   4.279   4.979
 2512SOL    HW2 8436   3.485   4.174   5.094
 2513SOL     OW 8437   2.145   6.880   5.861
 2513SOL    HW1 8438   2.208   6.852   5.934
 2513SOL    HW2 8439   2.082   6.805   5.841
 2514SOL     OW 8440   1.081   3.085   3.932
 2514SOL    HW1 8441   1.050   3.032   3.853
 2514SOL    HW2 8442   1.035   3.052   4.014
 2515SOL     OW 8443   1.952   0.749   1.400
 2515SOL    HW1 8444   1.954   0.795   1.488
 2515SOL    HW2 8445   1.912   0.810   1.331
 2516SOL     OW 8446   4.836   1.356   3.923
 2516SOL    HW1 8447   4.863   1.398   3.836
 2516SOL    HW2 8448   4.859   1.259   3.923
 2517SOL     OW 8449   0.798   1.067   4.818
 2517SOL    HW1 8450   0.853   1.129   4.873
 2517SOL    HW2 8451   0.732   1.119   4.764
 2518SOL     OW 8452   2.495   5.141   1.201
 2518SOL    HW1 8453   2.502   5.194   1.285
 2518SOL    HW2 8454   2.572   5.162   1.142
 2519SOL     OW 8455   2.722   1.219   1.333
 2519SOL    HW1 8456   2.739   1.288   1.404
 2519SOL    HW2 8457   2.775   1.243   1.251
 2520SOL     OW 8458   3.303   2.485   0.877
 2520SOL    HW1 8459   3.252   2.564   0.911
 2520SOL    HW2 8460   3.239   2.415   0.846
 2521SOL     OW 8461   4.184   1.631   5.086
 2521SOL    HW1 8462   4.141   1.586   5.165
 2521SOL    HW2 8463   4.244   1.566   5.040
 2522SOL     OW 8464   1.056   1.508   5.387
 2522SOL    HW1 8465   1.045   1.424   5.441
 2522SOL    HW2 8466   1.058   1.587   5.449
 2523SOL     OW 8467   1.877   4.554   0.764
 2523SOL    HW1 8468   1.917   4.638   0.729
 2523SOL    HW2 8469   1.946   4.482   0.765
 2524SOL     OW 8470   1.395   6.877   4.361
 2524SOL    HW1 8471   1.395   6.829   4.273
 2524SOL    HW2 8472   1.483   6.923   4.374
 2525SOL     OW 8473   1.163   2.968   4.699
 2525SOL    HW1 8474   1.122   3.006   4.616
 2525SOL    HW2 8475   1.262   2.960   4.687
 2526SOL     OW 8476   1.550   5.266   6.735
 2526SOL    HW1 8477   1.562   5.332   6.810
 2526SOL    HW2 8478   1.524   5.177   6.773
 2527SOL     OW 8479   5.281   5.639   5.195
 2527SOL    HW1 8480   5.250   5.547   5.221
 2527SOL    HW2 8481   5.202   5.695   5.172
 2528SOL     OW 8482   5.206   4.829   5.335
 2528SOL    HW1 8483   5.221   4.871   5.245
 2528SOL    HW2 8484   5.129   4.873   5.380
 2529SOL     OW 8485   0.872   0.142   6.383
 2529SOL    HW1 8486   0.778   0.110   6.380
 2529SOL    HW2 8487   0.934   0.064   6.393
 2530SOL     OW 8488   2.998   6.170   5.800
 2530SOL    HW1 8489   3.015   6.260   5.760
 2530SOL    HW2 8490   2.962   6.181   5.893
 2531SOL     OW 8491   5.808   5.691   5.490
 2531SOL    HW1 8492   5.770   5.599   5.479
 2531SOL    HW2 8493   5.748   5.757   5.445
 2532SOL     OW 8494   1.170   6.346   1.434
 2532SOL    HW1 8495   1.121   6.425   1.395
 2532SOL    HW2 8496   1.112   6.303   1.503
 2533SOL     OW 8497   4.872   0.927   3.359
 2533SOL    HW1 8498   4.965   0.895   3.341
 2533SOL    HW2 8499   4.875   1.020   3.396
 2534SOL     OW 8500   4.674   1.564   1.886
 2534SOL    HW1 8501   4.700   1.647   1.935
 2534SOL    HW2 8502   4.627   1.588   1.801
 2535SOL     OW 8503   3.639   2.717   6.753
 2535SOL    HW1 8504   3.727   2.669   6.749
 2535SOL    HW2 8505   3.613   2.730   6.849
 2536SOL     OW 8506   1.645   0.721   7.000
 2536SOL    HW1 8507   1.740   0.724   6.969
 2536SOL    HW2 8508   1.585   0.756   6.928
 2537SOL     OW 8509   3.465   0.732   6.548
 2537SOL    HW1 8510   3.462   0.648   6.602
 2537SOL    HW2 8511   3.535   0.723   6.477
 2538SOL     OW 8512   6.921   3.742   3.645
 2538SOL    HW1 8513   6.968   3.657   3.621
 2538SOL    HW2 8514   6.956   3.816   3.588
 2539SOL     OW 8515   6.096   1.117   3.686
 2539SOL    HW1 8516   6.075   1.045   3.619
 2539SOL    HW2 8517   6.189   1.149   3.672
 2540SOL     OW 8518   3.850   1.825   3.038
 2540SOL    HW1 8519   3.947   1.846   3.023
 2540SOL    HW2 8520   3.811   1.892   3.102
 2541SOL     OW 8521   2.790   0.033   4.802
 2541SOL    HW1 8522   2.836   0.066   4.720
 2541SOL    HW2 8523   2.858   0.002   4.868
 2542SOL     OW 8524   1.930   4.021   6.591
 2542SOL    HW1 8525   1.907   4.067   6.676
 2542SOL    HW2 8526   1.998   4.075   6.541
 2543SOL     OW 8527   0.989   1.440   4.174
 2543SOL    HW1 8528   0.996   1.470   4.079
 2543SOL    HW2 8529   0.948   1.513   4.229
 2544SOL     OW 8530   1.066   5.100   0.718
 2544SOL    HW1 8531   1.050   5.186   0.670
 2544SOL    HW2 8532   1.160   5.069   0.702
 2545SOL     OW 8533   1.778   0.142   2.568
 2545SOL    HW1 8534   1.679   0.153   2.573
 2545SOL    HW2 8535   1.821   0.231   2.549
 2546SOL     OW 8536   5.971   1.900   0.563
 2546SOL    HW1 8537   5.883   1.917   0.608
 2546SOL    HW2 8538   6.028   1.981   0.570
 2547SOL     OW 8539   0.061   3.824   6.691
 2547SOL    HW1 8540   0.081   3.746   6.751
 2547SOL    HW2 8541   0.012   3.792   6.610
 2548SOL     OW 8542   0.398   6.520   4.393
 2548SOL    HW1 8543   0.451   6.449   4.439
 2548SOL    HW2 8544   0.430   6.529   4.299
 2549SOL     OW 8545   0.541   0.405   1.649
 2549SOL    HW1 8546   0.446   0.377   1.632
 2549SOL    HW2 8547   0.557   0.495   1.608
 2550SOL     OW 8548   6.309   6.834   0.399
 2550SOL    HW1 8549   6.337   6.918   0.354
 2550SOL    HW2 8550   6.383   6.803   0.459
 2551SOL     OW 8551   2.703   4.642   6.706
 2551SOL    HW1 8552   2.663   4.572   6.648
 2551SOL    HW2 8553   2.690   4.732   6.664
 2552SOL     OW 8554   2.489   4.507   4.559
 2552SOL    HW1 8555   2.463   4.442   4.487
 2552SOL    HW2 8556   2.458   4.473   4.647
 2553SOL     OW 8557   3.970   3.743   6.152
 2553SOL    HW1 8558   4.060   3.785   6.144
 2553SOL    HW2 8559   3.945   3.702   6.064
 2554SOL     OW 8560   2.683   2.232   0.702
 2554SOL    HW1 8561   2.689   2.149   0.758
 2554SOL    HW2 8562   2.643   2.306   0.756
 2555SOL     OW 8563   5.072   2.875   4.492
 2555SOL    HW1 8564   5.142   2.939   4.461
 2555SOL    HW2 8565   4.996   2.926   4.533
 2556SOL     OW 8566   3.702   5.940   0.656
 2556SOL    HW1 8567   3.800   5.957   0.664
 2556SOL    HW2 8568   3.654   5.983   0.733
 2557SOL     OW 8569   2.038   3.610   6.613
 2557SOL    HW1 8570   1.995   3.584   6.527
 2557SOL    HW2 8571   2.024   3.538   6.680
 2558SOL     OW 8572   5.166   1.338   5.814
 2558SOL    HW1 8573   5.194   1.250   5.776
 2558SOL    HW2 8574   5.099   1.380   5.754
 2559SOL     OW 8575   0.735   4.225   6.061
 2559SOL    HW1 8576   0.757   4.282   6.140
 2559SOL    HW2 8577   0.772   4.266   5.978
 2560SOL     OW 8578   6.298   2.229   6.177
 2560SOL    HW1 8579   6.307   2.143   6.127
 2560SOL    HW2 8580   6.202   2.245   6.199
 2561SOL     OW 8581   3.476   5.044   4.778
 2561SOL    HW1 8582   3.471   5.143   4.782
 2561SOL    HW2 8583   3.422   5.005   4.852
 2562SOL     OW 8584   2.478   4.162   0.678
 2562SOL    HW1 8585   2.516   4.166   0.586
 2562SOL    HW2 8586   2.408   4.091   0.682
 2563SOL     OW 8587   3.147   0.829   6.980
 2563SOL    HW1 8588   3.195   0.915   6.961
 2563SOL    HW2 8589   3.050   0.841   6.960
 2564SOL     OW 8590   1.533   5.450   0.819
 2564SOL    HW1 8591   1.570   5.537   0.852
 2564SOL    HW2 8592   1.575   5.374   0.869
 2565SOL     OW 8593   1.015   1.106   1.102
 2565SOL    HW1 8594   0.944   1.087   1.035
 2565SOL    HW2 8595   1.052   1.198   1.087
 2566SOL     OW 8596   2.374   6.378   0.517
 2566SOL    HW1 8597   2.351   6.429   0.600
 2566SOL    HW2 8598   2.468   6.399   0.490
 2567SOL     OW 8599   1.423   0.053   0.604
 2567SOL    HW1 8600   1.345   0.031   0.545
 2567SOL    HW2 8601   1.489   0.107   0.551
 2568SOL     OW 8602   4.393   2.103   7.003
 2568SOL    HW1 8603   4.431   2.191   6.976
 2568SOL    HW2 8604   4.335   2.067   6.930
 2569SOL     OW 8605   3.869   1.061   3.636
 2569SOL    HW1 8606   3.935   1.020   3.573
 2569SOL    HW2 8607   3.827   0.990   3.692
 2570SOL     OW 8608   5.441   1.132   5.338
 2570SOL    HW1 8609   5.521   1.073   5.336
 2570SOL    HW2 8610   5.369   1.093   5.280
 2571SOL     OW 8611   1.189   5.022   4.513
 2571SOL    HW1 8612   1.201   5.118   4.536
 2571SOL    HW2 8613   1.141   5.014   4.425
 2572SOL     OW 8614   2.599   4.983   3.115
 2572SOL    HW1 8615   2.557   5.027   3.035
 2572SOL    HW2 8616   2.640   5.053   3.173
 2573SOL     OW 8617   0.435   1.390   1.170
 2573SOL    HW1 8618   0.521   1.342   1.192
 2573SOL    HW2 8619   0.428   1.400   1.071
 2574SOL     OW 8620   5.960   2.927   0.884
 2574SOL    HW1 8621   5.991   2.870   0.807
 2574SOL    HW2 8622   6.027   2.923   0.958
 2575SOL     OW 8623   6.107   5.763   0.117
 2575SOL    HW1 8624   6.122   5.755   0.216
 2575SOL    HW2 8625   6.122   5.858   0.089
 2576SOL     OW 8626   4.792   6.713   4.013
 2576SOL    HW1 8627   4.735   6.764   3.948
 2576SOL    HW2 8628   4.888   6.733   3.995
 2577SOL     OW 8629   3.023   4.793   2.294
 2577SOL    HW1 8630   2.976   4.838   2.370
 2577SOL    HW2 8631   3.044   4.699   2.319
 2578SOL     OW 8632   3.748   1.629   4.639
 2578SOL    HW1 8633   3.767   1.534   4.617
 2578SOL    HW2 8634   3.828   1.685   4.617
 2579SOL     OW 8635   0.713   6.396   3.597
 2579SOL    HW1 8636   0.719   6.465   3.525
 2579SOL    HW2 8637   0.793   6.336   3.592
 2580SOL     OW 8638   3.000   4.225   0.245
 2580SOL    HW1 8639   3.072   4.266   0.188
 2580SOL    HW2 8640   2.911   4.260   0.215
 2581SOL     OW 8641   2.626   6.571   5.753
 2581SOL    HW1 8642   2.644   6.493   5.813
 2581SOL    HW2 8643   2.534   6.607   5.771
 2582SOL     OW 8644   6.662   3.734   1.274
 2582SOL    HW1 8645   6.661   3.700   1.368
 2582SOL    HW2 8646   6.600   3.812   1.266
 2583SOL     OW 8647   6.778   6.498   1.057
 2583SOL    HW1 8648   6.777   6.506   0.958
 2583SOL    HW2 8649   6.769   6.401   1.083
 2584SOL     OW 8650   4.250   4.940   5.773
 2584SOL    HW1 8651   4.340   4.906   5.745
 2584SOL    HW2 8652   4.184   4.924   5.700
 2585SOL     OW 8653   3.296   5.255   6.455
 2585SOL    HW1 8654   3.287   5.312   6.373
 2585SOL    HW2 8655   3.275   5.160   6.433
 2586SOL     OW 8656   2.132   0.913   5.673
 2586SOL    HW1 8657   2.117   0.955   5.584
 2586SOL    HW2 8658   2.227   0.927   5.701
 2587SOL     OW 8659   0.144   0.750   2.547
 2587SOL    HW1 8660   0.107   0.843   2.549
 2587SOL    HW2 8661   0.191   0.735   2.459
 2588SOL     OW 8662   4.454   1.929   5.527
 2588SOL    HW1 8663   4.389   1.985   5.579
 2588SOL    HW2 8664   4.522   1.988   5.484
 2589SOL     OW 8665   1.178   6.565   0.042
 2589SOL    HW1 8666   1.128   6.589   6.982
 2589SOL    HW2 8667   1.275   6.584   0.030
 2590SOL     OW 8668   2.571   4.891   0.222
 2590SOL    HW1 8669   2.541   4.825   0.290
 2590SOL    HW2 8670   2.519   4.976   0.232
 2591SOL     OW 8671   6.059   5.664   4.027
 2591SOL    HW1 8672   6.082   5.732   4.096
 2591SOL    HW2 8673   6.100   5.576   4.051
 2592SOL     OW 8674   2.465   4.472   6.552
 2592SOL    HW1 8675   2.431   4.379   6.537
 2592SOL    HW2 8676   2.395   4.538   6.527
 2593SOL     OW 8677   2.996   5.710   0.550
 2593SOL    HW1 8678   2.977   5.614   0.569
 2593SOL    HW2 8679   3.088   5.718   0.510
 2594SOL     OW 8680   2.025   3.967   5.372
 2594SOL    HW1 8681   2.123   3.971   5.390
 2594SOL    HW2 8682   1.982   4.053   5.399
 2595SOL     OW 8683   1.492   1.431   4.475
 2595SOL    HW1 8684   1.557   1.459   4.546
 2595SOL    HW2 8685   1.491   1.499   4.402
 2596SOL     OW 8686   1.805   2.690   1.358
 2596SOL    HW1 8687   1.731   2.707   1.424
 2596SOL    HW2 8688   1.765   2.669   1.269
 2597SOL     OW 8689   0.790   6.004   6.239
 2597SOL    HW1 8690   0.698   5.967   6.254
 2597SOL    HW2 8691   0.855   5.930   6.226
 2598SOL     OW 8692   6.358   1.766   2.209
 2598SOL    HW1 8693   6.341   1.701   2.134
 2598SOL    HW2 8694   6.416   1.723   2.278
 2599SOL     OW 8695   3.205   6.905   1.971
 2599SOL    HW1 8696   3.154   6.982   1.932
 2599SOL    HW2 8697   3.226   6.839   1.899
 2600SOL     OW 8698   6.633   4.409   4.397
 2600SOL    HW1 8699   6.538   4.382   4.384
 2600SOL    HW2 8700   6.677   4.420   4.308
 2601SOL     OW 8701   0.804   2.040   2.369
 2601SOL    HW1 8702   0.727   2.067   2.312
 2601SOL    HW2 8703   0.772   1.978   2.441
 2602SOL     OW 8704   1.942   4.874   4.628
 2602SOL    HW1 8705   1.994   4.796   4.594
 2602SOL    HW2 8706   2.004   4.940   4.669
 2603SOL     OW 8707   3.022   1.178   2.458
 2603SOL    HW1 8708   3.117   1.206   2.452
 2603SOL    HW2 8709   3.017   1.080   2.477
 2604SOL     OW 8710   5.611   1.827   2.350
 2604SOL    HW1 8711   5.702   1.791   2.369
 2604SOL    HW2 8712   5.577   1.876   2.430
 2605SOL     OW 8713   1.027   3.902   1.905
 2605SOL    HW1 8714   0.932   3.919   1.880
 2605SOL    HW2 8715   1.041   3.803   1.915
 2606SOL     OW 8716   4.514   4.231   1.254
 2606SOL    HW1 8717   4.566   4.303   1.207
 2606SOL    HW2 8718   4.552   4.218   1.346
 2607SOL     OW 8719   1.894   2.229   1.003
 2607SOL    HW1 8720   1.866   2.313   0.956
 2607SOL    HW2 8721   1.814   2.172   1.019
 2608SOL     OW 8722   2.830   6.128   6.494
 2608SOL    HW1 8723   2.785   6.039   6.504
 2608SOL    HW2 8724   2.761   6.200   6.494
 2609SOL     OW 8725   0.763   0.676   1.245
 2609SOL    HW1 8726   0.707   0.678   1.328
 2609SOL    HW2 8727   0.762   0.767   1.203
 2610SOL     OW 8728   0.934   4.998   4.663
 2610SOL    HW1 8729   1.023   5.040   4.646
 2610SOL    HW2 8730   0.943   4.924   4.729
 2611SOL     OW 8731   5.106   6.525   6.778
 2611SOL    HW1 8732   5.112   6.427   6.761
 2611SOL    HW2 8733   5.010   6.552   6.787
 2612SOL     OW 8734   5.212   0.514   4.886
 2612SOL    HW1 8735   5.279   0.517   4.959
 2612SOL    HW2 8736   5.257   0.494   4.799
 2613SOL     OW 8737   0.847   5.863   6.597
 2613SOL    HW1 8738   0.777   5.930   6.570
 2613SOL    HW2 8739   0.817   5.772   6.571
 2614SOL     OW 8740   6.819   0.553   6.405
 2614SOL    HW1 8741   6.765   0.553   6.489
 2614SOL    HW2 8742   6.916   0.549   6.429
 2615SOL     OW 8743   1.251   4.001   0.903
 2615SOL    HW1 8744   1.251   3.940   0.824
 2615SOL    HW2 8745   1.297   3.956   0.980
 2616SOL     OW 8746   1.568   0.575   5.280
 2616SOL    HW1 8747   1.625   0.495   5.262
 2616SOL    HW2 8748   1.478   0.563   5.237
 2617SOL     OW 8749   5.498   0.569   0.237
 2617SOL    HW1 8750   5.427   0.639   0.237
 2617SOL    HW2 8751   5.579   0.604   0.285
 2618SOL     OW 8752   1.895   6.349   6.126
 2618SOL    HW1 8753   1.929   6.353   6.220
 2618SOL    HW2 8754   1.957   6.294   6.070
 2619SOL     OW 8755   4.337   1.595   1.941
 2619SOL    HW1 8756   4.390   1.679   1.932
 2619SOL    HW2 8757   4.246   1.617   1.978
 2620SOL     OW 8758   0.425   6.244   2.142
 2620SOL    HW1 8759   0.395   6.233   2.237
 2620SOL    HW2 8760   0.458   6.337   2.128
 2621SOL     OW 8761   1.377   6.043   2.886
 2621SOL    HW1 8762   1.279   6.034   2.869
 2621SOL    HW2 8763   1.412   5.959   2.927
 2622SOL     OW 8764   3.191   3.588   6.517
 2622SOL    HW1 8765   3.096   3.573   6.490
 2622SOL    HW2 8766   3.247   3.598   6.435
 2623SOL     OW 8767   1.129   0.257   4.120
 2623SOL    HW1 8768   1.142   0.162   4.093
 2623SOL    HW2 8769   1.032   0.274   4.137
 2624SOL     OW 8770   0.324   2.277   4.475
 2624SOL    HW1 8771   0.362   2.195   4.518
 2624SOL    HW2 8772   0.382   2.303   4.398
 2625SOL     OW 8773   2.024   5.386   5.650
 2625SOL    HW1 8774   2.112   5.378   5.697
 2625SOL    HW2 8775   1.982   5.296   5.642
 2626SOL     OW 8776   6.305   5.367   6.112
 2626SOL    HW1 8777   6.310   5.326   6.202
 2626SOL    HW2 8778   6.221   5.421   6.105
 2627SOL     OW 8779   1.223   0.152   5.943
 2627SOL    HW1 8780   1.206   0.126   6.038
 2627SOL    HW2 8781   1.139   0.190   5.904
 2628SOL     OW 8782   1.494   4.030   1.962
 2628SOL    HW1 8783   1.423   3.990   1.905
 2628SOL    HW2 8784   1.452   4.094   2.027
 2629SOL     OW 8785   3.940   3.927   3.480
 2629SOL    HW1 8786   3.874   3.974   3.421
 2629SOL    HW2 8787   3.995   3.995   3.529
 2630SOL     OW 8788   3.684   0.862   4.088
 2630SOL    HW1 8789   3.592   0.824   4.079
 2630SOL    HW2 8790   3.748   0.807   4.036
 2631SOL     OW 8791   6.022   0.798   0.252
 2631SOL    HW1 8792   6.076   0.854   0.189
 2631SOL    HW2 8793   5.930   0.837   0.261
 2632SOL     OW 8794   5.399   4.880   2.097
 2632SOL    HW1 8795   5.483   4.899   2.045
 2632SOL    HW2 8796   5.319   4.899   2.039
 2633SOL     OW 8797   0.063   3.159   5.845
 2633SOL    HW1 8798   0.115   3.085   5.888
 2633SOL    HW2 8799   0.115   3.196   5.769
 2634SOL     OW 8800   6.226   0.628   5.481
 2634SOL    HW1 8801   6.309   0.603   5.531
 2634SOL    HW2 8802   6.226   0.581   5.393
 2635SOL     OW 8803   5.861   5.499   3.779
 2635SOL    HW1 8804   5.960   5.494   3.781
 2635SOL    HW2 8805   5.830   5.588   3.813
 2636SOL     OW 8806   4.206   6.818   6.360
 2636SOL    HW1 8807   4.241   6.795   6.450
 2636SOL    HW2 8808   4.264   6.887   6.318
 2637SOL     OW 8809   1.914   1.385   3.353
 2637SOL    HW1 8810   1.964   1.470   3.334
 2637SOL    HW2 8811   1.836   1.378   3.291
 2638SOL     OW 8812   1.042   6.960   4.344
 2638SOL    HW1 8813   1.121   7.001   4.390
 2638SOL    HW2 8814   1.057   6.862   4.333
 2639SOL     OW 8815   4.213   4.985   4.966
 2639SOL    HW1 8816   4.165   5.018   4.885
 2639SOL    HW2 8817   4.282   4.918   4.939
 2640SOL     OW 8818   1.480   6.664   4.543
 2640SOL    HW1 8819   1.430   6.728   4.485
 2640SOL    HW2 8820   1.426   6.579   4.552
 2641SOL     OW 8821   5.558   2.036   6.579
 2641SOL    HW1 8822   5.520   2.060   6.668
 2641SOL    HW2 8823   5.529   1.943   6.555
 2642SOL     OW 8824   6.999   1.291   4.017
 2642SOL    HW1 8825   0.044   1.229   4.056
 2642SOL    HW2 8826   6.939   1.240   3.956
 2643SOL     OW 8827   1.362   4.136   3.643
 2643SOL    HW1 8828   1.289   4.116   3.708
 2643SOL    HW2 8829   1.418   4.055   3.629
 2644SOL     OW 8830   5.310   5.258   4.943
 2644SOL    HW1 8831   5.279   5.351   4.925
 2644SOL    HW2 8832   5.232   5.200   4.964
 2645SOL     OW 8833   5.394   4.948   3.259
 2645SOL    HW1 8834   5.419   5.044   3.241
 2645SOL    HW2 8835   5.346   4.911   3.180
 2646SOL     OW 8836   6.877   3.534   5.627
 2646SOL    HW1 8837   6.873   3.556   5.530
 2646SOL    HW2 8838   6.970   3.507   5.652
 2647SOL     OW 8839   5.011   0.010   2.206
 2647SOL    HW1 8840   4.980   0.053   2.121
 2647SOL    HW2 8841   5.059   6.948   2.184
 2648SOL     OW 8842   0.646   0.180   4.763
 2648SOL    HW1 8843   0.561   0.173   4.711
 2648SOL    HW2 8844   0.697   0.261   4.733
 2649SOL     OW 8845   5.211   2.277   1.927
 2649SOL    HW1 8846   5.300   2.264   1.970
 2649SOL    HW2 8847   5.218   2.256   1.829
 2650SOL     OW 8848   3.856   6.185   4.558
 2650SOL    HW1 8849   3.811   6.266   4.521
 2650SOL    HW2 8850   3.848   6.184   4.657
 2651SOL     OW 8851   4.068   2.092   5.061
 2651SOL    HW1 8852   4.039   2.117   5.153
 2651SOL    HW2 8853   4.007   2.022   5.025
 2652SOL     OW 8854   5.228   4.401   5.742
 2652SOL    HW1 8855   5.283   4.340   5.800
 2652SOL    HW2 8856   5.224   4.491   5.784
 2653SOL     OW 8857   2.904   6.677   0.078
 2653SOL    HW1 8858   2.961   6.647   0.155
 2653SOL    HW2 8859   2.947   6.649   7.016
 2654SOL     OW 8860   5.707   0.669   0.606
 2654SOL    HW1 8861   5.744   0.737   0.669
 2654SOL    HW2 8862   5.643   0.609   0.655
 2655SOL     OW 8863   5.076   5.609   3.057
 2655SOL    HW1 8864   5.116   5.639   2.971
 2655SOL    HW2 8865   4.976   5.613   3.051
 2656SOL     OW 8866   3.419   5.463   3.857
 2656SOL    HW1 8867   3.411   5.409   3.773
 2656SOL    HW2 8868   3.500   5.434   3.908
 2657SOL     OW 8869   1.556   3.503   0.059
 2657SOL    HW1 8870   1.600   3.457   0.136
 2657SOL    HW2 8871   1.623   3.561   0.012
 2658SOL     OW 8872   4.177   5.021   6.785
 2658SOL    HW1 8873   4.136   4.931   6.772
 2658SOL    HW2 8874   4.172   5.073   6.700
 2659SOL     OW 8875   6.831   2.514   4.605
 2659SOL    HW1 8876   6.792   2.432   4.646
 2659SOL    HW2 8877   6.926   2.524   4.634
 2660SOL     OW 8878   0.185   2.245   1.924
 2660SOL    HW1 8879   0.265   2.248   1.864
 2660SOL    HW2 8880   0.192   2.318   1.992
 2661SOL     OW 8881   1.898   1.588   0.630
 2661SOL    HW1 8882   1.815   1.576   0.686
 2661SOL    HW2 8883   1.922   1.685   0.627
 2662SOL     OW 8884   3.124   0.690   2.419
 2662SOL    HW1 8885   3.067   0.608   2.419
 2662SOL    HW2 8886   3.219   0.665   2.434
 2663SOL     OW 8887   4.270   6.599   0.503
 2663SOL    HW1 8888   4.179   6.581   0.540
 2663SOL    HW2 8889   4.312   6.512   0.474
 2664SOL     OW 8890   4.082   2.713   5.950
 2664SOL    HW1 8891   4.078   2.665   5.863
 2664SOL    HW2 8892   4.079   2.812   5.934
 2665SOL     OW 8893   1.907   3.728   5.378
 2665SOL    HW1 8894   1.902   3.682   5.289
 2665SOL    HW2 8895   1.958   3.813   5.369
 2666SOL     OW 8896   2.151   3.922   2.112
 2666SOL    HW1 8897   2.233   3.940   2.058
 2666SOL    HW2 8898   2.132   3.824   2.113
 2667SOL     OW 8899   6.523   3.690   4.204
 2667SOL    HW1 8900   6.535   3.771   4.262
 2667SOL    HW2 8901   6.427   3.683   4.176
 2668SOL     OW 8902   6.559   1.218   4.213
 2668SOL    HW1 8903   6.595   1.131   4.246
 2668SOL    HW2 8904   6.485   1.202   4.148
 2669SOL     OW 8905   2.744   0.771   0.174
 2669SOL    HW1 8906   2.768   0.756   0.269
 2669SOL    HW2 8907   2.662   0.828   0.169
 2670SOL     OW 8908   0.451   0.505   6.355
 2670SOL    HW1 8909   0.418   0.478   6.265
 2670SOL    HW2 8910   0.422   0.439   6.423
 2671SOL     OW 8911   3.911   5.229   6.017
 2671SOL    HW1 8912   3.833   5.279   6.055
 2671SOL    HW2 8913   3.953   5.173   6.089
 2672SOL     OW 8914   3.868   0.831   1.822
 2672SOL    HW1 8915   3.918   0.856   1.905
 2672SOL    HW2 8916   3.932   0.824   1.746
 2673SOL     OW 8917   4.334   0.658   2.263
 2673SOL    HW1 8918   4.422   0.706   2.258
 2673SOL    HW2 8919   4.281   0.693   2.341
 2674SOL     OW 8920   0.626   4.481   2.315
 2674SOL    HW1 8921   0.668   4.438   2.395
 2674SOL    HW2 8922   0.656   4.576   2.309
 2675SOL     OW 8923   5.481   0.488   4.660
 2675SOL    HW1 8924   5.506   0.546   4.737
 2675SOL    HW2 8925   5.464   0.545   4.579
 2676SOL     OW 8926   3.586   4.147   3.127
 2676SOL    HW1 8927   3.496   4.110   3.105
 2676SOL    HW2 8928   3.612   4.213   3.056
 2677SOL     OW 8929   2.231   4.869   1.484
 2677SOL    HW1 8930   2.276   4.956   1.505
 2677SOL    HW2 8931   2.148   4.887   1.431
 2678SOL     OW 8932   5.530   1.942   2.724
 2678SOL    HW1 8933   5.488   1.980   2.641
 2678SOL    HW2 8934   5.469   1.874   2.764
 2679SOL     OW 8935   2.093   4.369   3.677
 2679SOL    HW1 8936   2.100   4.404   3.583
 2679SOL    HW2 8937   2.039   4.285   3.677
 2680SOL     OW 8938   0.305   2.227   6.946
 2680SOL    HW1 8939   0.322   2.163   7.021
 2680SOL    HW2 8940   0.392   2.252   6.904
 2681SOL     OW 8941   1.754   2.544   5.076
 2681SOL    HW1 8942   1.712   2.627   5.111
 2681SOL    HW2 8943   1.843   2.567   5.035
 2682SOL     OW 8944   4.143   3.897   1.619
 2682SOL    HW1 8945   4.205   3.908   1.541
 2682SOL    HW2 8946   4.102   3.985   1.642
 2683SOL     OW 8947   2.725   4.662   2.600
 2683SOL    HW1 8948   2.785   4.740   2.585
 2683SOL    HW2 8949   2.703   4.618   2.513
 2684SOL     OW 8950   5.872   6.834   2.839
 2684SOL    HW1 8951   5.799   6.865   2.899
 2684SOL    HW2 8952   5.832   6.781   2.764
 2685SOL     OW 8953   0.942   6.080   5.311
 2685SOL    HW1 8954   0.992   6.069   5.397
 2685SOL    HW2 8955   0.917   6.176   5.298
 2686SOL     OW 8956   1.185   1.573   4.703
 2686SOL    HW1 8957   1.172   1.577   4.604
 2686SOL    HW2 8958   1.251   1.501   4.725
 2687SOL     OW 8959   3.584   1.366   1.535
 2687SOL    HW1 8960   3.670   1.417   1.541
 2687SOL    HW2 8961   3.553   1.365   1.440
 2688SOL     OW 8962   3.277   3.393   5.973
 2688SOL    HW1 8963   3.374   3.392   5.952
 2688SOL    HW2 8964   3.260   3.348   6.060
 2689SOL     OW 8965   0.931   3.358   2.627
 2689SOL    HW1 8966   0.950   3.261   2.617
 2689SOL    HW2 8967   0.991   3.396   2.698
 2690SOL     OW 8968   3.651   1.635   6.168
 2690SOL    HW1 8969   3.717   1.560   6.171
 2690SOL    HW2 8970   3.560   1.598   6.148
 2691SOL     OW 8971   0.221   4.623   4.043
 2691SOL    HW1 8972   0.240   4.597   4.138
 2691SOL    HW2 8973   0.269   4.562   3.981
 2692SOL     OW 8974   3.095   5.865   3.134
 2692SOL    HW1 8975   3.191   5.844   3.111
 2692SOL    HW2 8976   3.050   5.906   3.055
 2693SOL     OW 8977   1.370   5.250   3.365
 2693SOL    HW1 8978   1.399   5.342   3.391
 2693SOL    HW2 8979   1.428   5.182   3.411
 2694SOL     OW 8980   3.605   6.741   4.041
 2694SOL    HW1 8981   3.554   6.743   4.127
 2694SOL    HW2 8982   3.665   6.821   4.035
 2695SOL     OW 8983   6.947   5.143   3.406
 2695SOL    HW1 8984   0.003   5.108   3.455
 2695SOL    HW2 8985   6.895   5.066   3.368
 2696SOL     OW 8986   4.931   4.244   6.583
 2696SOL    HW1 8987   5.030   4.253   6.592
 2696SOL    HW2 8988   4.891   4.225   6.673
 2697SOL     OW 8989   4.164   2.419   0.590
 2697SOL    HW1 8990   4.254   2.424   0.632
 2697SOL    HW2 8991   4.098   2.381   0.655
 2698SOL     OW 8992   1.728   4.038   5.913
 2698SOL    HW1 8993   1.796   4.073   5.849
 2698SOL    HW2 8994   1.644   4.017   5.863
 2699SOL     OW 8995   3.331   6.018   2.121
 2699SOL    HW1 8996   3.312   5.940   2.061
 2699SOL    HW2 8997   3.258   6.027   2.189
 2700SOL     OW 8998   3.264   2.228   1.851
 2700SOL    HW1 8999   3.235   2.314   1.809
 2700SOL    HW2 9000   3.352   2.200   1.813
 2701SOL     OW 9001   5.207   3.101   4.674
 2701SOL    HW1 9002   5.268   3.174   4.646
 2701SOL    HW2 9003   5.243   3.013   4.644
 2702SOL     OW 9004   2.478   1.558   5.057
 2702SOL    HW1 9005   2.563   1.506   5.057
 2702SOL    HW2 9006   2.452   1.578   5.152
 2703SOL     OW 9007   1.282   0.043   1.852
 2703SOL    HW1 9008   1.260   0.045   1.755
 2703SOL    HW2 9009   1.246   0.125   1.897
 2704SOL     OW 9010   5.640   0.162   4.428
 2704SOL    HW1 9011   5.626   0.063   4.423
 2704SOL    HW2 9012   5.660   0.198   4.337
 2705SOL     OW 9013   6.683   6.766   5.240
 2705SOL    HW1 9014   6.725   6.807   5.321
 2705SOL    HW2 9015   6.663   6.837   5.172
 2706SOL     OW 9016   6.666   3.676   3.538
 2706SOL    HW1 9017   6.744   3.692   3.599
 2706SOL    HW2 9018   6.692   3.698   3.444
 2707SOL     OW 9019   4.048   0.496   3.308
 2707SOL    HW1 9020   4.083   0.561   3.241
 2707SOL    HW2 9021   4.049   0.404   3.270
 2708SOL     OW 9022   5.958   3.015   0.346
 2708SOL    HW1 9023   5.927   3.107   0.320
 2708SOL    HW2 9024   6.041   3.023   0.402
 2709SOL     OW 9025   4.485   0.829   4.294
 2709SOL    HW1 9026   4.403   0.839   4.350
 2709SOL    HW2 9027   4.550   0.902   4.315
 2710SOL     OW 9028   1.269   2.667   4.094
 2710SOL    HW1 9029   1.336   2.636   4.026
 2710SOL    HW2 9030   1.181   2.681   4.050
 2711SOL     OW 9031   3.329   2.019   2.376
 2711SOL    HW1 9032   3.253   2.078   2.348
 2711SOL    HW2 9033   3.393   2.011   2.300
 2712SOL     OW 9034   3.946   5.630   1.973
 2712SOL    HW1 9035   3.960   5.571   2.053
 2712SOL    HW2 9036   4.018   5.614   1.906
 2713SOL     OW 9037   3.465   4.804   6.342
 2713SOL    HW1 9038   3.431   4.751   6.420
 2713SOL    HW2 9039   3.540   4.754   6.298
 2714SOL     OW 9040   2.397   4.698   6.838
 2714SOL    HW1 9041   2.473   4.730   6.894
 2714SOL    HW2 9042   2.424   4.699   6.742
 2715SOL     OW 9043   4.366   1.059   0.746
 2715SOL    HW1 9044   4.381   1.125   0.820
 2715SOL    HW2 9045   4.320   0.978   0.782
 2716SOL     OW 9046   3.929   2.171   2.899
 2716SOL    HW1 9047   3.893   2.216   2.981
 2716SOL    HW2 9048   3.998   2.104   2.926
 2717SOL     OW 9049   0.515   0.992   2.843
 2717SOL    HW1 9050   0.514   0.892   2.849
 2717SOL    HW2 9051   0.457   1.030   2.914
 2718SOL     OW 9052   0.150   6.973   5.954
 2718SOL    HW1 9053   0.250   6.963   5.946
 2718SOL    HW2 9054   0.112   7.001   5.866
 2719SOL     OW 9055   2.057   3.693   2.429
 2719SOL    HW1 9056   1.966   3.651   2.418
 2719SOL    HW2 9057   2.097   3.664   2.515
 2720SOL     OW 9058   1.733   6.632   5.761
 2720SOL    HW1 9059   1.680   6.706   5.719
 2720SOL    HW2 9060   1.675   6.551   5.769
 2721SOL     OW 9061   3.443   5.603   1.568
 2721SOL    HW1 9062   3.474   5.523   1.619
 2721SOL    HW2 9063   3.361   5.580   1.515
 2722SOL     OW 9064   4.813   5.377   6.652
 2722SOL    HW1 9065   4.812   5.475   6.631
 2722SOL    HW2 9066   4.853   5.327   6.576
 2723SOL     OW 9067   3.382   6.862   0.693
 2723SOL    HW1 9068   3.346   6.788   0.749
 2723SOL    HW2 9069   3.332   6.946   0.713
 2724SOL     OW 9070   1.367   5.707   1.102
 2724SOL    HW1 9071   1.362   5.784   1.039
 2724SOL    HW2 9072   1.297   5.717   1.173
 2725SOL     OW 9073   5.366   3.804   5.296
 2725SOL    HW1 9074   5.369   3.899   5.329
 2725SOL    HW2 9075   5.314   3.800   5.211
 2726SOL     OW 9076   0.273   1.147   1.997
 2726SOL    HW1 9077   0.307   1.085   1.927
 2726SOL    HW2 9078   0.340   1.219   2.015
 2727SOL     OW 9079   1.842   3.963   4.866
 2727SOL    HW1 9080   1.809   4.028   4.934
 2727SOL    HW2 9081   1.784   3.882   4.865
 2728SOL     OW 9082   5.579   5.886   6.103
 2728SOL    HW1 9083   5.489   5.845   6.095
 2728SOL    HW2 9084   5.607   5.887   6.199
 2729SOL     OW 9085   5.302   5.844   6.033
 2729SOL    HW1 9086   5.223   5.838   6.094
 2729SOL    HW2 9087   5.279   5.905   5.957
 2730SOL     OW 9088   1.273   5.571   2.167
 2730SOL    HW1 9089   1.366   5.589   2.197
 2730SOL    HW2 9090   1.210   5.636   2.210
 2731SOL     OW 9091   3.325   3.555   3.837
 2731SOL    HW1 9092   3.400   3.621   3.846
 2731SOL    HW2 9093   3.324   3.495   3.916
 2732SOL     OW 9094   5.684   1.589   1.895
 2732SOL    HW1 9095   5.682   1.686   1.920
 2732SOL    HW2 9096   5.622   1.574   1.818
 2733SOL     OW 9097   0.897   0.093   6.091
 2733SOL    HW1 9098   0.960   0.017   6.105
 2733SOL    HW2 9099   0.882   0.141   6.178
 2734SOL     OW 9100   3.273   5.830   1.594
 2734SOL    HW1 9101   3.343   5.758   1.596
 2734SOL    HW2 9102   3.183   5.790   1.612
 2735SOL     OW 9103   0.582   1.371   1.614
 2735SOL    HW1 9104   0.580   1.435   1.538
 2735SOL    HW2 9105   0.509   1.304   1.603
 2736SOL     OW 9106   4.792   5.168   3.511
 2736SOL    HW1 9107   4.847   5.232   3.457
 2736SOL    HW2 9108   4.716   5.135   3.455
 2737SOL     OW 9109   2.505   2.478   6.851
 2737SOL    HW1 9110   2.416   2.433   6.847
 2737SOL    HW2 9111   2.495   2.569   6.892
 2738SOL     OW 9112   5.700   6.818   1.775
 2738SOL    HW1 9113   5.728   6.855   1.864
 2738SOL    HW2 9114   5.737   6.875   1.702
 2739SOL     OW 9115   1.102   5.366   2.156
 2739SOL    HW1 9116   1.139   5.292   2.099
 2739SOL    HW2 9117   1.175   5.429   2.180
 2740SOL     OW 9118   6.621   6.375   3.472
 2740SOL    HW1 9119   6.619   6.389   3.571
 2740SOL    HW2 9120   6.528   6.360   3.439
 2741SOL     OW 9121   1.313   1.818   4.790
 2741SOL    HW1 9122   1.405   1.840   4.756
 2741SOL    HW2 9123   1.271   1.749   4.732
 2742SOL     OW 9124   3.463   5.222   1.982
 2742SOL    HW1 9125   3.562   5.211   1.969
 2742SOL    HW2 9126   3.420   5.132   1.987
 2743SOL     OW 9127   5.721   4.262   2.747
 2743SOL    HW1 9128   5.786   4.295   2.815
 2743SOL    HW2 9129   5.645   4.326   2.740
 2744SOL     OW 9130   3.737   3.994   3.300
 2744SOL    HW1 9131   3.684   3.920   3.342
 2744SOL    HW2 9132   3.685   4.034   3.225
 2745SOL     OW 9133   6.776   0.484   6.018
 2745SOL    HW1 9134   6.788   0.385   6.014
 2745SOL    HW2 9135   6.856   0.526   6.062
 2746SOL     OW 9136   1.690   0.817   4.025
 2746SOL    HW1 9137   1.661   0.732   3.980
 2746SOL    HW2 9138   1.655   0.895   3.974
 2747SOL     OW 9139   3.667   5.695   0.550
 2747SOL    HW1 9140   3.673   5.714   0.452
 2747SOL    HW2 9141   3.624   5.772   0.597
 2748SOL     OW 9142   4.553   6.682   1.872
 2748SOL    HW1 9143   4.583   6.731   1.791
 2748SOL    HW2 9144   4.600   6.594   1.878
 2749SOL     OW 9145   1.658   3.325   0.237
 2749SOL    HW1 9146   1.755   3.329   0.262
 2749SOL    HW2 9147   1.605   3.288   0.313
 2750SOL     OW 9148   2.383   5.665   2.381
 2750SOL    HW1 9149   2.297   5.654   2.331
 2750SOL    HW2 9150   2.401   5.582   2.434
 2751SOL     OW 9151   0.584   3.369   0.899
 2751SOL    HW1 9152   0.536   3.457   0.888
 2751SOL    HW2 9153   0.676   3.376   0.859
 2752SOL     OW 9154   3.476   4.956   6.756
 2752SOL    HW1 9155   3.494   4.860   6.731
 2752SOL    HW2 9156   3.378   4.972   6.757
 2753SOL     OW 9157   5.989   5.603   5.095
 2753SOL    HW1 9158   5.924   5.621   5.022
 2753SOL    HW2 9159   6.002   5.686   5.149
 2754SOL     OW 9160   1.164   7.020   6.174
 2754SOL    HW1 9161   1.132   6.931   6.140
 2754SOL    HW2 9162   1.151   0.001   6.273
 2755SOL     OW 9163   2.879   6.587   2.652
 2755SOL    HW1 9164   2.972   6.571   2.619
 2755SOL    HW2 9165   2.878   6.670   2.709
 2756SOL     OW 9166   4.976   6.199   0.106
 2756SOL    HW1 9167   4.980   6.108   0.066
 2756SOL    HW2 9168   5.068   6.238   0.110
 2757SOL     OW 9169   0.809   4.794   1.499
 2757SOL    HW1 9170   0.871   4.872   1.491
 2757SOL    HW2 9171   0.716   4.823   1.478
 2758SOL     OW 9172   5.063   0.407   5.556
 2758SOL    HW1 9173   5.135   0.426   5.490
 2758SOL    HW2 9174   5.098   0.347   5.628
 2759SOL     OW 9175   5.806   6.277   4.802
 2759SOL    HW1 9176   5.833   6.367   4.768
 2759SOL    HW2 9177   5.783   6.218   4.725
 2760SOL     OW 9178   2.343   5.169   2.630
 2760SOL    HW1 9179   2.258   5.120   2.613
 2760SOL    HW2 9180   2.370   5.156   2.725
 2761SOL     OW 9181   2.256   5.479   2.780
 2761SOL    HW1 9182   2.248   5.559   2.839
 2761SOL    HW2 9183   2.196   5.406   2.813
 2762SOL     OW 9184   0.884   6.923   5.573
 2762SOL    HW1 9185   0.913   6.908   5.479
 2762SOL    HW2 9186   0.790   6.893   5.584
 2763SOL     OW 9187   5.178   1.737   3.756
 2763SOL    HW1 9188   5.165   1.713   3.660
 2763SOL    HW2 9189   5.276   1.747   3.774
 2764SOL     OW 9190   6.030   1.106   1.802
 2764SOL    HW1 9191   5.981   1.019   1.802
 2764SOL    HW2 9192   6.099   1.105   1.730
 2765SOL     OW 9193   6.037   1.444   2.189
 2765SOL    HW1 9194   5.987   1.369   2.145
 2765SOL    HW2 9195   6.028   1.436   2.289
 2766SOL     OW 9196   6.185   1.358   1.850
 2766SOL    HW1 9197   6.136   1.293   1.909
 2766SOL    HW2 9198   6.135   1.370   1.764
 2767SOL     OW 9199   5.619   3.906   6.525
 2767SOL    HW1 9200   5.675   3.860   6.594
 2767SOL    HW2 9201   5.523   3.881   6.537
 2768SOL     OW 9202   4.728   1.139   6.657
 2768SOL    HW1 9203   4.684   1.218   6.614
 2768SOL    HW2 9204   4.775   1.168   6.740
 2769SOL     OW 9205   0.054   4.641   1.755
 2769SOL    HW1 9206   0.087   4.735   1.764
 2769SOL    HW2 9207   0.055   4.596   1.844
 2770SOL     OW 9208   1.039   4.995   1.802
 2770SOL    HW1 9209   1.068   4.948   1.718
 2770SOL    HW2 9210   0.949   4.962   1.829
 2771SOL     OW 9211   5.749   1.544   1.231
 2771SOL    HW1 9212   5.777   1.494   1.313
 2771SOL    HW2 9213   5.651   1.565   1.237
 2772SOL     OW 9214   3.531   2.765   7.013
 2772SOL    HW1 9215   3.440   2.730   0.014
 2772SOL    HW2 9216   3.592   2.758   0.069
 2773SOL     OW 9217   3.827   4.245   6.755
 2773SOL    HW1 9218   3.902   4.311   6.752
 2773SOL    HW2 9219   3.848   4.167   6.697
 2774SOL     OW 9220   5.457   3.211   2.022
 2774SOL    HW1 9221   5.534   3.217   2.085
 2774SOL    HW2 9222   5.453   3.119   1.982
 2775SOL     OW 9223   0.359   5.623   1.644
 2775SOL    HW1 9224   0.300   5.560   1.593
 2775SOL    HW2 9225   0.345   5.716   1.610
 2776SOL     OW 9226   3.191   6.349   6.367
 2776SOL    HW1 9227   3.146   6.262   6.348
 2776SOL    HW2 9228   3.142   6.423   6.321
 2777SOL     OW 9229   3.274   1.431   2.725
 2777SOL    HW1 9230   3.280   1.529   2.708
 2777SOL    HW2 9231   3.262   1.382   2.639
 2778SOL     OW 9232   2.231   2.134   5.896
 2778SOL    HW1 9233   2.139   2.145   5.933
 2778SOL    HW2 9234   2.285   2.216   5.912
 2779SOL     OW 9235   5.128   0.384   6.721
 2779SOL    HW1 9236   5.167   0.337   6.801
 2779SOL    HW2 9237   5.082   0.318   6.662
 2780SOL     OW 9238   5.350   5.192   6.402
 2780SOL    HW1 9239   5.366   5.284   6.438
 2780SOL    HW2 9240   5.358   5.192   6.303
 2781SOL     OW 9241   5.617   4.521   1.515
 2781SOL    HW1 9242   5.561   4.542   1.595
 2781SOL    HW2 9243   5.631   4.422   1.508
 2782SOL     OW 9244   2.972   2.818   6.408
 2782SOL    HW1 9245   2.947   2.899   6.355
 2782SOL    HW2 9246   3.017   2.751   6.349
 2783SOL     OW 9247   6.820   4.848   5.285
 2783SOL    HW1 9248   6.889   4.906   5.242
 2783SOL    HW2 9249   6.749   4.824   5.219
 2784SOL     OW 9250   1.854   2.351   1.464
 2784SOL    HW1 9251   1.860   2.306   1.375
 2784SOL    HW2 9252   1.935   2.329   1.518
 2785SOL     OW 9253   6.499   0.470   0.556
 2785SOL    HW1 9254   6.519   0.387   0.607
 2785SOL    HW2 9255   6.401   0.476   0.539
 2786SOL     OW 9256   3.761   6.199   0.998
 2786SOL    HW1 9257   3.695   6.233   1.065
 2786SOL    HW2 9258   3.852   6.234   1.020
 2787SOL     OW 9259   2.306   2.791   5.740
 2787SOL    HW1 9260   2.323   2.838   5.653
 2787SOL    HW2 9261   2.389   2.793   5.796
 2788SOL     OW 9262   2.466   4.518   0.981
 2788SOL    HW1 9263   2.510   4.598   1.020
 2788SOL    HW2 9264   2.432   4.459   1.055
 2789SOL     OW 9265   0.744   1.778   4.265
 2789SOL    HW1 9266   0.667   1.761   4.204
 2789SOL    HW2 9267   0.830   1.769   4.215
 2790SOL     OW 9268   3.673   5.091   2.921
 2790SOL    HW1 9269   3.576   5.114   2.910
 2790SOL    HW2 9270   3.708   5.133   3.005
 2791SOL     OW 9271   1.519   3.558   4.567
 2791SOL    HW1 9272   1.585   3.539   4.494
 2791SOL    HW2 9273   1.545   3.509   4.650
 2792SOL     OW 9274   0.438   0.826   4.950
 2792SOL    HW1 9275   0.469   0.851   5.042
 2792SOL    HW2 9276   0.412   0.908   4.900
 2793SOL     OW 9277   5.177   1.874   2.777
 2793SOL    HW1 9278   5.122   1.790   2.784
 2793SOL    HW2 9279   5.190   1.897   2.680
 2794SOL     OW 9280   0.166   0.665   0.454
 2794SOL    HW1 9281   0.266   0.666   0.463
 2794SOL    HW2 9282   0.129   0.750   0.491
 2795SOL     OW 9283   3.167   3.927   1.507
 2795SOL    HW1 9284   3.266   3.934   1.523
 2795SOL    HW2 9285   3.144   3.833   1.482
 2796SOL     OW 9286   5.537   4.201   3.048
 2796SOL    HW1 9287   5.571   4.139   2.977
 2796SOL    HW2 9288   5.505   4.285   3.005
 2797SOL     OW 9289   4.895   5.404   4.788
 2797SOL    HW1 9290   4.840   5.483   4.761
 2797SOL    HW2 9291   4.932   5.418   4.880
 2798SOL     OW 9292   1.012   3.249   3.393
 2798SOL    HW1 9293   0.959   3.166   3.415
 2798SOL    HW2 9294   1.040   3.246   3.297
 2799SOL     OW 9295   6.698   5.016   6.249
 2799SOL    HW1 9296   6.778   4.959   6.267
 2799SOL    HW2 9297   6.714   5.072   6.167
 2800SOL     OW 9298   2.755   5.035   6.521
 2800SOL    HW1 9299   2.759   5.073   6.429
 2800SOL    HW2 9300   2.846   5.041   6.564
 2801SOL     OW 9301   4.811   5.598   2.058
 2801SOL    HW1 9302   4.842   5.692   2.069
 2801SOL    HW2 9303   4.744   5.594   1.984
 2802SOL     OW 9304   4.318   1.756   5.886
 2802SOL    HW1 9305   4.241   1.773   5.824
 2802SOL    HW2 9306   4.310   1.817   5.965
 2803SOL     OW 9307   2.902   6.774   6.022
 2803SOL    HW1 9308   2.810   6.738   6.039
 2803SOL    HW2 9309   2.898   6.874   6.021
 2804SOL     OW 9310   6.593   4.741   3.419
 2804SOL    HW1 9311   6.639   4.679   3.355
 2804SOL    HW2 9312   6.652   4.754   3.500
 2805SOL     OW 9313   5.149   3.056   0.978
 2805SOL    HW1 9314   5.108   3.146   0.960
 2805SOL    HW2 9315   5.228   3.067   1.038
 2806SOL     OW 9316   6.617   5.447   2.773
 2806SOL    HW1 9317   6.541   5.475   2.831
 2806SOL    HW2 9318   6.658   5.363   2.810
 2807SOL     OW 9319   3.775   4.873   3.513
 2807SOL    HW1 9320   3.839   4.947   3.535
 2807SOL    HW2 9321   3.746   4.882   3.418
 2808SOL     OW 9322   5.463   1.459   3.853
 2808SOL    HW1 9323   5.544   1.458   3.911
 2808SOL    HW2 9324   5.477   1.523   3.778
 2809SOL     OW 9325   5.828   2.665   0.619
 2809SOL    HW1 9326   5.831   2.741   0.684
 2809SOL    HW2 9327   5.804   2.698   0.528
 2810SOL     OW 9328   2.543   0.314   5.205
 2810SOL    HW1 9329   2.582   0.224   5.188
 2810SOL    HW2 9330   2.456   0.323   5.156
 2811SOL     OW 9331   0.469   1.063   3.289
 2811SOL    HW1 9332   0.562   1.025   3.279
 2811SOL    HW2 9333   0.463   1.113   3.375
 2812SOL     OW 9334   4.924   3.713   2.626
 2812SOL    HW1 9335   4.927   3.629   2.680
 2812SOL    HW2 9336   4.925   3.690   2.529
 2813SOL     OW 9337   5.708   6.889   6.122
 2813SOL    HW1 9338   5.732   6.946   6.201
 2813SOL    HW2 9339   5.725   6.793   6.144
 2814SOL     OW 9340   4.131   4.098   5.875
 2814SOL    HW1 9341   4.117   4.074   5.971
 2814SOL    HW2 9342   4.049   4.142   5.839
 2815SOL     OW 9343   6.760   1.213   4.657
 2815SOL    HW1 9344   6.746   1.298   4.606
 2815SOL    HW2 9345   6.853   1.180   4.643
 2816SOL     OW 9346   5.931   0.295   3.937
 2816SOL    HW1 9347   5.982   0.298   3.851
 2816SOL    HW2 9348   5.958   0.214   3.989
 2817SOL     OW 9349   1.774   1.155   1.547
 2817SOL    HW1 9350   1.873   1.157   1.562
 2817SOL    HW2 9351   1.727   1.175   1.632
 2818SOL     OW 9352   6.720   4.573   6.117
 2818SOL    HW1 9353   6.814   4.598   6.140
 2818SOL    HW2 9354   6.720   4.506   6.043
 2819SOL     OW 9355   0.253   3.293   0.093
 2819SOL    HW1 9356   0.173   3.352   0.090
 2819SOL    HW2 9357   0.274   3.262   0.000
 2820SOL     OW 9358   0.117   2.501   2.893
 2820SOL    HW1 9359   0.073   2.413   2.911
 2820SOL    HW2 9360   0.085   2.569   2.959
 2821SOL     OW 9361   1.731   4.772   4.926
 2821SOL    HW1 9362   1.818   4.774   4.975
 2821SOL    HW2 9363   1.745   4.737   4.833
 2822SOL     OW 9364   5.216   2.322   6.924
 2822SOL    HW1 9365   5.268   2.408   6.928
 2822SOL    HW2 9366   5.138   2.329   6.987
 2823SOL     OW 9367   2.285   6.946   2.308
 2823SOL    HW1 9368   2.250   6.992   2.390
 2823SOL    HW2 9369   2.210   6.933   2.243
 2824SOL     OW 9370   2.617   1.653   5.508
 2824SOL    HW1 9371   2.710   1.672   5.474
 2824SOL    HW2 9372   2.551   1.675   5.437
 2825SOL     OW 9373   6.816   6.562   1.328
 2825SOL    HW1 9374   6.800   6.658   1.350
 2825SOL    HW2 9375   6.793   6.546   1.232
 2826SOL     OW 9376   4.920   2.099   5.229
 2826SOL    HW1 9377   4.932   2.053   5.141
 2826SOL    HW2 9378   4.877   2.188   5.215
 2827SOL     OW 9379   5.903   1.103   5.480
 2827SOL    HW1 9380   5.913   1.070   5.386
 2827SOL    HW2 9381   5.944   1.194   5.488
 2828SOL     OW 9382   4.117   0.474   5.690
 2828SOL    HW1 9383   4.195   0.490   5.630
 2828SOL    HW2 9384   4.051   0.414   5.644
 2829SOL     OW 9385   3.513   6.428   6.116
 2829SOL    HW1 9386   3.585   6.430   6.047
 2829SOL    HW2 9387   3.431   6.386   6.077
 2830SOL     OW 9388   4.831   3.334   6.431
 2830SOL    HW1 9389   4.836   3.277   6.513
 2830SOL    HW2 9390   4.754   3.397   6.439
 2831SOL     OW 9391   5.653   6.246   4.144
 2831SOL    HW1 9392   5.634   6.151   4.166
 2831SOL    HW2 9393   5.618   6.306   4.216
 2832SOL     OW 9394   0.335   1.245   1.546
 2832SOL    HW1 9395   0.285   1.167   1.508
 2832SOL    HW2 9396   0.321   1.325   1.487
 2833SOL     OW 9397   5.766   2.366   2.045
 2833SOL    HW1 9398   5.780   2.332   1.952
 2833SOL    HW2 9399   5.669   2.386   2.059
 2834SOL     OW 9400   3.512   1.710   5.679
 2834SOL    HW1 9401   3.421   1.729   5.642
 2834SOL    HW2 9402   3.505   1.691   5.777
 2835SOL     OW 9403   0.564   6.642   2.671
 2835SOL    HW1 9404   0.481   6.696   2.660
 2835SOL    HW2 9405   0.618   6.644   2.586
 2836SOL     OW 9406   0.080   6.762   1.830
 2836SOL    HW1 9407   0.123   6.732   1.745
 2836SOL    HW2 9408   7.014   6.718   1.840
 2837SOL     OW 9409   5.474   4.104   3.950
 2837SOL    HW1 9410   5.471   4.204   3.948
 2837SOL    HW2 9411   5.387   4.068   3.917
 2838SOL     OW 9412   2.716   4.852   1.872
 2838SOL    HW1 9413   2.681   4.916   1.941
 2838SOL    HW2 9414   2.750   4.770   1.917
 2839SOL     OW 9415   5.850   1.696   1.507
 2839SOL    HW1 9416   5.946   1.721   1.496
 2839SOL    HW2 9417   5.798   1.776   1.537
 2840SOL     OW 9418   6.958   1.369   5.278
 2840SOL    HW1 9419   6.909   1.453   5.301
 2840SOL    HW2 9420   0.018   1.392   5.228
 2841SOL     OW 9421   0.921   5.742   1.167
 2841SOL    HW1 9422   1.001   5.786   1.129
 2841SOL    HW2 9423   0.930   5.642   1.159
 2842SOL     OW 9424   6.676   3.430   3.703
 2842SOL    HW1 9425   6.651   3.525   3.682
 2842SOL    HW2 9426   6.714   3.387   3.621
 2843SOL     OW 9427   3.474   1.084   4.953
 2843SOL    HW1 9428   3.564   1.100   4.911
 2843SOL    HW2 9429   3.486   1.028   5.035
 2844SOL     OW 9430   1.289   4.207   0.015
 2844SOL    HW1 9431   1.297   4.210   6.939
 2844SOL    HW2 9432   1.379   4.216   0.057
 2845SOL     OW 9433   0.660   3.966   6.852
 2845SOL    HW1 9434   0.657   3.969   6.753
 2845SOL    HW2 9435   0.575   4.004   6.889
 2846SOL     OW 9436   5.023   1.508   6.566
 2846SOL    HW1 9437   5.013   1.530   6.663
 2846SOL    HW2 9438   5.024   1.408   6.555
 2847SOL     OW 9439   6.184   4.584   3.755
 2847SOL    HW1 9440   6.150   4.553   3.666
 2847SOL    HW2 9441   6.115   4.643   3.798
 2848SOL     OW 9442   0.540   4.994   4.817
 2848SOL    HW1 9443   0.568   5.027   4.727
 2848SOL    HW2 9444   0.618   4.949   4.862
 2849SOL     OW 9445   2.910   1.731   0.565
 2849SOL    HW1 9446   2.825   1.783   0.557
 2849SOL    HW2 9447   2.959   1.759   0.647
 2850SOL     OW 9448   3.517   0.264   1.135
 2850SOL    HW1 9449   3.611   0.231   1.147
 2850SOL    HW2 9450   3.453   0.188   1.143
 2851SOL     OW 9451   0.993   4.429   5.663
 2851SOL    HW1 9452   1.091   4.448   5.665
 2851SOL    HW2 9453   0.957   4.447   5.572
 2852SOL     OW 9454   6.659   3.401   6.521
 2852SOL    HW1 9455   6.655   3.368   6.615
 2852SOL    HW2 9456   6.627   3.495   6.517
 2853SOL     OW 9457   3.520   2.854   1.166
 2853SOL    HW1 9458   3.460   2.774   1.174
 2853SOL    HW2 9459   3.567   2.870   1.253
 2854SOL     OW 9460   2.562   0.203   4.319
 2854SOL    HW1 9461   2.475   0.238   4.284
 2854SOL    HW2 9462   2.611   0.157   4.245
 2855SOL     OW 9463   2.010   0.807   5.266
 2855SOL    HW1 9464   1.962   0.891   5.288
 2855SOL    HW2 9465   2.041   0.810   5.171
 2856SOL     OW 9466   2.544   2.748   5.241
 2856SOL    HW1 9467   2.477   2.716   5.308
 2856SOL    HW2 9468   2.510   2.831   5.197
 2857SOL     OW 9469   2.831   2.461   1.407
 2857SOL    HW1 9470   2.738   2.428   1.389
 2857SOL    HW2 9471   2.836   2.558   1.386
 2858SOL     OW 9472   6.193   2.950   2.505
 2858SOL    HW1 9473   6.159   3.005   2.582
 2858SOL    HW2 9474   6.120   2.890   2.472
 2859SOL     OW 9475   5.167   0.967   0.595
 2859SOL    HW1 9476   5.091   0.909   0.566
 2859SOL    HW2 9477   5.174   0.966   0.695
 2860SOL     OW 9478   3.883   1.822   1.746
 2860SOL    HW1 9479   3.792   1.816   1.705
 2860SOL    HW2 9480   3.952   1.822   1.674
 2861SOL     OW 9481   3.846   5.687   5.323
 2861SOL    HW1 9482   3.806   5.600   5.292
 2861SOL    HW2 9483   3.796   5.763   5.281
 2862SOL     OW 9484   5.245   1.127   3.826
 2862SOL    HW1 9485   5.344   1.117   3.835
 2862SOL    HW2 9486   5.217   1.217   3.859
 2863SOL     OW 9487   6.226   2.066   6.921
 2863SOL    HW1 9488   6.191   2.158   6.902
 2863SOL    HW2 9489   6.260   2.025   6.837
 2864SOL     OW 9490   4.035   0.402   1.468
 2864SOL    HW1 9491   3.972   0.406   1.391
 2864SOL    HW2 9492   4.032   0.488   1.519
 2865SOL     OW 9493   4.492   4.262   5.255
 2865SOL    HW1 9494   4.423   4.330   5.231
 2865SOL    HW2 9495   4.552   4.246   5.176
 2866SOL     OW 9496   0.137   5.712   6.383
 2866SOL    HW1 9497   0.104   5.748   6.470
 2866SOL    HW2 9498   0.059   5.681   6.328
 2867SOL     OW 9499   5.946   4.925   2.838
 2867SOL    HW1 9500   5.957   4.913   2.740
 2867SOL    HW2 9501   5.964   5.020   2.863
 2868SOL     OW 9502   1.359   4.334   5.078
 2868SOL    HW1 9503   1.285   4.271   5.051
 2868SOL    HW2 9504   1.428   4.283   5.130
 2869SOL     OW 9505   5.937   0.480   2.123
 2869SOL    HW1 9506   6.017   0.535   2.145
 2869SOL    HW2 9507   5.962   0.408   2.058
 2870SOL     OW 9508   6.322   2.325   3.389
 2870SOL    HW1 9509   6.238   2.376   3.372
 2870SOL    HW2 9510   6.305   2.227   3.379
 2871SOL     OW 9511   2.024   1.935   6.431
 2871SOL    HW1 9512   2.115   1.962   6.398
 2871SOL    HW2 9513   1.954   1.988   6.383
 2872SOL     OW 9514   2.662   0.543   4.142
 2872SOL    HW1 9515   2.585   0.550   4.204
 2872SOL    HW2 9516   2.709   0.456   4.156
 2873SOL     OW 9517   1.163   5.603   2.521
 2873SOL    HW1 9518   1.175   5.688   2.572
 2873SOL    HW2 9519   1.218   5.531   2.562
 2874SOL     OW 9520   5.600   3.952   2.542
 2874SOL    HW1 9521   5.592   3.853   2.529
 2874SOL    HW2 9522   5.540   3.999   2.478
 2875SOL     OW 9523   3.703   6.140   5.781
 2875SOL    HW1 9524   3.632   6.070   5.781
 2875SOL    HW2 9525   3.782   6.107   5.832
 2876SOL     OW 9526   0.726   1.062   1.374
 2876SOL    HW1 9527   0.760   1.015   1.292
 2876SOL    HW2 9528   0.674   0.998   1.430
 2877SOL     OW 9529   3.114   2.853   5.227
 2877SOL    HW1 9530   3.138   2.892   5.138
 2877SOL    HW2 9531   3.165   2.769   5.242
 2878SOL     OW 9532   2.561   4.632   4.827
 2878SOL    HW1 9533   2.585   4.658   4.920
 2878SOL    HW2 9534   2.630   4.668   4.764
 2879SOL     OW 9535   5.204   4.834   0.253
 2879SOL    HW1 9536   5.143   4.773   0.202
 2879SOL    HW2 9537   5.156   4.873   0.331
 2880SOL     OW 9538   0.900   6.049   1.297
 2880SOL    HW1 9539   0.834   5.976   1.315
 2880SOL    HW2 9540   0.880   6.089   1.207
 2881SOL     OW 9541   6.616   6.087   1.011
 2881SOL    HW1 9542   6.632   6.161   1.076
 2881SOL    HW2 9543   6.536   6.035   1.039
 2882SOL     OW 9544   0.008   3.227   2.205
 2882SOL    HW1 9545   0.000   3.195   2.111
 2882SOL    HW2 9546   7.017   3.150   2.268
 2883SOL     OW 9547   3.540   6.805   2.596
 2883SOL    HW1 9548   3.627   6.814   2.547
 2883SOL    HW2 9549   3.556   6.813   2.694
 2884SOL     OW 9550   0.753   6.227   3.028
 2884SOL    HW1 9551   0.733   6.207   3.124
 2884SOL    HW2 9552   0.685   6.183   2.970
 2885SOL     OW 9553   0.293   2.142   2.628
 2885SOL    HW1 9554   0.304   2.204   2.706
 2885SOL    HW2 9555   0.383   2.113   2.596
 2886SOL     OW 9556   1.950   2.056   6.756
 2886SOL    HW1 9557   2.037   2.064   6.708
 2886SOL    HW2 9558   1.875   2.054   6.689
 2887SOL     OW 9559   1.840   0.088   4.676
 2887SOL    HW1 9560   1.771   0.093   4.749
 2887SOL    HW2 9561   1.926   0.053   4.714
 2888SOL     OW 9562   6.537   4.779   6.717
 2888SOL    HW1 9563   6.605   4.797   6.789
 2888SOL    HW2 9564   6.490   4.693   6.738
 2889SOL     OW 9565   0.710   0.685   1.856
 2889SOL    HW1 9566   0.720   0.735   1.942
 2889SOL    HW2 9567   0.695   0.750   1.781
 2890SOL     OW 9568   3.780   0.360   1.314
 2890SOL    HW1 9569   3.708   0.409   1.266
 2890SOL    HW2 9570   3.748   0.268   1.337
 2891SOL     OW 9571   1.932   4.172   3.834
 2891SOL    HW1 9572   1.887   4.243   3.887
 2891SOL    HW2 9573   1.884   4.161   3.747
 2892SOL     OW 9574   4.019   4.264   6.514
 2892SOL    HW1 9575   3.956   4.188   6.526
 2892SOL    HW2 9576   3.969   4.344   6.483
 2893SOL     OW 9577   2.808   6.903   5.132
 2893SOL    HW1 9578   2.861   6.819   5.121
 2893SOL    HW2 9579   2.867   6.982   5.114
 2894SOL     OW 9580   2.989   3.384   0.190
 2894SOL    HW1 9581   2.984   3.343   0.099
 2894SOL    HW2 9582   2.924   3.460   0.195
 2895SOL     OW 9583   4.125   3.192   6.877
 2895SOL    HW1 9584   4.184   3.150   6.808
 2895SOL    HW2 9585   4.034   3.152   6.871
 2896SOL     OW 9586   2.384   5.446   6.985
 2896SOL    HW1 9587   2.451   5.472   0.032
 2896SOL    HW2 9588   2.325   5.373   7.021
 2897SOL     OW 9589   2.687   5.988   3.281
 2897SOL    HW1 9590   2.628   5.914   3.313
 2897SOL    HW2 9591   2.732   6.030   3.360
 2898SOL     OW 9592   4.692   5.186   2.161
 2898SOL    HW1 9593   4.727   5.257   2.221
 2898SOL    HW2 9594   4.596   5.167   2.183
 2899SOL     OW 9595   0.074   0.171   6.647
 2899SOL    HW1 9596   0.113   0.083   6.673
 2899SOL    HW2 9597   0.037   0.217   6.728
 2900SOL     OW 9598   1.271   5.270   5.865
 2900SOL    HW1 9599   1.353   5.305   5.818
 2900SOL    HW2 9600   1.192   5.280   5.805
 2901SOL     OW 9601   2.862   0.581   2.266
 2901SOL    HW1 9602   2.799   0.504   2.279
 2901SOL    HW2 9603   2.824   0.646   2.201
 2902SOL     OW 9604   5.522   6.373   1.013
 2902SOL    HW1 9605   5.534   6.436   0.936
 2902SOL    HW2 9606   5.554   6.282   0.986
 2903SOL     OW 9607   2.572   1.411   1.933
 2903SOL    HW1 9608   2.483   1.389   1.894
 2903SOL    HW2 9609   2.644   1.389   1.866
 2904SOL     OW 9610   2.201   3.218   5.209
 2904SOL    HW1 9611   2.111   3.242   5.175
 2904SOL    HW2 9612   2.245   3.153   5.147
 2905SOL     OW 9613   1.342   1.403   2.031
 2905SOL    HW1 9614   1.333   1.325   2.093
 2905SOL    HW2 9615   1.355   1.487   2.085
 2906SOL     OW 9616   5.799   5.473   2.353
 2906SOL    HW1 9617   5.885   5.424   2.334
 2906SOL    HW2 9618   5.793   5.491   2.451
 2907SOL     OW 9619   0.283   1.694   5.427
 2907SOL    HW1 9620   0.214   1.715   5.358
 2907SOL    HW2 9621   0.368   1.740   5.404
 2908SOL     OW 9622   4.682   6.325   4.380
 2908SOL    HW1 9623   4.587   6.312   4.353
 2908SOL    HW2 9624   4.719   6.406   4.333
 2909SOL     OW 9625   1.260   5.275   4.582
 2909SOL    HW1 9626   1.269   5.327   4.497
 2909SOL    HW2 9627   1.348   5.233   4.605
 2910SOL     OW 9628   3.943   6.308   4.905
 2910SOL    HW1 9629   3.907   6.282   4.995
 2910SOL    HW2 9630   3.874   6.292   4.835
 2911SOL     OW 9631   2.358   4.398   3.716
 2911SOL    HW1 9632   2.370   4.346   3.800
 2911SOL    HW2 9633   2.264   4.386   3.683
 2912SOL     OW 9634   3.067   5.893   0.122
 2912SOL    HW1 9635   3.095   5.933   0.209
 2912SOL    HW2 9636   3.045   5.967   0.058
 2913SOL     OW 9637   1.323   3.578   2.251
 2913SOL    HW1 9638   1.408   3.562   2.200
 2913SOL    HW2 9639   1.345   3.611   2.343
 2914SOL     OW 9640   5.559   4.766   6.000
 2914SOL    HW1 9641   5.553   4.741   5.903
 2914SOL    HW2 9642   5.627   4.709   6.045
 2915SOL     OW 9643   4.289   1.251   4.108
 2915SOL    HW1 9644   4.242   1.221   4.191
 2915SOL    HW2 9645   4.263   1.345   4.087
 2916SOL     OW 9646   6.153   4.858   5.200
 2916SOL    HW1 9647   6.157   4.954   5.172
 2916SOL    HW2 9648   6.245   4.818   5.193
 2917SOL     OW 9649   4.535   0.311   1.539
 2917SOL    HW1 9650   4.602   0.375   1.502
 2917SOL    HW2 9651   4.448   0.321   1.490
 2918SOL     OW 9652   0.721   3.975   3.535
 2918SOL    HW1 9653   0.811   3.967   3.491
 2918SOL    HW2 9654   0.655   3.917   3.487
 2919SOL     OW 9655   6.106   6.475   0.741
 2919SOL    HW1 9656   6.180   6.481   0.808
 2919SOL    HW2 9657   6.135   6.518   0.655
 2920SOL     OW 9658   4.019   2.228   2.616
 2920SOL    HW1 9659   3.992   2.260   2.706
 2920SOL    HW2 9660   3.960   2.152   2.588
 2921SOL     OW 9661   0.367   1.133   3.047
 2921SOL    HW1 9662   0.271   1.150   3.069
 2921SOL    HW2 9663   0.419   1.122   3.131
 2922SOL     OW 9664   4.964   0.121   5.427
 2922SOL    HW1 9665   5.032   0.184   5.465
 2922SOL    HW2 9666   4.957   0.041   5.487
 2923SOL     OW 9667   6.591   5.136   2.013
 2923SOL    HW1 9668   6.670   5.168   2.064
 2923SOL    HW2 9669   6.511   5.191   2.036
 2924SOL     OW 9670   0.519   1.117   5.780
 2924SOL    HW1 9671   0.562   1.100   5.868
 2924SOL    HW2 9672   0.554   1.202   5.741
 2925SOL     OW 9673   5.288   2.987   1.626
 2925SOL    HW1 9674   5.194   3.018   1.640
 2925SOL    HW2 9675   5.289   2.889   1.611
 2926SOL     OW 9676   6.981   1.957   4.612
 2926SOL    HW1 9677   6.948   2.048   4.637
 2926SOL    HW2 9678   6.925   1.920   4.538
 2927SOL     OW 9679   1.390   2.371   2.276
 2927SOL    HW1 9680   1.476   2.421   2.283
 2927SOL    HW2 9681   1.394   2.307   2.199
 2928SOL     OW 9682   6.557   0.490   6.967
 2928SOL    HW1 9683   6.508   0.446   0.019
 2928SOL    HW2 9684   6.629   0.429   6.934
 2929SOL     OW 9685   0.646   0.402   6.678
 2929SOL    HW1 9686   0.664   0.471   6.749
 2929SOL    HW2 9687   0.727   0.393   6.620
 2930SOL     OW 9688   5.337   0.928   4.838
 2930SOL    HW1 9689   5.295   0.965   4.755
 2930SOL    HW2 9690   5.269   0.880   4.892
 2931SOL     OW 9691   4.745   6.374   6.190
 2931SOL    HW1 9692   4.653   6.406   6.210
 2931SOL    HW2 9693   4.741   6.279   6.157
 2932SOL     OW 9694   1.122   3.839   1.445
 2932SOL    HW1 9695   1.091   3.792   1.362
 2932SOL    HW2 9696   1.131   3.937   1.427
 2933SOL     OW 9697   5.416   2.725   3.703
 2933SOL    HW1 9698   5.452   2.646   3.754
 2933SOL    HW2 9699   5.352   2.693   3.633
 2934SOL     OW 9700   2.966   0.355   6.951
 2934SOL    HW1 9701   3.028   0.333   6.876
 2934SOL    HW2 9702   2.872   0.357   6.916
 2935SOL     OW 9703   6.216   4.132   1.064
 2935SOL    HW1 9704   6.252   4.039   1.059
 2935SOL    HW2 9705   6.127   4.131   1.108
 2936SOL     OW 9706   4.825   5.747   0.116
 2936SOL    HW1 9707   4.758   5.805   0.070
 2936SOL    HW2 9708   4.854   5.674   0.055
 2937SOL     OW 9709   3.744   5.556   0.812
 2937SOL    HW1 9710   3.710   5.593   0.725
 2937SOL    HW2 9711   3.722   5.458   0.817
 2938SOL     OW 9712   4.695   5.678   5.456
 2938SOL    HW1 9713   4.784   5.723   5.443
 2938SOL    HW2 9714   4.632   5.740   5.501
 2939SOL     OW 9715   5.846   6.789   5.142
 2939SOL    HW1 9716   5.929   6.833   5.175
 2939SOL    HW2 9717   5.769   6.852   5.149
 2940SOL     OW 9718   5.771   0.175   5.330
 2940SOL    HW1 9719   5.865   0.199   5.304
 2940SOL    HW2 9720   5.713   0.256   5.323
 2941SOL     OW 9721   0.498   1.841   5.313
 2941SOL    HW1 9722   0.555   1.789   5.250
 2941SOL    HW2 9723   0.473   1.928   5.271
 2942SOL     OW 9724   3.436   0.649   2.159
 2942SOL    HW1 9725   3.366   0.689   2.100
 2942SOL    HW2 9726   3.410   0.661   2.255
 2943SOL     OW 9727   5.812   3.271   3.217
 2943SOL    HW1 9728   5.869   3.348   3.188
 2943SOL    HW2 9729   5.781   3.221   3.136
 2944SOL     OW 9730   3.734   4.988   4.930
 2944SOL    HW1 9731   3.747   5.031   5.019
 2944SOL    HW2 9732   3.638   4.960   4.920
 2945SOL     OW 9733   3.244   3.686   3.504
 2945SOL    HW1 9734   3.282   3.739   3.580
 2945SOL    HW2 9735   3.242   3.589   3.529
 2946SOL     OW 9736   6.474   5.806   5.864
 2946SOL    HW1 9737   6.491   5.904   5.873
 2946SOL    HW2 9738   6.413   5.789   5.787
 2947SOL     OW 9739   6.762   3.704   6.620
 2947SOL    HW1 9740   6.761   3.776   6.689
 2947SOL    HW2 9741   6.696   3.725   6.548
 2948SOL     OW 9742   6.219   3.889   4.935
 2948SOL    HW1 9743   6.167   3.839   4.867
 2948SOL    HW2 9744   6.253   3.974   4.895
 2949SOL     OW 9745   1.833   0.130   0.877
 2949SOL    HW1 9746   1.766   0.180   0.822
 2949SOL    HW2 9747   1.922   0.134   0.832
 2950SOL     OW 9748   6.256   3.623   4.172
 2950SOL    HW1 9749   6.166   3.664   4.191
 2950SOL    HW2 9750   6.279   3.558   4.244
 2951SOL     OW 9751   0.509   1.362   0.492
 2951SOL    HW1 9752   0.441   1.338   0.562
 2951SOL    HW2 9753   0.598   1.375   0.535
 2952SOL     OW 9754   1.041   4.375   2.890
 2952SOL    HW1 9755   1.096   4.458   2.899
 2952SOL    HW2 9756   1.067   4.310   2.962
 2953SOL     OW 9757   4.555   2.191   1.946
 2953SOL    HW1 9758   4.630   2.188   1.881
 2953SOL    HW2 9759   4.569   2.267   2.010
 2954SOL     OW 9760   6.843   6.492   2.852
 2954SOL    HW1 9761   6.897   6.571   2.822
 2954SOL    HW2 9762   6.757   6.525   2.892
 2955SOL     OW 9763   0.810   3.356   0.719
 2955SOL    HW1 9764   0.797   3.264   0.681
 2955SOL    HW2 9765   0.797   3.424   0.647
 2956SOL     OW 9766   0.433   5.249   3.169
 2956SOL    HW1 9767   0.485   5.334   3.162
 2956SOL    HW2 9768   0.476   5.189   3.237
 2957SOL     OW 9769   0.134   3.778   1.159
 2957SOL    HW1 9770   0.098   3.714   1.227
 2957SOL    HW2 9771   0.113   3.745   1.067
 2958SOL     OW 9772   1.600   4.316   5.443
 2958SOL    HW1 9773   1.502   4.304   5.455
 2958SOL    HW2 9774   1.618   4.411   5.414
 2959SOL     OW 9775   5.048   5.157   6.324
 2959SOL    HW1 9776   5.089   5.204   6.403
 2959SOL    HW2 9777   5.097   5.183   6.241
 2960SOL     OW 9778   2.657   2.379   0.022
 2960SOL    HW1 9779   2.659   2.456   0.086
 2960SOL    HW2 9780   2.597   2.400   6.969
 2961SOL     OW 9781   5.631   3.672   4.347
 2961SOL    HW1 9782   5.689   3.726   4.408
 2961SOL    HW2 9783   5.680   3.656   4.261
 2962SOL     OW 9784   4.194   1.060   3.336
 2962SOL    HW1 9785   4.282   1.083   3.377
 2962SOL    HW2 9786   4.134   1.019   3.404
 2963SOL     OW 9787   1.844   1.079   5.214
 2963SOL    HW1 9788   1.911   1.150   5.194
 2963SOL    HW2 9789   1.770   1.084   5.147
 2964SOL     OW 9790   1.998   6.421   1.780
 2964SOL    HW1 9791   2.010   6.518   1.801
 2964SOL    HW2 9792   2.073   6.368   1.821
 2965SOL     OW 9793   0.284   1.269   5.863
 2965SOL    HW1 9794   0.236   1.182   5.849
 2965SOL    HW2 9795   0.335   1.293   5.780
 2966SOL     OW 9796   5.279   4.667   4.029
 2966SOL    HW1 9797   5.300   4.610   4.109
 2966SOL    HW2 9798   5.180   4.671   4.016
 2967SOL     OW 9799   5.773   2.636   3.871
 2967SOL    HW1 9800   5.770   2.704   3.945
 2967SOL    HW2 9801   5.863   2.637   3.829
 2968SOL     OW 9802   0.765   3.899   4.014
 2968SOL    HW1 9803   0.762   3.862   3.921
 2968SOL    HW2 9804   0.672   3.919   4.045
 2969SOL     OW 9805   5.874   2.041   4.737
 2969SOL    HW1 9806   5.929   2.065   4.816
 2969SOL    HW2 9807   5.844   2.124   4.691
 2970SOL     OW 9808   0.764   4.380   6.274
 2970SOL    HW1 9809   0.707   4.456   6.242
 2970SOL    HW2 9810   0.755   4.372   6.374
 2971SOL     OW 9811   5.989   2.946   3.480
 2971SOL    HW1 9812   5.905   2.918   3.526
 2971SOL    HW2 9813   5.980   3.041   3.449
 2972SOL     OW 9814   6.319   3.553   6.280
 2972SOL    HW1 9815   6.221   3.535   6.266
 2972SOL    HW2 9816   6.363   3.568   6.192
 2973SOL     OW 9817   5.444   0.006   3.596
 2973SOL    HW1 9818   5.527   0.016   3.540
 2973SOL    HW2 9819   5.462   0.040   3.688
 2974SOL     OW 9820   6.853   4.673   2.740
 2974SOL    HW1 9821   6.763   4.638   2.765
 2974SOL    HW2 9822   6.852   4.773   2.738
 2975SOL     OW 9823   0.413   0.869   5.330
 2975SOL    HW1 9824   0.341   0.839   5.394
 2975SOL    HW2 9825   0.419   0.968   5.330
 2976SOL     OW 9826   4.270   1.321   2.431
 2976SOL    HW1 9827   4.213   1.402   2.428
 2976SOL    HW2 9828   4.273   1.278   2.340
 2977SOL     OW 9829   2.909   6.602   4.144
 2977SOL    HW1 9830   2.934   6.648   4.059
 2977SOL    HW2 9831   2.848   6.661   4.197
 2978SOL     OW 9832   4.696   5.177   0.306
 2978SOL    HW1 9833   4.794   5.155   0.310
 2978SOL    HW2 9834   4.669   5.223   0.390
 2979SOL     OW 9835   4.023   0.224   2.940
 2979SOL    HW1 9836   3.926   0.248   2.949
 2979SOL    HW2 9837   4.070   0.242   3.026
 2980SOL     OW 9838   1.164   6.293   4.208
 2980SOL    HW1 9839   1.140   6.325   4.299
 2980SOL    HW2 9840   1.251   6.334   4.180
 2981SOL     OW 9841   1.298   0.873   5.711
 2981SOL    HW1 9842   1.287   0.774   5.702
 2981SOL    HW2 9843   1.363   0.893   5.784
 2982SOL     OW 9844   4.471   5.945   2.660
 2982SOL    HW1 9845   4.507   5.896   2.581
 2982SOL    HW2 9846   4.495   6.042   2.653
 2983SOL     OW 9847   6.762   0.816   4.685
 2983SOL    HW1 9848   6.684   0.864   4.645
 2983SOL    HW2 9849   6.738   0.785   4.777
 2984SOL     OW 9850   6.078   5.307   1.843
 2984SOL    HW1 9851   6.066   5.209   1.829
 2984SOL    HW2 9852   6.016   5.339   1.915
 2985SOL     OW 9853   0.482   2.113   3.977
 2985SOL    HW1 9854   0.533   2.198   3.982
 2985SOL    HW2 9855   0.495   2.060   4.061
 2986SOL     OW 9856   1.559   3.774   4.954
 2986SOL    HW1 9857   1.486   3.706   4.945
 2986SOL    HW2 9858   1.519   3.862   4.978
 2987SOL     OW 9859   4.419   1.413   4.667
 2987SOL    HW1 9860   4.478   1.338   4.697
 2987SOL    HW2 9861   4.335   1.375   4.628
 2988SOL     OW 9862   0.897   0.584   1.586
 2988SOL    HW1 9863   0.801   0.578   1.559
 2988SOL    HW2 9864   0.921   0.503   1.640
 2989SOL     OW 9865   6.669   4.832   1.234
 2989SOL    HW1 9866   6.591   4.784   1.194
 2989SOL    HW2 9867   6.687   4.915   1.182
 2990SOL     OW 9868   3.267   1.281   2.504
 2990SOL    HW1 9869   3.309   1.282   2.413
 2990SOL    HW2 9870   3.323   1.227   2.566
 2991SOL     OW 9871   0.260   4.275   0.271
 2991SOL    HW1 9872   0.293   4.264   0.365
 2991SOL    HW2 9873   0.197   4.200   0.249
 2992SOL     OW 9874   3.589   5.688   6.471
 2992SOL    HW1 9875   3.500   5.714   6.509
 2992SOL    HW2 9876   3.597   5.722   6.378
 2993SOL     OW 9877   1.786   5.074   1.257
 2993SOL    HW1 9878   1.783   4.990   1.311
 2993SOL    HW2 9879   1.787   5.153   1.318
 2994SOL     OW 9880   4.891   0.418   0.283
 2994SOL    HW1 9881   4.912   0.506   0.324
 2994SOL    HW2 9882   4.811   0.428   0.223
 2995SOL     OW 9883   1.201   2.168   6.843
 2995SOL    HW1 9884   1.157   2.137   6.758
 2995SOL    HW2 9885   1.168   2.260   6.865
 2996SOL     OW 9886   3.788   4.951   5.194
 2996SOL    HW1 9887   3.752   4.923   5.283
 2996SOL    HW2 9888   3.880   4.913   5.181
 2997SOL     OW 9889   5.339   6.537   1.160
 2997SOL    HW1 9890   5.400   6.469   1.121
 2997SOL    HW2 9891   5.276   6.569   1.089
 2998SOL     OW 9892   5.661   6.336   3.893
 2998SOL    HW1 9893   5.582   6.293   3.849
 2998SOL    HW2 9894   5.658   6.318   3.991
 2999SOL     OW 9895   3.726   6.808   3.182
 2999SOL    HW1 9896   3.689   6.845   3.097
 2999SOL    HW2 9897   3.705   6.871   3.257
 3000SOL     OW 9898   1.185   3.125   6.143
 3000SOL    HW1 9899   1.173   3.207   6.087
 3000SOL    HW2 9900   1.278   3.090   6.131
 3001SOL     OW 9901   4.990   0.889   5.594
 3001SOL    HW1 9902   4.938   0.887   5.509
 3001SOL    HW2 9903   5.068   0.951   5.584
 3002SOL     OW 9904   4.656   0.011   5.435
 3002SOL    HW1 9905   4.753   0.015   5.458
 3002SOL    HW2 9906   4.623   0.102   5.411
 3003SOL     OW 9907   3.046   6.459   5.969
 3003SOL    HW1 9908   3.065   6.552   5.938
 3003SOL    HW2 9909   3.015   6.461   6.064
 3004SOL     OW 9910   6.142   3.555   3.725
 3004SOL    HW1 9911   6.106   3.632   3.778
 3004SOL    HW2 9912   6.201   3.499   3.783
 3005SOL     OW 9913   3.465   3.115   1.171
 3005SOL    HW1 9914   3.510   3.160   1.248
 3005SOL    HW2 9915   3.496   3.020   1.165
 3006SOL     OW 9916   5.431   1.368   1.125
 3006SOL    HW1 9917   5.454   1.441   1.060
 3006SOL    HW2 9918   5.504   1.300   1.125
 3007SOL     OW 9919   6.387   4.693   3.063
 3007SOL    HW1 9920   6.390   4.617   3.128
 3007SOL    HW2 9921   6.292   4.720   3.048
 3008SOL     OW 9922   3.452   6.437   6.383
 3008SOL    HW1 9923   3.360   6.397   6.386
 3008SOL    HW2 9924   3.479   6.451   6.288
 3009SOL     OW 9925   1.162   0.237   2.571
 3009SOL    HW1 9926   1.114   0.312   2.615
 3009SOL    HW2 9927   1.157   0.156   2.629
 3010SOL     OW 9928   3.328   5.665   2.907
 3010SOL    HW1 9929   3.329   5.640   2.810
 3010SOL    HW2 9930   3.366   5.590   2.961
 3011SOL     OW 9931   6.252   0.330   6.777
 3011SOL    HW1 9932   6.296   0.304   6.691
 3011SOL    HW2 9933   6.291   0.276   6.852
 3012SOL     OW 9934   0.025   3.782   3.295
 3012SOL    HW1 9935   0.002   3.824   3.382
 3012SOL    HW2 9936   0.037   3.684   3.307
 3013SOL     OW 9937   6.152   5.682   2.294
 3013SOL    HW1 9938   6.103   5.644   2.215
 3013SOL    HW2 9939   6.124   5.634   2.377
 3014SOL     OW 9940   5.280   1.848   4.129
 3014SOL    HW1 9941   5.309   1.856   4.225
 3014SOL    HW2 9942   5.284   1.752   4.101
 3015SOL     OW 9943   2.722   2.659   0.412
 3015SOL    HW1 9944   2.801   2.711   0.379
 3015SOL    HW2 9945   2.669   2.716   0.476
 3016SOL     OW 9946   3.861   6.520   3.698
 3016SOL    HW1 9947   3.923   6.441   3.695
 3016SOL    HW2 9948   3.780   6.496   3.751
 3017SOL     OW 9949   1.384   6.427   1.593
 3017SOL    HW1 9950   1.309   6.398   1.534
 3017SOL    HW2 9951   1.369   6.393   1.686
 3018SOL     OW 9952   3.958   6.687   6.916
 3018SOL    HW1 9953   3.879   6.725   6.963
 3018SOL    HW2 9954   4.017   6.639   6.982
 3019SOL     OW 9955   3.062   6.121   0.878
 3019SOL    HW1 9956   3.069   6.029   0.916
 3019SOL    HW2 9957   3.006   6.118   0.795
 3020SOL     OW 9958   2.947   3.404   1.603
 3020SOL    HW1 9959   2.956   3.401   1.504
 3020SOL    HW2 9960   3.026   3.450   1.643
 3021SOL     OW 9961   1.748   2.188   6.586
 3021SOL    HW1 9962   1.697   2.274   6.590
 3021SOL    HW2 9963   1.683   2.111   6.586
 3022SOL     OW 9964   4.445   6.029   2.914
 3022SOL    HW1 9965   4.501   6.112   2.907
 3022SOL    HW2 9966   4.429   5.992   2.822
 3023SOL     OW 9967   4.257   5.813   3.635
 3023SOL    HW1 9968   4.343   5.783   3.593
 3023SOL    HW2 9969   4.275   5.844   3.729
 3024SOL     OW 9970   3.246   1.328   0.156
 3024SOL    HW1 9971   3.293   1.240   0.159
 3024SOL    HW2 9972   3.250   1.366   0.063
 3025SOL     OW 9973   2.197   3.217   1.277
 3025SOL    HW1 9974   2.097   3.216   1.277
 3025SOL    HW2 9975   2.231   3.242   1.368
 3026SOL     OW 9976   1.597   3.406   1.048
 3026SOL    HW1 9977   1.594   3.306   1.040
 3026SOL    HW2 9978   1.589   3.432   1.144
 3027SOL     OW 9979   2.642   1.119   2.519
 3027SOL    HW1 9980   2.648   1.137   2.617
 3027SOL    HW2 9981   2.668   1.024   2.501
 3028SOL     OW 9982   1.495   5.403   6.281
 3028SOL    HW1 9983   1.574   5.345   6.260
 3028SOL    HW2 9984   1.456   5.375   6.369
 3029SOL     OW 9985   5.722   5.151   4.907
 3029SOL    HW1 9986   5.663   5.125   4.831
 3029SOL    HW2 9987   5.797   5.086   4.916
 3030SOL     OW 9988   1.353   1.214   5.571
 3030SOL    HW1 9989   1.380   1.284   5.505
 3030SOL    HW2 9990   1.417   1.137   5.565
 3031SOL     OW 9991   0.624   4.065   6.570
 3031SOL    HW1 9992   0.565   4.125   6.516
 3031SOL    HW2 9993   0.717   4.069   6.535
 3032SOL     OW 9994   5.039   0.623   6.626
 3032SOL    HW1 9995   4.940   0.632   6.622
 3032SOL    HW2 9996   5.062   0.546   6.685
 3033SOL     OW 9997   0.431   4.096   6.900
 3033SOL    HW1 9998   0.418   4.174   6.960
 3033SOL    HW2 9999   0.346   4.043   6.895
 3034SOL     OW10000   3.374   6.448   3.754
 3034SOL    HW110001   3.392   6.357   3.717
 3034SOL    HW210002   3.278   6.455   3.781
 3035SOL     OW10003   6.033   1.639   0.130
 3035SOL    HW110004   6.115   1.665   0.079
 3035SOL    HW210005   5.996   1.554   0.093
 3036SOL     OW10006   1.253   3.952   6.684
 3036SOL    HW110007   1.236   3.888   6.759
 3036SOL    HW210008   1.199   4.036   6.699
 3037SOL     OW10009   6.687   5.726   5.017
 3037SOL    HW110010   6.715   5.765   5.104
 3037SOL    HW210011   6.596   5.760   4.993
 3038SOL     OW10012   5.125   7.002   5.997
 3038SOL    HW110013   5.216   0.019   6.009
 3038SOL    HW210014   5.059   0.029   6.052
 3039SOL     OW10015   0.300   4.490   1.701
 3039SOL    HW110016   0.216   4.542   1.717
 3039SOL    HW210017   0.280   4.411   1.644
 3040SOL     OW10018   2.926   3.846   6.427
 3040SOL    HW110019   2.973   3.846   6.338
 3040SOL    HW210020   2.989   3.879   6.498
 3041SOL     OW10021   2.157   2.323   5.096
 3041SOL    HW110022   2.111   2.412   5.109
 3041SOL    HW210023   2.101   2.266   5.036
 3042SOL     OW10024   4.781   0.554   2.014
 3042SOL    HW110025   4.748   0.538   2.107
 3042SOL    HW210026   4.713   0.522   1.949
 3043SOL     OW10027   1.044   5.702   6.984
 3043SOL    HW110028   1.035   5.740   0.052
 3043SOL    HW210029   1.016   5.770   6.917
 3044SOL     OW10030   3.247   3.975   5.662
 3044SOL    HW110031   3.263   3.945   5.568
 3044SOL    HW210032   3.204   3.901   5.714
 3045SOL     OW10033   4.646   1.583   2.583
 3045SOL    HW110034   4.695   1.616   2.502
 3045SOL    HW210035   4.561   1.635   2.594
 3046SOL     OW10036   1.245   3.184   5.792
 3046SOL    HW110037   1.309   3.182   5.715
 3046SOL    HW210038   1.231   3.279   5.821
 3047SOL     OW10039   6.412   5.661   2.394
 3047SOL    HW110040   6.340   5.661   2.325
 3047SOL    HW210041   6.373   5.681   2.484
 3048SOL     OW10042   3.598   3.647   1.581
 3048SOL    HW110043   3.652   3.568   1.612
 3048SOL    HW210044   3.501   3.624   1.581
 3049SOL     OW10045   1.243   0.644   1.937
 3049SOL    HW110046   1.292   0.566   1.978
 3049SOL    HW210047   1.261   0.647   1.839
 3050SOL     OW10048   3.982   5.596   3.672
 3050SOL    HW110049   4.067   5.596   3.724
 3050SOL    HW210050   3.915   5.656   3.716
 3051SOL     OW10051   3.025   5.649   6.516
 3051SOL    HW110052   2.948   5.595   6.482
 3051SOL    HW210053   3.048   5.720   6.449
 3052SOL     OW10054   3.854   0.123   2.500
 3052SOL    HW110055   3.820   0.160   2.414
 3052SOL    HW210056   3.777   0.111   2.563
 3053SOL     OW10057   6.098   0.157   0.164
 3053SOL    HW110058   6.112   0.232   0.100
 3053SOL    HW210059   6.089   0.194   0.257
 3054SOL     OW10060   0.142   3.343   0.480
 3054SOL    HW110061   0.123   3.417   0.416
 3054SOL    HW210062   0.169   3.261   0.429
 3055SOL     OW10063   5.950   6.989   3.391
 3055SOL    HW110064   5.884   6.918   3.367
 3055SOL    HW210065   6.033   6.977   3.337
 3056SOL     OW10066   6.888   0.089   0.136
 3056SOL    HW110067   6.956   0.155   0.166
 3056SOL    HW210068   6.839   0.053   0.215
 3057SOL     OW10069   5.739   4.599   2.531
 3057SOL    HW110070   5.836   4.617   2.544
 3057SOL    HW210071   5.717   4.599   2.433
 3058SOL     OW10072   6.312   5.870   0.762
 3058SOL    HW110073   6.340   5.817   0.681
 3058SOL    HW210074   6.245   5.939   0.735
 3059SOL     OW10075   0.694   2.797   4.750
 3059SOL    HW110076   0.682   2.867   4.820
 3059SOL    HW210077   0.642   2.821   4.668
 3060SOL     OW10078   0.405   6.412   1.535
 3060SOL    HW110079   0.338   6.338   1.520
 3060SOL    HW210080   0.484   6.396   1.477
 3061SOL     OW10081   6.996   0.983   4.971
 3061SOL    HW110082   6.910   1.017   5.009
 3061SOL    HW210083   0.041   0.979   5.044
 3062SOL     OW10084   2.552   6.233   1.172
 3062SOL    HW110085   2.510   6.173   1.103
 3062SOL    HW210086   2.595   6.177   1.243
 3063SOL     OW10087   1.846   4.691   1.589
 3063SOL    HW110088   1.933   4.712   1.632
 3063SOL    HW210089   1.857   4.613   1.528
 3064SOL     OW10090   6.134   3.882   3.354
 3064SOL    HW110091   6.035   3.875   3.344
 3064SOL    HW210092   6.170   3.795   3.388
 3065SOL     OW10093   1.325   0.734   0.265
 3065SOL    HW110094   1.295   0.815   0.316
 3065SOL    HW210095   1.248   0.698   0.212
 3066SOL     OW10096   6.201   4.597   0.830
 3066SOL    HW110097   6.132   4.640   0.889
 3066SOL    HW210098   6.210   4.501   0.855
 3067SOL     OW10099   4.505   0.165   4.465
 3067SOL    HW110100   4.554   0.198   4.546
 3067SOL    HW210101   4.449   0.239   4.428
 3068SOL     OW10102   5.660   5.789   1.565
 3068SOL    HW110103   5.738   5.734   1.535
 3068SOL    HW210104   5.601   5.810   1.487
 3069SOL     OW10105   1.059   5.791   1.765
 3069SOL    HW110106   1.030   5.759   1.675
 3069SOL    HW210107   1.111   5.719   1.810
 3070SOL     OW10108   2.077   1.544   3.068
 3070SOL    HW110109   2.094   1.600   2.987
 3070SOL    HW210110   2.110   1.451   3.051
 3071SOL     OW10111   6.388   0.104   4.261
 3071SOL    HW110112   6.449   0.112   4.182
 3071SOL    HW210113   6.340   0.190   4.276
 3072SOL     OW10114   0.276   6.108   2.342
 3072SOL    HW110115   0.330   6.033   2.305
 3072SOL    HW210116   0.306   6.130   2.434
 3073SOL     OW10117   0.862   3.207   5.536
 3073SOL    HW110118   0.889   3.187   5.630
 3073SOL    HW210119   0.792   3.142   5.506
 3074SOL     OW10120   4.689   3.015   0.398
 3074SOL    HW110121   4.779   3.052   0.374
 3074SOL    HW210122   4.618   3.077   0.366
 3075SOL     OW10123   1.938   6.320   1.148
 3075SOL    HW110124   2.030   6.356   1.135
 3075SOL    HW210125   1.880   6.390   1.190
 3076SOL     OW10126   6.450   0.413   5.045
 3076SOL    HW110127   6.490   0.328   5.011
 3076SOL    HW210128   6.503   0.447   5.122
 3077SOL     OW10129   6.156   4.489   4.047
 3077SOL    HW110130   6.249   4.467   4.016
 3077SOL    HW210131   6.140   4.447   4.136
 3078SOL     OW10132   1.822   3.746   2.190
 3078SOL    HW110133   1.922   3.748   2.179
 3078SOL    HW210134   1.781   3.816   2.132
 3079SOL     OW10135   0.605   2.126   5.190
 3079SOL    HW110136   0.519   2.107   5.141
 3079SOL    HW210137   0.678   2.140   5.124
 3080SOL     OW10138   6.035   5.171   1.055
 3080SOL    HW110139   6.023   5.181   0.956
 3080SOL    HW210140   6.070   5.079   1.075
 3081SOL     OW10141   0.290   4.197   5.668
 3081SOL    HW110142   0.194   4.223   5.664
 3081SOL    HW210143   0.304   4.132   5.743
 3082SOL     OW10144   3.432   0.118   2.506
 3082SOL    HW110145   3.469   0.138   2.416
 3082SOL    HW210146   3.505   0.088   2.567
 3083SOL     OW10147   3.417   0.585   1.762
 3083SOL    HW110148   3.443   0.651   1.692
 3083SOL    HW210149   3.352   0.626   1.825
 3084SOL     OW10150   4.959   5.145   4.271
 3084SOL    HW110151   5.022   5.133   4.348
 3084SOL    HW210152   4.900   5.224   4.287
 3085SOL     OW10153   6.880   5.425   2.604
 3085SOL    HW110154   6.937   5.507   2.596
 3085SOL    HW210155   6.788   5.451   2.634
 3086SOL     OW10156   5.110   1.402   2.426
 3086SOL    HW110157   5.015   1.419   2.454
 3086SOL    HW210158   5.112   1.363   2.334
 3087SOL     OW10159   5.920   4.190   3.400
 3087SOL    HW110160   5.892   4.278   3.437
 3087SOL    HW210161   5.904   4.188   3.301
 3088SOL     OW10162   2.422   4.631   5.273
 3088SOL    HW110163   2.427   4.727   5.243
 3088SOL    HW210164   2.462   4.623   5.365
 3089SOL     OW10165   0.882   2.662   6.955
 3089SOL    HW110166   0.872   2.751   6.911
 3089SOL    HW210167   0.942   2.670   0.011
 3090SOL     OW10168   1.512   1.676   1.269
 3090SOL    HW110169   1.443   1.721   1.325
 3090SOL    HW210170   1.591   1.652   1.326
 3091SOL     OW10171   2.316   6.740   0.702
 3091SOL    HW110172   2.351   6.649   0.681
 3091SOL    HW210173   2.261   6.773   0.626
 3092SOL     OW10174   6.820   6.642   0.354
 3092SOL    HW110175   6.736   6.645   0.301
 3092SOL    HW210176   6.814   6.707   0.430
 3093SOL     OW10177   5.877   5.344   5.186
 3093SOL    HW110178   5.926   5.426   5.159
 3093SOL    HW210179   5.779   5.360   5.181
 3094SOL     OW10180   3.174   5.675   4.958
 3094SOL    HW110181   3.223   5.715   5.036
 3094SOL    HW210182   3.098   5.734   4.932
 3095SOL     OW10183   2.278   4.828   4.297
 3095SOL    HW110184   2.337   4.819   4.377
 3095SOL    HW210185   2.301   4.912   4.248
 3096SOL     OW10186   6.903   6.513   5.453
 3096SOL    HW110187   6.812   6.506   5.494
 3096SOL    HW210188   6.917   6.438   5.389
 3097SOL     OW10189   0.394   2.861   0.732
 3097SOL    HW110190   0.466   2.866   0.663
 3097SOL    HW210191   0.430   2.817   0.814
 3098SOL     OW10192   2.668   3.828   0.677
 3098SOL    HW110193   2.627   3.890   0.744
 3098SOL    HW210194   2.746   3.781   0.718
 3099SOL     OW10195   0.306   5.905   5.259
 3099SOL    HW110196   0.377   5.954   5.209
 3099SOL    HW210197   0.259   5.842   5.197
 3100SOL     OW10198   6.301   6.189   5.828
 3100SOL    HW110199   6.298   6.285   5.856
 3100SOL    HW210200   6.209   6.160   5.801
 3101SOL     OW10201   4.584   6.459   5.975
 3101SOL    HW110202   4.643   6.390   5.932
 3101SOL    HW210203   4.489   6.426   5.972
 3102SOL     OW10204   1.901   4.349   1.163
 3102SOL    HW110205   1.985   4.388   1.125
 3102SOL    HW210206   1.861   4.286   1.097
 3103SOL     OW10207   3.972   2.813   0.879
 3103SOL    HW110208   3.935   2.854   0.796
 3103SOL    HW210209   4.001   2.720   0.860
 3104SOL     OW10210   5.328   5.673   4.113
 3104SOL    HW110211   5.310   5.630   4.025
 3104SOL    HW210212   5.242   5.678   4.165
 3105SOL     OW10213   5.661   6.830   3.809
 3105SOL    HW110214   5.681   6.745   3.760
 3105SOL    HW210215   5.622   6.809   3.899
 3106SOL     OW10216   6.164   2.879   3.037
 3106SOL    HW110217   6.173   2.869   3.136
 3106SOL    HW210218   6.081   2.930   3.016
 3107SOL     OW10219   3.049   0.568   4.015
 3107SOL    HW110220   3.034   0.662   4.045
 3107SOL    HW210221   3.058   0.566   3.915
 3108SOL     OW10222   1.966   0.923   4.384
 3108SOL    HW110223   1.963   0.920   4.484
 3108SOL    HW210224   2.057   0.951   4.353
 3109SOL     OW10225   4.811   6.359   2.598
 3109SOL    HW110226   4.753   6.302   2.540
 3109SOL    HW210227   4.893   6.308   2.624
 3110SOL     OW10228   0.009   3.651   2.850
 3110SOL    HW110229   0.079   3.607   2.794
 3110SOL    HW210230   6.990   3.584   2.911
 3111SOL     OW10231   6.740   4.796   3.638
 3111SOL    HW110232   6.726   4.756   3.729
 3111SOL    HW210233   6.837   4.813   3.624
 3112SOL     OW10234   4.641   3.851   6.648
 3112SOL    HW110235   4.587   3.934   6.665
 3112SOL    HW210236   4.641   3.831   6.550
 3113SOL     OW10237   2.340   6.856   3.696
 3113SOL    HW110238   2.406   6.882   3.626
 3113SOL    HW210239   2.375   6.778   3.748
 3114SOL     OW10240   5.142   4.008   0.711
 3114SOL    HW110241   5.045   3.993   0.728
 3114SOL    HW210242   5.196   3.939   0.759
 3115SOL     OW10243   3.795   4.105   0.681
 3115SOL    HW110244   3.698   4.117   0.700
 3115SOL    HW210245   3.814   4.133   0.587
 3116SOL     OW10246   6.256   2.495   6.282
 3116SOL    HW110247   6.246   2.421   6.215
 3116SOL    HW210248   6.197   2.478   6.360
 3117SOL     OW10249   4.169   3.326   5.276
 3117SOL    HW110250   4.194   3.229   5.282
 3117SOL    HW210251   4.095   3.344   5.341
 3118SOL     OW10252   0.035   5.023   0.753
 3118SOL    HW110253   6.963   5.010   0.779
 3118SOL    HW210254   0.088   5.048   0.835
 3119SOL     OW10255   1.680   4.407   4.852
 3119SOL    HW110256   1.607   4.366   4.797
 3119SOL    HW210257   1.650   4.496   4.887
 3120SOL     OW10258   2.821   5.170   4.597
 3120SOL    HW110259   2.821   5.171   4.697
 3120SOL    HW210260   2.855   5.082   4.565
 3121SOL     OW10261   6.856   1.111   2.260
 3121SOL    HW110262   6.912   1.190   2.234
 3121SOL    HW210263   6.877   1.085   2.354
 3122SOL     OW10264   2.670   5.865   6.474
 3122SOL    HW110265   2.734   5.797   6.438
 3122SOL    HW210266   2.656   5.848   6.572
 3123SOL     OW10267   3.944   6.826   4.130
 3123SOL    HW110268   3.959   6.763   4.054
 3123SOL    HW210269   3.950   6.920   4.096
 3124SOL     OW10270   4.274   1.449   5.423
 3124SOL    HW110271   4.314   1.536   5.454
 3124SOL    HW210272   4.188   1.468   5.375
 3125SOL     OW10273   6.524   1.855   5.297
 3125SOL    HW110274   6.568   1.945   5.303
 3125SOL    HW210275   6.460   1.854   5.220
 3126SOL     OW10276   4.456   5.563   6.528
 3126SOL    HW110277   4.418   5.651   6.558
 3126SOL    HW210278   4.497   5.516   6.607
 3127SOL     OW10279   1.210   2.341   3.937
 3127SOL    HW110280   1.235   2.426   3.891
 3127SOL    HW210281   1.285   2.276   3.931
 3128SOL     OW10282   2.334   1.562   0.610
 3128SOL    HW110283   2.351   1.660   0.602
 3128SOL    HW210284   2.339   1.520   0.519
 3129SOL     OW10285   7.017   4.368   5.137
 3129SOL    HW110286   0.080   4.356   5.186
 3129SOL    HW210287   6.988   4.280   5.099
 3130SOL     OW10288   2.432   4.353   2.578
 3130SOL    HW110289   2.460   4.371   2.672
 3130SOL    HW210290   2.380   4.267   2.574
 3131SOL     OW10291   6.714   3.712   2.710
 3131SOL    HW110292   6.787   3.666   2.659
 3131SOL    HW210293   6.679   3.651   2.780
 3132SOL     OW10294   5.556   5.993   5.860
 3132SOL    HW110295   5.525   5.925   5.793
 3132SOL    HW210296   5.575   5.948   5.947
 3133SOL     OW10297   2.800   1.692   3.427
 3133SOL    HW110298   2.741   1.764   3.464
 3133SOL    HW210299   2.849   1.648   3.502
 3134SOL     OW10300   4.995   2.959   1.604
 3134SOL    HW110301   5.030   2.866   1.617
 3134SOL    HW210302   4.966   2.972   1.509
 3135SOL     OW10303   3.915   2.143   3.709
 3135SOL    HW110304   3.825   2.186   3.696
 3135SOL    HW210305   3.939   2.145   3.806
 3136SOL     OW10306   6.166   5.628   6.372
 3136SOL    HW110307   6.174   5.531   6.392
 3136SOL    HW210308   6.257   5.668   6.362
 3137SOL     OW10309   5.581   1.745   4.600
 3137SOL    HW110310   5.592   1.774   4.505
 3137SOL    HW210311   5.651   1.789   4.656
 3138SOL     OW10312   6.030   1.108   4.968
 3138SOL    HW110313   6.096   1.045   4.928
 3138SOL    HW210314   6.021   1.189   4.910
 3139SOL     OW10315   4.839   5.905   5.326
 3139SOL    HW110316   4.878   5.982   5.375
 3139SOL    HW210317   4.760   5.936   5.272
 3140SOL     OW10318   6.810   6.119   6.780
 3140SOL    HW110319   6.765   6.145   6.865
 3140SOL    HW210320   6.902   6.084   6.800
 3141SOL     OW10321   1.303   5.897   0.159
 3141SOL    HW110322   1.343   5.984   0.131
 3141SOL    HW210323   1.303   5.833   0.081
 3142SOL     OW10324   4.216   6.527   5.921
 3142SOL    HW110325   4.248   6.592   5.989
 3142SOL    HW210326   4.262   6.439   5.935
 3143SOL     OW10327   6.911   1.872   7.002
 3143SOL    HW110328   6.934   1.891   6.907
 3143SOL    HW210329   6.956   1.938   0.038
 3144SOL     OW10330   1.729   3.822   6.697
 3144SOL    HW110331   1.773   3.737   6.668
 3144SOL    HW210332   1.787   3.899   6.671
 3145SOL     OW10333   2.515   5.552   3.280
 3145SOL    HW110334   2.554   5.579   3.368
 3145SOL    HW210335   2.423   5.589   3.271
 3146SOL     OW10336   1.443   0.465   3.459
 3146SOL    HW110337   1.464   0.370   3.434
 3146SOL    HW210338   1.359   0.467   3.513
 3147SOL     OW10339   4.892   3.971   0.798
 3147SOL    HW110340   4.870   3.902   0.729
 3147SOL    HW210341   4.811   4.027   0.817
 3148SOL     OW10342   3.954   5.666   4.290
 3148SOL    HW110343   4.019   5.703   4.224
 3148SOL    HW210344   3.873   5.724   4.293
 3149SOL     OW10345   3.552   0.032   5.559
 3149SOL    HW110346   3.500   0.065   5.638
 3149SOL    HW210347   3.558   0.105   5.490
 3150SOL     OW10348   6.191   6.546   5.126
 3150SOL    HW110349   6.125   6.564   5.053
 3150SOL    HW210350   6.153   6.578   5.213
 3151SOL     OW10351   4.235   1.550   6.035
 3151SOL    HW110352   4.312   1.493   6.064
 3151SOL    HW210353   4.270   1.627   5.981
 3152SOL     OW10354   0.978   5.589   1.460
 3152SOL    HW110355   0.985   5.490   1.450
 3152SOL    HW210356   1.065   5.632   1.433
 3153SOL     OW10357   6.024   4.292   2.329
 3153SOL    HW110358   6.100   4.354   2.345
 3153SOL    HW210359   5.951   4.311   2.394
 3154SOL     OW10360   5.571   2.805   5.919
 3154SOL    HW110361   5.529   2.714   5.915
 3154SOL    HW210362   5.671   2.795   5.919
 3155SOL     OW10363   5.501   5.696   0.700
 3155SOL    HW110364   5.546   5.630   0.761
 3155SOL    HW210365   5.417   5.656   0.664
 3156SOL     OW10366   3.721   3.850   3.666
 3156SOL    HW110367   3.798   3.854   3.603
 3156SOL    HW210368   3.641   3.814   3.617
 3157SOL     OW10369   2.155   3.702   4.239
 3157SOL    HW110370   2.171   3.776   4.173
 3157SOL    HW210371   2.177   3.734   4.331
 3158SOL     OW10372   4.852   6.514   1.204
 3158SOL    HW110373   4.925   6.492   1.269
 3158SOL    HW210374   4.764   6.488   1.242
 3159SOL     OW10375   4.763   5.298   0.032
 3159SOL    HW110376   4.774   5.239   6.976
 3159SOL    HW210377   4.714   5.248   0.103
 3160SOL     OW10378   4.774   4.400   6.810
 3160SOL    HW110379   4.719   4.338   6.753
 3160SOL    HW210380   4.761   4.377   6.906
 3161SOL     OW10381   1.411   0.988   2.985
 3161SOL    HW110382   1.449   0.896   2.988
 3161SOL    HW210383   1.379   1.008   2.893
 3162SOL     OW10384   0.303   5.443   6.469
 3162SOL    HW110385   0.292   5.497   6.385
 3162SOL    HW210386   0.279   5.347   6.450
 3163SOL     OW10387   3.847   3.471   6.657
 3163SOL    HW110388   3.770   3.414   6.685
 3163SOL    HW210389   3.885   3.436   6.571
 3164SOL     OW10390   5.419   3.940   0.384
 3164SOL    HW110391   5.464   4.029   0.390
 3164SOL    HW210392   5.475   3.878   0.329
 3165SOL     OW10393   0.836   1.050   2.420
 3165SOL    HW110394   0.911   1.074   2.358
 3165SOL    HW210395   0.799   1.133   2.461
 3166SOL     OW10396   5.251   3.531   6.251
 3166SOL    HW110397   5.205   3.606   6.298
 3166SOL    HW210398   5.238   3.540   6.152
 3167SOL     OW10399   0.648   5.099   1.470
 3167SOL    HW110400   0.594   5.039   1.529
 3167SOL    HW210401   0.648   5.192   1.509
 3168SOL     OW10402   5.586   3.203   1.089
 3168SOL    HW110403   5.552   3.267   1.158
 3168SOL    HW210404   5.547   3.226   1.000
 3169SOL     OW10405   0.977   2.750   4.694
 3169SOL    HW110406   1.020   2.833   4.660
 3169SOL    HW210407   0.881   2.768   4.715
 3170SOL     OW10408   4.152   1.052   0.098
 3170SOL    HW110409   4.066   1.087   0.061
 3170SOL    HW210410   4.175   1.104   0.181
 3171SOL     OW10411   5.544   6.501   2.932
 3171SOL    HW110412   5.616   6.448   2.888
 3171SOL    HW210413   5.509   6.449   3.011
 3172SOL     OW10414   6.412   7.019   5.265
 3172SOL    HW110415   6.474   6.995   5.340
 3172SOL    HW210416   6.424   6.953   5.190
 3173SOL     OW10417   2.233   0.655   1.707
 3173SOL    HW110418   2.305   0.645   1.776
 3173SOL    HW210419   2.261   0.609   1.623
 3174SOL     OW10420   2.703   3.019   5.856
 3174SOL    HW110421   2.769   3.058   5.920
 3174SOL    HW210422   2.692   2.921   5.877
 3175SOL     OW10423   1.153   6.259   0.910
 3175SOL    HW110424   1.246   6.238   0.941
 3175SOL    HW210425   1.155   6.283   0.813
 3176SOL     OW10426   1.308   4.322   6.443
 3176SOL    HW110427   1.345   4.348   6.532
 3176SOL    HW210428   1.284   4.225   6.443
 3177SOL     OW10429   5.815   5.620   6.286
 3177SOL    HW110430   5.812   5.543   6.350
 3177SOL    HW210431   5.836   5.586   6.194
 3178SOL     OW10432   0.439   4.447   1.910
 3178SOL    HW110433   0.400   4.460   1.818
 3178SOL    HW210434   0.375   4.395   1.966
 3179SOL     OW10435   1.327   1.255   2.275
 3179SOL    HW110436   1.235   1.219   2.284
 3179SOL    HW210437   1.393   1.180   2.279
 3180SOL     OW10438   5.592   0.727   5.938
 3180SOL    HW110439   5.526   0.733   6.013
 3180SOL    HW210440   5.668   0.669   5.965
 3181SOL     OW10441   1.075   0.712   3.425
 3181SOL    HW110442   1.129   0.639   3.467
 3181SOL    HW210443   1.082   0.795   3.480
 3182SOL     OW10444   1.528   5.866   5.684
 3182SOL    HW110445   1.553   5.818   5.600
 3182SOL    HW210446   1.451   5.927   5.666
 3183SOL     OW10447   4.084   3.875   1.090
 3183SOL    HW110448   4.176   3.878   1.050
 3183SOL    HW210449   4.016   3.887   1.017
 3184SOL     OW10450   2.753   1.902   2.216
 3184SOL    HW110451   2.716   1.988   2.179
 3184SOL    HW210452   2.851   1.898   2.199
 3185SOL     OW10453   6.956   6.972   6.125
 3185SOL    HW110454   6.892   6.907   6.084
 3185SOL    HW210455   0.024   6.956   6.088
 3186SOL     OW10456   3.484   0.907   2.535
 3186SOL    HW110457   3.483   0.882   2.632
 3186SOL    HW210458   3.521   0.999   2.525
 3187SOL     OW10459   3.380   4.630   0.316
 3187SOL    HW110460   3.295   4.675   0.342
 3187SOL    HW210461   3.407   4.565   0.387
 3188SOL     OW10462   4.000   6.288   3.628
 3188SOL    HW110463   3.963   6.292   3.535
 3188SOL    HW210464   4.085   6.236   3.628
 3189SOL     OW10465   1.232   6.381   3.150
 3189SOL    HW110466   1.247   6.480   3.148
 3189SOL    HW210467   1.190   6.352   3.064
 3190SOL     OW10468   1.408   6.239   2.657
 3190SOL    HW110469   1.437   6.165   2.719
 3190SOL    HW210470   1.441   6.219   2.565
 3191SOL     OW10471   4.171   0.920   0.921
 3191SOL    HW110472   4.156   1.000   0.980
 3191SOL    HW210473   4.086   0.897   0.874
 3192SOL     OW10474   7.019   2.830   2.101
 3192SOL    HW110475   0.073   2.826   2.039
 3192SOL    HW210476   6.935   2.809   2.051
 3193SOL     OW10477   4.640   2.623   5.846
 3193SOL    HW110478   4.711   2.584   5.905
 3193SOL    HW210479   4.550   2.601   5.883
 3194SOL     OW10480   0.893   3.364   5.868
 3194SOL    HW110481   0.863   3.409   5.783
 3194SOL    HW210482   0.893   3.265   5.855
 3195SOL     OW10483   0.625   2.960   3.284
 3195SOL    HW110484   0.566   2.957   3.365
 3195SOL    HW210485   0.588   3.026   3.218
 3196SOL     OW10486   0.043   7.017   5.369
 3196SOL    HW110487   6.975   0.034   5.368
 3196SOL    HW210488   0.039   6.927   5.413
 3197SOL     OW10489   1.292   4.455   3.778
 3197SOL    HW110490   1.199   4.489   3.768
 3197SOL    HW210491   1.303   4.370   3.728
 3198SOL     OW10492   0.396   2.299   6.009
 3198SOL    HW110493   0.453   2.335   5.935
 3198SOL    HW210494   0.394   2.200   6.004
 3199SOL     OW10495   4.688   2.114   1.584
 3199SOL    HW110496   4.786   2.098   1.568
 3199SOL    HW210497   4.655   2.049   1.652
 3200SOL     OW10498   6.909   1.998   0.626
 3200SOL    HW110499   6.999   1.997   0.584
 3200SOL    HW210500   6.900   1.922   0.690
 3201SOL     OW10501   4.482   4.449   3.753
 3201SOL    HW110502   4.485   4.549   3.763
 3201SOL    HW210503   4.493   4.407   3.843
 3202SOL     OW10504   1.850   5.440   1.712
 3202SOL    HW110505   1.793   5.481   1.784
 3202SOL    HW210506   1.940   5.483   1.713
 3203SOL     OW10507   6.679   0.241   1.349
 3203SOL    HW110508   6.645   0.312   1.287
 3203SOL    HW210509   6.613   0.167   1.354
 3204SOL     OW10510   6.630   5.603   1.872
 3204SOL    HW110511   6.624   5.612   1.971
 3204SOL    HW210512   6.545   5.564   1.837
 3205SOL     OW10513   0.627   3.462   3.842
 3205SOL    HW110514   0.723   3.458   3.815
 3205SOL    HW210515   0.571   3.490   3.765
 3206SOL     OW10516   1.669   6.846   6.549
 3206SOL    HW110517   1.597   6.910   6.576
 3206SOL    HW210518   1.710   6.877   6.463
 3207SOL     OW10519   0.551   0.783   4.449
 3207SOL    HW110520   0.563   0.688   4.420
 3207SOL    HW210521   0.631   0.813   4.502
 3208SOL     OW10522   5.116   6.816   4.738
 3208SOL    HW110523   5.165   6.728   4.737
 3208SOL    HW210524   5.106   6.850   4.645
 3209SOL     OW10525   2.351   0.458   4.065
 3209SOL    HW110526   2.405   0.497   4.140
 3209SOL    HW210527   2.326   0.364   4.087
 3210SOL     OW10528   6.820   4.442   2.552
 3210SOL    HW110529   6.893   4.413   2.490
 3210SOL    HW210530   6.854   4.514   2.612
 3211SOL     OW10531   1.698   4.391   2.214
 3211SOL    HW110532   1.714   4.317   2.149
 3211SOL    HW210533   1.773   4.394   2.281
 3212SOL     OW10534   5.026   1.985   6.360
 3212SOL    HW110535   4.954   2.026   6.416
 3212SOL    HW210536   4.986   1.917   6.298
 3213SOL     OW10537   6.094   6.188   2.287
 3213SOL    HW110538   6.145   6.268   2.319
 3213SOL    HW210539   5.999   6.214   2.268
 3214SOL     OW10540   4.111   5.887   6.198
 3214SOL    HW110541   4.013   5.901   6.182
 3214SOL    HW210542   4.127   5.792   6.225
 3215SOL     OW10543   5.928   1.894   6.613
 3215SOL    HW110544   5.884   1.909   6.702
 3215SOL    HW210545   5.974   1.805   6.613
 3216SOL     OW10546   5.677   6.868   3.315
 3216SOL    HW110547   5.645   6.962   3.316
 3216SOL    HW210548   5.654   6.825   3.228
 3217SOL     OW10549   6.480   4.283   2.071
 3217SOL    HW110550   6.446   4.197   2.108
 3217SOL    HW210551   6.477   4.279   1.971
 3218SOL     OW10552   3.337   0.564   3.414
 3218SOL    HW110553   3.357   0.503   3.491
 3218SOL    HW210554   3.303   0.510   3.337
 3219SOL     OW10555   6.299   0.277   3.976
 3219SOL    HW110556   6.293   0.309   4.070
 3219SOL    HW210557   6.260   0.185   3.969
 3220SOL     OW10558   6.432   3.603   5.444
 3220SOL    HW110559   6.429   3.526   5.380
 3220SOL    HW210560   6.487   3.579   5.523
 3221SOL     OW10561   3.243   6.919   3.307
 3221SOL    HW110562   3.143   6.916   3.315
 3221SOL    HW210563   3.278   6.825   3.301
 3222SOL     OW10564   5.865   2.617   3.033
 3222SOL    HW110565   5.782   2.584   2.989
 3222SOL    HW210566   5.924   2.661   2.966
 3223SOL     OW10567   1.939   5.266   5.130
 3223SOL    HW110568   1.927   5.364   5.141
 3223SOL    HW210569   1.958   5.245   5.034
 3224SOL     OW10570   4.163   4.984   0.045
 3224SOL    HW110571   4.160   5.002   6.970
 3224SOL    HW210572   4.242   4.928   0.066
 3225SOL     OW10573   2.350   3.937   6.958
 3225SOL    HW110574   2.271   3.937   6.896
 3225SOL    HW210575   2.334   3.871   0.008
 3226SOL     OW10576   1.349   0.976   4.089
 3226SOL    HW110577   1.385   0.971   3.995
 3226SOL    HW210578   1.415   0.934   4.152
 3227SOL     OW10579   2.992   1.634   6.082
 3227SOL    HW110580   2.946   1.684   6.155
 3227SOL    HW210581   2.955   1.541   6.077
 3228SOL     OW10582   5.558   3.508   4.660
 3228SOL    HW110583   5.496   3.535   4.734
 3228SOL    HW210584   5.649   3.545   4.678
 3229SOL     OW10585   4.175   2.192   5.429
 3229SOL    HW110586   4.113   2.162   5.502
 3229SOL    HW210587   4.201   2.113   5.373
 3230SOL     OW10588   1.230   0.797   3.853
 3230SOL    HW110589   1.204   0.788   3.949
 3230SOL    HW210590   1.150   0.785   3.795
 3231SOL     OW10591   5.718   6.208   1.210
 3231SOL    HW110592   5.772   6.124   1.200
 3231SOL    HW210593   5.736   6.249   1.299
 3232SOL     OW10594   1.805   4.948   4.064
 3232SOL    HW110595   1.862   4.924   4.143
 3232SOL    HW210596   1.799   4.869   4.003
 3233SOL     OW10597   0.205   4.269   1.151
 3233SOL    HW110598   0.228   4.359   1.113
 3233SOL    HW210599   0.106   4.264   1.165
 3234SOL     OW10600   0.581   1.805   5.801
 3234SOL    HW110601   0.637   1.858   5.865
 3234SOL    HW210602   0.640   1.763   5.731
 3235SOL     OW10603   5.183   6.879   2.483
 3235SOL    HW110604   5.111   6.947   2.497
 3235SOL    HW210605   5.249   6.885   2.557
 3236SOL     OW10606   0.265   3.091   1.736
 3236SOL    HW110607   0.327   3.167   1.717
 3236SOL    HW210608   0.258   3.032   1.656
 3237SOL     OW10609   3.189   0.428   4.425
 3237SOL    HW110610   3.136   0.387   4.499
 3237SOL    HW210611   3.158   0.392   4.338
 3238SOL     OW10612   0.316   6.441   6.616
 3238SOL    HW110613   0.250   6.397   6.554
 3238SOL    HW210614   0.371   6.371   6.661
 3239SOL     OW10615   6.394   6.430   5.703
 3239SOL    HW110616   6.337   6.491   5.757
 3239SOL    HW210617   6.337   6.366   5.653
 3240SOL     OW10618   1.010   1.381   4.810
 3240SOL    HW110619   1.029   1.455   4.745
 3240SOL    HW210620   1.094   1.333   4.832
 3241SOL     OW10621   5.501   0.762   3.801
 3241SOL    HW110622   5.457   0.680   3.836
 3241SOL    HW210623   5.576   0.736   3.740
 3242SOL     OW10624   3.690   6.790   0.359
 3242SOL    HW110625   3.612   6.851   0.376
 3242SOL    HW210626   3.722   6.752   0.445
 3243SOL     OW10627   3.428   5.020   0.479
 3243SOL    HW110628   3.515   5.003   0.432
 3243SOL    HW210629   3.431   5.109   0.525
 3244SOL     OW10630   2.977   6.123   6.710
 3244SOL    HW110631   2.923   6.121   6.626
 3244SOL    HW210632   3.018   6.213   6.722
 3245SOL     OW10633   4.019   2.811   6.530
 3245SOL    HW110634   3.928   2.820   6.490
 3245SOL    HW210635   4.011   2.777   6.624
 3246SOL     OW10636   5.618   6.509   3.332
 3246SOL    HW110637   5.594   6.535   3.426
 3246SOL    HW210638   5.706   6.461   3.333
 3247SOL     OW10639   0.561   2.424   4.355
 3247SOL    HW110640   0.564   2.523   4.341
 3247SOL    HW210641   0.642   2.396   4.407
 3248SOL     OW10642   6.258   3.602   2.316
 3248SOL    HW110643   6.241   3.664   2.392
 3248SOL    HW210644   6.171   3.562   2.286
 3249SOL     OW10645   2.217   4.204   5.131
 3249SOL    HW110646   2.239   4.116   5.087
 3249SOL    HW210647   2.301   4.253   5.151
 3250SOL     OW10648   4.304   6.624   1.979
 3250SOL    HW110649   4.400   6.638   1.954
 3250SOL    HW210650   4.294   6.627   2.078
 3251SOL     OW10651   3.285   0.654   3.061
 3251SOL    HW110652   3.380   0.622   3.057
 3251SOL    HW210653   3.252   0.674   2.969
 3252SOL     OW10654   3.121   1.933   3.317
 3252SOL    HW110655   3.177   1.961   3.239
 3252SOL    HW210656   3.091   1.839   3.304
 3253SOL     OW10657   4.816   3.285   1.301
 3253SOL    HW110658   4.832   3.186   1.292
 3253SOL    HW210659   4.721   3.300   1.327
 3254SOL     OW10660   4.989   4.672   2.782
 3254SOL    HW110661   4.925   4.675   2.858
 3254SOL    HW210662   5.002   4.577   2.753
 3255SOL     OW10663   4.439   5.011   0.554
 3255SOL    HW110664   4.475   5.085   0.498
 3255SOL    HW210665   4.461   5.028   0.650
 3256SOL     OW10666   6.571   6.030   5.280
 3256SOL    HW110667   6.538   6.125   5.282
 3256SOL    HW210668   6.562   5.990   5.371
 3257SOL     OW10669   2.260   2.479   0.752
 3257SOL    HW110670   2.197   2.533   0.697
 3257SOL    HW210671   2.269   2.387   0.714
 3258SOL     OW10672   6.014   6.973   1.746
 3258SOL    HW110673   5.955   0.027   1.727
 3258SOL    HW210674   6.032   6.968   1.845
 3259SOL     OW10675   4.803   0.066   3.941
 3259SOL    HW110676   4.848   0.047   4.029
 3259SOL    HW210677   4.783   7.004   3.894
 3260SOL     OW10678   1.699   2.389   6.859
 3260SOL    HW110679   1.638   2.459   6.896
 3260SOL    HW210680   1.675   2.371   6.763
 3261SOL     OW10681   4.042   0.262   2.330
 3261SOL    HW110682   4.090   0.187   2.375
 3261SOL    HW210683   3.999   0.321   2.398
 3262SOL     OW10684   4.067   1.727   2.795
 3262SOL    HW110685   4.091   1.817   2.831
 3262SOL    HW210686   3.993   1.736   2.728
 3263SOL     OW10687   4.021   6.244   1.679
 3263SOL    HW110688   4.109   6.197   1.680
 3263SOL    HW210689   3.966   6.214   1.758
 3264SOL     OW10690   5.271   4.992   6.547
 3264SOL    HW110691   5.295   5.072   6.493
 3264SOL    HW210692   5.301   5.005   6.642
 3265SOL     OW10693   4.697   0.300   6.399
 3265SOL    HW110694   4.628   0.364   6.432
 3265SOL    HW210695   4.666   0.207   6.415
 3266SOL     OW10696   0.585   1.253   6.384
 3266SOL    HW110697   0.488   1.233   6.401
 3266SOL    HW210698   0.616   1.321   6.451
 3267SOL     OW10699   3.359   2.644   1.217
 3267SOL    HW110700   3.300   2.690   1.284
 3267SOL    HW210701   3.417   2.577   1.264
 3268SOL     OW10702   0.267   4.141   6.259
 3268SOL    HW110703   0.180   4.152   6.307
 3268SOL    HW210704   0.285   4.044   6.244
 3269SOL     OW10705   4.809   3.161   0.927
 3269SOL    HW110706   4.732   3.161   0.863
 3269SOL    HW210707   4.884   3.217   0.891
 3270SOL     OW10708   1.405   6.308   4.893
 3270SOL    HW110709   1.352   6.254   4.827
 3270SOL    HW210710   1.343   6.361   4.950
 3271SOL     OW10711   6.119   1.731   1.036
 3271SOL    HW110712   6.088   1.657   0.976
 3271SOL    HW210713   6.190   1.696   1.098
 3272SOL     OW10714   5.139   0.277   0.330
 3272SOL    HW110715   5.074   0.348   0.302
 3272SOL    HW210716   5.090   0.202   0.374
 3273SOL     OW10717   6.586   6.564   2.370
 3273SOL    HW110718   6.577   6.626   2.292
 3273SOL    HW210719   6.623   6.476   2.339
 3274SOL     OW10720   3.446   2.271   6.182
 3274SOL    HW110721   3.537   2.309   6.193
 3274SOL    HW210722   3.400   2.315   6.104
 3275SOL     OW10723   3.106   1.558   6.450
 3275SOL    HW110724   3.126   1.625   6.379
 3275SOL    HW210725   3.047   1.486   6.413
 3276SOL     OW10726   3.225   6.254   0.393
 3276SOL    HW110727   3.292   6.317   0.432
 3276SOL    HW210728   3.268   6.201   0.320
 3277SOL     OW10729   6.939   6.650   5.105
 3277SOL    HW110730   6.851   6.663   5.150
 3277SOL    HW210731   7.011   6.639   5.174
 3278SOL     OW10732   1.073   0.994   6.943
 3278SOL    HW110733   1.103   1.026   6.853
 3278SOL    HW210734   1.152   0.990   7.005
 3279SOL     OW10735   1.508   0.153   1.220
 3279SOL    HW110736   1.507   0.080   1.151
 3279SOL    HW210737   1.597   0.199   1.219
 3280SOL     OW10738   1.540   4.862   6.292
 3280SOL    HW110739   1.590   4.944   6.318
 3280SOL    HW210740   1.604   4.790   6.266
 3281SOL     OW10741   2.804   5.885   0.309
 3281SOL    HW110742   2.861   5.837   0.242
 3281SOL    HW210743   2.799   5.982   0.286
 3282SOL     OW10744   2.423   5.432   2.572
 3282SOL    HW110745   2.369   5.454   2.653
 3282SOL    HW210746   2.409   5.335   2.548
 3283SOL     OW10747   2.305   0.629   3.592
 3283SOL    HW110748   2.355   0.607   3.508
 3283SOL    HW210749   2.226   0.568   3.600
 3284SOL     OW10750   6.563   3.566   6.950
 3284SOL    HW110751   6.558   3.656   6.993
 3284SOL    HW210752   6.507   3.566   6.867
 3285SOL     OW10753   0.242   1.844   4.068
 3285SOL    HW110754   0.314   1.805   4.011
 3285SOL    HW210755   0.281   1.907   4.134
 3286SOL     OW10756   3.268   3.896   5.420
 3286SOL    HW110757   3.182   3.857   5.388
 3286SOL    HW210758   3.321   3.931   5.343
 3287SOL     OW10759   1.331   5.197   0.846
 3287SOL    HW110760   1.360   5.278   0.897
 3287SOL    HW210761   1.342   5.214   0.748
 3288SOL     OW10762   0.628   6.379   6.807
 3288SOL    HW110763   0.628   6.314   6.882
 3288SOL    HW210764   0.591   6.335   6.725
 3289SOL     OW10765   2.113   5.417   4.406
 3289SOL    HW110766   2.070   5.328   4.389
 3289SOL    HW210767   2.106   5.440   4.503
 3290SOL     OW10768   6.766   5.114   1.487
 3290SOL    HW110769   6.799   5.028   1.447
 3290SOL    HW210770   6.688   5.095   1.546
 3291SOL     OW10771   1.888   6.767   1.473
 3291SOL    HW110772   1.812   6.806   1.524
 3291SOL    HW210773   1.973   6.810   1.503
 3292SOL     OW10774   0.922   6.335   6.320
 3292SOL    HW110775   0.904   6.243   6.355
 3292SOL    HW210776   0.837   6.375   6.286
 3293SOL     OW10777   0.043   1.127   2.900
 3293SOL    HW110778   6.980   1.165   2.933
 3293SOL    HW210779   0.057   1.156   2.805
 3294SOL     OW10780   0.501   0.215   0.236
 3294SOL    HW110781   0.502   0.236   0.138
 3294SOL    HW210782   0.594   0.222   0.272
 3295SOL     OW10783   1.382   2.568   6.571
 3295SOL    HW110784   1.293   2.573   6.616
 3295SOL    HW210785   1.372   2.527   6.480
 3296SOL     OW10786   0.899   6.849   2.729
 3296SOL    HW110787   0.980   6.885   2.775
 3296SOL    HW210788   0.892   6.751   2.746
 3297SOL     OW10789   3.226   2.792   6.615
 3297SOL    HW110790   3.214   2.693   6.622
 3297SOL    HW210791   3.163   2.829   6.547
 3298SOL     OW10792   6.272   3.540   3.032
 3298SOL    HW110793   6.227   3.588   2.956
 3298SOL    HW210794   6.338   3.601   3.075
 3299SOL     OW10795   2.377   0.019   4.996
 3299SOL    HW110796   2.360   6.944   4.986
 3299SOL    HW210797   2.373   0.063   4.906
 3300SOL     OW10798   6.211   6.877   5.000
 3300SOL    HW110799   6.255   6.791   4.975
 3300SOL    HW210800   6.133   6.894   4.940
 3301SOL     OW10801   0.413   3.791   2.696
 3301SOL    HW110802   0.357   3.872   2.677
 3301SOL    HW210803   0.483   3.815   2.764
 3302SOL     OW10804   1.006   4.540   3.666
 3302SOL    HW110805   1.017   4.639   3.656
 3302SOL    HW210806   0.930   4.510   3.608
 3303SOL     OW10807   3.520   3.674   3.196
 3303SOL    HW110808   3.461   3.594   3.187
 3303SOL    HW210809   3.615   3.647   3.178
 3304SOL     OW10810   0.516   6.300   4.591
 3304SOL    HW110811   0.541   6.252   4.507
 3304SOL    HW210812   0.419   6.288   4.609
 3305SOL     OW10813   1.714   1.334   1.962
 3305SOL    HW110814   1.795   1.391   1.976
 3305SOL    HW210815   1.676   1.308   2.050
 3306SOL     OW10816   1.072   3.495   2.866
 3306SOL    HW110817   1.080   3.429   2.941
 3306SOL    HW210818   1.000   3.561   2.888
 3307SOL     OW10819   0.529   5.968   6.773
 3307SOL    HW110820   0.557   5.946   6.680
 3307SOL    HW210821   0.511   6.066   6.780
 3308SOL     OW10822   4.070   5.839   0.703
 3308SOL    HW110823   4.053   5.803   0.795
 3308SOL    HW210824   4.037   5.933   0.698
 3309SOL     OW10825   0.104   4.866   3.176
 3309SOL    HW110826   0.034   4.883   3.245
 3309SOL    HW210827   0.061   4.840   3.090
 3310SOL     OW10828   1.258   6.393   1.837
 3310SOL    HW110829   1.282   6.481   1.877
 3310SOL    HW210830   1.225   6.331   1.908
 3311SOL     OW10831   4.026   6.238   1.036
 3311SOL    HW110832   4.100   6.221   1.102
 3311SOL    HW210833   4.027   6.335   1.010
 3312SOL     OW10834   2.765   3.490   0.342
 3312SOL    HW110835   2.753   3.589   0.336
 3312SOL    HW210836   2.781   3.464   0.437
 3313SOL     OW10837   6.498   5.240   4.328
 3313SOL    HW110838   6.481   5.178   4.405
 3313SOL    HW210839   6.590   5.224   4.291
 3314SOL     OW10840   0.452   3.576   5.354
 3314SOL    HW110841   0.415   3.506   5.294
 3314SOL    HW210842   0.481   3.535   5.440
 3315SOL     OW10843   6.599   1.800   3.134
 3315SOL    HW110844   6.682   1.777   3.083
 3315SOL    HW210845   6.526   1.736   3.109
 3316SOL     OW10846   4.751   1.104   0.030
 3316SOL    HW110847   4.761   1.173   6.982
 3316SOL    HW210848   4.775   1.144   0.118
 3317SOL     OW10849   4.127   2.515   1.677
 3317SOL    HW110850   4.123   2.475   1.585
 3317SOL    HW210851   4.088   2.607   1.675
 3318SOL     OW10852   2.846   5.549   4.893
 3318SOL    HW110853   2.757   5.519   4.859
 3318SOL    HW210854   2.839   5.571   4.990
 3319SOL     OW10855   0.370   5.751   4.874
 3319SOL    HW110856   0.452   5.701   4.900
 3319SOL    HW210857   0.395   5.843   4.844
 3320SOL     OW10858   0.204   0.768   6.504
 3320SOL    HW110859   0.239   0.694   6.561
 3320SOL    HW210860   0.258   0.851   6.521
 3321SOL     OW10861   3.717   4.087   3.836
 3321SOL    HW110862   3.719   3.994   3.800
 3321SOL    HW210863   3.751   4.086   3.930
 3322SOL     OW10864   4.214   1.721   1.578
 3322SOL    HW110865   4.200   1.629   1.543
 3322SOL    HW210866   4.132   1.775   1.564
 3323SOL     OW10867   2.367   5.336   0.274
 3323SOL    HW110868   2.361   5.299   0.181
 3323SOL    HW210869   2.310   5.418   0.281
 3324SOL     OW10870   0.516   2.011   0.588
 3324SOL    HW110871   0.459   2.005   0.670
 3324SOL    HW210872   0.484   1.943   0.521
 3325SOL     OW10873   1.848   3.273   0.878
 3325SOL    HW110874   1.756   3.248   0.907
 3325SOL    HW210875   1.848   3.289   0.779
 3326SOL     OW10876   6.358   0.779   1.546
 3326SOL    HW110877   6.390   0.860   1.595
 3326SOL    HW210878   6.348   0.703   1.611
 3327SOL     OW10879   3.048   5.896   2.233
 3327SOL    HW110880   3.113   5.823   2.253
 3327SOL    HW210881   2.978   5.899   2.304
 3328SOL     OW10882   4.370   0.866   2.592
 3328SOL    HW110883   4.435   0.923   2.541
 3328SOL    HW210884   4.313   0.924   2.651
 3329SOL     OW10885   5.091   0.636   5.126
 3329SOL    HW110886   4.994   0.639   5.149
 3329SOL    HW210887   5.106   0.571   5.051
 3330SOL     OW10888   0.035   5.616   2.591
 3330SOL    HW110889   0.069   5.696   2.641
 3330SOL    HW210890   0.098   5.594   2.517
 3331SOL     OW10891   2.075   3.257   3.032
 3331SOL    HW110892   2.110   3.324   3.097
 3331SOL    HW210893   2.016   3.303   2.965
 3332SOL     OW10894   3.701   5.297   1.151
 3332SOL    HW110895   3.606   5.328   1.139
 3332SOL    HW210896   3.762   5.376   1.152
 3333SOL     OW10897   2.565   3.055   1.676
 3333SOL    HW110898   2.659   3.026   1.656
 3333SOL    HW210899   2.566   3.148   1.713
 3334SOL     OW10900   1.591   1.808   2.375
 3334SOL    HW110901   1.683   1.795   2.338
 3334SOL    HW210902   1.539   1.870   2.316
 3335SOL     OW10903   3.795   4.531   5.608
 3335SOL    HW110904   3.710   4.528   5.660
 3335SOL    HW210905   3.852   4.606   5.639
 3336SOL     OW10906   5.001   5.737   3.855
 3336SOL    HW110907   5.000   5.710   3.952
 3336SOL    HW210908   5.083   5.701   3.811
 3337SOL     OW10909   3.501   3.241   3.181
 3337SOL    HW110910   3.545   3.253   3.093
 3337SOL    HW210911   3.467   3.147   3.188
 3338SOL     OW10912   2.797   2.721   1.615
 3338SOL    HW110913   2.790   2.717   1.515
 3338SOL    HW210914   2.719   2.673   1.656
 3339SOL     OW10915   1.667   6.929   5.961
 3339SOL    HW110916   1.671   6.857   5.892
 3339SOL    HW210917   1.716   6.900   6.043
 3340SOL     OW10918   3.777   0.707   4.379
 3340SOL    HW110919   3.801   0.661   4.293
 3340SOL    HW210920   3.706   0.775   4.361
 3341SOL     OW10921   1.686   3.939   2.858
 3341SOL    HW110922   1.729   4.026   2.882
 3341SOL    HW210923   1.742   3.864   2.893
 3342SOL     OW10924   6.962   0.413   2.103
 3342SOL    HW110925   0.010   0.439   2.168
 3342SOL    HW210926   6.877   0.396   2.152
 3343SOL     OW10927   4.792   4.988   5.835
 3343SOL    HW110928   4.783   5.085   5.814
 3343SOL    HW210929   4.878   4.971   5.881
 3344SOL     OW10930   0.420   3.151   2.575
 3344SOL    HW110931   0.410   3.104   2.663
 3344SOL    HW210932   0.332   3.192   2.550
 3345SOL     OW10933   6.169   4.689   0.362
 3345SOL    HW110934   6.162   4.628   0.441
 3345SOL    HW210935   6.153   4.637   0.279
 3346SOL     OW10936   1.549   1.295   0.458
 3346SOL    HW110937   1.554   1.202   0.421
 3346SOL    HW210938   1.632   1.345   0.433
 3347SOL     OW10939   0.222   3.434   6.409
 3347SOL    HW110940   0.257   3.527   6.407
 3347SOL    HW210941   0.287   3.374   6.361
 3348SOL     OW10942   3.443   3.728   6.136
 3348SOL    HW110943   3.397   3.712   6.048
 3348SOL    HW210944   3.487   3.817   6.134
 3349SOL     OW10945   1.759   4.347   3.906
 3349SOL    HW110946   1.667   4.316   3.927
 3349SOL    HW210947   1.761   4.384   3.813
 3350SOL     OW10948   0.857   4.003   4.462
 3350SOL    HW110949   0.896   4.094   4.478
 3350SOL    HW210950   0.929   3.939   4.437
 3351SOL     OW10951   4.822   0.731   1.248
 3351SOL    HW110952   4.815   0.825   1.214
 3351SOL    HW210953   4.892   0.726   1.319
 3352SOL     OW10954   6.262   1.329   0.045
 3352SOL    HW110955   6.221   1.314   0.135
 3352SOL    HW210956   6.300   1.422   0.042
 3353SOL     OW10957   2.517   6.911   1.116
 3353SOL    HW110958   2.607   6.887   1.149
 3353SOL    HW210959   2.447   6.867   1.173
 3354SOL     OW10960   2.831   4.509   6.383
 3354SOL    HW110961   2.917   4.553   6.358
 3354SOL    HW210962   2.815   4.430   6.325
 3355SOL     OW10963   1.785   1.062   4.748
 3355SOL    HW110964   1.736   1.075   4.662
 3355SOL    HW210965   1.728   1.011   4.813
 3356SOL     OW10966   1.579   0.084   5.548
 3356SOL    HW110967   1.571   0.083   5.448
 3356SOL    HW210968   1.673   0.107   5.573
 3357SOL     OW10969   2.976   3.025   1.848
 3357SOL    HW110970   3.018   2.969   1.919
 3357SOL    HW210971   2.981   3.122   1.875
 3358SOL     OW10972   6.968   0.469   1.524
 3358SOL    HW110973   6.909   0.441   1.600
 3358SOL    HW210974   6.978   0.393   1.460
 3359SOL     OW10975   0.041   6.812   4.382
 3359SOL    HW110976   0.004   6.725   4.416
 3359SOL    HW210977   0.140   6.805   4.373
 3360SOL     OW10978   1.015   3.079   4.507
 3360SOL    HW110979   0.985   3.008   4.443
 3360SOL    HW210980   1.030   3.164   4.457
 3361SOL     OW10981   6.449   6.895   4.808
 3361SOL    HW110982   6.389   6.973   4.826
 3361SOL    HW210983   6.397   6.810   4.818
 3362SOL     OW10984   3.858   0.576   4.146
 3362SOL    HW110985   3.856   0.615   4.054
 3362SOL    HW210986   3.948   0.537   4.164
 3363SOL     OW10987   5.671   3.712   6.705
 3363SOL    HW110988   5.739   3.639   6.696
 3363SOL    HW210989   5.585   3.675   6.738
 3364SOL     OW10990   1.860   3.612   3.353
 3364SOL    HW110991   1.798   3.598   3.430
 3364SOL    HW210992   1.810   3.603   3.267
 3365SOL     OW10993   2.228   4.045   3.564
 3365SOL    HW110994   2.218   4.080   3.657
 3365SOL    HW210995   2.185   3.955   3.557
 3366SOL     OW10996   5.981   4.134   4.064
 3366SOL    HW110997   5.977   4.176   3.974
 3366SOL    HW210998   5.970   4.204   4.134
 3367SOL     OW10999   3.706   3.477   3.473
 3367SOL    HW111000   3.680   3.447   3.564
 3367SOL    HW211001   3.684   3.574   3.463
 3368SOL     OW11002   1.674   6.881   2.081
 3368SOL    HW111003   1.588   6.832   2.096
 3368SOL    HW211004   1.751   6.819   2.095
 3369SOL     OW11005   5.283   2.528   0.688
 3369SOL    HW111006   5.297   2.496   0.782
 3369SOL    HW211007   5.295   2.627   0.685
 3370SOL     OW11008   0.912   5.537   2.635
 3370SOL    HW111009   0.939   5.498   2.722
 3370SOL    HW211010   0.988   5.528   2.570
 3371SOL     OW11011   2.026   2.382   2.777
 3371SOL    HW111012   2.042   2.472   2.816
 3371SOL    HW211013   2.055   2.382   2.681
 3372SOL     OW11014   5.875   3.490   2.497
 3372SOL    HW111015   5.893   3.408   2.551
 3372SOL    HW211016   5.780   3.519   2.512
 3373SOL     OW11017   6.432   3.253   1.529
 3373SOL    HW111018   6.500   3.309   1.483
 3373SOL    HW211019   6.341   3.274   1.492
 3374SOL     OW11020   0.651   0.105   4.090
 3374SOL    HW111021   0.680   0.014   4.061
 3374SOL    HW211022   0.609   0.099   4.181
 3375SOL     OW11023   6.765   4.744   5.919
 3375SOL    HW111024   6.683   4.794   5.890
 3375SOL    HW211025   6.745   4.692   6.002
 3376SOL     OW11026   3.142   3.547   4.315
 3376SOL    HW111027   3.099   3.618   4.258
 3376SOL    HW211028   3.219   3.587   4.365
 3377SOL     OW11029   6.373   4.982   3.142
 3377SOL    HW111030   6.298   5.016   3.085
 3377SOL    HW211031   6.382   4.883   3.128
 3378SOL     OW11032   1.299   6.242   0.325
 3378SOL    HW111033   1.339   6.334   0.318
 3378SOL    HW211034   1.372   6.175   0.333
 3379SOL     OW11035   6.845   4.190   3.393
 3379SOL    HW111036   6.791   4.112   3.363
 3379SOL    HW211037   6.872   4.244   3.313
 3380SOL     OW11038   3.046   4.549   0.169
 3380SOL    HW111039   3.023   4.584   0.078
 3380SOL    HW211040   2.964   4.547   0.225
 3381SOL     OW11041   1.732   3.576   6.505
 3381SOL    HW111042   1.810   3.570   6.444
 3381SOL    HW211043   1.660   3.630   6.462
 3382SOL     OW11044   0.016   3.039   0.570
 3382SOL    HW111045   0.015   3.118   0.632
 3382SOL    HW211046   6.971   3.052   0.498
 3383SOL     OW11047   4.419   5.818   0.185
 3383SOL    HW111048   4.320   5.834   0.180
 3383SOL    HW211049   4.437   5.733   0.235
 3384SOL     OW11050   2.966   4.488   6.614
 3384SOL    HW111051   2.908   4.484   6.532
 3384SOL    HW211052   2.923   4.547   6.682
 3385SOL     OW11053   0.233   2.063   4.271
 3385SOL    HW111054   0.168   2.098   4.204
 3385SOL    HW211055   0.312   2.124   4.277
 3386SOL     OW11056   0.726   4.422   4.897
 3386SOL    HW111057   0.630   4.430   4.923
 3386SOL    HW211058   0.769   4.348   4.950
 3387SOL     OW11059   6.231   0.800   3.152
 3387SOL    HW111060   6.132   0.807   3.161
 3387SOL    HW211061   6.257   0.704   3.139
 3388SOL     OW11062   6.980   3.693   0.963
 3388SOL    HW111063   0.038   3.640   0.939
 3388SOL    HW211064   6.903   3.631   0.975
 3389SOL     OW11065   5.697   6.350   0.288
 3389SOL    HW111066   5.600   6.372   0.277
 3389SOL    HW211067   5.745   6.371   0.203
 3390SOL     OW11068   2.882   6.174   6.076
 3390SOL    HW111069   2.809   6.228   6.119
 3390SOL    HW211070   2.956   6.161   6.141
 3391SOL     OW11071   5.856   3.576   4.706
 3391SOL    HW111072   5.836   3.672   4.687
 3391SOL    HW211073   5.890   3.532   4.623
 3392SOL     OW11074   4.731   6.895   5.776
 3392SOL    HW111075   4.745   6.955   5.854
 3392SOL    HW211076   4.679   6.814   5.804
 3393SOL     OW11077   5.201   5.653   0.634
 3393SOL    HW111078   5.113   5.700   0.642
 3393SOL    HW211079   5.228   5.618   0.724
 3394SOL     OW11080   2.863   5.604   1.067
 3394SOL    HW111081   2.948   5.583   1.017
 3394SOL    HW211082   2.835   5.697   1.046
 3395SOL     OW11083   2.414   0.093   3.482
 3395SOL    HW111084   2.503   0.133   3.505
 3395SOL    HW211085   2.418   7.017   3.494
 3396SOL     OW11086   5.046   1.278   4.235
 3396SOL    HW111087   5.056   1.358   4.176
 3396SOL    HW211088   4.959   1.283   4.284
 3397SOL     OW11089   2.315   6.174   0.354
 3397SOL    HW111090   2.355   6.244   0.413
 3397SOL    HW211091   2.260   6.219   0.283
 3398SOL     OW11092   6.808   2.549   4.938
 3398SOL    HW111093   6.892   2.597   4.965
 3398SOL    HW211094   6.808   2.458   4.979
 3399SOL     OW11095   6.396   5.785   1.751
 3399SOL    HW111096   6.362   5.877   1.771
 3399SOL    HW211097   6.346   5.718   1.807
 3400SOL     OW11098   4.918   1.750   5.968
 3400SOL    HW111099   4.835   1.722   5.921
 3400SOL    HW211100   4.996   1.740   5.906
 3401SOL     OW11101   5.984   3.365   5.513
 3401SOL    HW111102   5.987   3.296   5.586
 3401SOL    HW211103   5.925   3.440   5.542
 3402SOL     OW11104   5.992   3.480   1.293
 3402SOL    HW111105   5.947   3.398   1.258
 3402SOL    HW211106   5.927   3.556   1.291
 3403SOL     OW11107   5.233   6.661   6.545
 3403SOL    HW111108   5.274   6.611   6.468
 3403SOL    HW211109   5.244   6.607   6.629
 3404SOL     OW11110   4.963   4.364   5.086
 3404SOL    HW111111   4.996   4.380   5.179
 3404SOL    HW211112   5.011   4.286   5.046
 3405SOL     OW11113   5.108   6.258   6.696
 3405SOL    HW111114   5.208   6.247   6.702
 3405SOL    HW211115   5.064   6.172   6.724
 3406SOL     OW11116   2.363   5.097   1.526
 3406SOL    HW111117   2.302   5.158   1.577
 3406SOL    HW211118   2.419   5.150   1.463
 3407SOL     OW11119   1.144   3.748   6.849
 3407SOL    HW111120   1.155   3.780   6.943
 3407SOL    HW211121   1.118   3.652   6.849
 3408SOL     OW11122   4.846   1.445   3.322
 3408SOL    HW111123   4.784   1.465   3.398
 3408SOL    HW211124   4.902   1.365   3.345
 3409SOL     OW11125   4.340   0.256   1.143
 3409SOL    HW111126   4.266   0.229   1.082
 3409SOL    HW211127   4.417   0.192   1.133
 3410SOL     OW11128   6.258   0.391   3.403
 3410SOL    HW111129   6.258   0.293   3.426
 3410SOL    HW211130   6.256   0.445   3.486
 3411SOL     OW11131   5.573   2.438   0.158
 3411SOL    HW111132   5.646   2.469   0.097
 3411SOL    HW211133   5.561   2.339   0.148
 3412SOL     OW11134   5.750   3.235   2.060
 3412SOL    HW111135   5.774   3.246   1.964
 3412SOL    HW211136   5.736   3.324   2.102
 3413SOL     OW11137   6.881   2.044   6.740
 3413SOL    HW111138   6.799   2.098   6.720
 3413SOL    HW211139   6.941   2.096   6.800
 3414SOL     OW11140   3.066   4.368   1.146
 3414SOL    HW111141   3.146   4.346   1.202
 3414SOL    HW211142   2.986   4.320   1.181
 3415SOL     OW11143   1.797   1.689   6.477
 3415SOL    HW111144   1.830   1.729   6.563
 3415SOL    HW211145   1.815   1.753   6.402
 3416SOL     OW11146   5.951   6.890   6.923
 3416SOL    HW111147   5.909   6.980   6.934
 3416SOL    HW211148   6.048   6.895   6.947
 3417SOL     OW11149   5.087   6.429   3.520
 3417SOL    HW111150   5.139   6.366   3.462
 3417SOL    HW211151   5.118   6.422   3.614
 3418SOL     OW11152   4.488   5.085   1.084
 3418SOL    HW111153   4.444   5.116   1.168
 3418SOL    HW211154   4.586   5.102   1.089
 3419SOL     OW11155   2.259   5.589   5.082
 3419SOL    HW111156   2.353   5.562   5.099
 3419SOL    HW211157   2.197   5.514   5.108
 3420SOL     OW11158   4.585   2.218   2.352
 3420SOL    HW111159   4.637   2.252   2.274
 3420SOL    HW211160   4.493   2.256   2.350
 3421SOL     OW11161   6.946   2.713   4.064
 3421SOL    HW111162   6.925   2.759   4.150
 3421SOL    HW211163   0.018   2.682   4.065
 3422SOL     OW11164   2.019   6.155   0.542
 3422SOL    HW111165   2.027   6.254   0.558
 3422SOL    HW211166   2.111   6.117   0.530
 3423SOL     OW11167   1.485   4.470   5.772
 3423SOL    HW111168   1.523   4.390   5.725
 3423SOL    HW211169   1.428   4.440   5.848
 3424SOL     OW11170   4.358   0.972   1.844
 3424SOL    HW111171   4.335   0.877   1.827
 3424SOL    HW211172   4.367   1.020   1.756
 3425SOL     OW11173   6.515   3.863   0.016
 3425SOL    HW111174   6.433   3.869   6.982
 3425SOL    HW211175   6.496   3.903   0.105
 3426SOL     OW11176   5.431   3.456   6.651
 3426SOL    HW111177   5.423   3.498   6.560
 3426SOL    HW211178   5.463   3.524   6.717
 3427SOL     OW11179   1.051   2.533   0.878
 3427SOL    HW111180   1.030   2.540   0.975
 3427SOL    HW211181   1.140   2.488   0.866
 3428SOL     OW11182   4.795   6.447   5.509
 3428SOL    HW111183   4.706   6.458   5.466
 3428SOL    HW211184   4.796   6.498   5.596
 3429SOL     OW11185   6.206   0.044   1.285
 3429SOL    HW111186   6.204   0.033   1.186
 3429SOL    HW211187   6.180   6.982   1.329
 3430SOL     OW11188   2.152   4.676   5.429
 3430SOL    HW111189   2.186   4.624   5.351
 3430SOL    HW211190   2.218   4.670   5.504
 3431SOL     OW11191   0.588   4.719   2.617
 3431SOL    HW111192   0.570   4.621   2.618
 3431SOL    HW211193   0.674   4.738   2.664
 3432SOL     OW11194   1.524   4.242   0.119
 3432SOL    HW111195   1.586   4.182   0.169
 3432SOL    HW211196   1.564   4.334   0.115
 3433SOL     OW11197   2.627   1.853   6.680
 3433SOL    HW111198   2.561   1.884   6.611
 3433SOL    HW211199   2.584   1.785   6.740
 3434SOL     OW11200   3.411   2.540   1.574
 3434SOL    HW111201   3.366   2.473   1.633
 3434SOL    HW211202   3.443   2.495   1.490
 3435SOL     OW11203   2.417   1.115   0.947
 3435SOL    HW111204   2.371   1.137   1.033
 3435SOL    HW211205   2.429   1.198   0.893
 3436SOL     OW11206   3.786   6.963   6.511
 3436SOL    HW111207   3.764   0.013   6.447
 3436SOL    HW211208   3.884   6.965   6.532
 3437SOL     OW11209   1.443   0.057   6.186
 3437SOL    HW111210   1.447   0.131   6.252
 3437SOL    HW211211   1.347   0.037   6.164
 3438SOL     OW11212   1.638   3.719   1.275
 3438SOL    HW111213   1.558   3.722   1.215
 3438SOL    HW211214   1.613   3.753   1.366
 3439SOL     OW11215   2.514   5.292   2.004
 3439SOL    HW111216   2.558   5.346   1.933
 3439SOL    HW211217   2.535   5.330   2.093
 3440SOL     OW11218   3.866   3.688   4.863
 3440SOL    HW111219   3.902   3.699   4.956
 3440SOL    HW211220   3.914   3.750   4.801
 3441SOL     OW11221   5.796   4.956   5.519
 3441SOL    HW111222   5.889   4.948   5.555
 3441SOL    HW211223   5.799   4.978   5.422
 3442SOL     OW11224   3.034   3.204   1.102
 3442SOL    HW111225   3.127   3.171   1.086
 3442SOL    HW211226   2.969   3.134   1.073
 3443SOL     OW11227   0.980   5.931   2.440
 3443SOL    HW111228   0.886   5.930   2.406
 3443SOL    HW211229   0.980   5.931   2.540
 3444SOL     OW11230   6.074   3.708   6.554
 3444SOL    HW111231   5.999   3.675   6.498
 3444SOL    HW211232   6.043   3.718   6.649
 3445SOL     OW11233   6.082   4.775   3.471
 3445SOL    HW111234   5.989   4.743   3.490
 3445SOL    HW211235   6.101   4.857   3.525
 3446SOL     OW11236   4.875   0.988   1.208
 3446SOL    HW111237   4.969   0.991   1.243
 3446SOL    HW211238   4.826   1.069   1.240
 3447SOL     OW11239   4.786   0.849   6.759
 3447SOL    HW111240   4.807   0.904   6.840
 3447SOL    HW211241   4.752   0.759   6.787
 3448SOL     OW11242   1.827   5.518   5.135
 3448SOL    HW111243   1.782   5.517   5.224
 3448SOL    HW211244   1.822   5.609   5.096
 3449SOL     OW11245   0.122   4.484   5.407
 3449SOL    HW111246   0.060   4.558   5.381
 3449SOL    HW211247   0.205   4.490   5.352
 3450SOL     OW11248   2.472   6.508   1.459
 3450SOL    HW111249   2.472   6.434   1.526
 3450SOL    HW211250   2.392   6.566   1.474
 3451SOL     OW11251   2.358   1.651   1.658
 3451SOL    HW111252   2.407   1.738   1.655
 3451SOL    HW211253   2.325   1.628   1.567
 3452SOL     OW11254   4.253   0.863   4.454
 3452SOL    HW111255   4.297   0.788   4.504
 3452SOL    HW211256   4.155   0.861   4.472
 3453SOL     OW11257   3.938   6.626   6.027
 3453SOL    HW111258   4.015   6.689   6.033
 3453SOL    HW211259   3.972   6.532   6.017
 3454SOL     OW11260   0.360   2.784   1.161
 3454SOL    HW111261   0.395   2.853   1.223
 3454SOL    HW211262   0.422   2.775   1.083
 3455SOL     OW11263   1.106   3.007   4.990
 3455SOL    HW111264   1.161   2.924   4.978
 3455SOL    HW211265   1.084   3.045   4.900
 3456SOL     OW11266   5.700   5.951   3.673
 3456SOL    HW111267   5.652   6.039   3.667
 3456SOL    HW211268   5.795   5.963   3.645
 3457SOL     OW11269   3.103   4.630   6.286
 3457SOL    HW111270   3.196   4.616   6.320
 3457SOL    HW211271   3.105   4.630   6.186
 3458SOL     OW11272   4.032   1.363   1.555
 3458SOL    HW111273   4.032   1.313   1.642
 3458SOL    HW211274   4.125   1.394   1.534
 3459SOL     OW11275   4.475   6.137   2.291
 3459SOL    HW111276   4.473   6.044   2.257
 3459SOL    HW211277   4.393   6.186   2.262
 3460SOL     OW11278   4.029   1.664   4.856
 3460SOL    HW111279   4.103   1.659   4.922
 3460SOL    HW211280   4.010   1.573   4.819
 3461SOL     OW11281   5.591   5.447   4.724
 3461SOL    HW111282   5.509   5.440   4.667
 3461SOL    HW211283   5.646   5.364   4.714
 3462SOL     OW11284   1.114   3.748   6.476
 3462SOL    HW111285   1.142   3.827   6.530
 3462SOL    HW211286   1.195   3.697   6.447
 3463SOL     OW11287   4.876   4.220   1.430
 3463SOL    HW111288   4.803   4.288   1.428
 3463SOL    HW211289   4.941   4.239   1.357
 3464SOL     OW11290   0.146   4.760   5.078
 3464SOL    HW111291   0.127   4.792   5.171
 3464SOL    HW211292   0.190   4.833   5.026
 3465SOL     OW11293   0.942   1.185   1.535
 3465SOL    HW111294   0.858   1.132   1.526
 3465SOL    HW211295   0.931   1.272   1.487
 3466SOL     OW11296   6.253   3.801   5.385
 3466SOL    HW111297   6.306   3.724   5.421
 3466SOL    HW211298   6.159   3.770   5.365
 3467SOL     OW11299   2.006   2.468   0.150
 3467SOL    HW111300   2.019   2.394   0.083
 3467SOL    HW211301   1.920   2.515   0.130
 3468SOL     OW11302   3.917   6.299   3.370
 3468SOL    HW111303   3.937   6.208   3.333
 3468SOL    HW211304   3.948   6.369   3.305
 3469SOL     OW11305   4.980   3.520   2.821
 3469SOL    HW111306   4.934   3.444   2.866
 3469SOL    HW211307   5.051   3.556   2.881
 3470SOL     OW11308   0.088   5.291   1.305
 3470SOL    HW111309   0.092   5.276   1.404
 3470SOL    HW211310   7.018   5.277   1.273
 3471SOL     OW11311   4.292   0.111   4.748
 3471SOL    HW111312   4.219   0.055   4.709
 3471SOL    HW211313   4.273   0.129   4.845
 3472SOL     OW11314   3.643   1.027   5.563
 3472SOL    HW111315   3.585   1.078   5.500
 3472SOL    HW211316   3.592   0.950   5.600
 3473SOL     OW11317   4.957   0.927   5.031
 3473SOL    HW111318   5.001   0.878   4.956
 3473SOL    HW211319   5.019   0.996   5.067
 3474SOL     OW11320   4.751   4.633   0.805
 3474SOL    HW111321   4.803   4.548   0.805
 3474SOL    HW211322   4.656   4.614   0.779
 3475SOL     OW11323   1.959   5.750   5.343
 3475SOL    HW111324   2.018   5.778   5.268
 3475SOL    HW211325   1.935   5.654   5.333
 3476SOL     OW11326   4.760   1.028   4.197
 3476SOL    HW111327   4.824   0.951   4.195
 3476SOL    HW211328   4.780   1.085   4.277
 3477SOL     OW11329   4.873   5.963   1.516
 3477SOL    HW111330   4.803   5.940   1.449
 3477SOL    HW211331   4.837   5.948   1.608
 3478SOL     OW11332   4.062   4.748   6.825
 3478SOL    HW111333   3.988   4.721   6.886
 3478SOL    HW211334   4.150   4.721   6.865
 3479SOL     OW11335   0.614   0.430   1.923
 3479SOL    HW111336   0.592   0.386   1.836
 3479SOL    HW211337   0.624   0.528   1.909
 3480SOL     OW11338   1.327   1.520   3.923
 3480SOL    HW111339   1.228   1.529   3.912
 3480SOL    HW211340   1.369   1.498   3.835
 3481SOL     OW11341   2.511   0.040   6.395
 3481SOL    HW111342   2.448   0.073   6.325
 3481SOL    HW211343   2.592   0.000   6.351
 3482SOL     OW11344   1.119   1.655   0.891
 3482SOL    HW111345   1.188   1.712   0.936
 3482SOL    HW211346   1.162   1.601   0.819
 3483SOL     OW11347   4.026   0.643   0.914
 3483SOL    HW111348   4.108   0.597   0.946
 3483SOL    HW211349   3.981   0.689   0.990
 3484SOL     OW11350   3.299   3.798   3.280
 3484SOL    HW111351   3.370   3.745   3.232
 3484SOL    HW211352   3.276   3.751   3.366
 3485SOL     OW11353   0.055   1.318   4.983
 3485SOL    HW111354   0.078   1.266   4.901
 3485SOL    HW211355   0.066   1.259   5.063
 3486SOL     OW11356   4.234   1.714   2.429
 3486SOL    HW111357   4.171   1.784   2.463
 3486SOL    HW211358   4.247   1.726   2.331
 3487SOL     OW11359   0.196   0.554   6.957
 3487SOL    HW111360   0.261   0.628   6.974
 3487SOL    HW211361   0.242   0.466   6.965
 3488SOL     OW11362   6.065   3.266   4.085
 3488SOL    HW111363   6.136   3.238   4.149
 3488SOL    HW211364   5.991   3.311   4.134
 3489SOL     OW11365   2.567   6.687   0.949
 3489SOL    HW111366   2.648   6.681   0.890
 3489SOL    HW211367   2.564   6.777   0.992
 3490SOL     OW11368   3.579   3.400   0.307
 3490SOL    HW111369   3.525   3.455   0.243
 3490SOL    HW211370   3.536   3.401   0.397
 3491SOL     OW11371   0.141   2.988   4.857
 3491SOL    HW111372   0.043   2.982   4.836
 3491SOL    HW211373   0.183   3.058   4.800
 3492SOL     OW11374   5.736   5.039   6.514
 3492SOL    HW111375   5.676   5.004   6.442
 3492SOL    HW211376   5.686   5.041   6.600
 3493SOL     OW11377   6.621   5.209   0.471
 3493SOL    HW111378   6.710   5.245   0.501
 3493SOL    HW211379   6.636   5.139   0.401
 3494SOL     OW11380   3.173   6.877   0.971
 3494SOL    HW111381   3.217   6.820   1.041
 3494SOL    HW211382   3.171   6.972   1.003
 3495SOL     OW11383   5.076   4.939   0.472
 3495SOL    HW111384   5.108   4.981   0.557
 3495SOL    HW211385   5.041   4.847   0.491
 3496SOL     OW11386   1.533   4.318   0.532
 3496SOL    HW111387   1.459   4.361   0.480
 3496SOL    HW211388   1.601   4.387   0.556
 3497SOL     OW11389   4.915   6.571   3.756
 3497SOL    HW111390   4.906   6.531   3.665
 3497SOL    HW211391   4.855   6.650   3.764
 3498SOL     OW11392   2.330   1.349   1.753
 3498SOL    HW111393   2.332   1.424   1.687
 3498SOL    HW211394   2.375   1.269   1.714
 3499SOL     OW11395   5.912   3.577   3.360
 3499SOL    HW111396   5.919   3.656   3.421
 3499SOL    HW211397   5.837   3.518   3.390
 3500SOL     OW11398   6.679   3.077   0.648
 3500SOL    HW111399   6.713   3.000   0.702
 3500SOL    HW211400   6.673   3.158   0.706
 3501SOL     OW11401   0.940   4.484   4.264
 3501SOL    HW111402   1.019   4.533   4.228
 3501SOL    HW211403   0.885   4.451   4.187
 3502SOL     OW11404   0.833   3.548   1.415
 3502SOL    HW111405   0.888   3.609   1.357
 3502SOL    HW211406   0.766   3.500   1.359
 3503SOL     OW11407   4.945   6.237   3.797
 3503SOL    HW111408   4.911   6.308   3.858
 3503SOL    HW211409   4.975   6.158   3.850
 3504SOL     OW11410   2.103   3.266   2.668
 3504SOL    HW111411   2.065   3.302   2.583
 3504SOL    HW211412   2.050   3.300   2.745
 3505SOL     OW11413   4.638   5.383   4.972
 3505SOL    HW111414   4.574   5.371   4.895
 3505SOL    HW211415   4.661   5.480   4.980
 3506SOL     OW11416   5.590   5.234   2.330
 3506SOL    HW111417   5.606   5.332   2.314
 3506SOL    HW211418   5.554   5.193   2.246
 3507SOL     OW11419   0.412   0.672   6.025
 3507SOL    HW111420   0.501   0.629   6.039
 3507SOL    HW211421   0.343   0.626   6.081
 3508SOL     OW11422   6.285   3.171   6.409
 3508SOL    HW111423   6.247   3.083   6.439
 3508SOL    HW211424   6.294   3.171   6.310
 3509SOL     OW11425   6.904   6.271   1.180
 3509SOL    HW111426   6.945   6.255   1.090
 3509SOL    HW211427   6.966   6.327   1.235
 3510SOL     OW11428   1.815   3.058   1.993
 3510SOL    HW111429   1.824   3.017   2.084
 3510SOL    HW211430   1.752   3.003   1.938
 3511SOL     OW11431   0.738   1.149   5.427
 3511SOL    HW111432   0.794   1.066   5.414
 3511SOL    HW211433   0.643   1.128   5.405
 3512SOL     OW11434   3.359   3.446   1.214
 3512SOL    HW111435   3.281   3.497   1.178
 3512SOL    HW211436   3.329   3.384   1.286
 3513SOL     OW11437   5.881   4.882   1.147
 3513SOL    HW111438   5.921   4.943   1.215
 3513SOL    HW211439   5.842   4.802   1.192
 3514SOL     OW11440   1.287   7.020   1.565
 3514SOL    HW111441   1.350   0.071   1.548
 3514SOL    HW211442   1.227   7.008   1.486
 3515SOL     OW11443   3.209   6.230   3.378
 3515SOL    HW111444   3.174   6.137   3.382
 3515SOL    HW211445   3.184   6.272   3.291
 3516SOL     OW11446   2.907   1.062   0.466
 3516SOL    HW111447   2.896   0.991   0.535
 3516SOL    HW211448   2.855   1.143   0.493
 3517SOL     OW11449   0.849   0.787   6.608
 3517SOL    HW111450   0.755   0.817   6.591
 3517SOL    HW211451   0.913   0.859   6.580
 3518SOL     OW11452   4.396   2.968   6.046
 3518SOL    HW111453   4.314   2.919   6.019
 3518SOL    HW211454   4.457   2.978   5.967
 3519SOL     OW11455   2.169   6.837   1.127
 3519SOL    HW111456   2.189   6.851   1.224
 3519SOL    HW211457   2.081   6.879   1.105
 3520SOL     OW11458   3.912   5.421   1.327
 3520SOL    HW111459   3.979   5.468   1.270
 3520SOL    HW211460   3.841   5.485   1.356
 3521SOL     OW11461   5.441   2.349   0.557
 3521SOL    HW111462   5.388   2.414   0.610
 3521SOL    HW211463   5.508   2.397   0.501
 3522SOL     OW11464   2.979   5.436   1.910
 3522SOL    HW111465   3.036   5.398   1.837
 3522SOL    HW211466   2.927   5.362   1.954
 3523SOL     OW11467   1.903   5.141   5.635
 3523SOL    HW111468   1.917   5.044   5.658
 3523SOL    HW211469   1.908   5.153   5.536
 3524SOL     OW11470   2.589   6.670   1.706
 3524SOL    HW111471   2.647   6.628   1.776
 3524SOL    HW211472   2.586   6.611   1.625
 3525SOL     OW11473   1.574   3.000   2.399
 3525SOL    HW111474   1.481   2.992   2.435
 3525SOL    HW211475   1.578   2.958   2.308
 3526SOL     OW11476   2.723   0.464   3.033
 3526SOL    HW111477   2.767   0.374   3.038
 3526SOL    HW211478   2.647   0.460   2.967
 3527SOL     OW11479   4.613   3.257   5.895
 3527SOL    HW111480   4.639   3.302   5.980
 3527SOL    HW211481   4.681   3.187   5.872
 3528SOL     OW11482   0.892   6.611   4.526
 3528SOL    HW111483   0.840   6.587   4.608
 3528SOL    HW211484   0.982   6.646   4.552
 3529SOL     OW11485   3.680   5.961   0.091
 3529SOL    HW111486   3.625   5.952   0.007
 3529SOL    HW211487   3.686   5.872   0.136
 3530SOL     OW11488   1.559   5.518   2.869
 3530SOL    HW111489   1.502   5.547   2.946
 3530SOL    HW211490   1.655   5.528   2.892
 3531SOL     OW11491   4.369   3.898   6.742
 3531SOL    HW111492   4.395   3.863   6.832
 3531SOL    HW211493   4.270   3.912   6.739
 3532SOL     OW11494   1.939   6.806   0.197
 3532SOL    HW111495   1.978   6.719   0.165
 3532SOL    HW211496   1.852   6.788   0.243
 3533SOL     OW11497   1.455   1.384   3.713
 3533SOL    HW111498   1.406   1.315   3.765
 3533SOL    HW211499   1.545   1.349   3.688
 3534SOL     OW11500   5.198   1.064   5.103
 3534SOL    HW111501   5.272   1.122   5.069
 3534SOL    HW211502   5.228   0.969   5.103
 3535SOL     OW11503   4.321   6.252   6.865
 3535SOL    HW111504   4.412   6.253   6.908
 3535SOL    HW211505   4.286   6.159   6.862
 3536SOL     OW11506   0.977   4.476   3.245
 3536SOL    HW111507   1.056   4.430   3.204
 3536SOL    HW211508   0.981   4.574   3.223
 3537SOL     OW11509   2.425   5.082   0.343
 3537SOL    HW111510   2.391   5.174   0.326
 3537SOL    HW211511   2.383   5.045   0.426
 3538SOL     OW11512   2.798   0.590   4.474
 3538SOL    HW111513   2.718   0.612   4.529
 3538SOL    HW211514   2.848   0.674   4.453
 3539SOL     OW11515   5.297   5.937   6.641
 3539SOL    HW111516   5.303   6.033   6.667
 3539SOL    HW211517   5.383   5.891   6.663
 3540SOL     OW11518   2.932   4.187   6.494
 3540SOL    HW111519   2.836   4.174   6.470
 3540SOL    HW211520   2.953   4.137   6.577
 3541SOL     OW11521   1.975   3.032   1.680
 3541SOL    HW111522   2.043   3.050   1.751
 3541SOL    HW211523   2.015   2.970   1.612
 3542SOL     OW11524   5.525   1.516   6.335
 3542SOL    HW111525   5.487   1.525   6.427
 3542SOL    HW211526   5.460   1.467   6.277
 3543SOL     OW11527   0.361   2.186   3.528
 3543SOL    HW111528   0.366   2.281   3.558
 3543SOL    HW211529   0.294   2.178   3.454
 3544SOL     OW11530   3.252   3.981   6.780
 3544SOL    HW111531   3.248   3.917   6.857
 3544SOL    HW211532   3.286   4.069   6.813
 3545SOL     OW11533   3.609   6.262   1.496
 3545SOL    HW111534   3.702   6.279   1.463
 3545SOL    HW211535   3.609   6.259   1.596
 3546SOL     OW11536   6.955   4.686   2.454
 3546SOL    HW111537   6.908   4.744   2.521
 3546SOL    HW211538   6.888   4.649   2.390
 3547SOL     OW11539   0.605   3.718   4.989
 3547SOL    HW111540   0.509   3.714   5.016
 3547SOL    HW211541   0.633   3.630   4.953
 3548SOL     OW11542   5.652   0.541   5.442
 3548SOL    HW111543   5.613   0.625   5.478
 3548SOL    HW211544   5.750   0.539   5.461
 3549SOL     OW11545   2.721   6.963   0.385
 3549SOL    HW111546   2.686   6.935   0.475
 3549SOL    HW211547   2.653   6.942   0.315
 3550SOL     OW11548   5.572   0.776   5.065
 3550SOL    HW111549   5.495   0.782   5.128
 3550SOL    HW211550   5.540   0.743   4.976
 3551SOL     OW11551   4.466   2.180   4.739
 3551SOL    HW111552   4.461   2.080   4.742
 3551SOL    HW211553   4.534   2.212   4.805
 3552SOL     OW11554   6.752   6.795   3.375
 3552SOL    HW111555   6.703   6.811   3.461
 3552SOL    HW211556   6.814   6.871   3.357
 3553SOL     OW11557   5.560   5.910   6.720
 3553SOL    HW111558   5.598   5.817   6.730
 3553SOL    HW211559   5.537   5.946   6.811
 3554SOL     OW11560   5.729   3.710   0.426
 3554SOL    HW111561   5.732   3.788   0.364
 3554SOL    HW211562   5.807   3.650   0.407
 3555SOL     OW11563   3.174   2.118   4.807
 3555SOL    HW111564   3.203   2.026   4.832
 3555SOL    HW211565   3.203   2.183   4.877
 3556SOL     OW11566   5.666   1.177   5.626
 3556SOL    HW111567   5.743   1.136   5.578
 3556SOL    HW211568   5.644   1.266   5.585
 3557SOL     OW11569   5.813   0.280   0.909
 3557SOL    HW111570   5.834   0.375   0.886
 3557SOL    HW211571   5.878   0.219   0.862
 3558SOL     OW11572   3.546   5.507   1.988
 3558SOL    HW111573   3.473   5.557   2.036
 3558SOL    HW211574   3.514   5.415   1.965
 3559SOL     OW11575   4.885   6.861   5.558
 3559SOL    HW111576   4.807   6.887   5.614
 3559SOL    HW211577   4.952   6.812   5.615
 3560SOL     OW11578   2.051   5.038   3.895
 3560SOL    HW111579   1.987   4.984   3.950
 3560SOL    HW211580   2.017   5.046   3.801
 3561SOL     OW11581   4.605   3.813   5.297
 3561SOL    HW111582   4.535   3.796   5.367
 3561SOL    HW211583   4.626   3.727   5.249
 3562SOL     OW11584   2.006   1.680   5.900
 3562SOL    HW111585   1.971   1.622   5.973
 3562SOL    HW211586   1.975   1.646   5.812
 3563SOL     OW11587   6.285   2.955   4.988
 3563SOL    HW111588   6.282   2.891   5.065
 3563SOL    HW211589   6.199   2.950   4.937
 3564SOL     OW11590   5.948   3.604   1.623
 3564SOL    HW111591   5.864   3.573   1.580
 3564SOL    HW211592   5.955   3.565   1.715
 3565SOL     OW11593   3.865   6.241   3.863
 3565SOL    HW111594   3.904   6.266   3.774
 3565SOL    HW211595   3.777   6.197   3.849
 3566SOL     OW11596   1.606   6.637   5.059
 3566SOL    HW111597   1.703   6.617   5.075
 3566SOL    HW211598   1.551   6.596   5.132
 3567SOL     OW11599   6.728   3.449   6.183
 3567SOL    HW111600   6.762   3.366   6.139
 3567SOL    HW211601   6.794   3.479   6.252
 3568SOL     OW11602   5.333   4.052   6.437
 3568SOL    HW111603   5.312   4.065   6.340
 3568SOL    HW211604   5.332   3.955   6.459
 3569SOL     OW11605   2.064   1.256   4.503
 3569SOL    HW111606   2.112   1.181   4.459
 3569SOL    HW211607   2.130   1.316   4.548
 3570SOL     OW11608   6.167   1.988   3.913
 3570SOL    HW111609   6.127   2.029   3.831
 3570SOL    HW211610   6.254   2.033   3.935
 3571SOL     OW11611   6.520   6.143   5.602
 3571SOL    HW111612   6.439   6.196   5.578
 3571SOL    HW211613   6.534   6.147   5.701
 3572SOL     OW11614   6.254   5.812   4.187
 3572SOL    HW111615   6.179   5.872   4.216
 3572SOL    HW211616   6.337   5.838   4.237
 3573SOL     OW11617   1.135   2.418   2.888
 3573SOL    HW111618   1.153   2.350   2.817
 3573SOL    HW211619   1.126   2.508   2.846
 3574SOL     OW11620   6.911   3.885   0.697
 3574SOL    HW111621   6.966   3.967   0.682
 3574SOL    HW211622   6.950   3.832   0.772
 3575SOL     OW11623   6.404   5.271   1.616
 3575SOL    HW111624   6.340   5.318   1.676
 3575SOL    HW211625   6.457   5.205   1.669
 3576SOL     OW11626   0.205   1.697   6.132
 3576SOL    HW111627   0.173   1.670   6.223
 3576SOL    HW211628   0.210   1.796   6.126
 3577SOL     OW11629   1.502   2.846   0.143
 3577SOL    HW111630   1.426   2.898   0.105
 3577SOL    HW211631   1.575   2.838   0.076
 3578SOL     OW11632   3.932   5.334   0.892
 3578SOL    HW111633   3.867   5.281   0.837
 3578SOL    HW211634   3.974   5.405   0.835
 3579SOL     OW11635   6.992   4.574   4.711
 3579SOL    HW111636   6.892   4.567   4.708
 3579SOL    HW211637   7.020   4.669   4.696
 3580SOL     OW11638   6.683   2.070   2.156
 3580SOL    HW111639   6.750   1.997   2.147
 3580SOL    HW211640   6.709   2.147   2.097
 3581SOL     OW11641   6.761   0.676   2.908
 3581SOL    HW111642   6.823   0.678   2.829
 3581SOL    HW211643   6.803   0.620   2.981
 3582SOL     OW11644   0.951   0.860   5.675
 3582SOL    HW111645   0.989   0.916   5.748
 3582SOL    HW211646   0.963   0.763   5.697
 3583SOL     OW11647   1.825   5.646   0.512
 3583SOL    HW111648   1.820   5.649   0.412
 3583SOL    HW211649   1.881   5.722   0.545
 3584SOL     OW11650   4.350   6.299   6.010
 3584SOL    HW111651   4.397   6.260   6.090
 3584SOL    HW211652   4.329   6.225   5.946
 3585SOL     OW11653   2.580   5.054   3.689
 3585SOL    HW111654   2.490   5.015   3.710
 3585SOL    HW211655   2.646   5.025   3.759
 3586SOL     OW11656   6.877   2.176   6.120
 3586SOL    HW111657   6.947   2.222   6.174
 3586SOL    HW211658   6.846   2.094   6.168
 3587SOL     OW11659   4.044   7.020   6.505
 3587SOL    HW111660   4.089   6.998   6.418
 3587SOL    HW211661   4.042   0.096   6.516
 3588SOL     OW11662   1.781   1.031   5.776
 3588SOL    HW111663   1.801   1.017   5.679
 3588SOL    HW211664   1.712   1.103   5.786
 3589SOL     OW11665   3.573   0.826   5.160
 3589SOL    HW111666   3.656   0.790   5.201
 3589SOL    HW211667   3.551   0.774   5.077
 3590SOL     OW11668   2.211   5.472   6.377
 3590SOL    HW111669   2.297   5.522   6.376
 3590SOL    HW211670   2.197   5.429   6.288
 3591SOL     OW11671   5.391   2.416   5.297
 3591SOL    HW111672   5.343   2.484   5.241
 3591SOL    HW211673   5.432   2.461   5.376
 3592SOL     OW11674   4.726   2.775   2.171
 3592SOL    HW111675   4.763   2.699   2.117
 3592SOL    HW211676   4.752   2.862   2.129
 3593SOL     OW11677   1.505   4.998   3.468
 3593SOL    HW111678   1.599   5.015   3.438
 3593SOL    HW211679   1.488   5.045   3.555
 3594SOL     OW11680   3.378   1.037   4.321
 3594SOL    HW111681   3.330   1.101   4.381
 3594SOL    HW211682   3.344   1.046   4.227
 3595SOL     OW11683   3.074   5.779   5.289
 3595SOL    HW111684   3.081   5.735   5.379
 3595SOL    HW211685   3.043   5.873   5.300
 3596SOL     OW11686   6.891   2.909   3.010
 3596SOL    HW111687   6.935   2.820   3.000
 3596SOL    HW211688   6.843   2.914   3.097
 3597SOL     OW11689   3.651   5.509   4.053
 3597SOL    HW111690   3.729   5.498   3.991
 3597SOL    HW211691   3.649   5.603   4.087
 3598SOL     OW11692   0.997   0.002   6.682
 3598SOL    HW111693   1.026   0.094   6.708
 3598SOL    HW211694   0.906   7.008   6.719
 3599SOL     OW11695   0.225   1.543   4.192
 3599SOL    HW111696   0.211   1.472   4.261
 3599SOL    HW211697   0.276   1.619   4.231
 3600SOL     OW11698   5.748   1.114   0.665
 3600SOL    HW111699   5.805   1.189   0.630
 3600SOL    HW211700   5.667   1.104   0.607
 3601SOL     OW11701   6.478   3.870   6.162
 3601SOL    HW111702   6.472   3.771   6.150
 3601SOL    HW211703   6.386   3.910   6.155
 3602SOL     OW11704   2.099   1.440   0.321
 3602SOL    HW111705   2.089   1.448   0.222
 3602SOL    HW211706   2.195   1.430   0.345
 3603SOL     OW11707   4.390   4.988   4.618
 3603SOL    HW111708   4.372   4.890   4.626
 3603SOL    HW211709   4.418   5.009   4.525
 3604SOL     OW11710   0.357   2.708   2.953
 3604SOL    HW111711   0.348   2.613   2.982
 3604SOL    HW211712   0.364   2.712   2.853
 3605SOL     OW11713   5.993   3.731   6.828
 3605SOL    HW111714   5.984   3.828   6.851
 3605SOL    HW211715   6.004   3.678   6.912
 3606SOL     OW11716   0.741   4.474   4.616
 3606SOL    HW111717   0.747   4.463   4.716
 3606SOL    HW211718   0.681   4.403   4.579
 3607SOL     OW11719   5.283   6.815   6.878
 3607SOL    HW111720   5.293   6.907   6.916
 3607SOL    HW211721   5.234   6.757   6.942
 3608SOL     OW11722   0.772   2.547   2.387
 3608SOL    HW111723   0.753   2.626   2.329
 3608SOL    HW211724   0.757   2.571   2.483
 3609SOL     OW11725   6.922   0.345   4.873
 3609SOL    HW111726   6.935   0.389   4.962
 3609SOL    HW211727   7.011   0.320   4.835
 3610SOL     OW11728   1.371   6.683   5.588
 3610SOL    HW111729   1.319   6.765   5.566
 3610SOL    HW211730   1.316   6.622   5.644
 3611SOL     OW11731   3.749   5.421   5.320
 3611SOL    HW111732   3.752   5.422   5.220
 3611SOL    HW211733   3.655   5.404   5.350
 3612SOL     OW11734   1.031   0.230   1.349
 3612SOL    HW111735   1.043   0.256   1.253
 3612SOL    HW211736   1.076   0.298   1.408
 3613SOL     OW11737   5.107   5.591   6.399
 3613SOL    HW111738   5.180   5.528   6.426
 3613SOL    HW211739   5.141   5.685   6.400
 3614SOL     OW11740   3.319   2.984   3.378
 3614SOL    HW111741   3.323   2.959   3.282
 3614SOL    HW211742   3.400   2.948   3.425
 3615SOL     OW11743   6.349   6.228   6.289
 3615SOL    HW111744   6.277   6.174   6.333
 3615SOL    HW211745   6.316   6.262   6.201
 3616SOL     OW11746   0.192   2.051   5.634
 3616SOL    HW111747   0.274   2.010   5.593
 3616SOL    HW211748   0.113   2.031   5.577
 3617SOL     OW11749   6.782   1.290   6.367
 3617SOL    HW111750   6.752   1.195   6.376
 3617SOL    HW211751   6.881   1.292   6.354
 3618SOL     OW11752   2.351   2.147   6.609
 3618SOL    HW111753   2.367   2.055   6.573
 3618SOL    HW211754   2.430   2.205   6.592
 3619SOL     OW11755   5.873   2.068   4.375
 3619SOL    HW111756   5.777   2.041   4.378
 3619SOL    HW211757   5.925   1.999   4.325
 3620SOL     OW11758   6.277   6.614   5.467
 3620SOL    HW111759   6.339   6.555   5.415
 3620SOL    HW211760   6.187   6.572   5.472
 3621SOL     OW11761   1.825   3.700   5.790
 3621SOL    HW111762   1.875   3.616   5.811
 3621SOL    HW211763   1.739   3.701   5.841
 3622SOL     OW11764   0.536   2.811   1.540
 3622SOL    HW111765   0.597   2.781   1.466
 3622SOL    HW211766   0.553   2.754   1.621
 3623SOL     OW11767   5.803   4.741   3.581
 3623SOL    HW111768   5.759   4.686   3.652
 3623SOL    HW211769   5.733   4.774   3.517
 3624SOL     OW11770   2.753   6.778   2.104
 3624SOL    HW111771   2.789   6.870   2.113
 3624SOL    HW211772   2.811   6.714   2.155
 3625SOL     OW11773   6.759   3.643   4.780
 3625SOL    HW111774   6.809   3.563   4.749
 3625SOL    HW211775   6.668   3.643   4.739
 3626SOL     OW11776   2.492   3.699   5.335
 3626SOL    HW111777   2.477   3.786   5.287
 3626SOL    HW211778   2.418   3.636   5.312
 3627SOL     OW11779   3.027   3.926   3.289
 3627SOL    HW111780   3.002   3.942   3.193
 3627SOL    HW211781   3.120   3.888   3.293
 3628SOL     OW11782   2.649   5.030   2.126
 3628SOL    HW111783   2.698   5.117   2.125
 3628SOL    HW211784   2.576   5.032   2.058
 3629SOL     OW11785   6.106   1.984   5.495
 3629SOL    HW111786   6.015   1.946   5.514
 3629SOL    HW211787   6.112   2.010   5.399
 3630SOL     OW11788   6.382   2.021   4.399
 3630SOL    HW111789   6.387   1.979   4.308
 3630SOL    HW211790   6.303   2.083   4.403
 3631SOL     OW11791   2.559   1.181   4.793
 3631SOL    HW111792   2.576   1.279   4.788
 3631SOL    HW211793   2.460   1.164   4.800
 3632SOL     OW11794   4.873   0.944   0.556
 3632SOL    HW111795   4.790   0.956   0.502
 3632SOL    HW211796   4.854   0.886   0.635
 3633SOL     OW11797   1.965   3.182   5.716
 3633SOL    HW111798   2.043   3.243   5.701
 3633SOL    HW211799   1.992   3.088   5.695
 3634SOL     OW11800   1.823   6.218   5.152
 3634SOL    HW111801   1.729   6.188   5.135
 3634SOL    HW211802   1.853   6.276   5.076
 3635SOL     OW11803   2.494   1.427   5.673
 3635SOL    HW111804   2.561   1.372   5.723
 3635SOL    HW211805   2.541   1.497   5.619
 3636SOL     OW11806   0.790   5.079   5.817
 3636SOL    HW111807   0.844   5.090   5.734
 3636SOL    HW211808   0.826   5.002   5.870
 3637SOL     OW11809   5.561   1.171   1.675
 3637SOL    HW111810   5.560   1.073   1.656
 3637SOL    HW211811   5.546   1.222   1.590
 3638SOL     OW11812   0.156   4.253   3.433
 3638SOL    HW111813   0.120   4.160   3.421
 3638SOL    HW211814   0.231   4.251   3.498
 3639SOL     OW11815   2.588   4.971   0.729
 3639SOL    HW111816   2.582   4.877   0.762
 3639SOL    HW211817   2.496   5.008   0.714
 3640SOL     OW11818   3.266   5.937   1.197
 3640SOL    HW111819   3.182   5.967   1.152
 3640SOL    HW211820   3.319   5.879   1.135
 3641SOL     OW11821   2.686   1.516   4.748
 3641SOL    HW111822   2.681   1.573   4.831
 3641SOL    HW211823   2.775   1.471   4.744
 3642SOL     OW11824   5.375   0.616   4.052
 3642SOL    HW111825   5.279   0.595   4.036
 3642SOL    HW211826   5.389   0.715   4.044
 3643SOL     OW11827   2.966   4.860   4.866
 3643SOL    HW111828   3.053   4.881   4.911
 3643SOL    HW211829   2.906   4.812   4.929
 3644SOL     OW11830   6.959   0.797   0.887
 3644SOL    HW111831   6.896   0.768   0.815
 3644SOL    HW211832   7.010   0.719   0.921
 3645SOL     OW11833   4.300   0.859   3.594
 3645SOL    HW111834   4.327   0.949   3.626
 3645SOL    HW211835   4.373   0.793   3.614
 3646SOL     OW11836   6.615   5.147   5.671
 3646SOL    HW111837   6.645   5.147   5.766
 3646SOL    HW211838   6.604   5.241   5.639
 3647SOL     OW11839   1.929   3.160   1.309
 3647SOL    HW111840   1.955   3.082   1.251
 3647SOL    HW211841   1.851   3.134   1.366
 3648SOL     OW11842   3.537   5.725   2.241
 3648SOL    HW111843   3.596   5.771   2.174
 3648SOL    HW211844   3.477   5.793   2.284
 3649SOL     OW11845   3.998   3.244   0.650
 3649SOL    HW111846   4.037   3.226   0.560
 3649SOL    HW211847   4.051   3.196   0.719
 3650SOL     OW11848   0.811   6.014   1.606
 3650SOL    HW111849   0.759   6.007   1.692
 3650SOL    HW211850   0.803   5.928   1.555
 3651SOL     OW11851   1.255   5.926   2.602
 3651SOL    HW111852   1.202   5.983   2.539
 3651SOL    HW211853   1.276   5.979   2.685
 3652SOL     OW11854   4.559   5.754   3.278
 3652SOL    HW111855   4.546   5.846   3.239
 3652SOL    HW211856   4.511   5.687   3.220
 3653SOL     OW11857   0.066   1.561   2.657
 3653SOL    HW111858   0.027   1.650   2.632
 3653SOL    HW211859   0.000   1.489   2.638
 3654SOL     OW11860   1.469   6.806   1.170
 3654SOL    HW111861   1.404   6.775   1.239
 3654SOL    HW211862   1.556   6.829   1.214
 3655SOL     OW11863   1.867   0.632   4.660
 3655SOL    HW111864   1.897   0.545   4.622
 3655SOL    HW211865   1.811   0.680   4.593
 3656SOL     OW11866   1.969   2.640   2.180
 3656SOL    HW111867   2.027   2.570   2.138
 3656SOL    HW211868   1.950   2.712   2.114
 3657SOL     OW11869   4.025   5.700   0.940
 3657SOL    HW111870   4.093   5.665   1.004
 3657SOL    HW211871   3.949   5.740   0.991
 3658SOL     OW11872   0.929   6.346   5.555
 3658SOL    HW111873   0.833   6.355   5.580
 3658SOL    HW211874   0.981   6.311   5.632
 3659SOL     OW11875   2.263   4.473   6.938
 3659SOL    HW111876   2.326   4.543   6.903
 3659SOL    HW211877   2.308   4.421   7.011
 3660SOL     OW11878   4.509   5.873   2.245
 3660SOL    HW111879   4.439   5.808   2.215
 3660SOL    HW211880   4.589   5.865   2.186
 3661SOL     OW11881   5.059   1.218   0.207
 3661SOL    HW111882   5.133   1.203   0.274
 3661SOL    HW211883   4.981   1.261   0.252
 3662SOL     OW11884   3.274   0.232   5.386
 3662SOL    HW111885   3.175   0.218   5.387
 3662SOL    HW211886   3.318   0.158   5.336
 3663SOL     OW11887   1.768   2.596   0.070
 3663SOL    HW111888   1.677   2.564   0.046
 3663SOL    HW211889   1.781   2.689   0.037
 3664SOL     OW11890   5.240   1.560   0.571
 3664SOL    HW111891   5.298   1.526   0.646
 3664SOL    HW211892   5.163   1.611   0.609
 3665SOL     OW11893   0.615   0.337   5.107
 3665SOL    HW111894   0.550   0.399   5.150
 3665SOL    HW211895   0.634   0.367   5.014
 3666SOL     OW11896   1.906   3.958   4.483
 3666SOL    HW111897   1.951   4.026   4.424
 3666SOL    HW211898   1.876   4.002   4.567
 3667SOL     OW11899   6.334   1.152   6.359
 3667SOL    HW111900   6.241   1.128   6.330
 3667SOL    HW211901   6.398   1.131   6.285
 3668SOL     OW11902   1.383   6.915   2.574
 3668SOL    HW111903   1.414   6.872   2.489
 3668SOL    HW211904   1.357   6.845   2.640
 3669SOL     OW11905   6.885   2.846   3.350
 3669SOL    HW111906   6.808   2.911   3.356
 3669SOL    HW211907   6.863   2.765   3.405
 3670SOL     OW11908   2.262   5.596   5.477
 3670SOL    HW111909   2.215   5.538   5.411
 3670SOL    HW211910   2.211   5.681   5.488
 3671SOL     OW11911   0.945   0.494   3.335
 3671SOL    HW111912   0.976   0.575   3.385
 3671SOL    HW211913   0.963   0.413   3.390
 3672SOL     OW11914   6.726   0.720   0.237
 3672SOL    HW111915   6.761   0.649   0.297
 3672SOL    HW211916   6.637   0.692   0.201
 3673SOL     OW11917   4.853   0.788   0.153
 3673SOL    HW111918   4.875   0.727   0.076
 3673SOL    HW211919   4.930   0.848   0.170
 3674SOL     OW11920   1.236   7.011   0.451
 3674SOL    HW111921   1.169   6.939   0.434
 3674SOL    HW211922   1.189   0.073   0.470
 3675SOL     OW11923   2.381   2.442   5.231
 3675SOL    HW111924   2.307   2.402   5.177
 3675SOL    HW211925   2.349   2.526   5.274
 3676SOL     OW11926   3.114   5.390   3.982
 3676SOL    HW111927   3.154   5.406   4.072
 3676SOL    HW211928   3.031   5.444   3.972
 3677SOL     OW11929   6.454   6.556   4.026
 3677SOL    HW111930   6.523   6.586   4.091
 3677SOL    HW211931   6.497   6.530   3.940
 3678SOL     OW11932   1.563   2.045   3.636
 3678SOL    HW111933   1.659   2.027   3.658
 3678SOL    HW211934   1.558   2.109   3.559
 3679SOL     OW11935   0.308   0.570   1.804
 3679SOL    HW111936   0.373   0.631   1.849
 3679SOL    HW211937   0.219   0.616   1.797
 3680SOL     OW11938   6.959   3.223   3.670
 3680SOL    HW111939   7.017   3.147   3.697
 3680SOL    HW211940   6.865   3.191   3.658
 3681SOL     OW11941   0.203   6.541   6.174
 3681SOL    HW111942   0.297   6.570   6.193
 3681SOL    HW211943   0.143   6.569   6.250
 3682SOL     OW11944   6.507   2.016   5.855
 3682SOL    HW111945   6.601   2.048   5.866
 3682SOL    HW211946   6.506   1.934   5.798
 3683SOL     OW11947   6.183   6.460   4.462
 3683SOL    HW111948   6.101   6.431   4.413
 3683SOL    HW211949   6.240   6.515   4.402
 3684SOL     OW11950   1.066   3.628   1.928
 3684SOL    HW111951   1.101   3.536   1.908
 3684SOL    HW211952   1.073   3.645   2.027
 3685SOL     OW11953   6.158   6.273   0.136
 3685SOL    HW111954   6.120   6.365   0.145
 3685SOL    HW211955   6.256   6.280   0.115
 3686SOL     OW11956   6.754   4.467   1.799
 3686SOL    HW111957   6.686   4.423   1.740
 3686SOL    HW211958   6.844   4.427   1.781
 3687SOL     OW11959   3.714   0.575   6.815
 3687SOL    HW111960   3.636   0.549   6.872
 3687SOL    HW211961   3.798   0.565   6.867
 3688SOL     OW11962   1.339   3.332   7.020
 3688SOL    HW111963   1.425   3.380   0.014
 3688SOL    HW211964   1.263   3.388   0.026
 3689SOL     OW11965   1.767   1.110   4.289
 3689SOL    HW111966   1.783   1.015   4.319
 3689SOL    HW211967   1.730   1.163   4.365
 3690SOL     OW11968   5.391   0.361   5.860
 3690SOL    HW111969   5.406   0.358   5.959
 3690SOL    HW211970   5.439   0.440   5.822
 3691SOL     OW11971   2.814   3.364   0.584
 3691SOL    HW111972   2.733   3.318   0.547
 3691SOL    HW211973   2.850   3.312   0.661
 3692SOL     OW11974   2.022   0.074   4.904
 3692SOL    HW111975   2.036   0.160   4.953
 3692SOL    HW211976   2.105   0.049   4.854
 3693SOL     OW11977   2.886   2.093   3.224
 3693SOL    HW111978   2.950   2.017   3.234
 3693SOL    HW211979   2.865   2.130   3.314
 3694SOL     OW11980   1.853   5.846   3.548
 3694SOL    HW111981   1.870   5.850   3.450
 3694SOL    HW211982   1.825   5.936   3.581
 3695SOL     OW11983   2.175   1.858   2.469
 3695SOL    HW111984   2.245   1.801   2.512
 3695SOL    HW211985   2.196   1.869   2.372
 3696SOL     OW11986   4.368   0.105   5.937
 3696SOL    HW111987   4.410   0.154   5.860
 3696SOL    HW211988   4.276   0.140   5.952
 3697SOL     OW11989   6.615   6.667   3.649
 3697SOL    HW111990   6.533   6.668   3.591
 3697SOL    HW211991   6.607   6.738   3.718
 3698SOL     OW11992   3.038   7.018   5.677
 3698SOL    HW111993   3.133   6.992   5.696
 3698SOL    HW211994   3.006   0.055   5.749
 3699SOL     OW11995   6.791   3.983   2.712
 3699SOL    HW111996   6.741   3.896   2.713
 3699SOL    HW211997   6.847   3.988   2.629
 3700SOL     OW11998   6.983   0.352   4.324
 3700SOL    HW111999   6.910   0.415   4.346
 3700SOL    HW212000   6.953   0.258   4.343
 3701SOL     OW12001   6.128   0.995   4.722
 3701SOL    HW112002   6.144   1.032   4.630
 3701SOL    HW212003   6.136   0.895   4.719
 3702SOL     OW12004   4.119   0.691   0.652
 3702SOL    HW112005   4.123   0.649   0.743
 3702SOL    HW212006   4.069   0.777   0.658
 3703SOL     OW12007   3.710   4.207   6.453
 3703SOL    HW112008   3.735   4.292   6.499
 3703SOL    HW212009   3.612   4.191   6.464
 3704SOL     OW12010   2.973   0.621   2.942
 3704SOL    HW112011   2.884   0.578   2.962
 3704SOL    HW212012   3.046   0.555   2.959
 3705SOL     OW12013   5.267   0.476   3.676
 3705SOL    HW112014   5.348   0.489   3.619
 3705SOL    HW212015   5.266   0.382   3.712
 3706SOL     OW12016   1.783   2.696   4.257
 3706SOL    HW112017   1.847   2.755   4.306
 3706SOL    HW212018   1.692   2.704   4.297
 3707SOL     OW12019   5.246   2.542   5.970
 3707SOL    HW112020   5.203   2.632   5.979
 3707SOL    HW212021   5.219   2.501   5.883
 3708SOL     OW12022   6.259   0.389   6.428
 3708SOL    HW112023   6.316   0.471   6.426
 3708SOL    HW212024   6.309   0.314   6.472
 3709SOL     OW12025   3.625   0.894   6.167
 3709SOL    HW112026   3.572   0.838   6.103
 3709SOL    HW212027   3.563   0.957   6.215
 3710SOL     OW12028   6.775   5.034   0.745
 3710SOL    HW112029   6.723   5.110   0.783
 3710SOL    HW212030   6.712   4.972   0.697
 3711SOL     OW12031   6.821   5.701   2.330
 3711SOL    HW112032   6.910   5.746   2.338
 3711SOL    HW212033   6.768   5.716   2.413
 3712SOL     OW12034   1.437   6.686   6.713
 3712SOL    HW112035   1.522   6.738   6.701
 3712SOL    HW212036   1.366   6.725   6.654
 3713SOL     OW12037   3.786   6.067   5.252
 3713SOL    HW112038   3.793   6.053   5.351
 3713SOL    HW212039   3.752   5.983   5.210
 3714SOL     OW12040   4.118   0.297   4.607
 3714SOL    HW112041   4.191   0.273   4.672
 3714SOL    HW212042   4.129   0.242   4.524
 3715SOL     OW12043   5.378   4.885   4.613
 3715SOL    HW112044   5.308   4.839   4.558
 3715SOL    HW212045   5.453   4.821   4.631
 3716SOL     OW12046   0.417   0.192   4.599
 3716SOL    HW112047   0.420   0.292   4.596
 3716SOL    HW212048   0.331   0.162   4.640
 3717SOL     OW12049   5.689   6.396   1.586
 3717SOL    HW112050   5.736   6.322   1.537
 3717SOL    HW212051   5.642   6.358   1.666
 3718SOL     OW12052   1.191   6.101   6.739
 3718SOL    HW112053   1.205   6.086   6.837
 3718SOL    HW212054   1.254   6.171   6.707
 3719SOL     OW12055   4.125   5.595   6.263
 3719SOL    HW112056   4.161   5.502   6.254
 3719SOL    HW212057   4.058   5.598   6.337
 3720SOL     OW12058   6.092   1.603   6.370
 3720SOL    HW112059   6.099   1.687   6.315
 3720SOL    HW212060   6.083   1.524   6.309
 3721SOL     OW12061   5.426   4.924   0.422
 3721SOL    HW112062   5.436   4.831   0.458
 3721SOL    HW212063   5.370   4.922   0.339
 3722SOL     OW12064   6.710   5.989   2.873
 3722SOL    HW112065   6.659   5.979   2.788
 3722SOL    HW212066   6.772   6.067   2.866
 3723SOL     OW12067   4.657   0.545   1.129
 3723SOL    HW112068   4.689   0.635   1.159
 3723SOL    HW212069   4.640   0.488   1.209
 3724SOL     OW12070   1.304   5.749   6.945
 3724SOL    HW112071   1.205   5.735   6.941
 3724SOL    HW212072   1.347   5.703   6.867
 3725SOL     OW12073   6.584   5.996   6.378
 3725SOL    HW112074   6.550   6.087   6.356
 3725SOL    HW212075   6.615   5.952   6.293
 3726SOL     OW12076   5.690   3.766   1.563
 3726SOL    HW112077   5.656   3.756   1.656
 3726SOL    HW212078   5.758   3.839   1.560
 3727SOL     OW12079   1.719   3.128   4.805
 3727SOL    HW112080   1.671   3.067   4.742
 3727SOL    HW212081   1.703   3.098   4.899
 3728SOL     OW12082   1.975   3.148   6.993
 3728SOL    HW112083   2.004   3.091   6.916
 3728SOL    HW212084   1.877   3.136   7.008
 3729SOL     OW12085   1.256   1.772   3.388
 3729SOL    HW112086   1.350   1.778   3.422
 3729SOL    HW212087   1.209   1.859   3.404
 3730SOL     OW12088   3.392   1.630   6.721
 3730SOL    HW112089   3.303   1.600   6.755
 3730SOL    HW212090   3.383   1.660   6.627
 3731SOL     OW12091   4.894   0.311   0.560
 3731SOL    HW112092   4.933   0.219   0.553
 3731SOL    HW212093   4.866   0.342   0.470
 3732SOL     OW12094   2.242   3.543   5.258
 3732SOL    HW112095   2.213   3.608   5.189
 3732SOL    HW212096   2.239   3.450   5.220
 3733SOL     OW12097   3.028   4.115   1.674
 3733SOL    HW112098   3.090   4.068   1.611
 3733SOL    HW212099   2.934   4.098   1.648
 3734SOL     OW12100   4.678   0.929   2.358
 3734SOL    HW112101   4.634   1.015   2.385
 3734SOL    HW212102   4.771   0.927   2.394
 3735SOL     OW12103   2.486   2.424   2.529
 3735SOL    HW112104   2.438   2.438   2.442
 3735SOL    HW212105   2.421   2.433   2.604
 3736SOL     OW12106   6.525   2.319   1.009
 3736SOL    HW112107   6.541   2.386   0.936
 3736SOL    HW212108   6.524   2.366   1.097
 3737SOL     OW12109   4.863   0.186   3.303
 3737SOL    HW112110   4.951   0.229   3.283
 3737SOL    HW212111   4.802   0.254   3.345
 3738SOL     OW12112   6.873   6.575   3.682
 3738SOL    HW112113   6.877   6.504   3.612
 3738SOL    HW212114   6.779   6.611   3.687
 3739SOL     OW12115   0.692   3.994   2.228
 3739SOL    HW112116   0.666   4.075   2.175
 3739SOL    HW212117   0.610   3.938   2.244
 3740SOL     OW12118   5.438   1.498   6.626
 3740SOL    HW112119   5.446   1.399   6.618
 3740SOL    HW212120   5.377   1.521   6.702
 3741SOL     OW12121   4.579   3.234   0.771
 3741SOL    HW112122   4.530   3.312   0.810
 3741SOL    HW212123   4.593   3.248   0.673
 3742SOL     OW12124   3.518   2.525   5.700
 3742SOL    HW112125   3.459   2.605   5.704
 3742SOL    HW212126   3.462   2.443   5.686
 3743SOL     OW12127   6.598   5.093   6.630
 3743SOL    HW112128   6.635   5.010   6.590
 3743SOL    HW212129   6.673   5.149   6.665
 3744SOL     OW12130   0.149   5.194   3.966
 3744SOL    HW112131   0.186   5.286   3.977
 3744SOL    HW212132   0.172   5.138   4.046
 3745SOL     OW12133   3.559   5.613   2.595
 3745SOL    HW112134   3.483   5.590   2.655
 3745SOL    HW212135   3.549   5.707   2.563
 3746SOL     OW12136   4.485   1.848   1.965
 3746SOL    HW112137   4.523   1.899   1.888
 3746SOL    HW212138   4.548   1.854   2.043
 3747SOL     OW12139   3.217   1.096   6.973
 3747SOL    HW112140   3.285   1.100   0.022
 3747SOL    HW212141   3.261   1.112   6.885
 3748SOL     OW12142   6.015   0.579   2.525
 3748SOL    HW112143   5.938   0.610   2.580
 3748SOL    HW212144   6.097   0.630   2.551
 3749SOL     OW12145   2.119   6.896   4.614
 3749SOL    HW112146   2.096   6.954   4.536
 3749SOL    HW212147   2.038   6.845   4.643
 3750SOL     OW12148   0.329   3.846   0.831
 3750SOL    HW112149   0.286   3.928   0.872
 3750SOL    HW212150   0.376   3.872   0.747
 3751SOL     OW12151   0.154   4.412   2.766
 3751SOL    HW112152   0.143   4.384   2.670
 3751SOL    HW212153   0.156   4.512   2.771
 3752SOL     OW12154   6.768   0.537   6.682
 3752SOL    HW112155   6.694   0.581   6.732
 3752SOL    HW212156   6.810   0.467   6.741
 3753SOL     OW12157   6.545   0.636   4.016
 3753SOL    HW112158   6.614   0.695   3.975
 3753SOL    HW212159   6.466   0.690   4.045
 3754SOL     OW12160   2.148   1.761   0.948
 3754SOL    HW112161   2.086   1.824   0.995
 3754SOL    HW212162   2.208   1.812   0.887
 3755SOL     OW12163   2.557   4.579   3.941
 3755SOL    HW112164   2.503   4.503   3.903
 3755SOL    HW212165   2.570   4.648   3.870
 3756SOL     OW12166   3.025   6.555   6.855
 3756SOL    HW112167   3.108   6.565   6.909
 3756SOL    HW212168   3.038   6.601   6.767
 3757SOL     OW12169   6.271   4.807   1.756
 3757SOL    HW112170   6.343   4.854   1.706
 3757SOL    HW212171   6.260   4.849   1.846
 3758SOL     OW12172   1.903   0.223   3.475
 3758SOL    HW112173   1.873   0.318   3.468
 3758SOL    HW212174   1.935   0.191   3.386
 3759SOL     OW12175   5.118   0.366   4.444
 3759SOL    HW112176   5.166   0.334   4.525
 3759SOL    HW212177   5.158   0.453   4.414
 3760SOL     OW12178   0.273   0.511   2.985
 3760SOL    HW112179   0.320   0.432   2.946
 3760SOL    HW212180   0.339   0.571   3.028
 3761SOL     OW12181   4.887   1.085   3.956
 3761SOL    HW112182   4.817   1.057   4.022
 3761SOL    HW212183   4.968   1.027   3.967
 3762SOL     OW12184   0.522   3.279   2.366
 3762SOL    HW112185   0.461   3.284   2.287
 3762SOL    HW212186   0.477   3.227   2.439
 3763SOL     OW12187   0.413   5.324   0.663
 3763SOL    HW112188   0.408   5.297   0.759
 3763SOL    HW212189   0.328   5.370   0.637
 3764SOL     OW12190   2.141   0.081   2.499
 3764SOL    HW112191   2.055   0.071   2.450
 3764SOL    HW212192   2.142   0.169   2.547
 3765SOL     OW12193   6.306   3.003   1.549
 3765SOL    HW112194   6.349   3.093   1.544
 3765SOL    HW212195   6.340   2.955   1.630
 3766SOL     OW12196   0.669   3.252   3.230
 3766SOL    HW112197   0.617   3.302   3.161
 3766SOL    HW212198   0.721   3.316   3.287
 3767SOL     OW12199   1.633   4.731   5.978
 3767SOL    HW112200   1.536   4.710   5.990
 3767SOL    HW212201   1.673   4.665   5.913
 3768SOL     OW12202   1.284   0.697   4.748
 3768SOL    HW112203   1.276   0.745   4.835
 3768SOL    HW212204   1.274   0.598   4.764
 3769SOL     OW12205   5.660   5.917   4.646
 3769SOL    HW112206   5.598   5.923   4.724
 3769SOL    HW212207   5.661   5.823   4.611
 3770SOL     OW12208   1.267   0.975   0.859
 3770SOL    HW112209   1.271   1.072   0.832
 3770SOL    HW212210   1.347   0.954   0.915
 3771SOL     OW12211   6.704   4.662   0.787
 3771SOL    HW112212   6.778   4.695   0.728
 3771SOL    HW212213   6.620   4.711   0.766
 3772SOL     OW12214   1.627   5.907   0.567
 3772SOL    HW112215   1.657   5.916   0.471
 3772SOL    HW212216   1.556   5.838   0.573
 3773SOL     OW12217   5.411   3.977   6.004
 3773SOL    HW112218   5.377   3.885   6.023
 3773SOL    HW212219   5.494   3.971   5.948
 3774SOL     OW12220   6.136   5.427   1.171
 3774SOL    HW112221   6.104   5.515   1.136
 3774SOL    HW212222   6.082   5.354   1.130
 3775SOL     OW12223   4.099   5.097   4.437
 3775SOL    HW112224   4.130   5.130   4.348
 3775SOL    HW212225   4.017   5.041   4.426
 3776SOL     OW12226   3.495   2.866   6.555
 3776SOL    HW112227   3.410   2.836   6.598
 3776SOL    HW212228   3.573   2.832   6.606
 3777SOL     OW12229   3.163   6.430   4.272
 3777SOL    HW112230   3.135   6.523   4.249
 3777SOL    HW212231   3.219   6.393   4.198
 3778SOL     OW12232   2.981   5.346   5.179
 3778SOL    HW112233   2.915   5.414   5.212
 3778SOL    HW212234   3.061   5.392   5.141
 3779SOL     OW12235   6.630   5.085   6.996
 3779SOL    HW112236   6.717   5.037   6.985
 3779SOL    HW212237   6.571   5.068   6.917
 3780SOL     OW12238   5.892   3.970   1.413
 3780SOL    HW112239   5.972   3.916   1.439
 3780SOL    HW212240   5.893   4.057   1.463
 3781SOL     OW12241   2.813   5.952   5.067
 3781SOL    HW112242   2.721   5.915   5.081
 3781SOL    HW212243   2.838   6.010   5.145
 3782SOL     OW12244   5.287   6.041   1.803
 3782SOL    HW112245   5.301   6.134   1.769
 3782SOL    HW212246   5.194   6.032   1.838
 3783SOL     OW12247   5.059   5.094   4.978
 3783SOL    HW112248   5.036   5.022   4.913
 3783SOL    HW212249   4.975   5.134   5.015
 3784SOL     OW12250   6.091   1.701   4.300
 3784SOL    HW112251   6.050   1.649   4.375
 3784SOL    HW212252   6.190   1.692   4.303
 3785SOL     OW12253   1.227   4.017   4.664
 3785SOL    HW112254   1.273   3.992   4.579
 3785SOL    HW212255   1.204   4.115   4.661
 3786SOL     OW12256   2.642   2.440   4.764
 3786SOL    HW112257   2.623   2.468   4.858
 3786SOL    HW212258   2.594   2.501   4.701
 3787SOL     OW12259   4.373   6.886   3.032
 3787SOL    HW112260   4.445   6.917   2.970
 3787SOL    HW212261   4.399   6.909   3.126
 3788SOL     OW12262   6.664   3.846   5.382
 3788SOL    HW112263   6.756   3.867   5.348
 3788SOL    HW212264   6.662   3.751   5.413
 3789SOL     OW12265   1.296   2.640   2.598
 3789SOL    HW112266   1.212   2.652   2.651
 3789SOL    HW212267   1.374   2.639   2.660
 3790SOL     OW12268   0.876   6.749   1.245
 3790SOL    HW112269   0.920   6.823   1.295
 3790SOL    HW212270   0.780   6.771   1.230
 3791SOL     OW12271   4.887   0.879   6.160
 3791SOL    HW112272   4.958   0.943   6.132
 3791SOL    HW212273   4.863   0.896   6.256
 3792SOL     OW12274   6.935   0.781   4.200
 3792SOL    HW112275   6.907   0.694   4.240
 3792SOL    HW212276   6.993   0.764   4.120
 3793SOL     OW12277   4.965   5.110   0.095
 3793SOL    HW112278   4.956   5.104   0.195
 3793SOL    HW212279   4.923   5.195   0.063
 3794SOL     OW12280   1.507   3.918   6.383
 3794SOL    HW112281   1.504   3.854   6.460
 3794SOL    HW212282   1.584   3.980   6.395
 3795SOL     OW12283   2.388   5.597   1.695
 3795SOL    HW112284   2.438   5.680   1.667
 3795SOL    HW212285   2.452   5.533   1.737
 3796SOL     OW12286   4.173   1.868   6.633
 3796SOL    HW112287   4.095   1.809   6.616
 3796SOL    HW212288   4.241   1.854   6.560
 3797SOL     OW12289   1.028   4.305   2.629
 3797SOL    HW112290   1.059   4.210   2.638
 3797SOL    HW212291   1.029   4.349   2.719
 3798SOL     OW12292   1.614   6.845   3.301
 3798SOL    HW112293   1.611   6.799   3.390
 3798SOL    HW212294   1.547   6.804   3.240
 3799SOL     OW12295   0.019   1.847   2.684
 3799SOL    HW112296   0.048   1.938   2.654
 3799SOL    HW212297   0.015   1.844   2.784
 3800SOL     OW12298   5.957   2.297   2.871
 3800SOL    HW112299   5.934   2.343   2.785
 3800SOL    HW212300   5.887   2.229   2.893
 3801SOL     OW12301   5.653   0.369   1.963
 3801SOL    HW112302   5.639   0.358   2.061
 3801SOL    HW212303   5.672   0.465   1.943
 3802SOL     OW12304   5.637   2.215   2.369
 3802SOL    HW112305   5.645   2.155   2.289
 3802SOL    HW212306   5.679   2.304   2.348
 3803SOL     OW12307   3.051   3.743   3.888
 3803SOL    HW112308   3.083   3.833   3.858
 3803SOL    HW212309   3.040   3.743   3.987
 3804SOL     OW12310   3.357   6.185   3.648
 3804SOL    HW112311   3.319   6.112   3.705
 3804SOL    HW212312   3.337   6.166   3.551
 3805SOL     OW12313   2.608   3.108   0.134
 3805SOL    HW112314   2.536   3.040   0.144
 3805SOL    HW212315   2.677   3.094   0.205
 3806SOL     OW12316   3.848   4.289   0.931
 3806SOL    HW112317   3.831   4.273   1.028
 3806SOL    HW212318   3.893   4.209   0.891
 3807SOL     OW12319   1.725   4.250   4.194
 3807SOL    HW112320   1.765   4.263   4.104
 3807SOL    HW212321   1.676   4.163   4.196
 3808SOL     OW12322   3.557   6.496   0.110
 3808SOL    HW112323   3.590   6.568   0.050
 3808SOL    HW212324   3.610   6.413   0.095
 3809SOL     OW12325   5.006   2.267   1.344
 3809SOL    HW112326   4.978   2.211   1.421
 3809SOL    HW212327   5.074   2.335   1.374
 3810SOL     OW12328   6.507   2.134   1.640
 3810SOL    HW112329   6.474   2.047   1.674
 3810SOL    HW212330   6.448   2.208   1.672
 3811SOL     OW12331   0.021   5.414   5.161
 3811SOL    HW112332   0.120   5.408   5.171
 3811SOL    HW212333   7.016   5.358   5.083
 3812SOL     OW12334   4.819   6.863   0.466
 3812SOL    HW112335   4.802   6.765   0.474
 3812SOL    HW212336   4.769   6.912   0.537
 3813SOL     OW12337   6.693   3.790   0.460
 3813SOL    HW112338   6.599   3.760   0.473
 3813SOL    HW212339   6.721   3.845   0.539
 3814SOL     OW12340   6.335   0.323   4.636
 3814SOL    HW112341   6.269   0.248   4.636
 3814SOL    HW212342   6.426   0.288   4.618
 3815SOL     OW12343   5.624   3.606   0.063
 3815SOL    HW112344   5.677   3.689   0.045
 3815SOL    HW212345   5.538   3.630   0.108
 3816SOL     OW12346   1.028   6.231   5.779
 3816SOL    HW112347   0.979   6.151   5.745
 3816SOL    HW212348   1.123   6.207   5.799
 3817SOL     OW12349   4.896   3.399   2.387
 3817SOL    HW112350   4.887   3.314   2.335
 3817SOL    HW212351   4.896   3.378   2.485
 3818SOL     OW12352   6.729   0.275   1.638
 3818SOL    HW112353   6.648   0.274   1.696
 3818SOL    HW212354   6.703   0.262   1.543
 3819SOL     OW12355   6.955   3.994   4.125
 3819SOL    HW112356   6.960   4.091   4.147
 3819SOL    HW212357   6.860   3.966   4.116
 3820SOL     OW12358   5.230   0.291   4.687
 3820SOL    HW112359   5.202   0.221   4.753
 3820SOL    HW212360   5.329   0.302   4.690
 3821SOL     OW12361   1.141   0.235   0.514
 3821SOL    HW112362   1.181   0.327   0.514
 3821SOL    HW212363   1.068   0.231   0.582
 3822SOL     OW12364   4.761   1.579   1.063
 3822SOL    HW112365   4.816   1.495   1.062
 3822SOL    HW212366   4.770   1.623   1.152
 3823SOL     OW12367   5.066   4.923   5.922
 3823SOL    HW112368   5.037   4.833   5.953
 3823SOL    HW212369   5.125   4.965   5.992
 3824SOL     OW12370   2.058   3.417   6.819
 3824SOL    HW112371   2.153   3.388   6.820
 3824SOL    HW212372   1.999   3.340   6.842
 3825SOL     OW12373   1.706   4.297   5.701
 3825SOL    HW112374   1.697   4.284   5.602
 3825SOL    HW212375   1.796   4.264   5.731
 3826SOL     OW12376   5.863   4.236   3.101
 3826SOL    HW112377   5.802   4.298   3.050
 3826SOL    HW212378   5.851   4.143   3.068
 3827SOL     OW12379   1.554   1.415   1.503
 3827SOL    HW112380   1.581   1.342   1.567
 3827SOL    HW212381   1.629   1.481   1.495
 3828SOL     OW12382   3.711   3.658   4.648
 3828SOL    HW112383   3.767   3.680   4.728
 3828SOL    HW212384   3.748   3.577   4.602
 3829SOL     OW12385   0.606   4.079   2.922
 3829SOL    HW112386   0.633   3.984   2.906
 3829SOL    HW212387   0.516   4.081   2.965
 3830SOL     OW12388   0.262   1.112   4.476
 3830SOL    HW112389   0.268   1.077   4.570
 3830SOL    HW212390   0.228   1.040   4.416
 3831SOL     OW12391   4.281   1.762   3.209
 3831SOL    HW112392   4.284   1.806   3.299
 3831SOL    HW212393   4.301   1.665   3.219
 3832SOL     OW12394   0.190   0.729   2.842
 3832SOL    HW112395   0.230   0.665   2.907
 3832SOL    HW212396   0.202   0.694   2.749
 3833SOL     OW12397   0.657   0.543   6.102
 3833SOL    HW112398   0.747   0.583   6.081
 3833SOL    HW212399   0.647   0.537   6.201
 3834SOL     OW12400   4.919   4.327   0.549
 3834SOL    HW112401   4.886   4.325   0.644
 3834SOL    HW212402   5.017   4.309   0.548
 3835SOL     OW12403   4.264   5.868   4.562
 3835SOL    HW112404   4.263   5.945   4.498
 3835SOL    HW212405   4.175   5.861   4.607
 3836SOL     OW12406   6.937   5.659   6.236
 3836SOL    HW112407   6.900   5.586   6.294
 3836SOL    HW212408   6.895   5.654   6.146
 3837SOL     OW12409   4.333   4.834   5.267
 3837SOL    HW112410   4.278   4.895   5.323
 3837SOL    HW212411   4.375   4.886   5.193
 3838SOL     OW12412   1.528   1.755   3.408
 3838SOL    HW112413   1.529   1.655   3.410
 3838SOL    HW212414   1.611   1.790   3.451
 3839SOL     OW12415   4.194   0.436   2.900
 3839SOL    HW112416   4.193   0.471   2.806
 3839SOL    HW212417   4.137   0.353   2.905
 3840SOL     OW12418   2.875   0.894   6.995
 3840SOL    HW112419   2.845   0.851   0.057
 3840SOL    HW212420   2.802   0.890   6.927
 3841SOL     OW12421   6.608   4.400   3.307
 3841SOL    HW112422   6.537   4.353   3.359
 3841SOL    HW212423   6.692   4.347   3.310
 3842SOL     OW12424   2.176   2.887   5.290
 3842SOL    HW112425   2.231   2.939   5.224
 3842SOL    HW212426   2.089   2.863   5.248
 3843SOL     OW12427   5.476   2.537   0.366
 3843SOL    HW112428   5.522   2.509   0.282
 3843SOL    HW212429   5.518   2.621   0.401
 3844SOL     OW12430   1.805   5.400   0.218
 3844SOL    HW112431   1.752   5.338   0.276
 3844SOL    HW212432   1.758   5.488   0.211
 3845SOL     OW12433   2.699   6.325   0.948
 3845SOL    HW112434   2.795   6.333   0.976
 3845SOL    HW212435   2.640   6.333   1.029
 3846SOL     OW12436   1.005   2.755   3.992
 3846SOL    HW112437   1.020   2.792   3.900
 3846SOL    HW212438   0.911   2.771   4.020
 3847SOL     OW12439   6.642   0.847   5.604
 3847SOL    HW112440   6.738   0.818   5.605
 3847SOL    HW212441   6.608   0.853   5.697
 3848SOL     OW12442   5.164   3.636   2.384
 3848SOL    HW112443   5.069   3.653   2.357
 3848SOL    HW212444   5.180   3.538   2.391
 3849SOL     OW12445   6.937   6.009   6.546
 3849SOL    HW112446   6.933   6.039   6.450
 3849SOL    HW212447   6.947   6.089   6.605
 3850SOL     OW12448   2.584   2.626   1.142
 3850SOL    HW112449   2.512   2.645   1.075
 3850SOL    HW212450   2.574   2.533   1.176
 3851SOL     OW12451   0.214   5.368   3.439
 3851SOL    HW112452   0.128   5.400   3.398
 3851SOL    HW212453   0.205   5.271   3.462
 3852SOL     OW12454   3.687   5.824   5.164
 3852SOL    HW112455   3.602   5.798   5.210
 3852SOL    HW212456   3.686   5.789   5.070
 3853SOL     OW12457   2.726   1.089   3.766
 3853SOL    HW112458   2.689   0.997   3.753
 3853SOL    HW212459   2.655   1.157   3.748
 3854SOL     OW12460   1.533   2.664   2.436
 3854SOL    HW112461   1.448   2.616   2.456
 3854SOL    HW212462   1.572   2.701   2.521
 3855SOL     OW12463   4.521   6.594   0.672
 3855SOL    HW112464   4.556   6.548   0.590
 3855SOL    HW212465   4.428   6.626   0.655
 3856SOL     OW12466   0.480   1.909   6.227
 3856SOL    HW112467   0.441   1.959   6.150
 3856SOL    HW212468   0.497   1.814   6.200
 3857SOL     OW12469   2.073   0.827   5.916
 3857SOL    HW112470   2.080   0.911   5.970
 3857SOL    HW212471   2.102   0.846   5.822
 3858SOL     OW12472   3.803   1.401   5.102
 3858SOL    HW112473   3.784   1.390   5.005
 3858SOL    HW212474   3.759   1.484   5.136
 3859SOL     OW12475   5.381   0.359   0.932
 3859SOL    HW112476   5.370   0.393   1.025
 3859SOL    HW212477   5.322   0.412   0.870
 3860SOL     OW12478   2.041   0.888   4.645
 3860SOL    HW112479   2.059   0.790   4.645
 3860SOL    HW212480   1.989   0.912   4.727
 3861SOL     OW12481   4.526   5.566   1.930
 3861SOL    HW112482   4.508   5.504   2.006
 3861SOL    HW212483   4.452   5.632   1.922
 3862SOL     OW12484   1.029   6.515   4.093
 3862SOL    HW112485   0.985   6.489   4.007
 3862SOL    HW212486   1.073   6.435   4.133
 3863SOL     OW12487   4.594   0.840   0.573
 3863SOL    HW112488   4.546   0.910   0.626
 3863SOL    HW212489   4.530   0.799   0.508
 3864SOL     OW12490   2.256   0.665   4.531
 3864SOL    HW112491   2.223   0.692   4.622
 3864SOL    HW212492   2.234   0.569   4.515
 3865SOL     OW12493   4.316   0.442   6.989
 3865SOL    HW112494   4.227   0.396   6.982
 3865SOL    HW212495   4.312   0.531   6.943
 3866SOL     OW12496   2.608   2.934   6.244
 3866SOL    HW112497   2.676   3.007   6.254
 3866SOL    HW212498   2.525   2.970   6.202
 3867SOL     OW12499   1.101   4.054   2.574
 3867SOL    HW112500   1.009   4.062   2.536
 3867SOL    HW212501   1.110   3.966   2.621
 3868SOL     OW12502   3.410   1.123   0.166
 3868SOL    HW112503   3.478   1.180   0.213
 3868SOL    HW212504   3.439   1.027   0.169
 3869SOL     OW12505   6.349   3.080   3.254
 3869SOL    HW112506   6.322   3.158   3.312
 3869SOL    HW212507   6.342   3.106   3.158
 3870SOL     OW12508   6.529   0.170   3.415
 3870SOL    HW112509   6.529   0.250   3.475
 3870SOL    HW212510   6.577   0.191   3.330
 3871SOL     OW12511   3.229   6.004   3.896
 3871SOL    HW112512   3.302   5.946   3.859
 3871SOL    HW212513   3.222   5.990   3.995
 3872SOL     OW12514   3.291   2.976   4.197
 3872SOL    HW112515   3.229   2.958   4.273
 3872SOL    HW212516   3.238   2.999   4.115
 3873SOL     OW12517   5.057   2.427   0.607
 3873SOL    HW112518   5.131   2.476   0.653
 3873SOL    HW212519   4.970   2.450   0.651
 3874SOL     OW12520   3.988   6.550   1.051
 3874SOL    HW112521   3.898   6.545   1.008
 3874SOL    HW212522   3.989   6.624   1.119
 3875SOL     OW12523   2.022   2.058   4.905
 3875SOL    HW112524   2.088   2.121   4.865
 3875SOL    HW212525   1.999   1.987   4.838
 3876SOL     OW12526   4.391   6.361   0.973
 3876SOL    HW112527   4.383   6.450   0.929
 3876SOL    HW212528   4.464   6.308   0.929
 3877SOL     OW12529   6.960   1.759   0.784
 3877SOL    HW112530   6.882   1.699   0.768
 3877SOL    HW212531   7.002   1.737   0.872
 3878SOL     OW12532   4.758   0.541   4.688
 3878SOL    HW112533   4.713   0.457   4.657
 3878SOL    HW212534   4.834   0.518   4.748
 3879SOL     OW12535   5.137   4.589   6.541
 3879SOL    HW112536   5.066   4.530   6.503
 3879SOL    HW212537   5.135   4.678   6.495
 3880SOL     OW12538   5.351   4.338   4.874
 3880SOL    HW112539   5.339   4.314   4.970
 3880SOL    HW212540   5.270   4.388   4.842
 3881SOL     OW12541   1.339   3.629   0.881
 3881SOL    HW112542   1.420   3.575   0.859
 3881SOL    HW212543   1.310   3.679   0.800
 3882SOL     OW12544   0.876   1.028   0.362
 3882SOL    HW112545   0.833   1.065   0.444
 3882SOL    HW212546   0.878   1.098   0.290
 3883SOL     OW12547   4.604   0.395   2.930
 3883SOL    HW112548   4.568   0.318   2.982
 3883SOL    HW212549   4.576   0.387   2.834
 3884SOL     OW12550   0.501   6.217   3.533
 3884SOL    HW112551   0.441   6.169   3.597
 3884SOL    HW212552   0.583   6.248   3.580
 3885SOL     OW12553   5.713   0.086   2.875
 3885SOL    HW112554   5.620   0.050   2.880
 3885SOL    HW212555   5.740   0.096   2.780
 3886SOL     OW12556   4.417   6.432   5.631
 3886SOL    HW112557   4.453   6.472   5.547
 3886SOL    HW212558   4.377   6.343   5.610
 3887SOL     OW12559   0.797   6.290   1.050
 3887SOL    HW112560   0.757   6.362   1.107
 3887SOL    HW212561   0.755   6.292   0.959
 3888SOL     OW12562   5.737   6.157   4.556
 3888SOL    HW112563   5.701   6.073   4.595
 3888SOL    HW212564   5.812   6.135   4.493
 3889SOL     OW12565   5.965   2.601   6.823
 3889SOL    HW112566   5.900   2.565   6.757
 3889SOL    HW212567   6.058   2.595   6.786
 3890SOL     OW12568   5.535   4.211   4.502
 3890SOL    HW112569   5.443   4.240   4.475
 3890SOL    HW212570   5.529   4.145   4.577
 3891SOL     OW12571   5.151   4.414   4.097
 3891SOL    HW112572   5.124   4.355   4.020
 3891SOL    HW212573   5.090   4.493   4.100
 3892SOL     OW12574   6.896   2.491   0.890
 3892SOL    HW112575   6.861   2.439   0.813
 3892SOL    HW212576   6.866   2.448   0.976
 3893SOL     OW12577   4.596   3.575   1.190
 3893SOL    HW112578   4.531   3.506   1.159
 3893SOL    HW212579   4.615   3.561   1.288
 3894SOL     OW12580   5.110   0.729   6.386
 3894SOL    HW112581   5.126   0.666   6.310
 3894SOL    HW212582   5.081   0.678   6.467
 3895SOL     OW12583   1.252   0.034   5.153
 3895SOL    HW112584   1.328   6.994   5.137
 3895SOL    HW212585   1.280   0.103   5.220
 3896SOL     OW12586   0.541   0.948   6.706
 3896SOL    HW112587   0.572   0.941   6.800
 3896SOL    HW212588   0.533   0.857   6.666
 3897SOL     OW12589   4.673   5.856   2.017
 3897SOL    HW112590   4.765   5.894   2.024
 3897SOL    HW212591   4.623   5.903   1.944
 3898SOL     OW12592   3.860   2.617   0.269
 3898SOL    HW112593   3.937   2.563   0.303
 3898SOL    HW212594   3.879   2.649   0.176
 3899SOL     OW12595   4.666   6.726   6.023
 3899SOL    HW112596   4.596   6.798   6.017
 3899SOL    HW212597   4.622   6.639   6.043
 3900SOL     OW12598   5.394   3.661   4.077
 3900SOL    HW112599   5.307   3.615   4.058
 3900SOL    HW212600   5.381   3.732   4.146
 3901SOL     OW12601   3.328   0.442   5.929
 3901SOL    HW112602   3.426   0.432   5.949
 3901SOL    HW212603   3.276   0.429   6.012
 3902SOL     OW12604   5.589   3.083   2.459
 3902SOL    HW112605   5.655   3.017   2.422
 3902SOL    HW212606   5.503   3.036   2.479
 3903SOL     OW12607   3.994   6.552   0.490
 3903SOL    HW112608   3.907   6.582   0.530
 3903SOL    HW212609   3.987   6.457   0.460
 3904SOL     OW12610   1.339   0.592   6.594
 3904SOL    HW112611   1.411   0.582   6.525
 3904SOL    HW212612   1.380   0.624   6.680
 3905SOL     OW12613   6.790   6.546   6.593
 3905SOL    HW112614   6.740   6.588   6.517
 3905SOL    HW212615   6.790   6.446   6.582
 3906SOL     OW12616   5.355   6.105   6.309
 3906SOL    HW112617   5.429   6.156   6.355
 3906SOL    HW212618   5.361   6.120   6.210
 3907SOL     OW12619   5.283   1.591   4.079
 3907SOL    HW112620   5.319   1.533   4.152
 3907SOL    HW212621   5.318   1.559   3.991
 3908SOL     OW12622   1.144   2.456   6.946
 3908SOL    HW112623   1.236   2.441   6.981
 3908SOL    HW212624   1.079   2.399   6.996
 3909SOL     OW12625   5.234   6.016   4.772
 3909SOL    HW112626   5.304   6.058   4.713
 3909SOL    HW212627   5.146   6.018   4.725
 3910SOL     OW12628   3.721   4.088   2.604
 3910SOL    HW112629   3.766   4.174   2.630
 3910SOL    HW212630   3.791   4.022   2.576
 3911SOL     OW12631   6.343   1.561   5.155
 3911SOL    HW112632   6.261   1.515   5.188
 3911SOL    HW212633   6.336   1.574   5.056
 3912SOL     OW12634   5.250   1.903   5.183
 3912SOL    HW112635   5.284   1.892   5.089
 3912SOL    HW212636   5.263   1.997   5.212
 3913SOL     OW12637   1.727   0.267   6.641
 3913SOL    HW112638   1.774   0.181   6.619
 3913SOL    HW212639   1.708   0.269   6.739
 3914SOL     OW12640   2.862   0.156   0.464
 3914SOL    HW112641   2.782   0.174   0.522
 3914SOL    HW212642   2.849   0.070   0.416
 3915SOL     OW12643   5.631   5.945   0.859
 3915SOL    HW112644   5.601   5.867   0.804
 3915SOL    HW212645   5.553   5.982   0.909
 3916SOL     OW12646   0.990   0.200   3.122
 3916SOL    HW112647   0.961   0.238   3.034
 3916SOL    HW212648   0.962   0.260   3.196
 3917SOL     OW12649   1.030   6.630   6.832
 3917SOL    HW112650   1.081   6.701   6.783
 3917SOL    HW212651   0.935   6.659   6.844
 3918SOL     OW12652   5.363   5.552   1.750
 3918SOL    HW112653   5.336   5.634   1.699
 3918SOL    HW212654   5.295   5.534   1.821
 3919SOL     OW12655   4.487   6.977   0.697
 3919SOL    HW112656   4.462   6.928   0.614
 3919SOL    HW212657   4.428   6.948   0.772
 3920SOL     OW12658   2.405   3.681   0.604
 3920SOL    HW112659   2.413   3.631   0.691
 3920SOL    HW212660   2.488   3.735   0.589
 3921SOL     OW12661   0.227   4.061   1.367
 3921SOL    HW112662   0.251   4.101   1.278
 3921SOL    HW212663   0.275   3.974   1.379
 3922SOL     OW12664   6.835   4.069   1.987
 3922SOL    HW112665   6.818   4.075   1.889
 3922SOL    HW212666   6.748   4.056   2.035
 3923SOL     OW12667   0.019   0.876   0.556
 3923SOL    HW112668   6.959   0.828   0.585
 3923SOL    HW212669   7.019   0.942   0.485
 3924SOL     OW12670   6.160   4.797   4.064
 3924SOL    HW112671   6.145   4.750   4.151
 3924SOL    HW212672   6.120   4.744   3.989
 3925SOL     OW12673   1.445   4.502   1.555
 3925SOL    HW112674   1.507   4.427   1.580
 3925SOL    HW212675   1.446   4.514   1.456
 3926SOL     OW12676   4.358   4.897   2.208
 3926SOL    HW112677   4.286   4.827   2.210
 3926SOL    HW212678   4.447   4.853   2.208
 3927SOL     OW12679   6.449   2.601   5.235
 3927SOL    HW112680   6.526   2.635   5.290
 3927SOL    HW212681   6.426   2.508   5.264
 3928SOL     OW12682   4.752   6.553   6.478
 3928SOL    HW112683   4.787   6.621   6.542
 3928SOL    HW212684   4.653   6.563   6.469
 3929SOL     OW12685   1.375   0.544   5.054
 3929SOL    HW112686   1.321   0.628   5.050
 3929SOL    HW212687   1.329   0.472   5.002
 3930SOL     OW12688   3.115   2.193   4.556
 3930SOL    HW112689   3.213   2.211   4.541
 3930SOL    HW212690   3.099   2.178   4.653
 3931SOL     OW12691   1.196   1.758   1.305
 3931SOL    HW112692   1.161   1.664   1.312
 3931SOL    HW212693   1.190   1.802   1.395
 3932SOL     OW12694   0.849   3.440   3.463
 3932SOL    HW112695   0.853   3.454   3.562
 3932SOL    HW212696   0.927   3.385   3.433
 3933SOL     OW12697   2.510   6.935   6.056
 3933SOL    HW112698   2.444   7.002   6.090
 3933SOL    HW212699   2.556   6.972   5.976
 3934SOL     OW12700   6.200   6.991   6.511
 3934SOL    HW112701   6.268   0.022   6.561
 3934SOL    HW212702   6.179   0.012   6.424
 3935SOL     OW12703   3.459   0.268   0.031
 3935SOL    HW112704   3.400   0.219   6.991
 3935SOL    HW212705   3.513   0.202   0.084
 3936SOL     OW12706   6.525   5.180   4.856
 3936SOL    HW112707   6.509   5.272   4.893
 3936SOL    HW212708   6.577   5.186   4.771
 3937SOL     OW12709   0.367   1.945   2.838
 3937SOL    HW112710   0.403   1.852   2.829
 3937SOL    HW212711   0.375   1.992   2.750
 3938SOL     OW12712   1.248   1.546   3.245
 3938SOL    HW112713   1.261   1.632   3.293
 3938SOL    HW212714   1.219   1.564   3.151
 3939SOL     OW12715   2.546   2.576   2.924
 3939SOL    HW112716   2.601   2.654   2.894
 3939SOL    HW212717   2.590   2.491   2.895
 3940SOL     OW12718   4.360   4.001   1.082
 3940SOL    HW112719   4.399   4.019   1.173
 3940SOL    HW212720   4.389   4.074   1.020
 3941SOL     OW12721   5.234   4.663   5.877
 3941SOL    HW112722   5.263   4.754   5.906
 3941SOL    HW212723   5.172   4.624   5.945
 3942SOL     OW12724   0.014   6.004   6.881
 3942SOL    HW112725   6.997   5.923   6.923
 3942SOL    HW212726   0.088   5.977   6.820
 3943SOL     OW12727   0.848   2.595   4.314
 3943SOL    HW112728   0.900   2.547   4.385
 3943SOL    HW212729   0.876   2.562   4.224
 3944SOL     OW12730   4.640   2.733   5.161
 3944SOL    HW112731   4.667   2.821   5.122
 3944SOL    HW212732   4.699   2.661   5.125
 3945SOL     OW12733   0.399   2.037   0.120
 3945SOL    HW112734   0.495   2.012   0.128
 3945SOL    HW212735   0.346   1.958   0.089
 3946SOL     OW12736   5.024   4.700   3.972
 3946SOL    HW112737   5.042   4.694   3.874
 3946SOL    HW212738   4.933   4.663   3.992
 3947SOL     OW12739   4.612   6.374   6.657
 3947SOL    HW112740   4.663   6.363   6.743
 3947SOL    HW212741   4.675   6.366   6.580
 3948SOL     OW12742   6.927   4.782   2.032
 3948SOL    HW112743   6.990   4.858   2.045
 3948SOL    HW212744   6.977   4.695   2.037
 3949SOL     OW12745   5.253   5.877   3.173
 3949SOL    HW112746   5.230   5.958   3.119
 3949SOL    HW212747   5.193   5.801   3.147
 3950SOL     OW12748   1.208   5.159   0.403
 3950SOL    HW112749   1.277   5.124   0.340
 3950SOL    HW212750   1.239   5.148   0.497
 3951SOL     OW12751   4.997   0.130   1.953
 3951SOL    HW112752   4.912   0.180   1.934
 3951SOL    HW212753   5.072   0.195   1.962
 3952SOL     OW12754   0.117   2.711   1.521
 3952SOL    HW112755   0.114   2.632   1.460
 3952SOL    HW212756   0.122   2.795   1.466
 3953SOL     OW12757   4.078   4.200   1.174
 3953SOL    HW112758   4.149   4.219   1.243
 3953SOL    HW212759   3.998   4.162   1.218
 3954SOL     OW12760   3.918   6.016   5.883
 3954SOL    HW112761   3.894   6.002   5.979
 3954SOL    HW212762   3.950   5.930   5.844
 3955SOL     OW12763   2.846   1.297   6.083
 3955SOL    HW112764   2.761   1.247   6.065
 3955SOL    HW212765   2.924   1.237   6.064
 3956SOL     OW12766   1.565   0.916   2.393
 3956SOL    HW112767   1.638   0.850   2.404
 3956SOL    HW212768   1.477   0.872   2.409
 3957SOL     OW12769   3.888   0.075   4.103
 3957SOL    HW112770   3.789   0.061   4.112
 3957SOL    HW212771   3.907   0.139   4.029
 3958SOL     OW12772   5.940   1.630   4.006
 3958SOL    HW112773   5.937   1.713   4.062
 3958SOL    HW212774   5.988   1.649   3.920
 3959SOL     OW12775   5.419   5.220   0.413
 3959SOL    HW112776   5.348   5.262   0.355
 3959SOL    HW212777   5.392   5.127   0.437
 3960SOL     OW12778   4.979   0.988   5.872
 3960SOL    HW112779   4.931   0.918   5.820
 3960SOL    HW212780   4.961   1.078   5.831
 3961SOL     OW12781   4.699   0.649   3.132
 3961SOL    HW112782   4.640   0.694   3.199
 3961SOL    HW212783   4.672   0.553   3.125
 3962SOL     OW12784   1.056   4.998   6.164
 3962SOL    HW112785   1.095   4.909   6.186
 3962SOL    HW212786   1.129   5.067   6.166
 3963SOL     OW12787   4.364   5.564   2.517
 3963SOL    HW112788   4.443   5.508   2.492
 3963SOL    HW212789   4.292   5.553   2.448
 3964SOL     OW12790   4.808   4.530   3.596
 3964SOL    HW112791   4.895   4.562   3.633
 3964SOL    HW212792   4.767   4.463   3.658
 3965SOL     OW12793   4.921   3.455   4.153
 3965SOL    HW112794   4.912   3.376   4.214
 3965SOL    HW212795   4.835   3.471   4.105
 3966SOL     OW12796   3.904   6.229   6.633
 3966SOL    HW112797   3.823   6.278   6.602
 3966SOL    HW212798   3.978   6.293   6.651
 3967SOL     OW12799   2.121   4.256   1.738
 3967SOL    HW112800   2.189   4.208   1.683
 3967SOL    HW212801   2.120   4.353   1.714
 3968SOL     OW12802   4.557   0.548   0.839
 3968SOL    HW112803   4.546   0.591   0.929
 3968SOL    HW212804   4.653   0.526   0.823
 3969SOL     OW12805   1.429   4.847   2.024
 3969SOL    HW112806   1.464   4.908   2.095
 3969SOL    HW212807   1.489   4.852   1.944
 3970SOL     OW12808   5.183   5.944   2.774
 3970SOL    HW112809   5.161   5.989   2.860
 3970SOL    HW212810   5.140   5.854   2.771
 3971SOL     OW12811   2.817   5.569   4.351
 3971SOL    HW112812   2.812   5.608   4.443
 3971SOL    HW212813   2.821   5.643   4.284
 3972SOL     OW12814   1.526   4.026   6.755
 3972SOL    HW112815   1.428   4.015   6.740
 3972SOL    HW212816   1.570   3.937   6.762
 3973SOL     OW12817   1.163   5.596   0.651
 3973SOL    HW112818   1.262   5.607   0.658
 3973SOL    HW212819   1.142   5.503   0.621
 3974SOL     OW12820   1.866   0.278   5.717
 3974SOL    HW112821   1.843   0.318   5.805
 3974SOL    HW212822   1.918   0.194   5.731
 3975SOL     OW12823   5.124   1.183   6.477
 3975SOL    HW112824   5.091   1.102   6.525
 3975SOL    HW212825   5.212   1.162   6.433
 3976SOL     OW12826   2.244   6.454   3.004
 3976SOL    HW112827   2.203   6.461   2.914
 3976SOL    HW212828   2.342   6.438   2.995
 3977SOL     OW12829   1.059   3.329   6.429
 3977SOL    HW112830   1.000   3.384   6.490
 3977SOL    HW212831   1.002   3.266   6.377
 3978SOL     OW12832   6.341   4.641   3.442
 3978SOL    HW112833   6.272   4.701   3.483
 3978SOL    HW212834   6.431   4.683   3.452
 3979SOL     OW12835   3.744   1.274   6.449
 3979SOL    HW112836   3.792   1.266   6.362
 3979SOL    HW212837   3.713   1.184   6.479
 3980SOL     OW12838   5.377   6.485   6.328
 3980SOL    HW112839   5.436   6.405   6.316
 3980SOL    HW212840   5.434   6.567   6.338
 3981SOL     OW12841   4.387   5.969   0.822
 3981SOL    HW112842   4.338   5.962   0.736
 3981SOL    HW212843   4.454   6.044   0.816
 3982SOL     OW12844   2.440   0.058   2.697
 3982SOL    HW112845   2.397   0.085   2.611
 3982SOL    HW212846   2.449   6.982   2.700
 3983SOL     OW12847   5.352   5.044   3.994
 3983SOL    HW112848   5.414   5.110   4.036
 3983SOL    HW212849   5.257   5.072   4.012
 3984SOL     OW12850   6.255   0.961   2.302
 3984SOL    HW112851   6.157   0.958   2.283
 3984SOL    HW212852   6.295   0.871   2.287
 3985SOL     OW12853   3.422   5.402   6.813
 3985SOL    HW112854   3.479   5.326   6.783
 3985SOL    HW212855   3.407   5.396   6.912
 3986SOL     OW12856   4.824   1.880   3.093
 3986SOL    HW112857   4.738   1.829   3.106
 3986SOL    HW212858   4.862   1.859   3.003
 3987SOL     OW12859   3.447   5.060   4.031
 3987SOL    HW112860   3.539   5.033   4.003
 3987SOL    HW212861   3.451   5.151   4.074
 3988SOL     OW12862   3.930   4.938   0.171
 3988SOL    HW112863   4.017   4.959   0.126
 3988SOL    HW212864   3.948   4.888   0.255
 3989SOL     OW12865   6.726   2.162   0.151
 3989SOL    HW112866   6.658   2.164   0.077
 3989SOL    HW212867   6.678   2.164   0.239
 3990SOL     OW12868   4.997   2.445   2.011
 3990SOL    HW112869   4.932   2.465   1.938
 3990SOL    HW212870   5.075   2.394   1.974
 3991SOL     OW12871   0.243   1.459   1.745
 3991SOL    HW112872   0.178   1.526   1.711
 3991SOL    HW212873   0.246   1.381   1.683
 3992SOL     OW12874   3.087   2.400   0.711
 3992SOL    HW112875   3.004   2.433   0.755
 3992SOL    HW212876   3.065   2.321   0.654
 3993SOL     OW12877   1.633   2.503   2.248
 3993SOL    HW112878   1.713   2.467   2.295
 3993SOL    HW212879   1.614   2.596   2.280
 3994SOL     OW12880   2.880   0.466   5.852
 3994SOL    HW112881   2.887   0.382   5.906
 3994SOL    HW212882   2.961   0.522   5.867
 3995SOL     OW12883   1.809   3.371   5.850
 3995SOL    HW112884   1.720   3.383   5.807
 3995SOL    HW212885   1.860   3.299   5.802
 3996SOL     OW12886   0.318   6.545   5.758
 3996SOL    HW112887   0.272   6.507   5.678
 3996SOL    HW212888   0.393   6.485   5.786
 3997SOL     OW12889   5.912   1.167   4.018
 3997SOL    HW112890   5.839   1.188   3.952
 3997SOL    HW212891   5.960   1.252   4.042
 3998SOL     OW12892   3.472   1.433   4.305
 3998SOL    HW112893   3.426   1.361   4.254
 3998SOL    HW212894   3.417   1.459   4.384
 3999SOL     OW12895   5.920   2.590   4.486
 3999SOL    HW112896   5.825   2.614   4.464
 3999SOL    HW212897   5.931   2.491   4.482
 4000SOL     OW12898   3.247   6.827   3.867
 4000SOL    HW112899   3.295   6.739   3.872
 4000SOL    HW212900   3.234   6.852   3.771
 4001SOL     OW12901   2.346   1.752   3.725
 4001SOL    HW112902   2.410   1.779   3.797
 4001SOL    HW212903   2.276   1.691   3.763
 4002SOL     OW12904   2.686   3.726   1.678
 4002SOL    HW112905   2.740   3.671   1.742
 4002SOL    HW212906   2.610   3.670   1.643
 4003SOL     OW12907   3.044   0.340   4.179
 4003SOL    HW112908   3.040   0.430   4.136
 4003SOL    HW212909   2.952   0.300   4.180
 4004SOL     OW12910   6.518   2.344   4.405
 4004SOL    HW112911   6.574   2.394   4.338
 4004SOL    HW212912   6.424   2.376   4.400
 4005SOL     OW12913   4.504   6.110   6.186
 4005SOL    HW112914   4.565   6.128   6.109
 4005SOL    HW212915   4.552   6.129   6.272
 4006SOL     OW12916   3.759   5.271   2.480
 4006SOL    HW112917   3.796   5.237   2.394
 4006SOL    HW212918   3.661   5.249   2.486
 4007SOL     OW12919   0.128   2.559   6.571
 4007SOL    HW112920   0.070   2.481   6.552
 4007SOL    HW212921   0.085   2.617   6.641
 4008SOL     OW12922   2.799   2.224   4.782
 4008SOL    HW112923   2.792   2.193   4.687
 4008SOL    HW212924   2.737   2.301   4.796
 4009SOL     OW12925   4.095   3.241   2.493
 4009SOL    HW112926   4.136   3.251   2.403
 4009SOL    HW212927   4.041   3.158   2.497
 4010SOL     OW12928   2.378   2.866   1.790
 4010SOL    HW112929   2.457   2.916   1.754
 4010SOL    HW212930   2.410   2.796   1.853
 4011SOL     OW12931   0.677   2.291   1.833
 4011SOL    HW112932   0.728   2.354   1.774
 4011SOL    HW212933   0.583   2.286   1.801
 4012SOL     OW12934   6.682   4.408   2.216
 4012SOL    HW112935   6.609   4.390   2.151
 4012SOL    HW212936   6.700   4.507   2.220
 4013SOL     OW12937   4.375   2.053   4.457
 4013SOL    HW112938   4.285   2.094   4.470
 4013SOL    HW212939   4.403   2.007   4.541
 4014SOL     OW12940   6.108   6.416   2.625
 4014SOL    HW112941   6.063   6.419   2.714
 4014SOL    HW212942   6.206   6.429   2.637
 4015SOL     OW12943   4.431   4.334   6.131
 4015SOL    HW112944   4.435   4.309   6.034
 4015SOL    HW212945   4.337   4.361   6.154
 4016SOL     OW12946   3.104   6.002   5.637
 4016SOL    HW112947   3.045   6.050   5.702
 4016SOL    HW212948   3.108   5.905   5.661
 4017SOL     OW12949   6.950   5.810   0.036
 4017SOL    HW112950   6.883   5.868   0.083
 4017SOL    HW212951   6.941   5.716   0.069
 4018SOL     OW12952   4.226   5.625   1.865
 4018SOL    HW112953   4.256   5.703   1.811
 4018SOL    HW212954   4.244   5.540   1.814
 4019SOL     OW12955   5.406   4.184   2.554
 4019SOL    HW112956   5.423   4.281   2.572
 4019SOL    HW212957   5.413   4.133   2.640
 4020SOL     OW12958   4.846   2.555   5.073
 4020SOL    HW112959   4.905   2.552   4.992
 4020SOL    HW212960   4.900   2.581   5.153
 4021SOL     OW12961   3.214   4.976   5.418
 4021SOL    HW112962   3.144   5.044   5.438
 4021SOL    HW212963   3.251   4.991   5.326
 4022SOL     OW12964   5.428   1.170   0.056
 4022SOL    HW112965   5.447   1.268   0.058
 4022SOL    HW212966   5.428   1.133   0.149
 4023SOL     OW12967   6.345   1.899   5.047
 4023SOL    HW112968   6.315   1.887   4.952
 4023SOL    HW212969   6.300   1.979   5.086
 4024SOL     OW12970   3.894   4.912   4.089
 4024SOL    HW112971   3.911   4.853   4.009
 4024SOL    HW212972   3.924   4.864   4.172
 4025SOL     OW12973   0.781   4.452   3.558
 4025SOL    HW112974   0.716   4.510   3.509
 4025SOL    HW212975   0.793   4.366   3.507
 4026SOL     OW12976   5.372   6.206   3.945
 4026SOL    HW112977   5.348   6.112   3.970
 4026SOL    HW212978   5.307   6.240   3.877
 4027SOL     OW12979   4.280   4.905   1.708
 4027SOL    HW112980   4.290   4.983   1.646
 4027SOL    HW212981   4.344   4.913   1.784
 4028SOL     OW12982   2.573   1.493   3.821
 4028SOL    HW112983   2.540   1.499   3.727
 4028SOL    HW212984   2.672   1.476   3.820
 4029SOL     OW12985   1.675   4.582   5.388
 4029SOL    HW112986   1.770   4.593   5.416
 4029SOL    HW212987   1.656   4.643   5.311
 4030SOL     OW12988   0.776   1.782   5.593
 4030SOL    HW112989   0.782   1.879   5.619
 4030SOL    HW212990   0.867   1.741   5.598
 4031SOL     OW12991   4.159   5.807   4.142
 4031SOL    HW112992   4.224   5.746   4.096
 4031SOL    HW212993   4.115   5.866   4.074
 4032SOL     OW12994   5.706   0.184   4.159
 4032SOL    HW112995   5.746   0.253   4.100
 4032SOL    HW212996   5.772   0.109   4.172
 4033SOL     OW12997   3.008   3.798   5.339
 4033SOL    HW112998   2.963   3.859   5.274
 4033SOL    HW212999   2.939   3.756   5.399
 4034SOL     OW13000   0.061   2.474   3.765
 4034SOL    HW113001   6.985   2.480   3.772
 4034SOL    HW213002   0.089   2.379   3.778
 4035SOL     OW13003   0.342   4.698   6.999
 4035SOL    HW113004   0.379   4.634   0.044
 4035SOL    HW213005   0.253   4.731   0.004
 4036SOL     OW13006   6.265   6.833   2.842
 4036SOL    HW113007   6.263   6.835   2.742
 4036SOL    HW213008   6.343   6.887   2.875
 4037SOL     OW13009   0.342   3.666   7.003
 4037SOL    HW113010   0.246   3.657   6.979
 4037SOL    HW213011   0.357   3.752   0.027
 4038SOL     OW13012   5.907   4.400   3.951
 4038SOL    HW113013   5.827   4.440   3.996
 4038SOL    HW213014   5.989   4.450   3.979
 4039SOL     OW13015   5.270   6.272   0.132
 4039SOL    HW113016   5.359   6.296   0.093
 4039SOL    HW213017   5.278   6.261   0.231
 4040SOL     OW13018   3.216   6.325   1.304
 4040SOL    HW113019   3.232   6.373   1.390
 4040SOL    HW213020   3.261   6.235   1.308
 4041SOL     OW13021   1.500   6.474   3.534
 4041SOL    HW113022   1.400   6.478   3.524
 4041SOL    HW213023   1.522   6.420   3.616
 4042SOL     OW13024   6.190   4.971   2.109
 4042SOL    HW113025   6.269   4.947   2.051
 4042SOL    HW213026   6.200   5.065   2.140
 4043SOL     OW13027   6.323   1.642   1.183
 4043SOL    HW113028   6.352   1.572   1.248
 4043SOL    HW213029   6.402   1.671   1.128
 4044SOL     OW13030   5.763   6.512   3.674
 4044SOL    HW113031   5.706   6.438   3.710
 4044SOL    HW213032   5.707   6.577   3.624
 4045SOL     OW13033   2.537   5.962   6.231
 4045SOL    HW113034   2.576   5.938   6.320
 4045SOL    HW213035   2.455   6.017   6.244
 4046SOL     OW13036   0.838   3.193   1.142
 4046SOL    HW113037   0.884   3.255   1.079
 4046SOL    HW213038   0.760   3.239   1.184
 4047SOL     OW13039   2.833   3.765   1.446
 4047SOL    HW113040   2.794   3.724   1.528
 4047SOL    HW213041   2.783   3.734   1.365
 4048SOL     OW13042   5.372   0.768   0.813
 4048SOL    HW113043   5.436   0.773   0.890
 4048SOL    HW213044   5.298   0.833   0.828
 4049SOL     OW13045   5.182   0.025   5.112
 4049SOL    HW113046   5.115   6.985   5.150
 4049SOL    HW213047   5.208   0.091   5.182
 4050SOL     OW13048   2.828   0.499   1.000
 4050SOL    HW113049   2.819   0.400   1.000
 4050SOL    HW213050   2.739   0.541   1.017
 4051SOL     OW13051   3.431   3.972   1.578
 4051SOL    HW113052   3.476   4.049   1.623
 4051SOL    HW213053   3.427   3.894   1.640
 4052SOL     OW13054   0.783   0.123   0.576
 4052SOL    HW113055   0.695   0.128   0.622
 4052SOL    HW213056   0.843   0.195   0.611
 4053SOL     OW13057   3.575   4.909   3.731
 4053SOL    HW113058   3.615   4.973   3.797
 4053SOL    HW213059   3.643   4.886   3.661
 4054SOL     OW13060   4.866   2.122   0.766
 4054SOL    HW113061   4.791   2.188   0.772
 4054SOL    HW213062   4.894   2.113   0.671
 4055SOL     OW13063   3.466   2.260   6.879
 4055SOL    HW113064   3.464   2.249   6.780
 4055SOL    HW213065   3.560   2.265   6.910
 4056SOL     OW13066   4.139   3.612   0.593
 4056SOL    HW113067   4.081   3.690   0.571
 4056SOL    HW213068   4.161   3.612   0.691
 4057SOL     OW13069   5.010   3.112   6.837
 4057SOL    HW113070   5.073   3.145   6.907
 4057SOL    HW213071   5.023   3.014   6.823
 4058SOL     OW13072   1.502   0.961   5.237
 4058SOL    HW113073   1.464   1.053   5.228
 4058SOL    HW213074   1.527   0.945   5.333
 4059SOL     OW13075   0.495   2.156   4.253
 4059SOL    HW113076   0.525   2.249   4.230
 4059SOL    HW213077   0.558   2.116   4.319
 4060SOL     OW13078   4.522   5.257   4.390
 4060SOL    HW113079   4.507   5.168   4.348
 4060SOL    HW213080   4.434   5.302   4.405
 4061SOL     OW13081   3.147   3.083   1.560
 4061SOL    HW113082   3.132   3.013   1.630
 4061SOL    HW213083   3.060   3.104   1.516
 4062SOL     OW13084   2.333   0.211   3.200
 4062SOL    HW113085   2.370   0.174   3.115
 4062SOL    HW213086   2.324   0.138   3.268
 4063SOL     OW13087   2.990   5.366   6.269
 4063SOL    HW113088   3.071   5.424   6.284
 4063SOL    HW213089   3.014   5.271   6.291
 4064SOL     OW13090   0.201   0.202   4.111
 4064SOL    HW113091   0.192   0.253   4.025
 4064SOL    HW213092   0.286   0.227   4.156
 4065SOL     OW13093   5.592   5.617   6.824
 4065SOL    HW113094   5.502   5.576   6.832
 4065SOL    HW213095   5.663   5.550   6.846
 4066SOL     OW13096   5.957   4.396   1.687
 4066SOL    HW113097   6.025   4.469   1.683
 4066SOL    HW213098   5.875   4.428   1.735
 4067SOL     OW13099   5.829   0.640   1.755
 4067SOL    HW113100   5.824   0.661   1.852
 4067SOL    HW213101   5.850   0.543   1.742
 4068SOL     OW13102   6.263   0.484   3.679
 4068SOL    HW113103   6.177   0.436   3.697
 4068SOL    HW213104   6.339   0.434   3.722
 4069SOL     OW13105   6.773   5.363   0.836
 4069SOL    HW113106   6.752   5.452   0.878
 4069SOL    HW213107   6.692   5.304   0.841
 4070SOL     OW13108   1.374   2.999   2.845
 4070SOL    HW113109   1.350   3.090   2.811
 4070SOL    HW213110   1.396   3.004   2.942
 4071SOL     OW13111   1.822   6.557   4.000
 4071SOL    HW113112   1.808   6.645   4.047
 4071SOL    HW213113   1.745   6.540   3.938
 4072SOL     OW13114   0.952   0.644   4.463
 4072SOL    HW113115   0.866   0.689   4.487
 4072SOL    HW213116   1.028   0.707   4.477
 4073SOL     OW13117   2.005   5.472   6.607
 4073SOL    HW113118   2.080   5.485   6.541
 4073SOL    HW213119   2.040   5.488   6.700
 4074SOL     OW13120   1.992   2.922   0.654
 4074SOL    HW113121   2.000   2.930   0.753
 4074SOL    HW213122   1.915   2.978   0.622
 4075SOL     OW13123   4.932   1.171   3.450
 4075SOL    HW113124   4.968   1.115   3.524
 4075SOL    HW213125   4.838   1.198   3.471
 4076SOL     OW13126   1.937   2.705   3.791
 4076SOL    HW113127   1.837   2.696   3.799
 4076SOL    HW213128   1.959   2.794   3.751
 4077SOL     OW13129   2.601   1.627   0.694
 4077SOL    HW113130   2.529   1.557   0.697
 4077SOL    HW213131   2.687   1.587   0.724
 4078SOL     OW13132   5.596   3.759   1.812
 4078SOL    HW113133   5.581   3.689   1.882
 4078SOL    HW213134   5.511   3.808   1.795
 4079SOL     OW13135   0.720   1.465   3.895
 4079SOL    HW113136   0.736   1.367   3.906
 4079SOL    HW213137   0.775   1.500   3.819
 4080SOL     OW13138   3.557   3.257   1.628
 4080SOL    HW113139   3.534   3.179   1.687
 4080SOL    HW213140   3.629   3.311   1.672
 4081SOL     OW13141   2.703   2.475   6.225
 4081SOL    HW113142   2.797   2.477   6.191
 4081SOL    HW213143   2.684   2.561   6.273
 4082SOL     OW13144   1.396   2.448   4.956
 4082SOL    HW113145   1.307   2.409   4.930
 4082SOL    HW213146   1.424   2.411   5.044
 4083SOL     OW13147   5.660   5.187   3.217
 4083SOL    HW113148   5.636   5.212   3.311
 4083SOL    HW213149   5.725   5.111   3.219
 4084SOL     OW13150   5.185   0.734   3.740
 4084SOL    HW113151   5.097   0.757   3.698
 4084SOL    HW213152   5.209   0.640   3.716
 4085SOL     OW13153   3.945   4.979   2.382
 4085SOL    HW113154   4.030   4.982   2.435
 4085SOL    HW213155   3.872   4.941   2.439
 4086SOL     OW13156   6.118   5.087   6.168
 4086SOL    HW113157   6.056   5.010   6.155
 4086SOL    HW213158   6.212   5.055   6.168
 4087SOL     OW13159   1.953   0.058   2.117
 4087SOL    HW113160   1.884   7.023   2.074
 4087SOL    HW213161   1.954   0.041   2.216
 4088SOL     OW13162   0.395   1.998   5.049
 4088SOL    HW113163   0.333   2.065   5.091
 4088SOL    HW213164   0.346   1.947   4.979
 4089SOL     OW13165   1.224   0.745   3.187
 4089SOL    HW113166   1.234   0.836   3.148
 4089SOL    HW213167   1.151   0.745   3.256
 4090SOL     OW13168   2.896   1.447   6.312
 4090SOL    HW113169   2.880   1.402   6.224
 4090SOL    HW213170   2.837   1.527   6.320
 4091SOL     OW13171   3.005   5.989   1.108
 4091SOL    HW113172   2.984   6.025   1.199
 4091SOL    HW213173   2.920   5.976   1.057
 4092SOL     OW13174   5.797   2.786   4.105
 4092SOL    HW113175   5.762   2.877   4.082
 4092SOL    HW213176   5.831   2.786   4.199
 4093SOL     OW13177   5.079   4.724   3.689
 4093SOL    HW113178   5.101   4.645   3.631
 4093SOL    HW213179   5.026   4.790   3.637
 4094SOL     OW13180   6.874   5.317   6.966
 4094SOL    HW113181   6.968   5.286   6.978
 4094SOL    HW213182   6.873   5.410   6.929
 4095SOL     OW13183   0.587   5.064   6.761
 4095SOL    HW113184   0.661   5.003   6.733
 4095SOL    HW213185   0.507   5.010   6.785
 4096SOL     OW13186   0.667   1.457   6.568
 4096SOL    HW113187   0.718   1.373   6.583
 4096SOL    HW213188   0.628   1.489   6.655
 4097SOL     OW13189   6.603   4.692   5.091
 4097SOL    HW113190   6.530   4.666   5.028
 4097SOL    HW213191   6.673   4.621   5.092
 4098SOL     OW13192   2.088   4.471   3.348
 4098SOL    HW113193   2.046   4.520   3.425
 4098SOL    HW213194   2.033   4.487   3.266
 4099SOL     OW13195   4.676   4.544   6.409
 4099SOL    HW113196   4.628   4.461   6.439
 4099SOL    HW213197   4.621   4.591   6.340
 4100SOL     OW13198   1.559   0.155   3.904
 4100SOL    HW113199   1.580   0.151   3.807
 4100SOL    HW213200   1.489   0.225   3.920
 4101SOL     OW13201   6.054   6.201   0.363
 4101SOL    HW113202   5.973   6.144   0.354
 4101SOL    HW213203   6.089   6.225   0.272
 4102SOL     OW13204   1.177   0.492   0.483
 4102SOL    HW113205   1.116   0.566   0.510
 4102SOL    HW213206   1.271   0.527   0.477
 4103SOL     OW13207   1.714   6.556   3.393
 4103SOL    HW113208   1.679   6.540   3.301
 4103SOL    HW213209   1.651   6.516   3.460
 4104SOL     OW13210   1.784   5.839   4.540
 4104SOL    HW113211   1.801   5.749   4.501
 4104SOL    HW213212   1.798   5.909   4.470
 4105SOL     OW13213   4.899   1.172   0.727
 4105SOL    HW113214   4.885   1.117   0.810
 4105SOL    HW213215   4.897   1.111   0.647
 4106SOL     OW13216   1.090   1.111   3.309
 4106SOL    HW113217   1.007   1.164   3.299
 4106SOL    HW213218   1.087   1.059   3.395
 4107SOL     OW13219   0.643   6.653   0.214
 4107SOL    HW113220   0.638   6.611   0.124
 4107SOL    HW213221   0.588   6.737   0.215
 4108SOL     OW13222   6.866   5.898   5.292
 4108SOL    HW113223   6.867   5.800   5.313
 4108SOL    HW213224   6.787   5.941   5.334
 4109SOL     OW13225   5.811   6.310   3.319
 4109SOL    HW113226   5.867   6.329   3.238
 4109SOL    HW213227   5.813   6.211   3.338
 4110SOL     OW13228   4.999   2.743   0.373
 4110SOL    HW113229   5.009   2.831   0.328
 4110SOL    HW213230   5.063   2.677   0.333
 4111SOL     OW13231   6.720   3.868   4.029
 4111SOL    HW113232   6.679   3.798   4.088
 4111SOL    HW213233   6.656   3.943   4.015
 4112SOL     OW13234   4.852   6.662   5.329
 4112SOL    HW113235   4.851   6.703   5.421
 4112SOL    HW213236   4.802   6.576   5.330
 4113SOL     OW13237   4.211   5.327   4.865
 4113SOL    HW113238   4.279   5.253   4.858
 4113SOL    HW213239   4.137   5.310   4.800
 4114SOL     OW13240   0.328   1.480   1.413
 4114SOL    HW113241   0.369   1.567   1.443
 4114SOL    HW213242   0.365   1.454   1.324
 4115SOL     OW13243   4.559   5.944   3.996
 4115SOL    HW113244   4.633   5.889   4.036
 4115SOL    HW213245   4.560   6.035   4.038
 4116SOL     OW13246   5.212   3.542   3.000
 4116SOL    HW113247   5.201   3.640   3.017
 4116SOL    HW213248   5.272   3.503   3.070
 4117SOL     OW13249   1.613   1.630   3.717
 4117SOL    HW113250   1.699   1.605   3.761
 4117SOL    HW213251   1.579   1.554   3.663
 4118SOL     OW13252   0.257   6.147   6.690
 4118SOL    HW113253   0.267   6.050   6.712
 4118SOL    HW213254   0.283   6.162   6.595
 4119SOL     OW13255   0.714   0.687   4.014
 4119SOL    HW113256   0.768   0.669   4.096
 4119SOL    HW213257   0.623   0.647   4.024
 4120SOL     OW13258   1.846   0.915   6.323
 4120SOL    HW113259   1.822   0.906   6.419
 4120SOL    HW213260   1.866   0.824   6.285
 4121SOL     OW13261   6.431   0.004   1.995
 4121SOL    HW113262   6.440   6.952   1.930
 4121SOL    HW213263   6.522   0.034   2.023
 4122SOL     OW13264   6.724   4.172   2.981
 4122SOL    HW113265   6.700   4.234   2.906
 4122SOL    HW213266   6.748   4.083   2.944
 4123SOL     OW13267   4.751   4.808   1.963
 4123SOL    HW113268   4.734   4.718   2.005
 4123SOL    HW213269   4.802   4.865   2.026
 4124SOL     OW13270   6.154   5.575   6.925
 4124SOL    HW113271   6.160   5.659   6.979
 4124SOL    HW213272   6.058   5.557   6.903
 4125SOL     OW13273   6.044   1.524   1.325
 4125SOL    HW113274   6.105   1.549   1.400
 4125SOL    HW213275   5.981   1.599   1.306
 4126SOL     OW13276   1.745   2.813   2.566
 4126SOL    HW113277   1.683   2.883   2.530
 4126SOL    HW213278   1.837   2.828   2.529
 4127SOL     OW13279   4.466   1.898   4.679
 4127SOL    HW113280   4.399   1.900   4.753
 4127SOL    HW213281   4.456   1.814   4.627
 4128SOL     OW13282   0.949   3.359   7.019
 4128SOL    HW113283   0.999   3.391   0.075
 4128SOL    HW213284   0.884   3.287   0.023
 4129SOL     OW13285   2.406   2.981   0.819
 4129SOL    HW113286   2.383   3.010   0.912
 4129SOL    HW213287   2.362   3.042   0.753
 4130SOL     OW13288   6.325   3.254   0.520
 4130SOL    HW113289   6.423   3.242   0.532
 4130SOL    HW213290   6.282   3.165   0.504
 4131SOL     OW13291   4.784   6.996   3.082
 4131SOL    HW113292   4.843   6.919   3.105
 4131SOL    HW213293   4.785   0.038   3.157
 4132SOL     OW13294   0.793   5.219   3.946
 4132SOL    HW113295   0.840   5.304   3.923
 4132SOL    HW213296   0.759   5.223   4.040
 4133SOL     OW13297   5.565   1.026   2.944
 4133SOL    HW113298   5.602   0.944   2.990
 4133SOL    HW213299   5.607   1.107   2.984
 4134SOL     OW13300   1.497   3.763   1.523
 4134SOL    HW113301   1.442   3.827   1.576
 4134SOL    HW213302   1.438   3.693   1.483
 4135SOL     OW13303   6.691   1.381   2.009
 4135SOL    HW113304   6.700   1.480   2.001
 4135SOL    HW213305   6.781   1.340   2.022
 4136SOL     OW13306   1.384   4.624   1.325
 4136SOL    HW113307   1.473   4.667   1.312
 4136SOL    HW213308   1.326   4.641   1.245
 4137SOL     OW13309   1.275   2.634   0.427
 4137SOL    HW113310   1.237   2.720   0.393
 4137SOL    HW213311   1.218   2.600   0.502
 4138SOL     OW13312   5.399   0.790   0.529
 4138SOL    HW113313   5.325   0.854   0.506
 4138SOL    HW213314   5.373   0.737   0.610
 4139SOL     OW13315   1.896   3.373   2.837
 4139SOL    HW113316   1.871   3.467   2.812
 4139SOL    HW213317   1.814   3.316   2.841
 4140SOL     OW13318   2.125   1.038   6.441
 4140SOL    HW113319   2.086   1.063   6.352
 4140SOL    HW213320   2.170   1.118   6.481
 4141SOL     OW13321   4.717   0.088   5.948
 4141SOL    HW113322   4.759   0.164   5.998
 4141SOL    HW213323   4.666   0.124   5.870
 4142SOL     OW13324   0.907   4.477   2.465
 4142SOL    HW113325   0.945   4.448   2.377
 4142SOL    HW213326   0.939   4.415   2.537
 4143SOL     OW13327   5.231   3.020   0.519
 4143SOL    HW113328   5.242   3.119   0.522
 4143SOL    HW213329   5.140   2.995   0.552
 4144SOL     OW13330   6.094   0.903   0.606
 4144SOL    HW113331   6.085   0.821   0.550
 4144SOL    HW213332   6.003   0.931   0.639
 4145SOL     OW13333   0.204   6.634   1.625
 4145SOL    HW113334   0.291   6.585   1.618
 4145SOL    HW213335   0.155   6.627   1.538
 4146SOL     OW13336   4.424   6.081   3.188
 4146SOL    HW113337   4.426   6.180   3.181
 4146SOL    HW213338   4.394   6.042   3.101
 4147SOL     OW13339   4.744   4.259   5.968
 4147SOL    HW113340   4.742   4.328   5.895
 4147SOL    HW213341   4.656   4.214   5.975
 4148SOL     OW13342   2.695   1.508   5.931
 4148SOL    HW113343   2.782   1.463   5.948
 4148SOL    HW213344   2.693   1.542   5.836
 4149SOL     OW13345   2.583   3.457   6.369
 4149SOL    HW113346   2.595   3.448   6.270
 4149SOL    HW213347   2.606   3.550   6.397
 4150SOL     OW13348   5.419   1.718   6.200
 4150SOL    HW113349   5.464   1.637   6.238
 4150SOL    HW213350   5.328   1.728   6.241
 4151SOL     OW13351   2.803   6.026   4.156
 4151SOL    HW113352   2.855   6.093   4.209
 4151SOL    HW213353   2.725   6.072   4.113
 4152SOL     OW13354   2.633   4.741   1.067
 4152SOL    HW113355   2.728   4.756   1.042
 4152SOL    HW213356   2.629   4.696   1.157
 4153SOL     OW13357   0.121   5.860   1.374
 4153SOL    HW113358   0.047   5.923   1.399
 4153SOL    HW213359   0.089   5.766   1.386
 4154SOL     OW13360   1.230   6.351   3.563
 4154SOL    HW113361   1.186   6.303   3.487
 4154SOL    HW213362   1.236   6.290   3.642
 4155SOL     OW13363   0.488   0.850   1.260
 4155SOL    HW113364   0.485   0.935   1.207
 4155SOL    HW213365   0.472   0.772   1.198
 4156SOL     OW13366   6.936   5.093   6.013
 4156SOL    HW113367   6.850   5.143   6.005
 4156SOL    HW213368   6.988   5.128   6.091
 4157SOL     OW13369   6.663   6.361   1.740
 4157SOL    HW113370   6.729   6.339   1.668
 4157SOL    HW213371   6.596   6.426   1.705
 4158SOL     OW13372   0.867   2.724   1.844
 4158SOL    HW113373   0.891   2.764   1.933
 4158SOL    HW213374   0.768   2.712   1.839
 4159SOL     OW13375   3.394   1.035   3.923
 4159SOL    HW113376   3.449   1.088   3.858
 4159SOL    HW213377   3.376   1.091   4.004
 4160SOL     OW13378   6.453   6.370   6.488
 4160SOL    HW113379   6.549   6.342   6.491
 4160SOL    HW213380   6.405   6.315   6.421
 4161SOL     OW13381   3.896   2.940   1.915
 4161SOL    HW113382   3.912   2.931   2.013
 4161SOL    HW213383   3.966   2.999   1.875
 4162SOL     OW13384   5.124   5.791   1.766
 4162SOL    HW113385   5.101   5.877   1.813
 4162SOL    HW213386   5.123   5.716   1.831
 4163SOL     OW13387   3.366   6.705   1.532
 4163SOL    HW113388   3.404   6.796   1.552
 4163SOL    HW213389   3.302   6.712   1.456
 4164SOL     OW13390   6.658   0.181   5.358
 4164SOL    HW113391   6.674   0.262   5.301
 4164SOL    HW213392   6.581   0.199   5.419
 4165SOL     OW13393   3.951   1.118   5.069
 4165SOL    HW113394   3.899   1.187   5.121
 4165SOL    HW213395   4.048   1.144   5.067
 4166SOL     OW13396   5.516   1.270   1.417
 4166SOL    HW113397   5.598   1.241   1.368
 4166SOL    HW213398   5.436   1.254   1.360
 4167SOL     OW13399   3.992   5.293   4.634
 4167SOL    HW113400   3.899   5.263   4.655
 4167SOL    HW213401   4.010   5.278   4.537
 4168SOL     OW13402   4.631   4.183   6.726
 4168SOL    HW113403   4.710   4.137   6.768
 4168SOL    HW213404   4.548   4.157   6.774
 4169SOL     OW13405   5.059   3.587   5.033
 4169SOL    HW113406   5.110   3.662   5.074
 4169SOL    HW213407   4.967   3.618   5.010
 4170SOL     OW13408   0.346   3.135   3.698
 4170SOL    HW113409   0.398   3.161   3.617
 4170SOL    HW213410   0.401   3.075   3.756
 4171SOL     OW13411   0.772   2.900   0.821
 4171SOL    HW113412   0.765   2.972   0.753
 4171SOL    HW213413   0.841   2.925   0.889
 4172SOL     OW13414   2.850   4.505   0.696
 4172SOL    HW113415   2.911   4.457   0.633
 4172SOL    HW213416   2.783   4.440   0.732
 4173SOL     OW13417   4.747   3.005   5.104
 4173SOL    HW113418   4.715   3.016   5.198
 4173SOL    HW213419   4.822   3.068   5.087
 4174SOL     OW13420   3.348   0.404   4.717
 4174SOL    HW113421   3.394   0.426   4.803
 4174SOL    HW213422   3.392   0.454   4.642
 4175SOL     OW13423   1.470   4.305   6.681
 4175SOL    HW113424   1.528   4.384   6.703
 4175SOL    HW213425   1.490   4.230   6.743
 4176SOL     OW13426   4.974   0.124   6.153
 4176SOL    HW113427   4.948   0.219   6.135
 4176SOL    HW213428   4.998   0.113   6.249
 4177SOL     OW13429   4.554   4.503   3.134
 4177SOL    HW113430   4.485   4.573   3.151
 4177SOL    HW213431   4.641   4.531   3.175
 4178SOL     OW13432   4.151   5.348   1.470
 4178SOL    HW113433   4.066   5.356   1.418
 4178SOL    HW213434   4.219   5.411   1.432
 4179SOL     OW13435   5.243   3.068   4.956
 4179SOL    HW113436   5.284   3.153   4.989
 4179SOL    HW213437   5.249   3.065   4.856
 4180SOL     OW13438   4.476   4.291   0.314
 4180SOL    HW113439   4.572   4.284   0.340
 4180SOL    HW213440   4.437   4.374   0.356
 4181SOL     OW13441   4.571   0.366   4.923
 4181SOL    HW113442   4.618   0.337   5.006
 4181SOL    HW213443   4.566   0.466   4.921
 4182SOL     OW13444   0.097   6.480   4.046
 4182SOL    HW113445   0.004   6.462   4.077
 4182SOL    HW213446   0.094   6.535   3.963
 4183SOL     OW13447   3.687   2.227   1.244
 4183SOL    HW113448   3.770   2.257   1.292
 4183SOL    HW213449   3.710   2.148   1.187
 4184SOL     OW13450   3.357   5.179   3.624
 4184SOL    HW113451   3.369   5.083   3.597
 4184SOL    HW213452   3.290   5.185   3.698
 4185SOL     OW13453   6.371   3.455   2.656
 4185SOL    HW113454   6.296   3.515   2.684
 4185SOL    HW213455   6.408   3.485   2.568
 4186SOL     OW13456   1.403   6.110   0.571
 4186SOL    HW113457   1.403   6.010   0.564
 4186SOL    HW213458   1.495   6.145   0.553
 4187SOL     OW13459   1.480   3.740   6.571
 4187SOL    HW113460   1.551   3.782   6.629
 4187SOL    HW213461   1.453   3.652   6.610
 4188SOL     OW13462   5.229   0.046   7.013
 4188SOL    HW113463   5.264   0.131   6.973
 4188SOL    HW213464   5.130   0.053   0.002
 4189SOL     OW13465   5.203   5.329   3.502
 4189SOL    HW113466   5.271   5.271   3.547
 4189SOL    HW213467   5.208   5.422   3.538
 4190SOL     OW13468   6.722   6.061   0.729
 4190SOL    HW113469   6.667   6.080   0.811
 4190SOL    HW213470   6.788   5.988   0.750
 4191SOL     OW13471   4.516   4.576   6.164
 4191SOL    HW113472   4.487   4.481   6.154
 4191SOL    HW213473   4.526   4.618   6.074
 4192SOL     OW13474   0.983   3.348   1.664
 4192SOL    HW113475   0.947   3.255   1.675
 4192SOL    HW213476   0.906   3.412   1.654
 4193SOL     OW13477   0.004   6.623   0.857
 4193SOL    HW113478   0.052   6.635   0.770
 4193SOL    HW213479   6.948   6.564   0.842
 4194SOL     OW13480   4.563   1.250   4.808
 4194SOL    HW113481   4.520   1.159   4.811
 4194SOL    HW213482   4.661   1.240   4.820
 4195SOL     OW13483   4.127   5.731   1.442
 4195SOL    HW113484   4.041   5.764   1.403
 4195SOL    HW213485   4.119   5.724   1.541
 4196SOL     OW13486   6.444   2.269   2.593
 4196SOL    HW113487   6.474   2.360   2.565
 4196SOL    HW213488   6.503   2.200   2.550
 4197SOL     OW13489   3.572   6.990   6.197
 4197SOL    HW113490   3.557   6.893   6.177
 4197SOL    HW213491   3.561   0.020   6.113
 4198SOL     OW13492   6.267   1.198   2.994
 4198SOL    HW113493   6.223   1.110   2.973
 4198SOL    HW213494   6.237   1.267   2.928
 4199SOL     OW13495   0.520   3.865   6.083
 4199SOL    HW113496   0.583   3.844   6.007
 4199SOL    HW213497   0.572   3.897   6.162
 4200SOL     OW13498   4.684   1.251   3.548
 4200SOL    HW113499   4.668   1.216   3.640
 4200SOL    HW213500   4.645   1.342   3.540
 4201SOL     OW13501   5.496   0.287   3.235
 4201SOL    HW113502   5.435   0.363   3.213
 4201SOL    HW213503   5.476   0.210   3.174
 4202SOL     OW13504   4.560   4.707   1.286
 4202SOL    HW113505   4.515   4.687   1.199
 4202SOL    HW213506   4.491   4.713   1.358
 4203SOL     OW13507   6.362   5.626   6.710
 4203SOL    HW113508   6.309   5.590   6.786
 4203SOL    HW213509   6.409   5.550   6.664
 4204SOL     OW13510   2.652   3.432   6.065
 4204SOL    HW113511   2.726   3.384   6.017
 4204SOL    HW213512   2.670   3.531   6.061
 4205SOL     OW13513   3.708   5.788   4.908
 4205SOL    HW113514   3.778   5.718   4.897
 4205SOL    HW213515   3.658   5.799   4.822
 4206SOL     OW13516   1.505   2.241   4.778
 4206SOL    HW113517   1.482   2.311   4.846
 4206SOL    HW213518   1.590   2.266   4.732
 4207SOL     OW13519   1.127   3.018   1.794
 4207SOL    HW113520   1.041   3.042   1.749
 4207SOL    HW213521   1.124   3.048   1.890
 4208SOL     OW13522   2.070   3.698   4.736
 4208SOL    HW113523   2.102   3.787   4.768
 4208SOL    HW213524   1.976   3.707   4.702
 4209SOL     OW13525   0.059   5.940   2.922
 4209SOL    HW113526   0.014   6.023   2.955
 4209SOL    HW213527   0.074   5.877   2.999
 4210SOL     OW13528   3.859   2.915   4.804
 4210SOL    HW113529   3.872   2.916   4.903
 4210SOL    HW213530   3.928   2.856   4.762
 4211SOL     OW13531   4.159   2.524   5.500
 4211SOL    HW113532   4.233   2.569   5.450
 4211SOL    HW213533   4.087   2.498   5.435
 4212SOL     OW13534   6.840   2.155   3.061
 4212SOL    HW113535   6.794   2.210   3.130
 4212SOL    HW213536   6.875   2.071   3.103
 4213SOL     OW13537   3.507   1.179   3.234
 4213SOL    HW113538   3.462   1.100   3.191
 4213SOL    HW213539   3.470   1.263   3.195
 4214SOL     OW13540   0.522   5.425   4.233
 4214SOL    HW113541   0.523   5.507   4.290
 4214SOL    HW213542   0.609   5.376   4.244
 4215SOL     OW13543   4.629   6.452   5.155
 4215SOL    HW113544   4.709   6.394   5.139
 4215SOL    HW213545   4.564   6.441   5.079
 4216SOL     OW13546   2.440   6.154   2.483
 4216SOL    HW113547   2.458   6.214   2.405
 4216SOL    HW213548   2.435   6.208   2.567
 4217SOL     OW13549   0.521   0.730   2.222
 4217SOL    HW113550   0.532   0.729   2.322
 4217SOL    HW213551   0.604   0.766   2.180
 4218SOL     OW13552   2.773   1.355   1.560
 4218SOL    HW113553   2.721   1.282   1.604
 4218SOL    HW213554   2.743   1.444   1.597
 4219SOL     OW13555   4.269   6.428   3.658
 4219SOL    HW113556   4.252   6.331   3.641
 4219SOL    HW213557   4.243   6.450   3.752
 4220SOL     OW13558   4.530   1.919   1.717
 4220SOL    HW113559   4.527   1.820   1.701
 4220SOL    HW213560   4.438   1.957   1.710
 4221SOL     OW13561   0.218   5.868   6.725
 4221SOL    HW113562   0.281   5.791   6.720
 4221SOL    HW213563   0.129   5.840   6.688
 4222SOL     OW13564   4.664   2.489   3.319
 4222SOL    HW113565   4.755   2.527   3.301
 4222SOL    HW213566   4.634   2.516   3.411
 4223SOL     OW13567   4.139   3.344   2.221
 4223SOL    HW113568   4.155   3.342   2.123
 4223SOL    HW213569   4.187   3.422   2.261
 4224SOL     OW13570   4.898   3.679   4.783
 4224SOL    HW113571   4.857   3.663   4.873
 4224SOL    HW213572   4.877   3.772   4.753
 4225SOL     OW13573   0.349   2.704   5.769
 4225SOL    HW113574   0.440   2.666   5.787
 4225SOL    HW213575   0.290   2.632   5.732
 4226SOL     OW13576   1.090   5.414   4.734
 4226SOL    HW113577   1.004   5.371   4.706
 4226SOL    HW213578   1.165   5.379   4.679
 4227SOL     OW13579   5.522   5.730   2.291
 4227SOL    HW113580   5.500   5.792   2.366
 4227SOL    HW213581   5.613   5.752   2.256
 4228SOL     OW13582   1.258   5.561   4.000
 4228SOL    HW113583   1.262   5.626   4.075
 4228SOL    HW213584   1.271   5.468   4.036
 4229SOL     OW13585   6.005   4.638   5.942
 4229SOL    HW113586   6.008   4.723   5.889
 4229SOL    HW213587   6.042   4.563   5.887
 4230SOL     OW13588   0.750   0.847   2.073
 4230SOL    HW113589   0.815   0.898   2.016
 4230SOL    HW213590   0.800   0.781   2.129
 4231SOL     OW13591   5.515   1.399   5.821
 4231SOL    HW113592   5.478   1.310   5.794
 4231SOL    HW213593   5.452   1.471   5.794
 4232SOL     OW13594   1.685   5.235   4.032
 4232SOL    HW113595   1.725   5.326   4.041
 4232SOL    HW213596   1.747   5.167   4.073
 4233SOL     OW13597   5.454   6.484   3.688
 4233SOL    HW113598   5.398   6.541   3.627
 4233SOL    HW213599   5.424   6.498   3.782
 4234SOL     OW13600   2.590   5.696   5.850
 4234SOL    HW113601   2.623   5.733   5.937
 4234SOL    HW213602   2.495   5.725   5.835
 4235SOL     OW13603   0.129   4.977   5.886
 4235SOL    HW113604   0.051   5.032   5.913
 4235SOL    HW213605   0.118   4.884   5.918
 4236SOL     OW13606   0.822   5.338   1.996
 4236SOL    HW113607   0.727   5.364   1.979
 4236SOL    HW213608   0.871   5.335   1.909
 4237SOL     OW13609   6.446   4.207   3.433
 4237SOL    HW113610   6.480   4.134   3.492
 4237SOL    HW213611   6.353   4.231   3.459
 4238SOL     OW13612   2.566   0.310   3.312
 4238SOL    HW113613   2.489   0.250   3.289
 4238SOL    HW213614   2.548   0.402   3.278
 4239SOL     OW13615   3.931   0.847   3.136
 4239SOL    HW113616   4.019   0.814   3.102
 4239SOL    HW213617   3.943   0.938   3.177
 4240SOL     OW13618   0.216   6.315   0.843
 4240SOL    HW113619   0.275   6.270   0.777
 4240SOL    HW213620   0.226   6.414   0.835
 4241SOL     OW13621   6.214   2.522   6.695
 4241SOL    HW113622   6.289   2.587   6.680
 4241SOL    HW213623   6.195   2.472   6.610
 4242SOL     OW13624   2.040   2.119   3.580
 4242SOL    HW113625   2.102   2.152   3.651
 4242SOL    HW213626   2.092   2.093   3.499
 4243SOL     OW13627   5.520   1.096   3.462
 4243SOL    HW113628   5.447   1.033   3.486
 4243SOL    HW213629   5.557   1.072   3.372
 4244SOL     OW13630   3.539   3.309   2.139
 4244SOL    HW113631   3.597   3.331   2.061
 4244SOL    HW213632   3.589   3.252   2.204
 4245SOL     OW13633   5.880   2.465   6.113
 4245SOL    HW113634   5.807   2.465   6.044
 4245SOL    HW213635   5.888   2.556   6.153
 4246SOL     OW13636   0.142   3.711   2.291
 4246SOL    HW113637   0.111   3.620   2.319
 4246SOL    HW213638   0.067   3.758   2.245
 4247SOL     OW13639   6.920   5.649   5.342
 4247SOL    HW113640   6.858   5.585   5.295
 4247SOL    HW213641   7.004   5.601   5.367
 4248SOL     OW13642   1.405   2.754   5.583
 4248SOL    HW113643   1.369   2.715   5.667
 4248SOL    HW213644   1.340   2.739   5.508
 4249SOL     OW13645   5.604   3.358   6.187
 4249SOL    HW113646   5.539   3.374   6.113
 4249SOL    HW213647   5.677   3.297   6.154
 4250SOL     OW13648   6.624   5.055   3.614
 4250SOL    HW113649   6.567   5.046   3.533
 4250SOL    HW213650   6.672   4.969   3.631
 4251SOL     OW13651   5.670   4.554   0.555
 4251SOL    HW113652   5.582   4.590   0.523
 4251SOL    HW213653   5.654   4.467   0.601
 4252SOL     OW13654   0.857   5.028   5.553
 4252SOL    HW113655   0.884   4.933   5.538
 4252SOL    HW213656   0.786   5.053   5.487
 4253SOL     OW13657   4.504   0.626   1.637
 4253SOL    HW113658   4.568   0.700   1.618
 4253SOL    HW213659   4.444   0.612   1.559
 4254SOL     OW13660   2.143   3.790   1.495
 4254SOL    HW113661   2.166   3.753   1.405
 4254SOL    HW213662   2.177   3.883   1.502
 4255SOL     OW13663   6.900   3.202   4.428
 4255SOL    HW113664   6.941   3.293   4.421
 4255SOL    HW213665   6.950   3.149   4.497
 4256SOL     OW13666   1.722   6.806   1.251
 4256SOL    HW113667   1.774   6.762   1.324
 4256SOL    HW213668   1.776   6.805   1.167
 4257SOL     OW13669   3.399   1.795   4.867
 4257SOL    HW113670   3.312   1.784   4.915
 4257SOL    HW213671   3.442   1.705   4.858
 4258SOL     OW13672   5.824   6.658   2.620
 4258SOL    HW113673   5.908   6.639   2.670
 4258SOL    HW213674   5.786   6.572   2.584
 4259SOL     OW13675   2.446   2.452   0.309
 4259SOL    HW113676   2.388   2.529   0.334
 4259SOL    HW213677   2.542   2.476   0.321
 4260SOL     OW13678   4.886   5.616   3.318
 4260SOL    HW113679   4.892   5.636   3.220
 4260SOL    HW213680   4.806   5.559   3.335
 4261SOL     OW13681   2.264   6.580   1.637
 4261SOL    HW113682   2.309   6.669   1.632
 4261SOL    HW213683   2.285   6.537   1.724
 4262SOL     OW13684   1.208   4.947   6.533
 4262SOL    HW113685   1.255   4.970   6.448
 4262SOL    HW213686   1.172   4.854   6.528
 4263SOL     OW13687   2.387   4.366   5.505
 4263SOL    HW113688   2.459   4.433   5.525
 4263SOL    HW213689   2.402   4.283   5.560
 4264SOL     OW13690   0.503   1.609   0.133
 4264SOL    HW113691   0.406   1.587   0.146
 4264SOL    HW213692   0.542   1.641   0.219
 4265SOL     OW13693   6.693   1.632   0.375
 4265SOL    HW113694   6.666   1.539   0.402
 4265SOL    HW213695   6.755   1.626   0.296
 4266SOL     OW13696   2.579   5.553   0.129
 4266SOL    HW113697   2.573   5.602   0.216
 4266SOL    HW213698   2.674   5.528   0.112
 4267SOL     OW13699   1.777   3.684   4.827
 4267SOL    HW113700   1.773   3.589   4.795
 4267SOL    HW213701   1.688   3.710   4.863
 4268SOL     OW13702   2.188   1.136   0.502
 4268SOL    HW113703   2.274   1.124   0.452
 4268SOL    HW213704   2.115   1.158   0.438
 4269SOL     OW13705   3.232   3.410   0.328
 4269SOL    HW113706   3.262   3.502   0.353
 4269SOL    HW213707   3.162   3.416   0.256
 4270SOL     OW13708   3.019   3.165   4.920
 4270SOL    HW113709   2.952   3.193   4.989
 4270SOL    HW213710   3.055   3.074   4.943
 4271SOL     OW13711   0.648   0.028   5.955
 4271SOL    HW113712   0.637   0.115   5.907
 4271SOL    HW213713   0.715   0.038   6.028
 4272SOL     OW13714   6.386   4.739   5.247
 4272SOL    HW113715   6.359   4.669   5.313
 4272SOL    HW213716   6.468   4.709   5.199
 4273SOL     OW13717   5.200   6.870   5.417
 4273SOL    HW113718   5.185   6.777   5.452
 4273SOL    HW213719   5.298   6.884   5.403
 4274SOL     OW13720   1.608   6.808   3.821
 4274SOL    HW113721   1.639   6.888   3.872
 4274SOL    HW213722   1.579   6.836   3.730
 4275SOL     OW13723   0.234   0.488   6.133
 4275SOL    HW113724   0.233   0.407   6.075
 4275SOL    HW213725   0.141   0.521   6.146
 4276SOL     OW13726   2.192   4.494   2.825
 4276SOL    HW113727   2.168   4.398   2.837
 4276SOL    HW213728   2.244   4.527   2.904
 4277SOL     OW13729   6.894   5.153   3.868
 4277SOL    HW113730   6.989   5.154   3.901
 4277SOL    HW213731   6.892   5.183   3.773
 4278SOL     OW13732   6.714   6.066   4.655
 4278SOL    HW113733   6.663   6.141   4.696
 4278SOL    HW213734   6.694   6.062   4.557
 4279SOL     OW13735   3.218   6.544   5.143
 4279SOL    HW113736   3.207   6.591   5.230
 4279SOL    HW213737   3.170   6.596   5.072
 4280SOL     OW13738   6.057   2.163   4.980
 4280SOL    HW113739   6.116   2.162   4.900
 4280SOL    HW213740   6.091   2.228   5.047
 4281SOL     OW13741   2.010   4.352   5.191
 4281SOL    HW113742   2.085   4.289   5.170
 4281SOL    HW213743   2.008   4.369   5.290
 4282SOL     OW13744   2.425   2.729   0.910
 4282SOL    HW113745   2.412   2.825   0.884
 4282SOL    HW213746   2.363   2.671   0.857
 4283SOL     OW13747   1.846   0.535   4.293
 4283SOL    HW113748   1.903   0.453   4.307
 4283SOL    HW213749   1.902   0.617   4.303
 4284SOL     OW13750   5.355   1.395   2.155
 4284SOL    HW113751   5.409   1.349   2.084
 4284SOL    HW213752   5.412   1.464   2.201
 4285SOL     OW13753   0.974   0.134   5.436
 4285SOL    HW113754   1.053   0.175   5.484
 4285SOL    HW213755   0.916   0.087   5.502
 4286SOL     OW13756   4.726   6.271   0.218
 4286SOL    HW113757   4.814   6.247   0.177
 4286SOL    HW213758   4.652   6.245   0.156
 4287SOL     OW13759   5.799   0.159   4.691
 4287SOL    HW113760   5.715   0.120   4.654
 4287SOL    HW213761   5.778   0.213   4.773
 4288SOL     OW13762   1.286   0.011   2.966
 4288SOL    HW113763   1.341   0.091   2.944
 4288SOL    HW213764   1.217   0.035   3.034
 4289SOL     OW13765   5.545   2.764   1.263
 4289SOL    HW113766   5.627   2.809   1.298
 4289SOL    HW213767   5.571   2.698   1.192
 4290SOL     OW13768   2.564   0.686   2.520
 4290SOL    HW113769   2.523   0.661   2.607
 4290SOL    HW213770   2.499   0.668   2.446
 4291SOL     OW13771   6.270   2.591   0.271
 4291SOL    HW113772   6.206   2.523   0.237
 4291SOL    HW213773   6.271   2.589   0.371
 4292SOL     OW13774   6.340   3.818   5.712
 4292SOL    HW113775   6.319   3.916   5.722
 4292SOL    HW213776   6.363   3.800   5.616
 4293SOL     OW13777   6.285   3.412   6.521
 4293SOL    HW113778   6.302   3.481   6.450
 4293SOL    HW213779   6.271   3.323   6.478
 4294SOL     OW13780   4.457   2.253   6.160
 4294SOL    HW113781   4.407   2.264   6.247
 4294SOL    HW213782   4.391   2.236   6.087
 4295SOL     OW13783   3.426   6.771   4.270
 4295SOL    HW113784   3.436   6.809   4.362
 4295SOL    HW213785   3.329   6.764   4.247
 4296SOL     OW13786   2.348   2.007   1.316
 4296SOL    HW113787   2.255   1.986   1.345
 4296SOL    HW213788   2.403   1.924   1.315
 4297SOL     OW13789   5.404   0.456   5.064
 4297SOL    HW113790   5.408   0.452   5.164
 4297SOL    HW213791   5.480   0.403   5.026
 4298SOL     OW13792   2.412   5.614   1.162
 4298SOL    HW113793   2.423   5.541   1.094
 4298SOL    HW213794   2.315   5.620   1.188
 4299SOL     OW13795   0.788   3.270   6.136
 4299SOL    HW113796   0.851   3.210   6.184
 4299SOL    HW213797   0.834   3.312   6.058
 4300SOL     OW13798   3.715   1.576   6.626
 4300SOL    HW113799   3.648   1.523   6.573
 4300SOL    HW213800   3.697   1.674   6.614
 4301SOL     OW13801   2.401   1.887   0.848
 4301SOL    HW113802   2.410   1.874   0.750
 4301SOL    HW213803   2.407   1.984   0.871
 4302SOL     OW13804   0.971   6.358   6.781
 4302SOL    HW113805   0.940   6.453   6.788
 4302SOL    HW213806   1.037   6.339   6.853
 4303SOL     OW13807   6.532   3.768   2.486
 4303SOL    HW113808   6.581   3.730   2.564
 4303SOL    HW213809   6.503   3.862   2.507
 4304SOL     OW13810   3.339   3.402   4.058
 4304SOL    HW113811   3.253   3.352   4.065
 4304SOL    HW213812   3.400   3.374   4.133
 4305SOL     OW13813   6.562   0.976   3.699
 4305SOL    HW113814   6.613   1.062   3.688
 4305SOL    HW213815   6.582   0.916   3.622
 4306SOL     OW13816   6.730   4.387   5.949
 4306SOL    HW113817   6.771   4.308   5.995
 4306SOL    HW213818   6.745   4.380   5.851
 4307SOL     OW13819   4.755   3.759   5.935
 4307SOL    HW113820   4.767   3.660   5.922
 4307SOL    HW213821   4.831   3.807   5.890
 4308SOL     OW13822   5.343   5.765   4.513
 4308SOL    HW113823   5.353   5.745   4.610
 4308SOL    HW213824   5.409   5.711   4.461
 4309SOL     OW13825   1.337   1.229   0.698
 4309SOL    HW113826   1.417   1.207   0.642
 4309SOL    HW213827   1.366   1.276   0.781
 4310SOL     OW13828   1.452   2.144   2.614
 4310SOL    HW113829   1.507   2.224   2.592
 4310SOL    HW213830   1.494   2.094   2.690
 4311SOL     OW13831   1.092   5.982   3.450
 4311SOL    HW113832   1.181   5.973   3.404
 4311SOL    HW213833   1.054   6.073   3.431
 4312SOL     OW13834   2.161   5.982   2.190
 4312SOL    HW113835   2.187   5.942   2.278
 4312SOL    HW213836   2.081   5.934   2.154
 4313SOL     OW13837   4.910   1.449   1.474
 4313SOL    HW113838   4.949   1.451   1.566
 4313SOL    HW213839   4.814   1.478   1.478
 4314SOL     OW13840   5.036   2.735   2.891
 4314SOL    HW113841   5.005   2.818   2.844
 4314SOL    HW213842   5.011   2.655   2.836
 4315SOL     OW13843   2.419   0.608   1.898
 4315SOL    HW113844   2.445   0.582   1.991
 4315SOL    HW213845   2.487   0.671   1.861
 4316SOL     OW13846   5.323   0.613   1.302
 4316SOL    HW113847   5.270   0.572   1.375
 4316SOL    HW213848   5.393   0.549   1.270
 4317SOL     OW13849   3.304   1.306   4.124
 4317SOL    HW113850   3.318   1.382   4.061
 4317SOL    HW213851   3.207   1.281   4.126
 4318SOL     OW13852   0.866   3.673   3.037
 4318SOL    HW113853   0.813   3.602   2.990
 4318SOL    HW213854   0.901   3.636   3.123
 4319SOL     OW13855   2.781   3.382   6.777
 4319SOL    HW113856   2.816   3.457   6.720
 4319SOL    HW213857   2.690   3.357   6.747
 4320SOL     OW13858   0.631   6.913   2.834
 4320SOL    HW113859   0.695   6.859   2.780
 4320SOL    HW213860   0.538   6.879   2.819
 4321SOL     OW13861   6.657   0.446   5.239
 4321SOL    HW113862   6.741   0.461   5.186
 4321SOL    HW213863   6.629   0.532   5.281
 4322SOL     OW13864   6.336   1.072   6.615
 4322SOL    HW113865   6.286   1.128   6.681
 4322SOL    HW213866   6.322   1.108   6.523
 4323SOL     OW13867   5.784   2.871   3.112
 4323SOL    HW113868   5.685   2.858   3.109
 4323SOL    HW213869   5.829   2.782   3.125
 4324SOL     OW13870   5.932   4.007   6.604
 4324SOL    HW113871   5.880   4.023   6.520
 4324SOL    HW213872   6.030   3.999   6.582
 4325SOL     OW13873   2.204   1.283   6.569
 4325SOL    HW113874   2.172   1.376   6.550
 4325SOL    HW213875   2.281   1.261   6.509
 4326SOL     OW13876   6.153   3.169   5.372
 4326SOL    HW113877   6.138   3.257   5.417
 4326SOL    HW213878   6.197   3.184   5.283
 4327SOL     OW13879   5.811   5.790   2.232
 4327SOL    HW113880   5.808   5.806   2.331
 4327SOL    HW213881   5.883   5.725   2.211
 4328SOL     OW13882   5.123   4.807   6.390
 4328SOL    HW113883   5.174   4.882   6.432
 4328SOL    HW213884   5.037   4.843   6.351
 4329SOL     OW13885   3.736   2.046   5.131
 4329SOL    HW113886   3.793   2.120   5.165
 4329SOL    HW213887   3.652   2.084   5.091
 4330SOL     OW13888   1.561   0.608   5.884
 4330SOL    HW113889   1.650   0.650   5.900
 4330SOL    HW213890   1.554   0.578   5.789
 4331SOL     OW13891   5.596   2.788   6.884
 4331SOL    HW113892   5.561   2.729   6.812
 4331SOL    HW213893   5.669   2.847   6.847
 4332SOL     OW13894   4.874   3.153   2.262
 4332SOL    HW113895   4.970   3.123   2.259
 4332SOL    HW213896   4.818   3.087   2.212
 4333SOL     OW13897   5.678   1.723   5.030
 4333SOL    HW113898   5.772   1.692   5.045
 4333SOL    HW213899   5.617   1.644   5.029
 4334SOL     OW13900   3.488   2.013   1.925
 4334SOL    HW113901   3.496   2.070   1.843
 4334SOL    HW213902   3.406   1.955   1.917
 4335SOL     OW13903   3.065   3.934   4.407
 4335SOL    HW113904   3.121   4.001   4.358
 4335SOL    HW213905   3.120   3.891   4.478
 4336SOL     OW13906   1.914   6.764   4.725
 4336SOL    HW113907   1.839   6.752   4.659
 4336SOL    HW213908   1.896   6.709   4.806
 4337SOL     OW13909   0.572   4.873   0.156
 4337SOL    HW113910   0.522   4.956   0.129
 4337SOL    HW213911   0.515   4.793   0.137
 4338SOL     OW13912   5.950   5.772   4.279
 4338SOL    HW113913   6.025   5.760   4.344
 4338SOL    HW213914   5.901   5.685   4.268
 4339SOL     OW13915   6.345   1.985   5.566
 4339SOL    HW113916   6.380   2.079   5.567
 4339SOL    HW213917   6.251   1.986   5.531
 4340SOL     OW13918   5.323   3.541   1.622
 4340SOL    HW113919   5.243   3.495   1.583
 4340SOL    HW213920   5.358   3.487   1.698
 4341SOL     OW13921   1.735   3.892   1.970
 4341SOL    HW113922   1.735   3.794   1.948
 4341SOL    HW213923   1.647   3.932   1.945
 4342SOL     OW13924   0.515   2.420   2.970
 4342SOL    HW113925   0.456   2.407   2.890
 4342SOL    HW213926   0.466   2.391   3.052
 4343SOL     OW13927   2.914   0.856   0.644
 4343SOL    HW113928   2.925   0.909   0.729
 4343SOL    HW213929   2.937   0.760   0.662
 4344SOL     OW13930   1.698   4.368   3.286
 4344SOL    HW113931   1.770   4.302   3.265
 4344SOL    HW213932   1.629   4.325   3.344
 4345SOL     OW13933   2.012   2.527   5.398
 4345SOL    HW113934   1.957   2.610   5.415
 4345SOL    HW213935   2.047   2.529   5.305
 4346SOL     OW13936   1.834   3.470   2.213
 4346SOL    HW113937   1.851   3.565   2.186
 4346SOL    HW213938   1.905   3.412   2.173
 4347SOL     OW13939   6.281   0.078   2.347
 4347SOL    HW113940   6.200   0.035   2.309
 4347SOL    HW213941   6.333   0.123   2.274
 4348SOL     OW13942   1.202   3.486   1.085
 4348SOL    HW113943   1.255   3.505   1.002
 4348SOL    HW213944   1.212   3.390   1.109
 4349SOL     OW13945   0.442   1.465   3.834
 4349SOL    HW113946   0.540   1.459   3.854
 4349SOL    HW213947   0.390   1.441   3.917
 4350SOL     OW13948   5.502   2.527   4.237
 4350SOL    HW113949   5.411   2.508   4.276
 4350SOL    HW213950   5.535   2.445   4.190
 4351SOL     OW13951   2.892   5.689   2.636
 4351SOL    HW113952   2.800   5.655   2.655
 4351SOL    HW213953   2.931   5.728   2.719
 4352SOL     OW13954   0.289   1.808   2.034
 4352SOL    HW113955   0.250   1.869   2.103
 4352SOL    HW213956   0.377   1.844   2.004
 4353SOL     OW13957   2.580   5.872   6.758
 4353SOL    HW113958   2.575   5.779   6.793
 4353SOL    HW213959   2.600   5.935   6.833
 4354SOL     OW13960   2.497   0.290   0.270
 4354SOL    HW113961   2.574   0.353   0.261
 4354SOL    HW213962   2.474   0.253   0.179
 4355SOL     OW13963   3.937   0.650   0.439
 4355SOL    HW113964   4.010   0.645   0.507
 4355SOL    HW213965   3.921   0.745   0.413
 4356SOL     OW13966   4.235   3.919   0.802
 4356SOL    HW113967   4.283   3.950   0.720
 4356SOL    HW213968   4.262   3.825   0.824
 4357SOL     OW13969   6.352   0.035   0.244
 4357SOL    HW113970   6.402   7.008   0.173
 4357SOL    HW213971   6.271   0.077   0.205
 4358SOL     OW13972   0.714   6.584   1.471
 4358SOL    HW113973   0.743   6.527   1.548
 4358SOL    HW213974   0.794   6.621   1.425
 4359SOL     OW13975   0.948   2.074   4.019
 4359SOL    HW113976   0.874   2.121   4.067
 4359SOL    HW213977   0.963   2.118   3.931
 4360SOL     OW13978   0.632   3.406   1.293
 4360SOL    HW113979   0.570   3.374   1.365
 4360SOL    HW213980   0.599   3.493   1.257
 4361SOL     OW13981   5.152   2.169   2.215
 4361SOL    HW113982   5.177   2.222   2.296
 4361SOL    HW213983   5.170   2.224   2.133
 4362SOL     OW13984   6.269   4.466   5.301
 4362SOL    HW113985   6.252   4.473   5.203
 4362SOL    HW213986   6.335   4.393   5.318
 4363SOL     OW13987   4.972   2.898   5.384
 4363SOL    HW113988   4.888   2.907   5.330
 4363SOL    HW213989   4.987   2.802   5.406
 4364SOL     OW13990   3.272   4.112   4.331
 4364SOL    HW113991   3.259   4.137   4.427
 4364SOL    HW213992   3.329   4.181   4.286
 4365SOL     OW13993   4.293   2.236   2.703
 4365SOL    HW113994   4.202   2.242   2.660
 4365SOL    HW213995   4.352   2.306   2.666
 4366SOL     OW13996   5.881   5.790   1.321
 4366SOL    HW113997   5.800   5.764   1.269
 4366SOL    HW213998   5.964   5.767   1.269
 4367SOL     OW13999   1.325   6.215   5.810
 4367SOL    HW114000   1.360   6.139   5.864
 4367SOL    HW214001   1.378   6.298   5.829
 4368SOL     OW14002   5.483   4.241   1.815
 4368SOL    HW114003   5.573   4.216   1.852
 4368SOL    HW214004   5.436   4.158   1.783
 4369SOL     OW14005   4.382   5.167   2.209
 4369SOL    HW114006   4.378   5.068   2.200
 4369SOL    HW214007   4.372   5.193   2.305
 4370SOL     OW14008   5.762   4.688   4.050
 4370SOL    HW114009   5.674   4.722   4.081
 4370SOL    HW214010   5.803   4.630   4.120
 4371SOL     OW14011   5.970   0.881   2.149
 4371SOL    HW114012   5.924   0.960   2.187
 4371SOL    HW214013   5.962   0.882   2.049
 4372SOL     OW14014   4.565   1.714   3.397
 4372SOL    HW114015   4.471   1.719   3.430
 4372SOL    HW214016   4.618   1.789   3.435
 4373SOL     OW14017   6.466   2.024   6.341
 4373SOL    HW114018   6.418   2.030   6.254
 4373SOL    HW214019   6.429   1.949   6.395
 4374SOL     OW14020   1.482   1.925   2.157
 4374SOL    HW114021   1.508   2.021   2.170
 4374SOL    HW214022   1.435   1.914   2.070
 4375SOL     OW14023   2.714   6.160   4.637
 4375SOL    HW114024   2.788   6.097   4.610
 4375SOL    HW214025   2.750   6.227   4.702
 4376SOL     OW14026   6.696   0.236   3.166
 4376SOL    HW114027   6.784   0.195   3.142
 4376SOL    HW214028   6.631   0.222   3.092
 4377SOL     OW14029   6.158   4.569   0.044
 4377SOL    HW114030   6.213   4.488   0.022
 4377SOL    HW214031   6.062   4.548   0.030
 4378SOL     OW14032   1.936   0.663   3.640
 4378SOL    HW114033   1.894   0.689   3.553
 4378SOL    HW214034   1.928   0.564   3.652
 4379SOL     OW14035   2.902   1.355   4.847
 4379SOL    HW114036   2.943   1.265   4.831
 4379SOL    HW214037   2.973   1.417   4.882
 4380SOL     OW14038   0.909   1.679   1.552
 4380SOL    HW114039   0.991   1.647   1.600
 4380SOL    HW214040   0.845   1.603   1.540
 4381SOL     OW14041   2.089   5.782   5.606
 4381SOL    HW114042   2.030   5.790   5.526
 4381SOL    HW214043   2.046   5.724   5.675
 4382SOL     OW14044   6.867   3.363   4.989
 4382SOL    HW114045   6.783   3.405   5.024
 4382SOL    HW214046   6.849   3.325   4.898
 4383SOL     OW14047   5.260   2.223   6.158
 4383SOL    HW114048   5.273   2.210   6.059
 4383SOL    HW214049   5.325   2.166   6.208
 4384SOL     OW14050   6.683   6.286   3.131
 4384SOL    HW114051   6.725   6.217   3.190
 4384SOL    HW214052   6.717   6.377   3.156
 4385SOL     OW14053   5.839   1.773   4.739
 4385SOL    HW114054   5.851   1.871   4.720
 4385SOL    HW214055   5.817   1.760   4.835
 4386SOL     OW14056   1.069   3.305   5.343
 4386SOL    HW114057   0.992   3.258   5.387
 4386SOL    HW214058   1.085   3.264   5.253
 4387SOL     OW14059   0.057   2.376   0.333
 4387SOL    HW114060   0.136   2.321   0.307
 4387SOL    HW214061   0.009   2.406   0.251
 4388SOL     OW14062   4.621   2.042   6.474
 4388SOL    HW114063   4.709   2.072   6.511
 4388SOL    HW214064   4.632   1.953   6.429
 4389SOL     OW14065   6.985   3.604   1.275
 4389SOL    HW114066   6.900   3.654   1.289
 4389SOL    HW214067   7.009   3.554   1.358
 4390SOL     OW14068   5.721   0.838   1.240
 4390SOL    HW114069   5.780   0.798   1.310
 4390SOL    HW214070   5.635   0.866   1.282
 4391SOL     OW14071   2.005   5.703   6.367
 4391SOL    HW114072   2.070   5.762   6.416
 4391SOL    HW214073   2.038   5.609   6.367
 4392SOL     OW14074   1.029   1.745   4.214
 4392SOL    HW114075   1.052   1.833   4.255
 4392SOL    HW214076   1.111   1.687   4.213
 4393SOL     OW14077   4.954   6.518   1.812
 4393SOL    HW114078   4.879   6.521   1.745
 4393SOL    HW214079   5.036   6.556   1.770
 4394SOL     OW14080   1.714   0.409   1.296
 4394SOL    HW114081   1.758   0.388   1.209
 4394SOL    HW214082   1.759   0.358   1.369
 4395SOL     OW14083   2.534   5.811   0.991
 4395SOL    HW114084   2.448   5.793   0.943
 4395SOL    HW214085   2.545   5.745   1.065
 4396SOL     OW14086   2.252   0.900   3.558
 4396SOL    HW114087   2.234   0.805   3.583
 4396SOL    HW214088   2.174   0.957   3.585
 4397SOL     OW14089   2.994   1.996   3.939
 4397SOL    HW114090   2.902   1.961   3.919
 4397SOL    HW214091   3.055   1.919   3.958
 4398SOL     OW14092   2.335   2.927   6.164
 4398SOL    HW114093   2.261   2.871   6.127
 4398SOL    HW214094   2.338   3.015   6.116
 4399SOL     OW14095   2.778   6.387   2.365
 4399SOL    HW114096   2.719   6.340   2.300
 4399SOL    HW214097   2.839   6.322   2.409
 4400SOL     OW14098   1.633   6.011   4.848
 4400SOL    HW114099   1.549   5.988   4.799
 4400SOL    HW214100   1.710   5.962   4.807
 4401SOL     OW14101   3.446   6.709   5.691
 4401SOL    HW114102   3.421   6.681   5.784
 4401SOL    HW214103   3.545   6.715   5.684
 4402SOL     OW14104   0.945   0.229   3.438
 4402SOL    HW114105   0.961   0.252   3.534
 4402SOL    HW214106   1.021   0.174   3.404
 4403SOL     OW14107   1.286   5.040   1.152
 4403SOL    HW114108   1.297   4.949   1.112
 4403SOL    HW214109   1.314   5.109   1.085
 4404SOL     OW14110   0.934   5.762   6.199
 4404SOL    HW114111   0.956   5.683   6.256
 4404SOL    HW214112   0.931   5.734   6.103
 4405SOL     OW14113   1.889   4.208   3.574
 4405SOL    HW114114   1.818   4.275   3.553
 4405SOL    HW214115   1.888   4.135   3.506
 4406SOL     OW14116   5.854   3.565   2.109
 4406SOL    HW114117   5.808   3.649   2.138
 4406SOL    HW214118   5.906   3.527   2.185
 4407SOL     OW14119   0.115   6.191   2.062
 4407SOL    HW114120   0.172   6.169   2.142
 4407SOL    HW214121   0.115   6.290   2.047
 4408SOL     OW14122   4.096   0.380   0.720
 4408SOL    HW114123   4.100   0.294   0.668
 4408SOL    HW214124   4.006   0.421   0.711
 4409SOL     OW14125   3.738   0.910   2.190
 4409SOL    HW114126   3.659   0.969   2.177
 4409SOL    HW214127   3.707   0.816   2.204
 4410SOL     OW14128   1.151   5.954   1.119
 4410SOL    HW114129   1.102   5.947   1.206
 4410SOL    HW214130   1.088   5.988   1.049
 4411SOL     OW14131   3.293   4.544   5.751
 4411SOL    HW114132   3.249   4.495   5.826
 4411SOL    HW214133   3.235   4.538   5.669
 4412SOL     OW14134   4.452   6.400   2.912
 4412SOL    HW114135   4.481   6.490   2.943
 4412SOL    HW214136   4.369   6.372   2.962
 4413SOL     OW14137   3.595   0.075   4.131
 4413SOL    HW114138   3.578   0.110   4.223
 4413SOL    HW214139   3.509   0.044   4.091
 4414SOL     OW14140   4.710   4.214   1.797
 4414SOL    HW114141   4.633   4.257   1.846
 4414SOL    HW214142   4.678   4.180   1.709
 4415SOL     OW14143   3.168   3.568   1.739
 4415SOL    HW114144   3.177   3.469   1.747
 4415SOL    HW214145   3.249   3.605   1.694
 4416SOL     OW14146   4.174   2.184   3.622
 4416SOL    HW114147   4.238   2.193   3.699
 4416SOL    HW214148   4.085   2.153   3.656
 4417SOL     OW14149   0.645   3.613   3.421
 4417SOL    HW114150   0.716   3.545   3.440
 4417SOL    HW214151   0.580   3.615   3.497
 4418SOL     OW14152   6.263   0.114   0.731
 4418SOL    HW114153   6.257   0.039   0.665
 4418SOL    HW214154   6.359   0.128   0.757
 4419SOL     OW14155   6.633   5.935   6.659
 4419SOL    HW114156   6.589   5.943   6.570
 4419SOL    HW214157   6.724   5.978   6.655
 4420SOL     OW14158   3.852   2.216   0.969
 4420SOL    HW114159   3.807   2.147   0.911
 4420SOL    HW214160   3.790   2.293   0.981
 4421SOL     OW14161   1.678   2.402   4.655
 4421SOL    HW114162   1.728   2.395   4.568
 4421SOL    HW214163   1.589   2.444   4.639
 4422SOL     OW14164   0.001   4.639   0.037
 4422SOL    HW114165   0.002   4.549   0.082
 4422SOL    HW214166   7.005   4.628   6.964
 4423SOL     OW14167   5.394   4.056   5.371
 4423SOL    HW114168   5.300   4.091   5.368
 4423SOL    HW214169   5.456   4.130   5.396
 4424SOL     OW14170   5.020   5.980   4.227
 4424SOL    HW114171   4.941   6.025   4.185
 4424SOL    HW214172   5.003   5.882   4.232
 4425SOL     OW14173   1.588   5.650   1.575
 4425SOL    HW114174   1.630   5.601   1.499
 4425SOL    HW214175   1.654   5.660   1.649
 4426SOL     OW14176   1.354   0.316   3.982
 4426SOL    HW114177   1.275   0.323   4.043
 4426SOL    HW214178   1.386   0.408   3.959
 4427SOL     OW14179   3.550   5.825   3.275
 4427SOL    HW114180   3.516   5.874   3.356
 4427SOL    HW214181   3.648   5.842   3.264
 4428SOL     OW14182   5.505   1.021   3.871
 4428SOL    HW114183   5.486   0.940   3.816
 4428SOL    HW214184   5.522   0.993   3.966
 4429SOL     OW14185   2.713   6.154   3.516
 4429SOL    HW114186   2.798   6.202   3.537
 4429SOL    HW214187   2.647   6.171   3.589
 4430SOL     OW14188   5.281   4.741   4.928
 4430SOL    HW114189   5.285   4.681   5.008
 4430SOL    HW214190   5.362   4.799   4.926
 4431SOL     OW14191   3.305   0.613   4.106
 4431SOL    HW114192   3.209   0.609   4.079
 4431SOL    HW214193   3.362   0.578   4.032
 4432SOL     OW14194   1.358   4.147   6.134
 4432SOL    HW114195   1.328   4.152   6.230
 4432SOL    HW214196   1.457   4.161   6.130
 4433SOL     OW14197   1.076   1.112   4.940
 4433SOL    HW114198   1.073   1.028   4.994
 4433SOL    HW214199   1.093   1.190   5.000
 4434SOL     OW14200   6.609   0.720   1.683
 4434SOL    HW114201   6.673   0.754   1.614
 4434SOL    HW214202   6.647   0.736   1.774
 4435SOL     OW14203   2.774   4.117   0.586
 4435SOL    HW114204   2.729   4.037   0.626
 4435SOL    HW214205   2.708   4.168   0.530
 4436SOL     OW14206   4.534   1.640   1.674
 4436SOL    HW114207   4.450   1.593   1.700
 4436SOL    HW214208   4.565   1.606   1.586
 4437SOL     OW14209   7.015   4.150   1.503
 4437SOL    HW114210   6.933   4.093   1.505
 4437SOL    HW214211   0.060   4.109   1.442
 4438SOL     OW14212   3.921   0.607   6.058
 4438SOL    HW114213   3.901   0.671   6.132
 4438SOL    HW214214   3.981   0.650   5.991
 4439SOL     OW14215   2.317   6.562   2.198
 4439SOL    HW114216   2.261   6.631   2.154
 4439SOL    HW214217   2.404   6.552   2.149
 4440SOL     OW14218   1.959   5.034   0.194
 4440SOL    HW114219   1.872   5.030   0.243
 4440SOL    HW214220   1.958   5.111   0.130
 4441SOL     OW14221   0.647   1.388   0.051
 4441SOL    HW114222   0.646   1.393   6.974
 4441SOL    HW214223   0.607   1.471   0.089
 4442SOL     OW14224   1.734   4.424   6.429
 4442SOL    HW114225   1.693   4.431   6.519
 4442SOL    HW214226   1.690   4.349   6.378
 4443SOL     OW14227   0.323   5.049   6.086
 4443SOL    HW114228   0.274   5.013   6.007
 4443SOL    HW214229   0.420   5.023   6.080
 4444SOL     OW14230   5.529   4.063   0.122
 4444SOL    HW114231   5.515   4.162   0.117
 4444SOL    HW214232   5.512   4.022   0.033
 4445SOL     OW14233   0.103   5.858   0.315
 4445SOL    HW114234   0.127   5.851   0.218
 4445SOL    HW214235   0.184   5.887   0.367
 4446SOL     OW14236   5.196   0.955   0.877
 4446SOL    HW114237   5.097   0.951   0.890
 4446SOL    HW214238   5.224   1.051   0.869
 4447SOL     OW14239   4.978   5.361   5.434
 4447SOL    HW114240   4.992   5.301   5.513
 4447SOL    HW214241   4.981   5.456   5.463
 4448SOL     OW14242   3.662   0.128   1.519
 4448SOL    HW114243   3.761   0.130   1.528
 4448SOL    HW214244   3.621   0.188   1.587
 4449SOL     OW14245   3.862   1.453   6.134
 4449SOL    HW114246   3.867   1.425   6.038
 4449SOL    HW214247   3.951   1.487   6.164
 4450SOL     OW14248   3.386   0.233   0.557
 4450SOL    HW114249   3.404   0.308   0.494
 4450SOL    HW214250   3.294   0.198   0.543
 4451SOL     OW14251   4.679   4.275   3.639
 4451SOL    HW114252   4.584   4.299   3.661
 4451SOL    HW214253   4.688   4.260   3.541
 4452SOL     OW14254   5.031   6.166   4.679
 4452SOL    HW114255   5.046   6.177   4.581
 4452SOL    HW214256   4.940   6.199   4.703
 4453SOL     OW14257   0.499   3.621   1.150
 4453SOL    HW114258   0.426   3.559   1.121
 4453SOL    HW214259   0.462   3.712   1.165
 4454SOL     OW14260   0.695   2.336   0.580
 4454SOL    HW114261   0.728   2.406   0.516
 4454SOL    HW214262   0.703   2.246   0.538
 4455SOL     OW14263   0.131   6.207   5.039
 4455SOL    HW114264   0.131   6.307   5.030
 4455SOL    HW214265   0.217   6.177   5.080
 4456SOL     OW14266   1.990   6.820   4.333
 4456SOL    HW114267   1.969   6.807   4.236
 4456SOL    HW214268   1.913   6.790   4.388
 4457SOL     OW14269   0.800   2.115   5.009
 4457SOL    HW114270   0.875   2.063   5.049
 4457SOL    HW214271   0.741   2.054   4.957
 4458SOL     OW14272   2.041   3.676   0.566
 4458SOL    HW114273   2.038   3.659   0.468
 4458SOL    HW214274   2.135   3.668   0.599
 4459SOL     OW14275   1.296   2.565   3.839
 4459SOL    HW114276   1.261   2.632   3.774
 4459SOL    HW214277   1.384   2.531   3.808
 4460SOL     OW14278   0.223   3.510   4.159
 4460SOL    HW114279   0.202   3.598   4.116
 4460SOL    HW214280   0.147   3.447   4.146
 4461SOL     OW14281   2.455   0.834   1.233
 4461SOL    HW114282   2.488   0.745   1.264
 4461SOL    HW214283   2.439   0.832   1.135
 4462SOL     OW14284   5.771   4.879   2.367
 4462SOL    HW114285   5.796   4.868   2.463
 4462SOL    HW214286   5.678   4.845   2.352
 4463SOL     OW14287   6.051   2.188   0.780
 4463SOL    HW114288   6.087   2.174   0.688
 4463SOL    HW214289   5.954   2.161   0.783
 4464SOL     OW14290   0.438   5.762   6.960
 4464SOL    HW114291   0.462   5.836   6.898
 4464SOL    HW214292   0.486   5.679   6.934
 4465SOL     OW14293   1.847   5.835   0.920
 4465SOL    HW114294   1.917   5.898   0.885
 4465SOL    HW214295   1.800   5.877   0.997
 4466SOL     OW14296   1.849   1.873   3.389
 4466SOL    HW114297   1.825   1.953   3.333
 4466SOL    HW214298   1.863   1.794   3.329
 4467SOL     OW14299   3.443   6.061   3.405
 4467SOL    HW114300   3.537   6.093   3.408
 4467SOL    HW214301   3.389   6.119   3.344
 4468SOL     OW14302   1.187   3.402   1.833
 4468SOL    HW114303   1.106   3.373   1.782
 4468SOL    HW214304   1.268   3.356   1.795
 4469SOL     OW14305   2.959   6.344   1.015
 4469SOL    HW114306   2.994   6.259   0.977
 4469SOL    HW214307   3.030   6.414   1.011
 4470SOL     OW14308   1.281   0.539   2.346
 4470SOL    HW114309   1.314   0.535   2.252
 4470SOL    HW214310   1.202   0.478   2.357
 4471SOL     OW14311   1.567   1.601   6.225
 4471SOL    HW114312   1.475   1.634   6.207
 4471SOL    HW214313   1.576   1.507   6.191
 4472SOL     OW14314   1.661   2.920   1.233
 4472SOL    HW114315   1.651   2.828   1.196
 4472SOL    HW214316   1.731   2.921   1.304
 4473SOL     OW14317   0.372   3.710   4.694
 4473SOL    HW114318   0.412   3.802   4.691
 4473SOL    HW214319   0.385   3.665   4.606
 4474SOL     OW14320   2.852   6.672   1.285
 4474SOL    HW114321   2.928   6.608   1.293
 4474SOL    HW214322   2.772   6.625   1.248
 4475SOL     OW14323   0.836   3.993   1.514
 4475SOL    HW114324   0.761   3.987   1.579
 4475SOL    HW214325   0.905   3.925   1.536
 4476SOL     OW14326   4.593   1.457   3.958
 4476SOL    HW114327   4.686   1.420   3.966
 4476SOL    HW214328   4.533   1.389   3.916
 4477SOL     OW14329   2.046   0.574   6.031
 4477SOL    HW114330   2.065   0.665   5.996
 4477SOL    HW214331   2.093   0.506   5.975
 4478SOL     OW14332   1.576   0.760   0.256
 4478SOL    HW114333   1.609   0.768   0.162
 4478SOL    HW214334   1.476   0.758   0.257
 4479SOL     OW14335   1.598   3.003   0.790
 4479SOL    HW114336   1.605   2.907   0.818
 4479SOL    HW214337   1.511   3.018   0.743
 4480SOL     OW14338   0.598   5.809   3.984
 4480SOL    HW114339   0.578   5.835   3.889
 4480SOL    HW214340   0.635   5.887   4.033
 4481SOL     OW14341   2.716   4.273   6.234
 4481SOL    HW114342   2.746   4.186   6.275
 4481SOL    HW214343   2.636   4.256   6.177
 4482SOL     OW14344   2.896   5.748   6.739
 4482SOL    HW114345   2.968   5.816   6.750
 4482SOL    HW214346   2.913   5.694   6.657
 4483SOL     OW14347   0.442   3.353   1.491
 4483SOL    HW114348   0.352   3.325   1.460
 4483SOL    HW214349   0.458   3.320   1.583
 4484SOL     OW14350   2.444   2.718   6.950
 4484SOL    HW114351   2.512   2.699   7.021
 4484SOL    HW214352   2.392   2.799   6.975
 4485SOL     OW14353   5.502   2.677   5.098
 4485SOL    HW114354   5.411   2.643   5.076
 4485SOL    HW214355   5.564   2.662   5.021
 4486SOL     OW14356   4.519   5.053   5.508
 4486SOL    HW114357   4.597   5.044   5.447
 4486SOL    HW214358   4.441   5.089   5.458
 4487SOL     OW14359   1.377   2.606   0.173
 4487SOL    HW114360   1.334   2.575   0.257
 4487SOL    HW214361   1.400   2.703   0.181
 4488SOL     OW14362   0.166   3.704   3.948
 4488SOL    HW114363   0.215   3.774   3.896
 4488SOL    HW214364   0.068   3.715   3.934
 4489SOL     OW14365   4.091   5.635   5.554
 4489SOL    HW114366   4.138   5.656   5.468
 4489SOL    HW214367   4.158   5.627   5.628
 4490SOL     OW14368   5.064   1.613   0.984
 4490SOL    HW114369   5.044   1.663   0.900
 4490SOL    HW214370   5.126   1.667   1.041
 4491SOL     OW14371   1.011   2.676   3.062
 4491SOL    HW114372   0.998   2.584   3.099
 4491SOL    HW214373   0.935   2.734   3.091
 4492SOL     OW14374   5.568   0.929   1.590
 4492SOL    HW114375   5.543   0.892   1.500
 4492SOL    HW214376   5.547   0.861   1.660
 4493SOL     OW14377   4.486   1.061   4.489
 4493SOL    HW114378   4.398   1.090   4.453
 4493SOL    HW214379   4.479   1.046   4.588
 4494SOL     OW14380   0.447   0.686   0.819
 4494SOL    HW114381   0.544   0.698   0.798
 4494SOL    HW214382   0.403   0.634   0.745
 4495SOL     OW14383   4.853   5.704   1.736
 4495SOL    HW114384   4.950   5.730   1.737
 4495SOL    HW214385   4.816   5.711   1.828
 4496SOL     OW14386   3.742   5.955   6.372
 4496SOL    HW114387   3.647   5.964   6.403
 4496SOL    HW214388   3.803   5.951   6.452
 4497SOL     OW14389   4.100   1.833   6.207
 4497SOL    HW114390   4.020   1.892   6.214
 4497SOL    HW214391   4.169   1.876   6.149
 4498SOL     OW14392   0.725   5.932   5.336
 4498SOL    HW114393   0.801   5.989   5.305
 4498SOL    HW214394   0.707   5.860   5.270
 4499SOL     OW14395   5.657   2.030   2.175
 4499SOL    HW114396   5.626   1.960   2.240
 4499SOL    HW214397   5.756   2.025   2.164
 4500SOL     OW14398   3.480   5.972   6.890
 4500SOL    HW114399   3.413   5.917   6.940
 4500SOL    HW214400   3.436   6.014   6.811
 4501SOL     OW14401   5.364   0.960   2.744
 4501SOL    HW114402   5.321   0.869   2.740
 4501SOL    HW214403   5.429   0.963   2.819
 4502SOL     OW14404   0.595   3.554   6.906
 4502SOL    HW114405   0.511   3.562   6.960
 4502SOL    HW214406   0.576   3.577   6.811
 4503SOL     OW14407   2.917   7.008   2.411
 4503SOL    HW114408   2.892   0.014   2.319
 4503SOL    HW214409   3.015   6.987   2.413
 4504SOL     OW14410   0.204   1.903   3.281
 4504SOL    HW114411   0.299   1.925   3.304
 4504SOL    HW214412   0.172   1.828   3.339
 4505SOL     OW14413   6.251   3.949   3.125
 4505SOL    HW114414   6.222   3.924   3.217
 4505SOL    HW214415   6.314   4.027   3.130
 4506SOL     OW14416   4.728   2.785   4.694
 4506SOL    HW114417   4.672   2.798   4.612
 4506SOL    HW214418   4.748   2.874   4.735
 4507SOL     OW14419   6.202   2.865   3.310
 4507SOL    HW114420   6.264   2.942   3.298
 4507SOL    HW214421   6.144   2.881   3.389
 4508SOL     OW14422   0.415   5.640   0.613
 4508SOL    HW114423   0.511   5.622   0.631
 4508SOL    HW214424   0.359   5.570   0.659
 4509SOL     OW14425   4.774   2.793   2.440
 4509SOL    HW114426   4.872   2.782   2.455
 4509SOL    HW214427   4.753   2.774   2.344
 4510SOL     OW14428   4.484   1.645   4.582
 4510SOL    HW114429   4.575   1.631   4.542
 4510SOL    HW214430   4.455   1.562   4.629
 4511SOL     OW14431   0.864   4.222   0.610
 4511SOL    HW114432   0.802   4.254   0.682
 4511SOL    HW214433   0.906   4.136   0.639
 4512SOL     OW14434   3.102   2.682   6.196
 4512SOL    HW114435   3.084   2.594   6.239
 4512SOL    HW214436   3.197   2.709   6.213
 4513SOL     OW14437   1.218   6.298   0.650
 4513SOL    HW114438   1.280   6.237   0.601
 4513SOL    HW214439   1.177   6.362   0.585
 4514SOL     OW14440   3.322   3.718   6.913
 4514SOL    HW114441   3.356   3.692   6.822
 4514SOL    HW214442   3.222   3.718   6.912
 4515SOL     OW14443   4.343   0.437   6.082
 4515SOL    HW114444   4.437   0.421   6.114
 4515SOL    HW214445   4.323   0.534   6.086
 4516SOL     OW14446   3.757   1.683   4.950
 4516SOL    HW114447   3.846   1.701   4.907
 4516SOL    HW214448   3.756   1.724   5.041
 4517SOL     OW14449   3.700   0.700   5.631
 4517SOL    HW114450   3.755   0.641   5.572
 4517SOL    HW214451   3.605   0.668   5.629
 4518SOL     OW14452   1.531   0.583   1.034
 4518SOL    HW114453   1.609   0.578   0.972
 4518SOL    HW214454   1.560   0.627   1.120
 4519SOL     OW14455   5.146   6.369   6.420
 4519SOL    HW114456   5.171   6.305   6.492
 4519SOL    HW214457   5.228   6.408   6.379
 4520SOL     OW14458   4.730   6.674   4.993
 4520SOL    HW114459   4.635   6.702   5.001
 4520SOL    HW214460   4.762   6.636   5.080
 4521SOL     OW14461   4.381   2.425   4.585
 4521SOL    HW114462   4.370   2.326   4.579
 4521SOL    HW214463   4.443   2.447   4.661
 4522SOL     OW14464   4.996   4.147   3.383
 4522SOL    HW114465   4.920   4.087   3.358
 4522SOL    HW214466   5.011   4.214   3.311
 4523SOL     OW14467   0.400   3.275   6.276
 4523SOL    HW114468   0.419   3.178   6.293
 4523SOL    HW214469   0.423   3.297   6.181
 4524SOL     OW14470   0.739   3.193   2.863
 4524SOL    HW114471   0.717   3.227   2.771
 4524SOL    HW214472   0.676   3.120   2.887
 4525SOL     OW14473   3.069   1.546   5.381
 4525SOL    HW114474   3.144   1.484   5.356
 4525SOL    HW214475   3.099   1.641   5.368
 4526SOL     OW14476   0.350   6.806   5.654
 4526SOL    HW114477   0.386   6.804   5.561
 4526SOL    HW214478   0.312   6.716   5.676
 4527SOL     OW14479   6.571   0.450   2.848
 4527SOL    HW114480   6.643   0.501   2.896
 4527SOL    HW214481   6.545   0.371   2.902
 4528SOL     OW14482   4.266   0.855   5.230
 4528SOL    HW114483   4.267   0.810   5.140
 4528SOL    HW214484   4.201   0.809   5.290
 4529SOL     OW14485   2.505   1.176   5.200
 4529SOL    HW114486   2.602   1.187   5.175
 4529SOL    HW214487   2.489   1.218   5.289
 4530SOL     OW14488   3.365   5.490   5.571
 4530SOL    HW114489   3.369   5.464   5.668
 4530SOL    HW214490   3.402   5.417   5.515
 4531SOL     OW14491   0.939   4.889   5.922
 4531SOL    HW114492   0.944   4.889   6.022
 4531SOL    HW214493   1.031   4.901   5.884
 4532SOL     OW14494   5.872   0.800   2.960
 4532SOL    HW114495   5.883   0.711   2.916
 4532SOL    HW214496   5.895   0.792   3.058
 4533SOL     OW14497   3.105   0.363   2.130
 4533SOL    HW114498   3.079   0.343   2.224
 4533SOL    HW214499   3.049   0.437   2.094
 4534SOL     OW14500   4.569   1.699   4.066
 4534SOL    HW114501   4.556   1.612   4.018
 4534SOL    HW214502   4.480   1.742   4.083
 4535SOL     OW14503   2.593   1.767   1.046
 4535SOL    HW114504   2.543   1.783   0.961
 4535SOL    HW214505   2.659   1.694   1.033
 4536SOL     OW14506   2.666   1.181   5.763
 4536SOL    HW114507   2.663   1.159   5.861
 4536SOL    HW214508   2.758   1.212   5.739
 4537SOL     OW14509   3.613   2.869   3.773
 4537SOL    HW114510   3.590   2.932   3.848
 4537SOL    HW214511   3.597   2.775   3.803
 4538SOL     OW14512   0.134   2.061   0.465
 4538SOL    HW114513   0.152   2.092   0.558
 4538SOL    HW214514   0.172   2.127   0.400
 4539SOL     OW14515   1.574   6.150   5.092
 4539SOL    HW114516   1.515   6.219   5.049
 4539SOL    HW214517   1.608   6.087   5.021
 4540SOL     OW14518   0.588   0.539   0.002
 4540SOL    HW114519   0.509   0.600   7.023
 4540SOL    HW214520   0.654   0.568   6.957
 4541SOL     OW14521   4.559   2.909   5.808
 4541SOL    HW114522   4.579   2.812   5.794
 4541SOL    HW214523   4.641   2.955   5.843
 4542SOL     OW14524   6.576   2.424   1.321
 4542SOL    HW114525   6.667   2.465   1.319
 4542SOL    HW214526   6.582   2.331   1.356
 4543SOL     OW14527   3.546   2.059   0.104
 4543SOL    HW114528   3.544   2.062   0.204
 4543SOL    HW214529   3.515   1.970   0.072
 4544SOL     OW14530   5.448   6.190   0.597
 4544SOL    HW114531   5.439   6.091   0.584
 4544SOL    HW214532   5.544   6.215   0.590
 4545SOL     OW14533   1.912   3.143   5.435
 4545SOL    HW114534   1.989   3.165   5.494
 4545SOL    HW214535   1.826   3.159   5.485
 4546SOL     OW14536   3.307   1.352   6.478
 4546SOL    HW114537   3.405   1.374   6.475
 4546SOL    HW214538   3.255   1.437   6.487
 4547SOL     OW14539   6.599   0.259   0.184
 4547SOL    HW114540   6.642   0.249   0.095
 4547SOL    HW214541   6.619   0.179   0.240
 4548SOL     OW14542   2.282   2.749   2.554
 4548SOL    HW114543   2.286   2.668   2.495
 4548SOL    HW214544   2.293   2.720   2.650
 4549SOL     OW14545   5.807   3.726   3.807
 4549SOL    HW114546   5.883   3.746   3.746
 4549SOL    HW214547   5.728   3.784   3.783
 4550SOL     OW14548   1.036   3.788   3.273
 4550SOL    HW114549   1.075   3.803   3.182
 4550SOL    HW214550   1.014   3.876   3.315
 4551SOL     OW14551   1.090   3.587   4.492
 4551SOL    HW114552   1.114   3.503   4.442
 4551SOL    HW214553   1.144   3.593   4.576
 4552SOL     OW14554   5.822   1.190   1.259
 4552SOL    HW114555   5.873   1.257   1.205
 4552SOL    HW214556   5.874   1.167   1.341
 4553SOL     OW14557   6.164   5.371   6.430
 4553SOL    HW114558   6.200   5.278   6.438
 4553SOL    HW214559   6.085   5.381   6.490
 4554SOL     OW14560   0.072   5.916   2.627
 4554SOL    HW114561   0.063   6.014   2.612
 4554SOL    HW214562   0.025   5.891   2.712
 4555SOL     OW14563   1.079   1.307   6.588
 4555SOL    HW114564   1.142   1.324   6.664
 4555SOL    HW214565   1.075   1.388   6.529
 4556SOL     OW14566   5.773   4.594   6.098
 4556SOL    HW114567   5.843   4.623   6.034
 4556SOL    HW214568   5.785   4.496   6.118
 4557SOL     OW14569   6.333   4.713   2.715
 4557SOL    HW114570   6.280   4.698   2.799
 4557SOL    HW214571   6.321   4.635   2.654
 4558SOL     OW14572   0.182   3.279   5.370
 4558SOL    HW114573   0.176   3.281   5.470
 4558SOL    HW214574   0.147   3.191   5.336
 4559SOL     OW14575   0.048   2.469   2.450
 4559SOL    HW114576   0.124   2.527   2.420
 4559SOL    HW214577   7.023   2.513   2.526
 4560SOL     OW14578   5.718   4.805   2.928
 4560SOL    HW114579   5.800   4.826   2.875
 4560SOL    HW214580   5.732   4.832   3.024
 4561SOL     OW14581   3.766   2.102   4.346
 4561SOL    HW114582   3.743   2.115   4.443
 4561SOL    HW214583   3.798   2.008   4.331
 4562SOL     OW14584   2.781   1.559   1.056
 4562SOL    HW114585   2.763   1.573   1.153
 4562SOL    HW214586   2.818   1.467   1.042
 4563SOL     OW14587   0.458   3.807   1.679
 4563SOL    HW114588   0.444   3.763   1.767
 4563SOL    HW214589   0.517   3.887   1.691
 4564SOL     OW14590   0.503   3.819   2.297
 4564SOL    HW114591   0.408   3.829   2.328
 4564SOL    HW214592   0.532   3.724   2.310
 4565SOL     OW14593   1.786   6.022   5.751
 4565SOL    HW114594   1.706   5.964   5.769
 4565SOL    HW214595   1.869   5.968   5.765
 4566SOL     OW14596   5.771   4.514   1.905
 4566SOL    HW114597   5.680   4.494   1.941
 4566SOL    HW214598   5.840   4.473   1.964
 4567SOL     OW14599   0.080   0.527   6.423
 4567SOL    HW114600   0.117   0.620   6.430
 4567SOL    HW214601   0.101   0.476   6.506
 4568SOL     OW14602   1.145   5.537   3.216
 4568SOL    HW114603   1.185   5.611   3.163
 4568SOL    HW214604   1.122   5.570   3.308
 4569SOL     OW14605   2.496   0.983   3.521
 4569SOL    HW114606   2.397   0.968   3.512
 4569SOL    HW214607   2.525   1.055   3.458
 4570SOL     OW14608   5.518   5.490   2.106
 4570SOL    HW114609   5.598   5.503   2.047
 4570SOL    HW214610   5.527   5.546   2.187
 4571SOL     OW14611   2.910   3.563   6.351
 4571SOL    HW114612   2.945   3.517   6.270
 4571SOL    HW214613   2.935   3.660   6.348
 4572SOL     OW14614   2.844   2.995   1.596
 4572SOL    HW114615   2.871   2.981   1.691
 4572SOL    HW214616   2.834   2.906   1.551
 4573SOL     OW14617   1.921   6.056   1.506
 4573SOL    HW114618   1.920   6.156   1.505
 4573SOL    HW214619   1.877   6.022   1.422
 4574SOL     OW14620   6.001   1.593   0.595
 4574SOL    HW114621   5.981   1.690   0.611
 4574SOL    HW214622   6.080   1.584   0.535
 4575SOL     OW14623   6.832   6.452   4.628
 4575SOL    HW114624   6.742   6.440   4.588
 4575SOL    HW214625   6.827   6.440   4.727
 4576SOL     OW14626   2.867   5.104   4.849
 4576SOL    HW114627   2.906   5.016   4.820
 4576SOL    HW214628   2.867   5.109   4.949
 4577SOL     OW14629   1.821   1.494   2.586
 4577SOL    HW114630   1.755   1.422   2.605
 4577SOL    HW214631   1.827   1.510   2.488
 4578SOL     OW14632   1.171   1.142   2.031
 4578SOL    HW114633   1.162   1.167   1.934
 4578SOL    HW214634   1.205   1.048   2.038
 4579SOL     OW14635   3.692   1.829   2.009
 4579SOL    HW114636   3.751   1.900   1.970
 4579SOL    HW214637   3.618   1.872   2.061
 4580SOL     OW14638   6.898   2.697   0.186
 4580SOL    HW114639   6.885   2.740   0.097
 4580SOL    HW214640   6.965   2.749   0.239
 4581SOL     OW14641   3.213   0.597   1.481
 4581SOL    HW114642   3.275   0.666   1.444
 4581SOL    HW214643   3.243   0.506   1.452
 4582SOL     OW14644   6.343   1.197   3.518
 4582SOL    HW114645   6.414   1.205   3.449
 4582SOL    HW214646   6.277   1.126   3.491
 4583SOL     OW14647   1.575   6.889   6.851
 4583SOL    HW114648   1.539   6.937   6.770
 4583SOL    HW214649   1.675   6.893   6.850
 4584SOL     OW14650   1.646   0.707   5.531
 4584SOL    HW114651   1.714   0.676   5.597
 4584SOL    HW214652   1.652   0.651   5.449
 4585SOL     OW14653   1.393   3.584   3.235
 4585SOL    HW114654   1.488   3.616   3.234
 4585SOL    HW214655   1.392   3.485   3.245
 4586SOL     OW14656   5.606   4.487   6.758
 4586SOL    HW114657   5.623   4.407   6.815
 4586SOL    HW214658   5.545   4.462   6.683
 4587SOL     OW14659   3.163   3.769   4.604
 4587SOL    HW114660   3.078   3.734   4.644
 4587SOL    HW214661   3.225   3.693   4.584
 4588SOL     OW14662   2.925   4.254   5.699
 4588SOL    HW114663   2.859   4.254   5.623
 4588SOL    HW214664   2.915   4.168   5.750
 4589SOL     OW14665   5.396   0.246   2.435
 4589SOL    HW114666   5.414   0.160   2.482
 4589SOL    HW214667   5.462   0.258   2.361
 4590SOL     OW14668   3.530   5.268   1.420
 4590SOL    HW114669   3.508   5.331   1.346
 4590SOL    HW214670   3.538   5.318   1.506
 4591SOL     OW14671   2.145   0.370   5.853
 4591SOL    HW114672   2.053   0.393   5.824
 4591SOL    HW214673   2.161   0.272   5.840
 4592SOL     OW14674   2.217   1.552   3.896
 4592SOL    HW114675   2.247   1.562   3.991
 4592SOL    HW214676   2.121   1.525   3.894
 4593SOL     OW14677   1.458   6.126   4.518
 4593SOL    HW114678   1.487   6.209   4.470
 4593SOL    HW214679   1.491   6.046   4.469
 4594SOL     OW14680   1.934   0.493   2.786
 4594SOL    HW114681   1.836   0.484   2.802
 4594SOL    HW214682   1.982   0.491   2.874
 4595SOL     OW14683   5.237   1.829   6.422
 4595SOL    HW114684   5.218   1.740   6.380
 4595SOL    HW214685   5.163   1.893   6.398
 4596SOL     OW14686   0.543   0.965   2.478
 4596SOL    HW114687   0.482   1.022   2.533
 4596SOL    HW214688   0.632   1.010   2.471
 4597SOL     OW14689   2.618   6.238   6.919
 4597SOL    HW114690   2.692   6.298   6.890
 4597SOL    HW214691   2.592   6.260   7.013
 4598SOL     OW14692   2.213   5.251   0.031
 4598SOL    HW114693   2.245   5.161   0.002
 4598SOL    HW214694   2.113   5.255   0.025
 4599SOL     OW14695   2.601   5.216   3.290
 4599SOL    HW114696   2.616   5.130   3.338
 4599SOL    HW214697   2.514   5.256   3.319
 4600SOL     OW14698   7.006   6.154   6.076
 4600SOL    HW114699   6.922   6.196   6.043
 4600SOL    HW214700   0.058   6.220   6.069
 4601SOL     OW14701   1.455   1.224   5.256
 4601SOL    HW114702   1.437   1.313   5.298
 4601SOL    HW214703   1.549   1.223   5.220
 4602SOL     OW14704   3.000   2.497   6.749
 4602SOL    HW114705   2.970   2.413   6.795
 4602SOL    HW214706   3.082   2.532   6.794
 4603SOL     OW14707   5.206   6.597   0.944
 4603SOL    HW114708   5.150   6.679   0.935
 4603SOL    HW214709   5.294   6.611   0.898
 4604SOL     OW14710   5.424   6.872   5.667
 4604SOL    HW114711   5.451   6.882   5.762
 4604SOL    HW214712   5.334   6.914   5.653
 4605SOL     OW14713   3.383   0.384   2.089
 4605SOL    HW114714   3.284   0.378   2.086
 4605SOL    HW214715   3.411   0.461   2.147
 4606SOL     OW14716   6.667   6.607   4.197
 4606SOL    HW114717   6.697   6.691   4.152
 4606SOL    HW214718   6.645   6.625   4.292
 4607SOL     OW14719   1.949   2.798   1.943
 4607SOL    HW114720   2.032   2.810   1.888
 4607SOL    HW214721   1.894   2.882   1.938
 4608SOL     OW14722   0.285   3.412   4.492
 4608SOL    HW114723   0.228   3.491   4.514
 4608SOL    HW214724   0.373   3.444   4.455
 4609SOL     OW14725   4.776   6.385   6.870
 4609SOL    HW114726   4.796   6.445   6.947
 4609SOL    HW214727   4.831   6.302   6.878
 4610SOL     OW14728   5.298   2.795   0.196
 4610SOL    HW114729   5.308   2.707   0.150
 4610SOL    HW214730   5.346   2.792   0.284
 4611SOL     OW14731   1.254   0.674   6.326
 4611SOL    HW114732   1.156   0.660   6.314
 4611SOL    HW214733   1.280   0.651   6.419
 4612SOL     OW14734   1.796   0.128   1.312
 4612SOL    HW114735   1.810   0.034   1.282
 4612SOL    HW214736   1.874   0.158   1.366
 4613SOL     OW14737   1.676   4.784   1.777
 4613SOL    HW114738   1.599   4.724   1.799
 4613SOL    HW214739   1.729   4.744   1.702
 4614SOL     OW14740   6.781   3.869   4.382
 4614SOL    HW114741   6.840   3.937   4.426
 4614SOL    HW214742   6.693   3.910   4.360
 4615SOL     OW14743   0.672   2.134   0.409
 4615SOL    HW114744   0.677   2.082   0.323
 4615SOL    HW214745   0.611   2.086   0.472
 4616SOL     OW14746   6.273   2.817   5.249
 4616SOL    HW114747   6.275   2.880   5.327
 4616SOL    HW214748   6.339   2.743   5.265
 4617SOL     OW14749   0.342   2.403   2.768
 4617SOL    HW114750   0.263   2.436   2.820
 4617SOL    HW214751   0.353   2.457   2.685
 4618SOL     OW14752   1.927   4.850   5.666
 4618SOL    HW114753   1.921   4.836   5.765
 4618SOL    HW214754   1.877   4.778   5.618
 4619SOL     OW14755   3.846   6.440   5.252
 4619SOL    HW114756   3.774   6.371   5.244
 4619SOL    HW214757   3.932   6.402   5.219
 4620SOL     OW14758   1.294   5.258   2.669
 4620SOL    HW114759   1.393   5.253   2.678
 4620SOL    HW214760   1.270   5.265   2.572
 4621SOL     OW14761   4.600   0.668   2.558
 4621SOL    HW114762   4.511   0.698   2.525
 4621SOL    HW214763   4.638   0.737   2.619
 4622SOL     OW14764   4.716   5.803   1.345
 4622SOL    HW114765   4.738   5.778   1.250
 4622SOL    HW214766   4.701   5.719   1.398
 4623SOL     OW14767   2.867   5.043   1.228
 4623SOL    HW114768   2.796   5.110   1.204
 4623SOL    HW214769   2.826   4.970   1.284
 4624SOL     OW14770   4.188   1.310   2.109
 4624SOL    HW114771   4.141   1.280   2.026
 4624SOL    HW214772   4.165   1.406   2.127
 4625SOL     OW14773   1.770   5.587   1.386
 4625SOL    HW114774   1.717   5.587   1.301
 4625SOL    HW214775   1.854   5.534   1.373
 4626SOL     OW14776   4.073   3.836   2.155
 4626SOL    HW114777   4.123   3.893   2.220
 4626SOL    HW214778   4.079   3.740   2.183
 4627SOL     OW14779   5.760   6.562   4.985
 4627SOL    HW114780   5.770   6.565   4.886
 4627SOL    HW214781   5.795   6.647   5.025
 4628SOL     OW14782   5.826   4.992   3.725
 4628SOL    HW114783   5.810   4.910   3.669
 4628SOL    HW214784   5.758   4.997   3.798
 4629SOL     OW14785   2.787   6.453   6.917
 4629SOL    HW114786   2.874   6.481   6.876
 4629SOL    HW214787   2.724   6.530   6.916
 4630SOL     OW14788   1.565   3.476   2.142
 4630SOL    HW114789   1.544   3.416   2.064
 4630SOL    HW214790   1.663   3.473   2.160
 4631SOL     OW14791   0.418   0.514   3.376
 4631SOL    HW114792   0.373   0.585   3.322
 4631SOL    HW214793   0.407   0.426   3.331
 4632SOL     OW14794   3.185   4.884   2.682
 4632SOL    HW114795   3.188   4.874   2.781
 4632SOL    HW214796   3.181   4.981   2.658
 4633SOL     OW14797   5.155   1.040   4.342
 4633SOL    HW114798   5.122   1.127   4.305
 4633SOL    HW214799   5.255   1.039   4.340
 4634SOL     OW14800   2.887   3.592   4.669
 4634SOL    HW114801   2.799   3.625   4.633
 4634SOL    HW214802   2.923   3.521   4.609
 4635SOL     OW14803   5.095   6.056   0.753
 4635SOL    HW114804   5.054   5.994   0.687
 4635SOL    HW214805   5.036   6.135   0.767
 4636SOL     OW14806   1.882   5.586   0.801
 4636SOL    HW114807   1.880   5.672   0.852
 4636SOL    HW214808   1.853   5.603   0.706
 4637SOL     OW14809   2.751   0.869   2.389
 4637SOL    HW114810   2.843   0.850   2.424
 4637SOL    HW214811   2.684   0.819   2.443
 4638SOL     OW14812   3.190   4.633   6.793
 4638SOL    HW114813   3.245   4.607   6.873
 4638SOL    HW214814   3.250   4.669   6.722
 4639SOL     OW14815   2.421   2.413   1.525
 4639SOL    HW114816   2.377   2.453   1.444
 4639SOL    HW214817   2.365   2.432   1.606
 4640SOL     OW14818   6.659   2.798   6.113
 4640SOL    HW114819   6.734   2.810   6.178
 4640SOL    HW214820   6.619   2.707   6.124
 4641SOL     OW14821   0.796   5.599   4.335
 4641SOL    HW114822   0.815   5.621   4.240
 4641SOL    HW214823   0.699   5.614   4.354
 4642SOL     OW14824   0.449   1.502   3.189
 4642SOL    HW114825   0.374   1.452   3.230
 4642SOL    HW214826   0.429   1.521   3.093
 4643SOL     OW14827   0.255   1.811   0.053
 4643SOL    HW114828   0.219   1.745   7.010
 4643SOL    HW214829   0.193   1.817   0.131
 4644SOL     OW14830   1.086   1.162   0.593
 4644SOL    HW114831   1.173   1.191   0.633
 4644SOL    HW214832   1.104   1.106   0.512
 4645SOL     OW14833   1.131   1.790   3.811
 4645SOL    HW114834   1.224   1.772   3.779
 4645SOL    HW214835   1.134   1.845   3.893
 4646SOL     OW14836   1.985   4.613   3.563
 4646SOL    HW114837   1.916   4.664   3.510
 4646SOL    HW214838   2.051   4.677   3.602
 4647SOL     OW14839   1.321   6.730   2.775
 4647SOL    HW114840   1.330   6.633   2.797
 4647SOL    HW214841   1.252   6.772   2.835
 4648SOL     OW14842   2.634   1.663   4.517
 4648SOL    HW114843   2.653   1.603   4.594
 4648SOL    HW214844   2.568   1.733   4.544
 4649SOL     OW14845   5.567   0.322   0.446
 4649SOL    HW114846   5.503   0.399   0.443
 4649SOL    HW214847   5.524   0.244   0.492
 4650SOL     OW14848   5.492   5.888   1.364
 4650SOL    HW114849   5.524   5.974   1.403
 4650SOL    HW214850   5.395   5.895   1.342
 4651SOL     OW14851   6.051   3.458   6.254
 4651SOL    HW114852   5.969   3.502   6.290
 4651SOL    HW214853   6.038   3.359   6.252
 4652SOL     OW14854   0.218   6.303   4.212
 4652SOL    HW114855   0.134   6.277   4.261
 4652SOL    HW214856   0.198   6.381   4.152
 4653SOL     OW14857   5.271   5.358   0.684
 4653SOL    HW114858   5.346   5.382   0.623
 4653SOL    HW214859   5.265   5.425   0.758
 4654SOL     OW14860   0.172   6.673   5.271
 4654SOL    HW114861   0.121   6.679   5.357
 4654SOL    HW214862   0.183   6.765   5.233
 4655SOL     OW14863   4.589   2.623   0.970
 4655SOL    HW114864   4.596   2.695   1.040
 4655SOL    HW214865   4.583   2.666   0.880
 4656SOL     OW14866   0.906   1.415   1.347
 4656SOL    HW114867   0.808   1.394   1.342
 4656SOL    HW214868   0.933   1.469   1.267
 4657SOL     OW14869   5.610   6.802   2.179
 4657SOL    HW114870   5.519   6.828   2.214
 4657SOL    HW214871   5.648   6.879   2.128
 4658SOL     OW14872   2.272   2.645   6.315
 4658SOL    HW114873   2.297   2.603   6.402
 4658SOL    HW214874   2.346   2.704   6.284
 4659SOL     OW14875   3.097   4.680   0.450
 4659SOL    HW114876   3.025   4.713   0.512
 4659SOL    HW214877   3.085   4.582   0.435
 4660SOL     OW14878   1.272   6.377   3.916
 4660SOL    HW114879   1.310   6.411   4.003
 4660SOL    HW214880   1.295   6.441   3.843
 4661SOL     OW14881   0.910   2.844   5.668
 4661SOL    HW114882   0.847   2.921   5.658
 4661SOL    HW214883   0.990   2.872   5.720
 4662SOL     OW14884   2.553   6.172   4.910
 4662SOL    HW114885   2.459   6.144   4.894
 4662SOL    HW214886   2.612   6.133   4.839
 4663SOL     OW14887   1.701   0.036   0.438
 4663SOL    HW114888   1.684   0.135   0.438
 4663SOL    HW214889   1.702   0.002   0.532
 4664SOL     OW14890   6.369   6.243   6.753
 4664SOL    HW114891   6.400   6.252   6.658
 4664SOL    HW214892   6.374   6.332   6.798
 4665SOL     OW14893   2.227   0.402   4.499
 4665SOL    HW114894   2.295   0.372   4.566
 4665SOL    HW214895   2.136   0.394   4.540
 4666SOL     OW14896   2.069   1.870   5.273
 4666SOL    HW114897   2.129   1.949   5.285
 4666SOL    HW214898   1.979   1.901   5.240
 4667SOL     OW14899   6.360   3.484   1.294
 4667SOL    HW114900   6.301   3.415   1.338
 4667SOL    HW214901   6.445   3.492   1.346
 4668SOL     OW14902   4.125   2.216   4.441
 4668SOL    HW114903   4.185   2.295   4.449
 4668SOL    HW214904   4.081   2.216   4.352
 4669SOL     OW14905   5.535   6.731   6.830
 4669SOL    HW114906   5.444   6.769   6.844
 4669SOL    HW214907   5.558   6.734   6.733
 4670SOL     OW14908   0.962   2.939   0.496
 4670SOL    HW114909   1.048   2.919   0.448
 4670SOL    HW214910   0.981   2.955   0.593
 4671SOL     OW14911   0.395   3.884   0.185
 4671SOL    HW114912   0.337   3.934   0.121
 4671SOL    HW214913   0.441   3.948   0.246
 4672SOL     OW14914   3.086   4.197   6.271
 4672SOL    HW114915   3.038   4.133   6.211
 4672SOL    HW214916   3.031   4.214   6.353
 4673SOL     OW14917   6.019   0.258   6.571
 4673SOL    HW114918   6.016   0.293   6.665
 4673SOL    HW214919   6.084   0.312   6.517
 4674SOL     OW14920   1.128   1.853   0.698
 4674SOL    HW114921   1.101   1.785   0.766
 4674SOL    HW214922   1.224   1.878   0.713
 4675SOL     OW14923   2.639   6.706   0.153
 4675SOL    HW114924   2.732   6.669   0.142
 4675SOL    HW214925   2.589   6.651   0.220
 4676SOL     OW14926   0.769   5.967   3.699
 4676SOL    HW114927   0.780   5.870   3.722
 4676SOL    HW214928   0.688   5.979   3.643
 4677SOL     OW14929   4.487   0.453   6.519
 4677SOL    HW114930   4.486   0.467   6.618
 4677SOL    HW214931   4.414   0.390   6.493
 4678SOL     OW14932   2.181   4.707   0.034
 4678SOL    HW114933   2.101   4.702   0.094
 4678SOL    HW214934   2.199   4.616   7.020
 4679SOL     OW14935   3.311   0.951   6.047
 4679SOL    HW114936   3.257   0.941   5.964
 4679SOL    HW214937   3.362   1.037   6.044
 4680SOL     OW14938   2.061   4.647   0.356
 4680SOL    HW114939   2.056   4.739   0.393
 4680SOL    HW214940   2.129   4.594   0.407
 4681SOL     OW14941   0.156   5.544   5.467
 4681SOL    HW114942   0.218   5.561   5.391
 4681SOL    HW214943   0.131   5.630   5.510
 4682SOL     OW14944   4.180   6.386   0.781
 4682SOL    HW114945   4.191   6.482   0.805
 4682SOL    HW214946   4.213   6.329   0.856
 4683SOL     OW14947   6.008   4.361   2.844
 4683SOL    HW114948   6.093   4.362   2.897
 4683SOL    HW214949   5.941   4.421   2.887
 4684SOL     OW14950   1.567   1.778   4.665
 4684SOL    HW114951   1.559   1.769   4.566
 4684SOL    HW214952   1.615   1.699   4.702
 4685SOL     OW14953   5.464   5.137   4.685
 4685SOL    HW114954   5.434   5.042   4.678
 4685SOL    HW214955   5.415   5.182   4.760
 4686SOL     OW14956   4.299   6.096   6.622
 4686SOL    HW114957   4.312   6.185   6.667
 4686SOL    HW214958   4.325   6.104   6.526
 4687SOL     OW14959   6.594   5.706   4.469
 4687SOL    HW114960   6.551   5.616   4.474
 4687SOL    HW214961   6.635   5.727   4.558
 4688SOL     OW14962   0.326   2.728   6.492
 4688SOL    HW114963   0.256   2.658   6.507
 4688SOL    HW214964   0.367   2.754   6.580
 4689SOL     OW14965   0.405   6.210   5.184
 4689SOL    HW114966   0.467   6.209   5.105
 4689SOL    HW214967   0.399   6.303   5.220
 4690SOL     OW14968   1.557   1.998   6.895
 4690SOL    HW114969   1.612   1.928   6.940
 4690SOL    HW214970   1.597   2.088   6.912
 4691SOL     OW14971   2.232   5.290   0.792
 4691SOL    HW114972   2.165   5.347   0.839
 4691SOL    HW214973   2.228   5.197   0.828
 4692SOL     OW14974   0.135   5.050   3.547
 4692SOL    HW114975   0.184   5.083   3.628
 4692SOL    HW214976   0.197   4.996   3.490
 4693SOL     OW14977   0.590   1.199   4.080
 4693SOL    HW114978   0.596   1.293   4.114
 4693SOL    HW214979   0.594   1.136   4.157
 4694SOL     OW14980   1.918   1.794   6.715
 4694SOL    HW114981   1.940   1.877   6.767
 4694SOL    HW214982   1.933   1.714   6.773
 4695SOL     OW14983   3.276   3.216   2.029
 4695SOL    HW114984   3.356   3.199   2.086
 4695SOL    HW214985   3.231   3.300   2.058
 4696SOL     OW14986   6.865   2.820   6.268
 4696SOL    HW114987   6.877   2.751   6.339
 4696SOL    HW214988   6.851   2.909   6.312
 4697SOL     OW14989   0.973   5.097   0.052
 4697SOL    HW114990   0.984   5.195   0.064
 4697SOL    HW214991   1.003   5.050   0.135
 4698SOL     OW14992   5.541   3.578   0.827
 4698SOL    HW114993   5.473   3.651   0.826
 4698SOL    HW214994   5.573   3.562   0.920
 4699SOL     OW14995   0.020   0.137   2.590
 4699SOL    HW114996   6.980   0.084   2.533
 4699SOL    HW214997   7.002   0.152   2.680
 4700SOL     OW14998   5.085   1.331   0.840
 4700SOL    HW114999   5.065   1.429   0.841
 4700SOL    HW215000   5.016   1.284   0.784
 4701SOL     OW15001   0.559   1.007   0.749
 4701SOL    HW115002   0.479   1.005   0.690
 4701SOL    HW215003   0.535   0.972   0.840
 4702SOL     OW15004   3.519   3.704   0.430
 4702SOL    HW115005   3.554   3.630   0.486
 4702SOL    HW215006   3.582   3.722   0.355
 4703SOL     OW15007   2.094   0.770   2.356
 4703SOL    HW115008   2.050   0.730   2.437
 4703SOL    HW215009   2.133   0.859   2.380
 4704SOL     OW15010   5.804   6.511   1.040
 4704SOL    HW115011   5.773   6.534   0.948
 4704SOL    HW215012   5.759   6.426   1.070
 4705SOL     OW15013   3.290   3.942   4.068
 4705SOL    HW115014   3.280   3.955   3.969
 4705SOL    HW215015   3.290   4.031   4.113
 4706SOL     OW15016   4.161   5.998   6.852
 4706SOL    HW115017   4.185   6.012   6.756
 4706SOL    HW215018   4.154   5.899   6.870
 4707SOL     OW15019   2.134   5.563   0.983
 4707SOL    HW115020   2.121   5.466   1.008
 4707SOL    HW215021   2.051   5.596   0.938
 4708SOL     OW15022   2.357   2.312   1.965
 4708SOL    HW115023   2.399   2.287   2.053
 4708SOL    HW215024   2.423   2.300   1.892
 4709SOL     OW15025   4.099   5.147   5.823
 4709SOL    HW115026   4.155   5.064   5.813
 4709SOL    HW215027   4.037   5.136   5.901
 4710SOL     OW15028   4.346   1.280   0.024
 4710SOL    HW115029   4.309   1.189   0.041
 4710SOL    HW215030   4.271   1.345   0.011
 4711SOL     OW15031   3.425   0.387   2.555
 4711SOL    HW115032   3.439   0.290   2.538
 4711SOL    HW215033   3.447   0.408   2.650
 4712SOL     OW15034   1.860   4.799   0.652
 4712SOL    HW115035   1.794   4.815   0.578
 4712SOL    HW215036   1.922   4.877   0.659
 4713SOL     OW15037   1.813   5.292   0.559
 4713SOL    HW115038   1.720   5.260   0.545
 4713SOL    HW215039   1.816   5.391   0.544
 4714SOL     OW15040   2.946   2.226   1.301
 4714SOL    HW115041   3.046   2.234   1.291
 4714SOL    HW215042   2.910   2.310   1.342
 4715SOL     OW15043   7.021   3.143   3.422
 4715SOL    HW115044   0.007   3.153   3.521
 4715SOL    HW215045   6.992   3.050   3.400
 4716SOL     OW15046   3.322   5.535   0.092
 4716SOL    HW115047   3.390   5.462   0.087
 4716SOL    HW215048   3.232   5.498   0.069
 4717SOL     OW15049   1.599   5.933   3.387
 4717SOL    HW115050   1.661   5.998   3.342
 4717SOL    HW215051   1.511   5.932   3.340
 4718SOL     OW15052   5.886   1.020   6.174
 4718SOL    HW115053   5.941   0.997   6.094
 4718SOL    HW215054   5.793   1.045   6.145
 4719SOL     OW15055   4.120   3.360   1.042
 4719SOL    HW115056   4.121   3.387   1.138
 4719SOL    HW215057   4.087   3.436   0.986
 4720SOL     OW15058   2.141   0.644   5.554
 4720SOL    HW115059   2.225   0.605   5.590
 4720SOL    HW215060   2.147   0.744   5.554
 4721SOL     OW15061   1.701   2.060   1.434
 4721SOL    HW115062   1.609   2.033   1.405
 4721SOL    HW215063   1.744   1.985   1.483
 4722SOL     OW15064   2.274   0.465   0.767
 4722SOL    HW115065   2.294   0.460   0.670
 4722SOL    HW215066   2.356   0.491   0.818
 4723SOL     OW15067   2.335   6.947   6.943
 4723SOL    HW115068   2.345   7.017   6.872
 4723SOL    HW215069   2.411   6.954   7.007
 4724SOL     OW15070   3.855   6.704   2.006
 4724SOL    HW115071   3.869   6.749   2.094
 4724SOL    HW215072   3.925   6.633   1.994
 4725SOL     OW15073   4.758   6.526   3.151
 4725SOL    HW115074   4.716   6.607   3.193
 4725SOL    HW215075   4.731   6.444   3.202
 4726SOL     OW15076   0.297   4.797   6.208
 4726SOL    HW115077   0.303   4.803   6.308
 4726SOL    HW215078   0.304   4.888   6.168
 4727SOL     OW15079   6.893   5.569   0.167
 4727SOL    HW115080   6.797   5.589   0.185
 4727SOL    HW215081   6.913   5.475   0.194
 4728SOL     OW15082   0.241   0.960   6.977
 4728SOL    HW115083   0.175   0.982   0.025
 4728SOL    HW215084   0.196   0.965   6.888
 4729SOL     OW15085   3.066   0.669   1.713
 4729SOL    HW115086   3.118   0.628   1.638
 4729SOL    HW215087   3.016   0.749   1.679
 4730SOL     OW15088   1.874   6.969   5.550
 4730SOL    HW115089   1.900   7.013   5.636
 4730SOL    HW215090   1.956   6.949   5.497
 4731SOL     OW15091   5.513   1.513   5.091
 4731SOL    HW115092   5.547   1.446   5.157
 4731SOL    HW215093   5.474   1.466   5.012
 4732SOL     OW15094   0.062   2.755   6.797
 4732SOL    HW115095   0.121   2.834   6.810
 4732SOL    HW215096   0.086   2.684   6.864
 4733SOL     OW15097   0.059   3.911   2.781
 4733SOL    HW115098   0.029   3.977   2.850
 4733SOL    HW215099   0.027   3.820   2.805
 4734SOL     OW15100   4.264   4.216   6.574
 4734SOL    HW115101   4.261   4.210   6.674
 4734SOL    HW215102   4.170   4.223   6.538
 4735SOL     OW15103   1.468   4.596   3.621
 4735SOL    HW115104   1.399   4.540   3.666
 4735SOL    HW215105   1.438   4.619   3.529
 4736SOL     OW15106   1.008   0.787   0.288
 4736SOL    HW115107   0.956   0.727   0.348
 4736SOL    HW215108   0.967   0.878   0.288
 4737SOL     OW15109   2.248   5.288   1.672
 4737SOL    HW115110   2.275   5.384   1.678
 4737SOL    HW215111   2.159   5.276   1.716
 4738SOL     OW15112   6.976   6.165   2.658
 4738SOL    HW115113   6.946   6.152   2.752
 4738SOL    HW215114   7.009   6.259   2.646
 4739SOL     OW15115   4.425   1.135   1.179
 4739SOL    HW115116   4.446   1.037   1.174
 4739SOL    HW215117   4.423   1.173   1.087
 4740SOL     OW15118   1.038   1.357   2.924
 4740SOL    HW115119   0.983   1.310   2.994
 4740SOL    HW215120   1.075   1.441   2.963
 4741SOL     OW15121   4.253   3.688   1.373
 4741SOL    HW115122   4.213   3.772   1.337
 4741SOL    HW215123   4.191   3.649   1.442
 4742SOL     OW15124   3.196   0.150   1.011
 4742SOL    HW115125   3.251   0.135   1.093
 4742SOL    HW215126   3.165   0.245   1.009
 4743SOL     OW15127   2.511   4.740   1.562
 4743SOL    HW115128   2.445   4.693   1.619
 4743SOL    HW215129   2.528   4.831   1.600
 4744SOL     OW15130   2.010   6.448   0.608
 4744SOL    HW115131   2.041   6.539   0.637
 4744SOL    HW215132   1.925   6.425   0.655
 4745SOL     OW15133   1.278   4.720   0.533
 4745SOL    HW115134   1.311   4.703   0.439
 4745SOL    HW215135   1.355   4.717   0.596
 4746SOL     OW15136   4.936   5.546   4.497
 4746SOL    HW115137   4.878   5.593   4.563
 4746SOL    HW215138   4.900   5.455   4.479
 4747SOL     OW15139   1.628   2.274   1.245
 4747SOL    HW115140   1.595   2.365   1.271
 4747SOL    HW215141   1.671   2.231   1.324
 4748SOL     OW15142   1.242   6.664   3.176
 4748SOL    HW115143   1.338   6.646   3.154
 4748SOL    HW215144   1.200   6.717   3.101
 4749SOL     OW15145   1.996   0.565   6.823
 4749SOL    HW115146   2.029   0.505   6.750
 4749SOL    HW215147   1.912   0.610   6.793
 4750SOL     OW15148   5.299   3.153   5.536
 4750SOL    HW115149   5.352   3.213   5.476
 4750SOL    HW215150   5.245   3.090   5.480
 4751SOL     OW15151   4.486   0.521   3.403
 4751SOL    HW115152   4.406   0.514   3.463
 4751SOL    HW215153   4.489   0.612   3.362
 4752SOL     OW15154   4.614   1.707   0.223
 4752SOL    HW115155   4.539   1.731   0.285
 4752SOL    HW215156   4.581   1.706   0.129
 4753SOL     OW15157   3.502   5.501   5.154
 4753SOL    HW115158   3.513   5.578   5.218
 4753SOL    HW215159   3.590   5.482   5.110
 4754SOL     OW15160   4.947   4.662   5.969
 4754SOL    HW115161   4.874   4.727   5.988
 4754SOL    HW215162   4.977   4.619   6.054
 4755SOL     OW15163   1.949   0.916   1.625
 4755SOL    HW115164   1.859   0.942   1.588
 4755SOL    HW215165   2.007   0.997   1.630
 4756SOL     OW15166   6.382   4.071   6.702
 4756SOL    HW115167   6.471   4.092   6.662
 4756SOL    HW215168   6.391   3.995   6.767
 4757SOL     OW15169   2.009   3.851   1.851
 4757SOL    HW115170   2.099   3.863   1.892
 4757SOL    HW215171   1.938   3.885   1.914
 4758SOL     OW15172   2.461   6.508   3.369
 4758SOL    HW115173   2.503   6.428   3.327
 4758SOL    HW215174   2.407   6.557   3.300
 4759SOL     OW15175   1.025   5.144   1.220
 4759SOL    HW115176   0.999   5.176   1.129
 4759SOL    HW215177   1.113   5.098   1.215
 4760SOL     OW15178   2.082   5.872   1.233
 4760SOL    HW115179   1.989   5.885   1.199
 4760SOL    HW215180   2.138   5.950   1.204
 4761SOL     OW15181   6.649   6.231   1.267
 4761SOL    HW115182   6.645   6.133   1.287
 4761SOL    HW215183   6.744   6.259   1.256
 4762SOL     OW15184   2.178   6.738   2.020
 4762SOL    HW115185   2.118   6.716   1.944
 4762SOL    HW215186   2.268   6.765   1.985
 4763SOL     OW15187   5.363   4.754   1.657
 4763SOL    HW115188   5.449   4.724   1.698
 4763SOL    HW215189   5.380   4.789   1.565
 4764SOL     OW15190   4.136   3.459   6.417
 4764SOL    HW115191   4.213   3.500   6.367
 4764SOL    HW215192   4.159   3.453   6.514
 4765SOL     OW15193   3.074   1.515   4.449
 4765SOL    HW115194   3.067   1.547   4.354
 4765SOL    HW215195   3.023   1.577   4.509
 4766SOL     OW15196   0.872   0.295   4.193
 4766SOL    HW115197   0.860   0.221   4.260
 4766SOL    HW215198   0.811   0.279   4.115
 4767SOL     OW15199   1.848   4.171   4.672
 4767SOL    HW115200   1.882   4.106   4.740
 4767SOL    HW215201   1.902   4.255   4.677
 4768SOL     OW15202   3.831   2.495   6.943
 4768SOL    HW115203   3.768   2.419   6.958
 4768SOL    HW215204   3.923   2.469   6.974
 4769SOL     OW15205   2.651   5.255   1.032
 4769SOL    HW115206   2.663   5.248   0.933
 4769SOL    HW215207   2.667   5.349   1.061
 4770SOL     OW15208   0.281   1.168   6.258
 4770SOL    HW115209   0.332   1.243   6.216
 4770SOL    HW215210   0.326   1.081   6.237
 4771SOL     OW15211   2.317   6.731   4.998
 4771SOL    HW115212   2.408   6.701   5.027
 4771SOL    HW215213   2.293   6.683   4.913
 4772SOL     OW15214   2.667   6.010   2.272
 4772SOL    HW115215   2.669   5.951   2.353
 4772SOL    HW215216   2.647   5.956   2.191
 4773SOL     OW15217   2.188   5.068   5.059
 4773SOL    HW115218   2.175   5.017   4.974
 4773SOL    HW215219   2.201   5.004   5.135
 4774SOL     OW15220   2.000   3.596   0.001
 4774SOL    HW115221   1.906   3.618   6.999
 4774SOL    HW215222   2.042   3.542   6.951
 4775SOL     OW15223   6.463   6.272   5.301
 4775SOL    HW115224   6.393   6.262   5.372
 4775SOL    HW215225   6.433   6.341   5.235
 4776SOL     OW15226   0.673   0.973   6.473
 4776SOL    HW115227   0.626   1.001   6.556
 4776SOL    HW215228   0.646   1.032   6.397
 4777SOL     OW15229   0.957   6.661   1.784
 4777SOL    HW115230   1.041   6.660   1.838
 4777SOL    HW215231   0.941   6.571   1.745
 4778SOL     OW15232   1.618   2.574   5.717
 4778SOL    HW115233   1.599   2.636   5.793
 4778SOL    HW215234   1.609   2.623   5.631
 4779SOL     OW15235   5.028   1.067   3.687
 4779SOL    HW115236   4.965   1.015   3.744
 4779SOL    HW215237   5.097   1.111   3.744
 4780SOL     OW15238   6.428   3.022   4.766
 4780SOL    HW115239   6.372   2.995   4.844
 4780SOL    HW215240   6.371   3.065   4.697
 4781SOL     OW15241   2.328   6.252   2.778
 4781SOL    HW115242   2.381   6.273   2.860
 4781SOL    HW215243   2.259   6.184   2.800
 4782SOL     OW15244   6.886   6.450   4.182
 4782SOL    HW115245   6.867   6.354   4.198
 4782SOL    HW215246   6.800   6.501   4.179
 4783SOL     OW15247   6.424   3.379   0.782
 4783SOL    HW115248   6.436   3.436   0.701
 4783SOL    HW215249   6.360   3.304   0.760
 4784SOL     OW15250   5.379   2.922   6.802
 4784SOL    HW115251   5.392   3.000   6.741
 4784SOL    HW215252   5.466   2.899   6.846
 4785SOL     OW15253   1.016   5.864   3.978
 4785SOL    HW115254   1.045   5.823   3.892
 4785SOL    HW215255   1.032   5.963   3.975
 4786SOL     OW15256   1.580   6.219   0.352
 4786SOL    HW115257   1.579   6.296   0.289
 4786SOL    HW215258   1.639   6.146   0.315
 4787SOL     OW15259   3.663   0.986   4.323
 4787SOL    HW115260   3.582   1.045   4.321
 4787SOL    HW215261   3.686   0.956   4.231
 4788SOL     OW15262   5.473   6.471   6.698
 4788SOL    HW115263   5.463   6.546   6.764
 4788SOL    HW215264   5.551   6.489   6.638
 4789SOL     OW15265   5.201   1.182   3.106
 4789SOL    HW115266   5.216   1.206   3.010
 4789SOL    HW215267   5.104   1.163   3.120
 4790SOL     OW15268   6.544   2.061   4.848
 4790SOL    HW115269   6.523   2.148   4.803
 4790SOL    HW215270   6.535   1.987   4.782
 4791SOL     OW15271   6.845   1.159   0.485
 4791SOL    HW115272   6.941   1.146   0.460
 4791SOL    HW215273   6.789   1.094   0.433
 4792SOL     OW15274   2.332   2.553   2.740
 4792SOL    HW115275   2.243   2.558   2.785
 4792SOL    HW215276   2.405   2.547   2.809
 4793SOL     OW15277   1.078   4.300   5.368
 4793SOL    HW115278   0.990   4.301   5.415
 4793SOL    HW215279   1.101   4.206   5.343
 4794SOL     OW15280   3.964   0.883   4.473
 4794SOL    HW115281   3.903   0.948   4.428
 4794SOL    HW215282   3.933   0.790   4.455
 4795SOL     OW15283   0.245   0.658   5.736
 4795SOL    HW115284   0.277   0.741   5.781
 4795SOL    HW215285   0.163   0.625   5.783
 4796SOL     OW15286   3.729   1.292   4.685
 4796SOL    HW115287   3.717   1.244   4.772
 4796SOL    HW215288   3.651   1.352   4.669
 4797SOL     OW15289   1.281   5.773   4.542
 4797SOL    HW115290   1.205   5.761   4.607
 4797SOL    HW215291   1.368   5.775   4.593
 4798SOL     OW15292   4.285   4.556   6.474
 4798SOL    HW115293   4.364   4.610   6.502
 4798SOL    HW215294   4.266   4.486   6.543
 4799SOL     OW15295   3.433   3.130   6.518
 4799SOL    HW115296   3.508   3.193   6.538
 4799SOL    HW215297   3.452   3.042   6.561
 4800SOL     OW15298   0.823   5.304   0.674
 4800SOL    HW115299   0.807   5.206   0.686
 4800SOL    HW215300   0.778   5.355   0.748
 4801SOL     OW15301   5.056   2.547   1.623
 4801SOL    HW115302   4.990   2.492   1.675
 4801SOL    HW215303   5.010   2.587   1.543
 4802SOL     OW15304   7.016   6.838   4.003
 4802SOL    HW115305   6.999   6.923   3.955
 4802SOL    HW215306   0.057   6.782   3.950
 4803SOL     OW15307   5.128   3.794   5.963
 4803SOL    HW115308   5.167   3.701   5.961
 4803SOL    HW215309   5.103   3.817   6.057
 4804SOL     OW15310   5.035   1.702   0.703
 4804SOL    HW115311   4.946   1.666   0.674
 4804SOL    HW215312   5.030   1.801   0.711
 4805SOL     OW15313   6.223   1.006   0.812
 4805SOL    HW115314   6.167   1.085   0.837
 4805SOL    HW215315   6.185   0.963   0.730
 4806SOL     OW15316   1.122   0.991   3.054
 4806SOL    HW115317   1.121   1.050   3.135
 4806SOL    HW215318   1.209   1.004   3.005
 4807SOL     OW15319   1.126   3.352   6.027
 4807SOL    HW115320   1.210   3.392   5.989
 4807SOL    HW215321   1.048   3.377   5.969
 4808SOL     OW15322   4.162   5.819   0.191
 4808SOL    HW115323   4.122   5.776   0.273
 4808SOL    HW215324   4.129   5.914   0.185
 4809SOL     OW15325   3.363   4.569   1.436
 4809SOL    HW115326   3.384   4.656   1.392
 4809SOL    HW215327   3.332   4.586   1.530
 4810SOL     OW15328   0.788   4.300   3.791
 4810SOL    HW115329   0.787   4.359   3.710
 4810SOL    HW215330   0.701   4.252   3.798
 4811SOL     OW15331   3.468   4.193   4.114
 4811SOL    HW115332   3.567   4.183   4.127
 4811SOL    HW215333   3.448   4.200   4.016
 4812SOL     OW15334   0.618   0.337   2.378
 4812SOL    HW115335   0.669   0.266   2.329
 4812SOL    HW215336   0.548   0.376   2.317
 4813SOL     OW15337   6.001   1.297   5.862
 4813SOL    HW115338   5.913   1.327   5.897
 4813SOL    HW215339   5.988   1.223   5.797
 4814SOL     OW15340   6.295   4.396   1.585
 4814SOL    HW115341   6.228   4.453   1.632
 4814SOL    HW215342   6.292   4.416   1.487
 4815SOL     OW15343   5.032   5.015   2.861
 4815SOL    HW115344   5.024   5.113   2.847
 4815SOL    HW215345   5.038   4.969   2.772
 4816SOL     OW15346   1.429   0.998   2.169
 4816SOL    HW115347   1.390   0.908   2.150
 4816SOL    HW215348   1.510   0.988   2.227
 4817SOL     OW15349   4.149   1.824   0.811
 4817SOL    HW115350   4.134   1.914   0.770
 4817SOL    HW215351   4.232   1.826   0.867
 4818SOL     OW15352   3.546   0.011   5.251
 4818SOL    HW115353   3.543   6.966   5.324
 4818SOL    HW215354   3.509   6.995   5.167
 4819SOL     OW15355   2.654   0.284   0.944
 4819SOL    HW115356   2.590   0.357   0.921
 4819SOL    HW215357   2.622   0.198   0.905
 4820SOL     OW15358   5.940   4.132   1.702
 4820SOL    HW115359   5.946   4.230   1.720
 4820SOL    HW215360   6.031   4.091   1.713
 4821SOL     OW15361   6.968   4.310   1.731
 4821SOL    HW115362   0.033   4.302   1.776
 4821SOL    HW215363   6.959   4.239   1.662
 4822SOL     OW15364   2.224   3.932   2.824
 4822SOL    HW115365   2.244   4.007   2.887
 4822SOL    HW215366   2.143   3.955   2.769
 4823SOL     OW15367   0.957   1.065   4.539
 4823SOL    HW115368   0.991   1.124   4.613
 4823SOL    HW215369   0.930   1.121   4.461
 4824SOL     OW15370   5.507   2.859   2.162
 4824SOL    HW115371   5.442   2.788   2.135
 4824SOL    HW215372   5.585   2.859   2.099
 4825SOL     OW15373   0.667   3.289   2.610
 4825SOL    HW115374   0.631   3.229   2.539
 4825SOL    HW215375   0.763   3.310   2.590
 4826SOL     OW15376   6.262   6.115   0.493
 4826SOL    HW115377   6.217   6.183   0.436
 4826SOL    HW215378   6.234   6.127   0.589
 4827SOL     OW15379   4.811   0.471   0.795
 4827SOL    HW115380   4.868   0.445   0.873
 4827SOL    HW215381   4.836   0.415   0.716
 4828SOL     OW15382   5.716   3.503   0.645
 4828SOL    HW115383   5.647   3.519   0.716
 4828SOL    HW215384   5.705   3.571   0.572
 4829SOL     OW15385   3.006   0.588   6.137
 4829SOL    HW115386   3.038   0.657   6.202
 4829SOL    HW215387   3.049   0.603   6.048
 4830SOL     OW15388   4.483   6.943   4.754
 4830SOL    HW115389   4.417   7.017   4.745
 4830SOL    HW215390   4.576   6.979   4.746
 4831SOL     OW15391   6.066   3.856   6.048
 4831SOL    HW115392   6.127   3.893   6.118
 4831SOL    HW215393   6.089   3.761   6.030
 4832SOL     OW15394   2.724   3.761   6.160
 4832SOL    HW115395   2.816   3.778   6.125
 4832SOL    HW215396   2.710   3.812   6.245
 4833SOL     OW15397   4.510   1.138   2.463
 4833SOL    HW115398   4.566   1.218   2.440
 4833SOL    HW215399   4.414   1.164   2.469
 4834SOL     OW15400   4.485   1.625   2.170
 4834SOL    HW115401   4.405   1.678   2.200
 4834SOL    HW215402   4.463   1.578   2.085
 4835SOL     OW15403   2.050   0.413   6.588
 4835SOL    HW115404   1.960   0.430   6.548
 4835SOL    HW215405   2.068   0.315   6.590
 4836SOL     OW15406   5.415   2.232   3.913
 4836SOL    HW115407   5.464   2.205   3.830
 4836SOL    HW215408   5.328   2.184   3.919
 4837SOL     OW15409   2.024   3.642   0.290
 4837SOL    HW115410   2.061   3.634   0.198
 4837SOL    HW215411   1.926   3.661   0.285
 4838SOL     OW15412   3.712   5.575   2.362
 4838SOL    HW115413   3.679   5.564   2.455
 4838SOL    HW215414   3.640   5.614   2.305
 4839SOL     OW15415   0.556   5.777   6.207
 4839SOL    HW115416   0.559   5.685   6.247
 4839SOL    HW215417   0.615   5.780   6.126
 4840SOL     OW15418   0.100   6.585   0.215
 4840SOL    HW115419   0.102   6.485   0.214
 4840SOL    HW215420   0.006   6.617   0.227
 4841SOL     OW15421   2.850   5.066   2.388
 4841SOL    HW115422   2.827   5.054   2.291
 4841SOL    HW215423   2.774   5.111   2.435
 4842SOL     OW15424   4.685   6.046   1.031
 4842SOL    HW115425   4.774   6.022   1.070
 4842SOL    HW215426   4.691   6.135   0.985
 4843SOL     OW15427   6.851   3.648   0.077
 4843SOL    HW115428   6.824   3.738   0.112
 4843SOL    HW215429   6.779   3.613   0.017
 4844SOL     OW15430   5.942   2.018   6.318
 4844SOL    HW115431   5.880   1.940   6.306
 4844SOL    HW215432   5.911   2.073   6.395
 4845SOL     OW15433   6.150   5.889   3.455
 4845SOL    HW115434   6.217   5.963   3.446
 4845SOL    HW215435   6.186   5.806   3.413
 4846SOL     OW15436   1.569   3.589   0.503
 4846SOL    HW115437   1.580   3.685   0.476
 4846SOL    HW215438   1.609   3.576   0.594
 4847SOL     OW15439   3.569   1.856   4.642
 4847SOL    HW115440   3.637   1.782   4.647
 4847SOL    HW215441   3.481   1.822   4.675
 4848SOL     OW15442   2.289   2.159   2.434
 4848SOL    HW115443   2.341   2.161   2.519
 4848SOL    HW215444   2.314   2.077   2.381
 4849SOL     OW15445   1.113   6.803   0.720
 4849SOL    HW115446   1.055   6.860   0.662
 4849SOL    HW215447   1.062   6.775   0.801
 4850SOL     OW15448   4.145   0.694   2.072
 4850SOL    HW115449   4.176   0.741   1.989
 4850SOL    HW215450   4.223   0.676   2.131
 4851SOL     OW15451   5.223   6.223   5.200
 4851SOL    HW115452   5.138   6.259   5.238
 4851SOL    HW215453   5.203   6.152   5.133
 4852SOL     OW15454   1.779   1.074   0.098
 4852SOL    HW115455   1.704   1.039   0.041
 4852SOL    HW215456   1.831   0.997   0.135
 4853SOL     OW15457   3.048   1.787   2.321
 4853SOL    HW115458   3.063   1.884   2.303
 4853SOL    HW215459   3.045   1.737   2.234
 4854SOL     OW15460   5.349   0.070   2.066
 4854SOL    HW115461   5.365   0.009   2.143
 4854SOL    HW215462   5.315   0.158   2.099
 4855SOL     OW15463   6.271   1.805   2.741
 4855SOL    HW115464   6.231   1.779   2.653
 4855SOL    HW215465   6.213   1.873   2.785
 4856SOL     OW15466   2.929   5.033   3.428
 4856SOL    HW115467   2.951   4.958   3.490
 4856SOL    HW215468   2.831   5.034   3.409
 4857SOL     OW15469   6.896   1.868   5.299
 4857SOL    HW115470   6.917   1.918   5.382
 4857SOL    HW215471   6.810   1.902   5.260
 4858SOL     OW15472   1.299   2.048   4.580
 4858SOL    HW115473   1.321   2.105   4.501
 4858SOL    HW215474   1.373   2.055   4.648
 4859SOL     OW15475   1.950   6.027   4.706
 4859SOL    HW115476   1.986   5.954   4.764
 4859SOL    HW215477   1.924   5.989   4.617
 4860SOL     OW15478   4.632   5.042   1.536
 4860SOL    HW115479   4.644   4.954   1.581
 4860SOL    HW215480   4.674   5.114   1.592
 4861SOL     OW15481   4.687   4.328   5.060
 4861SOL    HW115482   4.642   4.382   4.989
 4861SOL    HW215483   4.785   4.350   5.061
 4862SOL     OW15484   1.915   6.523   2.321
 4862SOL    HW115485   1.853   6.571   2.383
 4862SOL    HW215486   2.007   6.522   2.360
 4863SOL     OW15487   6.004   4.004   0.467
 4863SOL    HW115488   5.969   4.011   0.374
 4863SOL    HW215489   5.951   4.063   0.528
 4864SOL     OW15490   2.844   0.893   3.334
 4864SOL    HW115491   2.859   0.920   3.429
 4864SOL    HW215492   2.896   0.954   3.273
 4865SOL     OW15493   2.869   5.930   4.528
 4865SOL    HW115494   2.807   5.852   4.534
 4865SOL    HW215495   2.924   5.922   4.445
 4866SOL     OW15496   6.853   3.894   1.143
 4866SOL    HW115497   6.924   3.839   1.099
 4866SOL    HW215498   6.770   3.839   1.154
 4867SOL     OW15499   4.538   7.001   2.856
 4867SOL    HW115500   4.540   0.036   2.775
 4867SOL    HW215501   4.627   7.007   2.903
 4868SOL     OW15502   6.543   4.645   1.576
 4868SOL    HW115503   6.507   4.576   1.638
 4868SOL    HW215504   6.577   4.601   1.493
 4869SOL     OW15505   0.362   1.500   6.321
 4869SOL    HW115506   0.454   1.480   6.288
 4869SOL    HW215507   0.297   1.488   6.246
 4870SOL     OW15508   1.168   6.049   1.760
 4870SOL    HW115509   1.144   6.083   1.851
 4870SOL    HW215510   1.127   5.959   1.746
 4871SOL     OW15511   1.237   1.272   4.256
 4871SOL    HW115512   1.322   1.284   4.205
 4871SOL    HW215513   1.199   1.182   4.237
 4872SOL     OW15514   6.042   0.026   3.855
 4872SOL    HW115515   6.116   0.037   3.921
 4872SOL    HW215516   6.078   7.011   3.770
 4873SOL     OW15517   6.913   6.056   5.036
 4873SOL    HW115518   7.004   6.097   5.042
 4873SOL    HW215519   6.883   6.027   5.127
 4874SOL     OW15520   4.899   2.629   3.289
 4874SOL    HW115521   4.894   2.706   3.226
 4874SOL    HW215522   4.959   2.558   3.250
 4875SOL     OW15523   5.435   6.137   6.040
 4875SOL    HW115524   5.477   6.072   5.976
 4875SOL    HW215525   5.498   6.212   6.057
 4876SOL     OW15526   1.774   1.308   3.132
 4876SOL    HW115527   1.841   1.277   3.064
 4876SOL    HW215528   1.684   1.272   3.107
 4877SOL     OW15529   0.790   1.634   4.586
 4877SOL    HW115530   0.781   1.657   4.490
 4877SOL    HW215531   0.733   1.555   4.608
 4878SOL     OW15532   6.668   2.043   2.884
 4878SOL    HW115533   6.583   2.094   2.868
 4878SOL    HW215534   6.721   2.088   2.956
 4879SOL     OW15535   4.569   1.506   2.934
 4879SOL    HW115536   4.582   1.560   3.017
 4879SOL    HW215537   4.625   1.546   2.860
 4880SOL     OW15538   6.155   2.733   6.183
 4880SOL    HW115539   6.197   2.643   6.197
 4880SOL    HW215540   6.183   2.795   6.256
 4881SOL     OW15541   1.569   2.817   2.099
 4881SOL    HW115542   1.501   2.747   2.074
 4881SOL    HW215543   1.531   2.908   2.081
 4882SOL     OW15544   4.462   2.519   5.017
 4882SOL    HW115545   4.488   2.591   5.081
 4882SOL    HW215546   4.368   2.488   5.038
 4883SOL     OW15547   6.234   3.757   1.262
 4883SOL    HW115548   6.243   3.660   1.240
 4883SOL    HW215549   6.227   3.810   1.178
 4884SOL     OW15550   1.937   6.318   1.516
 4884SOL    HW115551   1.958   6.343   1.611
 4884SOL    HW215552   1.850   6.358   1.489
 4885SOL     OW15553   1.385   4.831   0.837
 4885SOL    HW115554   1.345   4.753   0.886
 4885SOL    HW215555   1.481   4.840   0.862
 4886SOL     OW15556   2.951   1.135   2.184
 4886SOL    HW115557   3.018   1.094   2.122
 4886SOL    HW215558   2.992   1.148   2.274
 4887SOL     OW15559   0.878   6.920   2.081
 4887SOL    HW115560   0.885   7.014   2.116
 4887SOL    HW215561   0.866   6.923   1.982
 4888SOL     OW15562   3.333   6.465   2.750
 4888SOL    HW115563   3.335   6.547   2.807
 4888SOL    HW215564   3.272   6.480   2.672
 4889SOL     OW15565   6.792   2.474   3.766
 4889SOL    HW115566   6.743   2.483   3.852
 4889SOL    HW215567   6.745   2.407   3.708
 4890SOL     OW15568   0.356   1.045   4.811
 4890SOL    HW115569   0.407   1.108   4.753
 4890SOL    HW215570   0.258   1.061   4.799
 4891SOL     OW15571   2.663   5.502   6.216
 4891SOL    HW115572   2.608   5.437   6.269
 4891SOL    HW215573   2.704   5.455   6.138
 4892SOL     OW15574   5.499   6.919   2.935
 4892SOL    HW115575   5.536   6.838   2.981
 4892SOL    HW215576   5.454   6.977   3.002
 4893SOL     OW15577   0.027   3.449   1.902
 4893SOL    HW115578   6.952   3.458   1.917
 4893SOL    HW215579   0.049   3.356   1.874
 4894SOL     OW15580   4.630   6.430   1.892
 4894SOL    HW115581   4.705   6.406   1.954
 4894SOL    HW215582   4.603   6.348   1.841
 4895SOL     OW15583   7.002   4.406   3.527
 4895SOL    HW115584   0.059   4.360   3.490
 4895SOL    HW215585   6.932   4.339   3.551
 4896SOL     OW15586   1.746   4.502   4.181
 4896SOL    HW115587   1.714   4.409   4.196
 4896SOL    HW215588   1.730   4.528   4.086
 4897SOL     OW15589   2.123   6.561   5.139
 4897SOL    HW115590   2.097   6.585   5.232
 4897SOL    HW215591   2.209   6.607   5.116
 4898SOL     OW15592   4.002   1.827   4.060
 4898SOL    HW115593   3.925   1.783   4.013
 4898SOL    HW215594   4.000   1.802   4.156
 4899SOL     OW15595   0.433   5.227   1.694
 4899SOL    HW115596   0.417   5.245   1.791
 4899SOL    HW215597   0.376   5.149   1.664
 4900SOL     OW15598   4.063   5.987   5.375
 4900SOL    HW115599   4.025   5.900   5.345
 4900SOL    HW215600   4.155   5.973   5.412
 4901SOL     OW15601   0.641   1.502   6.088
 4901SOL    HW115602   0.689   1.497   6.001
 4901SOL    HW215603   0.575   1.428   6.094
 4902SOL     OW15604   2.348   0.081   6.154
 4902SOL    HW115605   2.256   0.098   6.189
 4902SOL    HW215606   2.396   0.168   6.143
 4903SOL     OW15607   5.454   5.344   1.588
 4903SOL    HW115608   5.530   5.380   1.533
 4903SOL    HW215609   5.394   5.419   1.615
 4904SOL     OW15610   1.451   0.480   0.340
 4904SOL    HW115611   1.391   0.416   0.292
 4904SOL    HW215612   1.471   0.558   0.280
 4905SOL     OW15613   3.739   6.283   2.947
 4905SOL    HW115614   3.667   6.300   2.880
 4905SOL    HW215615   3.737   6.188   2.976
 4906SOL     OW15616   5.627   3.104   4.806
 4906SOL    HW115617   5.651   3.029   4.745
 4906SOL    HW215618   5.699   3.173   4.803
 4907SOL     OW15619   4.463   1.480   6.778
 4907SOL    HW115620   4.522   1.535   6.718
 4907SOL    HW215621   4.382   1.533   6.803
 4908SOL     OW15622   4.795   0.289   0.027
 4908SOL    HW115623   4.793   0.244   0.117
 4908SOL    HW215624   4.847   0.232   6.986
 4909SOL     OW15625   5.611   4.225   4.206
 4909SOL    HW115626   5.522   4.269   4.219
 4909SOL    HW215627   5.615   4.184   4.115
 4910SOL     OW15628   4.941   0.703   5.929
 4910SOL    HW115629   4.853   0.713   5.884
 4910SOL    HW215630   4.942   0.756   6.014
 4911SOL     OW15631   0.546   2.622   2.069
 4911SOL    HW115632   0.450   2.620   2.040
 4911SOL    HW215633   0.558   2.694   2.137
 4912SOL     OW15634   6.213   2.144   4.745
 4912SOL    HW115635   6.165   2.154   4.658
 4912SOL    HW215636   6.309   2.169   4.734
 4913SOL     OW15637   6.801   3.147   5.116
 4913SOL    HW115638   6.817   3.227   5.058
 4913SOL    HW215639   6.841   3.067   5.073
 4914SOL     OW15640   4.326   0.580   4.328
 4914SOL    HW115641   4.412   0.554   4.285
 4914SOL    HW215642   4.341   0.594   4.426
 4915SOL     OW15643   3.788   5.713   5.603
 4915SOL    HW115644   3.865   5.741   5.661
 4915SOL    HW215645   3.819   5.704   5.509
 4916SOL     OW15646   6.363   1.237   4.007
 4916SOL    HW115647   6.285   1.298   4.024
 4916SOL    HW215648   6.414   1.270   3.928
 4917SOL     OW15649   4.174   6.624   0.893
 4917SOL    HW115650   4.118   6.589   0.968
 4917SOL    HW215651   4.144   6.717   0.870
 4918SOL     OW15652   6.893   5.480   1.856
 4918SOL    HW115653   6.814   5.540   1.843
 4918SOL    HW215654   6.963   5.501   1.788
 4919SOL     OW15655   4.053   3.498   2.593
 4919SOL    HW115656   4.060   3.413   2.542
 4919SOL    HW215657   4.070   3.481   2.690
 4920SOL     OW15658   5.870   0.778   5.009
 4920SOL    HW115659   5.908   0.870   5.021
 4920SOL    HW215660   5.771   0.780   5.024
 4921SOL     OW15661   0.249   6.677   2.027
 4921SOL    HW115662   0.174   6.717   1.974
 4921SOL    HW215663   0.322   6.744   2.038
 4922SOL     OW15664   3.710   2.220   6.130
 4922SOL    HW115665   3.684   2.202   6.035
 4922SOL    HW215666   3.751   2.311   6.137
 4923SOL     OW15667   3.668   1.782   2.825
 4923SOL    HW115668   3.700   1.758   2.917
 4923SOL    HW215669   3.740   1.762   2.759
 4924SOL     OW15670   2.400   0.953   5.698
 4924SOL    HW115671   2.456   1.023   5.742
 4924SOL    HW215672   2.448   0.866   5.699
 4925SOL     OW15673   4.781   6.238   3.264
 4925SOL    HW115674   4.816   6.176   3.334
 4925SOL    HW215675   4.685   6.258   3.282
 4926SOL     OW15676   5.250   2.628   1.205
 4926SOL    HW115677   5.188   2.581   1.269
 4926SOL    HW215678   5.292   2.706   1.252
 4927SOL     OW15679   3.808   1.800   6.341
 4927SOL    HW115680   3.756   1.739   6.282
 4927SOL    HW215681   3.752   1.828   6.418
 4928SOL     OW15682   0.422   2.313   1.075
 4928SOL    HW115683   0.365   2.232   1.091
 4928SOL    HW215684   0.375   2.373   1.009
 4929SOL     OW15685   6.988   6.547   4.436
 4929SOL    HW115686   6.954   6.527   4.345
 4929SOL    HW215687   6.921   6.518   4.504
 4930SOL     OW15688   5.516   6.552   2.114
 4930SOL    HW115689   5.553   6.503   2.192
 4930SOL    HW215690   5.536   6.650   2.123
 4931SOL     OW15691   6.339   6.096   1.712
 4931SOL    HW115692   6.279   6.039   1.768
 4931SOL    HW215693   6.430   6.097   1.752
 4932SOL     OW15694   2.861   3.593   2.045
 4932SOL    HW115695   2.872   3.682   2.001
 4932SOL    HW215696   2.866   3.521   1.976
 4933SOL     OW15697   3.297   5.881   5.203
 4933SOL    HW115698   3.316   5.960   5.145
 4933SOL    HW215699   3.200   5.861   5.200
 4934SOL     OW15700   4.093   5.038   3.112
 4934SOL    HW115701   4.157   5.030   3.188
 4934SOL    HW215702   4.076   5.134   3.092
 4935SOL     OW15703   1.533   1.709   5.948
 4935SOL    HW115704   1.604   1.779   5.940
 4935SOL    HW215705   1.462   1.741   6.011
 4936SOL     OW15706   2.597   3.164   1.182
 4936SOL    HW115707   2.616   3.126   1.273
 4936SOL    HW215708   2.527   3.108   1.137
 4937SOL     OW15709   4.822   2.992   4.823
 4937SOL    HW115710   4.879   3.074   4.809
 4937SOL    HW215711   4.780   2.996   4.913
 4938SOL     OW15712   3.823   5.918   6.125
 4938SOL    HW115713   3.785   5.831   6.096
 4938SOL    HW215714   3.796   5.937   6.220
 4939SOL     OW15715   4.429   3.235   5.696
 4939SOL    HW115716   4.505   3.248   5.760
 4939SOL    HW215717   4.378   3.152   5.721
 4940SOL     OW15718   2.499   6.073   4.503
 4940SOL    HW115719   2.571   6.120   4.553
 4940SOL    HW215720   2.485   6.117   4.414
 4941SOL     OW15721   5.255   1.122   0.406
 4941SOL    HW115722   5.351   1.096   0.395
 4941SOL    HW215723   5.217   1.076   0.486
 4942SOL     OW15724   4.906   3.607   5.316
 4942SOL    HW115725   4.969   3.530   5.308
 4942SOL    HW215726   4.865   3.627   5.227
 4943SOL     OW15727   4.316   2.665   1.133
 4943SOL    HW115728   4.293   2.601   1.060
 4943SOL    HW215729   4.286   2.757   1.107
 4944SOL     OW15730   2.472   4.471   2.316
 4944SOL    HW115731   2.443   4.393   2.261
 4944SOL    HW215732   2.470   4.446   2.413
 4945SOL     OW15733   0.183   0.002   4.298
 4945SOL    HW115734   0.168   0.062   4.220
 4945SOL    HW215735   0.121   6.947   4.292
 4946SOL     OW15736   1.062   3.668   2.200
 4946SOL    HW115737   1.036   3.753   2.246
 4946SOL    HW215738   1.158   3.647   2.220
 4947SOL     OW15739   0.906   6.327   0.582
 4947SOL    HW115740   0.951   6.378   0.656
 4947SOL    HW215741   0.848   6.256   0.621
 4948SOL     OW15742   2.633   1.098   1.922
 4948SOL    HW115743   2.551   1.118   1.976
 4948SOL    HW215744   2.689   1.030   1.970
 4949SOL     OW15745   5.129   1.706   4.824
 4949SOL    HW115746   5.123   1.794   4.777
 4949SOL    HW215747   5.141   1.721   4.922
 4950SOL     OW15748   3.197   5.566   4.714
 4950SOL    HW115749   3.142   5.495   4.671
 4950SOL    HW215750   3.167   5.580   4.808
 4951SOL     OW15751   4.383   2.027   4.164
 4951SOL    HW115752   4.330   2.103   4.127
 4951SOL    HW215753   4.385   2.033   4.264
 4952SOL     OW15754   0.069   5.757   5.588
 4952SOL    HW115755   7.002   5.796   5.601
 4952SOL    HW215756   0.117   5.754   5.676
 4953SOL     OW15757   2.087   5.581   1.708
 4953SOL    HW115758   2.069   5.651   1.639
 4953SOL    HW215759   2.167   5.606   1.762
 4954SOL     OW15760   5.347   5.471   6.490
 4954SOL    HW115761   5.352   5.498   6.586
 4954SOL    HW215762   5.417   5.518   6.438
 4955SOL     OW15763   1.745   6.624   1.746
 4955SOL    HW115764   1.686   6.704   1.735
 4955SOL    HW215765   1.709   6.548   1.691
 4956SOL     OW15766   4.840   6.730   4.578
 4956SOL    HW115767   4.825   6.776   4.491
 4956SOL    HW215768   4.850   6.798   4.651
 4957SOL     OW15769   0.662   0.642   3.512
 4957SOL    HW115770   0.668   0.603   3.604
 4957SOL    HW215771   0.609   0.580   3.453
 4958SOL     OW15772   0.204   5.878   0.056
 4958SOL    HW115773   0.275   5.852   7.014
 4958SOL    HW215774   0.119   5.832   0.032
 4959SOL     OW15775   0.748   0.929   1.109
 4959SOL    HW115776   0.676   0.964   1.049
 4959SOL    HW215777   0.828   0.902   1.054
 4960SOL     OW15778   4.081   6.981   4.740
 4960SOL    HW115779   4.001   0.018   4.737
 4960SOL    HW215780   4.075   6.914   4.667
 4961SOL     OW15781   4.700   0.890   4.990
 4961SOL    HW115782   4.798   0.899   5.010
 4961SOL    HW215783   4.648   0.952   5.047
 4962SOL     OW15784   0.011   1.701   0.497
 4962SOL    HW115785   0.002   1.786   0.550
 4962SOL    HW215786   0.064   1.635   0.549
 4963SOL     OW15787   0.532   4.844   1.593
 4963SOL    HW115788   0.541   4.750   1.561
 4963SOL    HW215789   0.439   4.859   1.626
 4964SOL     OW15790   3.272   6.627   3.239
 4964SOL    HW115791   3.178   6.607   3.265
 4964SOL    HW215792   3.331   6.551   3.265
 4965SOL     OW15793   6.776   0.568   4.372
 4965SOL    HW115794   6.796   0.576   4.470
 4965SOL    HW215795   6.678   0.554   4.359
 4966SOL     OW15796   3.112   4.864   4.081
 4966SOL    HW115797   3.167   4.852   3.999
 4966SOL    HW215798   3.017   4.838   4.062
 4967SOL     OW15799   3.992   2.599   5.711
 4967SOL    HW115800   4.061   2.584   5.640
 4967SOL    HW215801   3.912   2.542   5.692
 4968SOL     OW15802   6.288   3.207   5.113
 4968SOL    HW115803   6.256   3.263   5.037
 4968SOL    HW215804   6.290   3.111   5.086
 4969SOL     OW15805   1.205   1.438   1.792
 4969SOL    HW115806   1.163   1.350   1.769
 4969SOL    HW215807   1.242   1.433   1.885
 4970SOL     OW15808   0.955   2.596   5.528
 4970SOL    HW115809   1.016   2.545   5.588
 4970SOL    HW215810   0.944   2.689   5.562
 4971SOL     OW15811   5.162   6.232   3.351
 4971SOL    HW115812   5.122   6.239   3.259
 4971SOL    HW215813   5.105   6.173   3.407
 4972SOL     OW15814   1.204   2.804   6.436
 4972SOL    HW115815   1.111   2.819   6.468
 4972SOL    HW215816   1.263   2.879   6.468
 4973SOL     OW15817   5.309   6.554   2.815
 4973SOL    HW115818   5.403   6.534   2.841
 4973SOL    HW215819   5.285   6.501   2.733
 4974SOL     OW15820   5.373   6.589   2.483
 4974SOL    HW115821   5.308   6.523   2.521
 4974SOL    HW215822   5.334   6.681   2.488
 4975SOL     OW15823   5.894   5.900   0.736
 4975SOL    HW115824   5.808   5.894   0.788
 4975SOL    HW215825   5.880   5.861   0.645
 4976SOL     OW15826   4.147   0.725   5.429
 4976SOL    HW115827   4.132   0.753   5.524
 4976SOL    HW215828   4.147   0.625   5.423
 4977SOL     OW15829   3.569   3.794   0.731
 4977SOL    HW115830   3.557   3.838   0.820
 4977SOL    HW215831   3.487   3.741   0.709
 4978SOL     OW15832   5.376   3.138   6.228
 4978SOL    HW115833   5.426   3.070   6.174
 4978SOL    HW215834   5.429   3.223   6.231
 4979SOL     OW15835   1.271   0.591   5.669
 4979SOL    HW115836   1.352   0.534   5.682
 4979SOL    HW215837   1.256   0.607   5.571
 4980SOL     OW15838   2.859   5.247   2.096
 4980SOL    HW115839   2.852   5.300   2.180
 4980SOL    HW215840   2.943   5.192   2.097
 4981SOL     OW15841   4.152   6.830   5.456
 4981SOL    HW115842   4.174   6.741   5.494
 4981SOL    HW215843   4.166   6.901   5.526
 4982SOL     OW15844   2.248   3.063   0.611
 4982SOL    HW115845   2.264   3.070   0.513
 4982SOL    HW215846   2.166   3.008   0.628
 4983SOL     OW15847   5.299   3.107   4.205
 4983SOL    HW115848   5.241   3.136   4.128
 4983SOL    HW215849   5.385   3.159   4.203
 4984SOL     OW15850   4.690   4.160   3.059
 4984SOL    HW115851   4.656   4.250   3.032
 4984SOL    HW215852   4.704   4.104   2.978
 4985SOL     OW15853   5.423   4.955   2.672
 4985SOL    HW115854   5.479   4.940   2.591
 4985SOL    HW215855   5.471   5.017   2.734
 4986SOL     OW15856   4.579   4.740   2.222
 4986SOL    HW115857   4.537   4.651   2.242
 4986SOL    HW215858   4.658   4.753   2.282
 4987SOL     OW15859   0.009   3.440   1.477
 4987SOL    HW115860   6.976   3.406   1.553
 4987SOL    HW215861   0.097   3.393   1.478
 4988SOL     OW15862   0.354   1.686   4.390
 4988SOL    HW115863   0.427   1.659   4.452
 4988SOL    HW215864   0.306   1.765   4.428
 4989SOL     OW15865   0.481   1.045   0.344
 4989SOL    HW115866   0.476   1.115   0.273
 4989SOL    HW215867   0.495   1.088   0.432
 4990SOL     OW15868   1.391   2.280   5.446
 4990SOL    HW115869   1.354   2.247   5.533
 4990SOL    HW215870   1.370   2.214   5.374
 4991SOL     OW15871   1.154   2.882   4.221
 4991SOL    HW115872   1.192   2.800   4.178
 4991SOL    HW215873   1.203   2.963   4.187
 4992SOL     OW15874   3.648   0.488   5.972
 4992SOL    HW115875   3.717   0.547   6.015
 4992SOL    HW215876   3.694   0.416   5.920
 4993SOL     OW15877   3.029   6.144   3.799
 4993SOL    HW115878   2.944   6.094   3.781
 4993SOL    HW215879   3.095   6.082   3.841
 4994SOL     OW15880   0.362   6.817   2.653
 4994SOL    HW115881   0.272   6.814   2.695
 4994SOL    HW215882   0.367   6.892   2.588
 4995SOL     OW15883   5.746   2.429   6.376
 4995SOL    HW115884   5.790   2.514   6.345
 4995SOL    HW215885   5.664   2.452   6.429
 4996SOL     OW15886   1.270   1.271   3.198
 4996SOL    HW115887   1.250   1.363   3.234
 4996SOL    HW215888   1.204   1.206   3.236
 4997SOL     OW15889   0.741   2.596   3.222
 4997SOL    HW115890   0.810   2.598   3.294
 4997SOL    HW215891   0.652   2.570   3.261
 4998SOL     OW15892   1.539   5.647   4.879
 4998SOL    HW115893   1.516   5.550   4.892
 4998SOL    HW215894   1.464   5.704   4.911
 4999SOL     OW15895   5.827   5.354   1.138
 4999SOL    HW115896   5.883   5.275   1.112
 4999SOL    HW215897   5.818   5.416   1.060
 5000SOL     OW15898   0.113   5.950   4.443
 5000SOL    HW115899   0.044   6.016   4.413
 5000SOL    HW215900   0.186   5.998   4.491
 5001SOL     OW15901   4.212   4.577   5.836
 5001SOL    HW115902   4.182   4.563   5.930
 5001SOL    HW215903   4.227   4.488   5.792
 5002SOL     OW15904   2.141   1.025   2.391
 5002SOL    HW115905   2.139   1.059   2.297
 5002SOL    HW215906   2.231   1.040   2.430
 5003SOL     OW15907   6.844   5.542   3.016
 5003SOL    HW115908   6.860   5.443   3.015
 5003SOL    HW215909   6.772   5.563   3.082
 5004SOL     OW15910   3.282   5.796   6.971
 5004SOL    HW115911   3.288   5.696   6.965
 5004SOL    HW215912   3.222   5.821   0.023
 5005SOL     OW15913   4.785   2.574   0.030
 5005SOL    HW115914   4.796   2.639   6.979
 5005SOL    HW215915   4.714   2.608   0.093
 5006SOL     OW15916   5.416   6.073   4.568
 5006SOL    HW115917   5.506   6.030   4.575
 5006SOL    HW215918   5.385   6.072   4.473
 5007SOL     OW15919   4.043   1.156   5.714
 5007SOL    HW115920   3.982   1.234   5.715
 5007SOL    HW215921   4.116   1.172   5.648
 5008SOL     OW15922   6.444   1.315   3.755
 5008SOL    HW115923   6.540   1.291   3.745
 5008SOL    HW215924   6.392   1.277   3.678
 5009SOL     OW15925   1.502   6.641   3.093
 5009SOL    HW115926   1.553   6.557   3.076
 5009SOL    HW215927   1.509   6.701   3.013
 5010SOL     OW15928   4.167   3.374   4.696
 5010SOL    HW115929   4.152   3.374   4.795
 5010SOL    HW215930   4.116   3.300   4.654
 5011SOL     OW15931   1.074   2.675   2.747
 5011SOL    HW115932   1.002   2.689   2.679
 5011SOL    HW215933   1.037   2.694   2.838
 5012SOL     OW15934   6.449   2.209   6.540
 5012SOL    HW115935   6.453   2.172   6.448
 5012SOL    HW215936   6.394   2.149   6.599
 5013SOL     OW15937   3.958   1.707   6.571
 5013SOL    HW115938   3.918   1.725   6.481
 5013SOL    HW215939   3.988   1.612   6.576
 5014SOL     OW15940   5.931   6.622   0.209
 5014SOL    HW115941   5.866   6.630   0.133
 5014SOL    HW215942   5.882   6.600   0.293
 5015SOL     OW15943   4.600   2.332   3.705
 5015SOL    HW115944   4.667   2.349   3.777
 5015SOL    HW215945   4.644   2.284   3.629
 5016SOL     OW15946   2.435   6.782   3.410
 5016SOL    HW115947   2.440   6.812   3.315
 5016SOL    HW215948   2.391   6.692   3.415
 5017SOL     OW15949   2.323   2.857   1.471
 5017SOL    HW115950   2.225   2.850   1.490
 5017SOL    HW215951   2.374   2.852   1.556
 5018SOL     OW15952   6.141   5.404   3.813
 5018SOL    HW115953   6.215   5.410   3.880
 5018SOL    HW215954   6.090   5.320   3.827
 5019SOL     OW15955   1.860   4.723   6.331
 5019SOL    HW115956   1.880   4.799   6.392
 5019SOL    HW215957   1.801   4.657   6.378
 5020SOL     OW15958   5.212   5.219   6.122
 5020SOL    HW115959   5.263   5.284   6.065
 5020SOL    HW215960   5.257   5.129   6.118
 5021SOL     OW15961   1.375   4.529   6.262
 5021SOL    HW115962   1.464   4.498   6.229
 5021SOL    HW215963   1.329   4.453   6.309
 5022SOL     OW15964   1.232   5.517   0.246
 5022SOL    HW115965   1.288   5.580   0.299
 5022SOL    HW215966   1.291   5.462   0.186
 5023SOL     OW15967   6.215   2.957   2.147
 5023SOL    HW115968   6.164   3.015   2.211
 5023SOL    HW215969   6.198   2.861   2.169
 5024SOL     OW15970   6.376   3.939   4.596
 5024SOL    HW115971   6.388   3.981   4.686
 5024SOL    HW215972   6.399   3.841   4.602
 5025SOL     OW15973   5.476   1.267   3.116
 5025SOL    HW115974   5.378   1.251   3.131
 5025SOL    HW215975   5.494   1.365   3.117
 5026SOL     OW15976   0.611   6.547   4.101
 5026SOL    HW115977   0.685   6.607   4.132
 5026SOL    HW215978   0.560   6.592   4.028
 5027SOL     OW15979   0.919   0.082   3.756
 5027SOL    HW115980   0.919   7.006   3.771
 5027SOL    HW215981   1.011   0.118   3.774
 5028SOL     OW15982   0.540   0.409   2.892
 5028SOL    HW115983   0.584   0.412   2.982
 5028SOL    HW215984   0.604   0.374   2.825
 5029SOL     OW15985   0.067   1.497   1.392
 5029SOL    HW115986   0.045   1.413   1.343
 5029SOL    HW215987   0.165   1.501   1.410
 5030SOL     OW15988   1.170   6.290   0.023
 5030SOL    HW115989   1.207   6.379   0.048
 5030SOL    HW215990   1.245   6.227   0.001
 5031SOL     OW15991   5.509   0.222   4.651
 5031SOL    HW115992   5.504   0.321   4.665
 5031SOL    HW215993   5.554   0.203   4.563
 5032SOL     OW15994   2.088   5.306   1.025
 5032SOL    HW115995   2.023   5.292   0.950
 5032SOL    HW215996   2.105   5.220   1.072
 5033SOL     OW15997   1.940   4.137   5.671
 5033SOL    HW115998   1.898   4.106   5.586
 5033SOL    HW215999   1.984   4.060   5.717
 5034SOL     OW16000   6.993   3.271   0.709
 5034SOL    HW116001   0.022   3.307   0.632
 5034SOL    HW216002   6.909   3.324   0.719
 5035SOL     OW16003   5.327   4.409   0.781
 5035SOL    HW116004   5.340   4.508   0.774
 5035SOL    HW216005   5.234   4.390   0.813
 5036SOL     OW16006   1.420   0.464   2.042
 5036SOL    HW116007   1.476   0.542   2.068
 5036SOL    HW216008   1.479   0.388   2.015
 5037SOL     OW16009   4.356   2.192   3.817
 5037SOL    HW116010   4.311   2.225   3.900
 5037SOL    HW216011   4.442   2.240   3.804
 5038SOL     OW16012   2.061   6.384   5.681
 5038SOL    HW116013   2.014   6.345   5.602
 5038SOL    HW216014   2.147   6.335   5.696
 5039SOL     OW16015   2.121   1.779   4.974
 5039SOL    HW116016   2.216   1.772   5.004
 5039SOL    HW216017   2.091   1.875   4.981
 5040SOL     OW16018   3.099   3.726   5.737
 5040SOL    HW116019   3.112   3.694   5.643
 5040SOL    HW216020   3.007   3.762   5.748
 5041SOL     OW16021   1.513   4.659   0.648
 5041SOL    HW116022   1.561   4.575   0.624
 5041SOL    HW216023   1.503   4.665   0.747
 5042SOL     OW16024   5.460   2.362   6.529
 5042SOL    HW116025   5.367   2.343   6.499
 5042SOL    HW216026   5.505   2.277   6.555
 5043SOL     OW16027   4.131   0.487   3.871
 5043SOL    HW116028   4.065   0.522   3.804
 5043SOL    HW216029   4.118   0.535   3.958
 5044SOL     OW16030   6.841   4.924   3.263
 5044SOL    HW116031   6.752   4.948   3.225
 5044SOL    HW216032   6.856   4.825   3.252
 5045SOL     OW16033   5.820   2.581   6.590
 5045SOL    HW116034   5.876   2.664   6.590
 5045SOL    HW216035   5.830   2.533   6.503
 5046SOL     OW16036   3.216   2.973   5.010
 5046SOL    HW116037   3.280   2.954   4.936
 5046SOL    HW216038   3.244   3.056   5.059
 5047SOL     OW16039   0.993   0.811   2.490
 5047SOL    HW116040   1.021   0.788   2.583
 5047SOL    HW216041   0.928   0.887   2.493
 5048SOL     OW16042   5.903   2.998   1.813
 5048SOL    HW116043   5.962   2.969   1.738
 5048SOL    HW216044   5.864   3.087   1.793
 5049SOL     OW16045   1.192   2.566   2.331
 5049SOL    HW116046   1.226   2.623   2.406
 5049SOL    HW216047   1.261   2.497   2.308
 5050SOL     OW16048   0.901   3.092   1.675
 5050SOL    HW116049   0.889   3.037   1.593
 5050SOL    HW216050   0.813   3.101   1.722
 5051SOL     OW16051   2.444   5.363   0.631
 5051SOL    HW116052   2.416   5.451   0.591
 5051SOL    HW216053   2.366   5.321   0.677
 5052SOL     OW16054   5.721   4.987   0.871
 5052SOL    HW116055   5.744   4.953   0.962
 5052SOL    HW216056   5.718   4.911   0.806
 5053SOL     OW16057   2.406   4.699   0.758
 5053SOL    HW116058   2.436   4.634   0.828
 5053SOL    HW216059   2.328   4.751   0.793
 5054SOL     OW16060   3.646   5.961   4.515
 5054SOL    HW116061   3.659   6.049   4.561
 5054SOL    HW216062   3.693   5.963   4.426
 5055SOL     OW16063   1.004   1.957   5.089
 5055SOL    HW116064   1.101   1.943   5.072
 5055SOL    HW216065   0.972   1.889   5.155
 5056SOL     OW16066   1.140   3.005   5.266
 5056SOL    HW116067   1.094   3.004   5.177
 5056SOL    HW216068   1.239   3.012   5.253
 5057SOL     OW16069   0.265   5.328   2.462
 5057SOL    HW116070   0.316   5.267   2.401
 5057SOL    HW216071   0.267   5.292   2.555
 5058SOL     OW16072   3.769   4.485   6.499
 5058SOL    HW116073   3.832   4.556   6.529
 5058SOL    HW216074   3.748   4.498   6.402
 5059SOL     OW16075   3.561   1.860   3.811
 5059SOL    HW116076   3.553   1.960   3.810
 5059SOL    HW216077   3.542   1.824   3.720
 5060SOL     OW16078   0.481   3.484   5.630
 5060SOL    HW116079   0.514   3.535   5.709
 5060SOL    HW216080   0.521   3.392   5.631
 5061SOL     OW16081   3.612   2.969   5.481
 5061SOL    HW116082   3.658   3.023   5.411
 5061SOL    HW216083   3.680   2.924   5.539
 5062SOL     OW16084   4.958   1.625   2.961
 5062SOL    HW116085   4.917   1.536   2.978
 5062SOL    HW216086   4.899   1.679   2.901
 5063SOL     OW16087   1.049   0.448   2.689
 5063SOL    HW116088   1.103   0.524   2.725
 5063SOL    HW216089   0.973   0.484   2.634
 5064SOL     OW16090   4.615   5.630   1.023
 5064SOL    HW116091   4.602   5.578   1.107
 5064SOL    HW216092   4.534   5.685   1.004
 5065SOL     OW16093   2.502   0.264   2.467
 5065SOL    HW116094   2.584   0.235   2.516
 5065SOL    HW216095   2.453   0.333   2.521
 5066SOL     OW16096   2.541   4.581   1.850
 5066SOL    HW116097   2.497   4.671   1.854
 5066SOL    HW216098   2.638   4.590   1.876
 5067SOL     OW16099   4.601   3.172   1.121
 5067SOL    HW116100   4.586   3.074   1.113
 5067SOL    HW216101   4.685   3.197   1.072
 5068SOL     OW16102   3.088   6.014   0.393
 5068SOL    HW116103   3.034   6.023   0.477
 5068SOL    HW216104   3.135   6.101   0.375
 5069SOL     OW16105   3.339   5.138   5.641
 5069SOL    HW116106   3.417   5.130   5.703
 5069SOL    HW216107   3.334   5.058   5.582
 5070SOL     OW16108   6.200   3.151   3.769
 5070SOL    HW116109   6.214   3.202   3.683
 5070SOL    HW216110   6.167   3.213   3.839
 5071SOL     OW16111   2.716   0.309   4.507
 5071SOL    HW116112   2.649   0.279   4.439
 5071SOL    HW216113   2.718   0.409   4.509
 5072SOL     OW16114   1.020   1.475   0.144
 5072SOL    HW116115   1.055   1.535   0.216
 5072SOL    HW216116   0.963   1.527   0.081
 5073SOL     OW16117   2.358   0.614   2.341
 5073SOL    HW116118   2.280   0.677   2.333
 5073SOL    HW216119   2.326   0.520   2.332
 5074SOL     OW16120   3.503   2.202   1.700
 5074SOL    HW116121   3.562   2.170   1.626
 5074SOL    HW216122   3.558   2.250   1.769
 5075SOL     OW16123   0.917   3.215   0.368
 5075SOL    HW116124   0.852   3.261   0.308
 5075SOL    HW216125   0.985   3.166   0.313
 5076SOL     OW16126   5.611   6.714   6.536
 5076SOL    HW116127   5.685   6.669   6.487
 5076SOL    HW216128   5.549   6.758   6.471
 5077SOL     OW16129   0.872   4.542   3.951
 5077SOL    HW116130   0.842   4.453   3.919
 5077SOL    HW216131   0.928   4.586   3.882
 5078SOL     OW16132   0.889   1.461   3.669
 5078SOL    HW116133   0.942   1.520   3.608
 5078SOL    HW216134   0.839   1.393   3.613
 5079SOL     OW16135   1.560   3.084   5.888
 5079SOL    HW116136   1.505   3.155   5.844
 5079SOL    HW216137   1.504   3.037   5.957
 5080SOL     OW16138   5.731   5.399   6.637
 5080SOL    HW116139   5.797   5.466   6.672
 5080SOL    HW216140   5.764   5.363   6.550
 5081SOL     OW16141   3.493   5.263   5.441
 5081SOL    HW116142   3.465   5.232   5.532
 5081SOL    HW216143   3.443   5.210   5.371
 5082SOL     OW16144   5.573   6.188   1.966
 5082SOL    HW116145   5.584   6.149   1.874
 5082SOL    HW216146   5.630   6.137   2.030
 5083SOL     OW16147   1.971   0.094   3.245
 5083SOL    HW116148   2.059   0.062   3.279
 5083SOL    HW216149   1.926   0.022   3.193
 5084SOL     OW16150   1.642   4.967   5.335
 5084SOL    HW116151   1.653   4.899   5.263
 5084SOL    HW216152   1.576   5.036   5.307
 5085SOL     OW16153   0.218   3.841   6.154
 5085SOL    HW116154   0.162   3.838   6.071
 5085SOL    HW216155   0.314   3.826   6.129
 5086SOL     OW16156   2.585   5.172   2.443
 5086SOL    HW116157   2.490   5.150   2.465
 5086SOL    HW216158   2.591   5.266   2.411
 5087SOL     OW16159   0.063   4.984   2.123
 5087SOL    HW116160   0.139   5.047   2.109
 5087SOL    HW216161   0.078   4.931   2.206
 5088SOL     OW16162   5.131   6.269   2.223
 5088SOL    HW116163   5.104   6.280   2.127
 5088SOL    HW216164   5.068   6.204   2.267
 5089SOL     OW16165   5.840   4.981   5.247
 5089SOL    HW116166   5.762   5.024   5.202
 5089SOL    HW216167   5.917   4.979   5.184
 5090SOL     OW16168   3.206   0.190   4.891
 5090SOL    HW116169   3.292   0.151   4.858
 5090SOL    HW216170   3.223   0.282   4.927
 5091SOL     OW16171   6.216   6.939   6.974
 5091SOL    HW116172   6.194   6.875   0.024
 5091SOL    HW216173   6.263   6.889   6.900
 5092SOL     OW16174   2.993   3.463   3.880
 5092SOL    HW116175   2.911   3.503   3.841
 5092SOL    HW216176   3.052   3.535   3.916
 5093SOL     OW16177   1.537   1.661   2.618
 5093SOL    HW116178   1.586   1.587   2.665
 5093SOL    HW216179   1.592   1.694   2.542
 5094SOL     OW16180   2.542   6.002   5.949
 5094SOL    HW116181   2.450   6.035   5.928
 5094SOL    HW216182   2.553   5.994   6.048
 5095SOL     OW16183   6.477   1.047   3.032
 5095SOL    HW116184   6.407   1.118   3.029
 5095SOL    HW216185   6.508   1.027   2.939
 5096SOL     OW16186   5.540   2.988   5.468
 5096SOL    HW116187   5.487   2.940   5.398
 5096SOL    HW216188   5.481   3.012   5.545
 5097SOL     OW16189   1.184   6.842   6.790
 5097SOL    HW116190   1.121   6.905   6.745
 5097SOL    HW216191   1.199   6.871   6.884
 5098SOL     OW16192   3.893   2.299   1.413
 5098SOL    HW116193   3.968   2.365   1.407
 5098SOL    HW216194   3.890   2.260   1.505
 5099SOL     OW16195   0.972   0.548   1.886
 5099SOL    HW116196   1.054   0.604   1.897
 5099SOL    HW216197   0.895   0.605   1.860
 5100SOL     OW16198   5.419   4.451   2.609
 5100SOL    HW116199   5.331   4.499   2.604
 5100SOL    HW216200   5.490   4.516   2.638
 5101SOL     OW16201   3.739   0.146   6.307
 5101SOL    HW116202   3.693   0.227   6.271
 5101SOL    HW216203   3.701   0.064   6.264
 5102SOL     OW16204   5.169   4.547   4.759
 5102SOL    HW116205   5.231   4.608   4.809
 5102SOL    HW216206   5.078   4.553   4.799
 5103SOL     OW16207   1.099   0.931   6.249
 5103SOL    HW116208   1.066   0.843   6.215
 5103SOL    HW216209   1.146   0.980   6.175
 5104SOL     OW16210   3.719   4.004   1.709
 5104SOL    HW116211   3.745   3.963   1.621
 5104SOL    HW216212   3.669   4.089   1.692
 5105SOL     OW16213   3.885   3.544   6.352
 5105SOL    HW116214   3.896   3.625   6.293
 5105SOL    HW216215   3.973   3.499   6.363
 5106SOL     OW16216   4.598   2.802   0.765
 5106SOL    HW116217   4.651   2.806   0.680
 5106SOL    HW216218   4.526   2.871   0.762
 5107SOL     OW16219   5.156   3.487   0.632
 5107SOL    HW116220   5.192   3.560   0.573
 5107SOL    HW216221   5.072   3.519   0.676
 5108SOL     OW16222   4.293   4.649   6.910
 5108SOL    HW116223   4.276   4.575   6.975
 5108SOL    HW216224   4.319   4.732   6.961
 5109SOL     OW16225   1.444   3.100   1.287
 5109SOL    HW116226   1.499   3.021   1.259
 5109SOL    HW216227   1.493   3.151   1.357
 5110SOL     OW16228   4.789   0.351   6.141
 5110SOL    HW116229   4.765   0.334   6.236
 5110SOL    HW216230   4.712   0.396   6.094
 5111SOL     OW16231   0.694   6.604   5.204
 5111SOL    HW116232   0.686   6.701   5.179
 5111SOL    HW216233   0.784   6.587   5.242
 5112SOL     OW16234   0.413   0.153   2.856
 5112SOL    HW116235   0.483   0.088   2.888
 5112SOL    HW216236   0.433   0.178   2.761
 5113SOL     OW16237   2.127   4.282   0.209
 5113SOL    HW116238   2.208   4.310   0.157
 5113SOL    HW216239   2.128   4.326   0.299
 5114SOL     OW16240   4.374   5.650   0.822
 5114SOL    HW116241   4.346   5.667   0.727
 5114SOL    HW216242   4.355   5.732   0.877
 5115SOL     OW16243   2.117   3.840   0.891
 5115SOL    HW116244   2.087   3.746   0.873
 5115SOL    HW216245   2.056   3.881   0.959
 5116SOL     OW16246   1.864   0.025   6.612
 5116SOL    HW116247   1.896   7.002   6.530
 5116SOL    HW216248   1.863   6.985   6.689
 5117SOL     OW16249   1.450   2.182   3.860
 5117SOL    HW116250   1.517   2.115   3.826
 5117SOL    HW216251   1.442   2.174   3.959
 5118SOL     OW16252   5.172   5.858   6.398
 5118SOL    HW116253   5.206   5.940   6.351
 5118SOL    HW216254   5.226   5.842   6.481
 5119SOL     OW16255   4.986   1.790   0.279
 5119SOL    HW116256   4.930   1.806   0.197
 5119SOL    HW216257   4.999   1.877   0.327
 5120SOL     OW16258   5.208   0.022   5.621
 5120SOL    HW116259   5.203   6.978   5.547
 5120SOL    HW216260   5.155   7.012   5.700
 5121SOL     OW16261   1.750   3.690   7.005
 5121SOL    HW116262   1.700   3.753   6.946
 5121SOL    HW216263   1.745   3.722   0.076
 5122SOL     OW16264   5.127   5.172   3.777
 5122SOL    HW116265   5.091   5.096   3.831
 5122SOL    HW216266   5.051   5.226   3.742
 5123SOL     OW16267   5.102   2.612   2.203
 5123SOL    HW116268   5.069   2.536   2.147
 5123SOL    HW216269   5.125   2.689   2.145
 5124SOL     OW16270   2.077   6.068   3.401
 5124SOL    HW116271   2.030   6.088   3.487
 5124SOL    HW216272   2.165   6.116   3.399
 5125SOL     OW16273   0.179   1.475   3.930
 5125SOL    HW116274   0.212   1.506   4.019
 5125SOL    HW216275   0.104   1.410   3.944
 5126SOL     OW16276   2.016   0.097   0.648
 5126SOL    HW116277   2.033   0.162   0.574
 5126SOL    HW216278   2.092   0.100   0.713
 5127SOL     OW16279   1.836   5.301   6.800
 5127SOL    HW116280   1.892   5.332   6.723
 5127SOL    HW216281   1.743   5.283   6.767
 5128SOL     OW16282   6.592   6.125   1.855
 5128SOL    HW116283   6.625   6.214   1.824
 5128SOL    HW216284   6.666   6.075   1.901
 5129SOL     OW16285   5.879   6.795   1.261
 5129SOL    HW116286   5.804   6.733   1.286
 5129SOL    HW216287   5.860   6.834   1.171
 5130SOL     OW16288   6.641   5.033   3.106
 5130SOL    HW116289   6.544   5.022   3.127
 5130SOL    HW216290   6.651   5.105   3.038
 5131SOL     OW16291   2.428   2.480   3.333
 5131SOL    HW116292   2.393   2.518   3.419
 5131SOL    HW216293   2.510   2.427   3.351
 5132SOL     OW16294   2.845   5.637   5.153
 5132SOL    HW116295   2.792   5.718   5.176
 5132SOL    HW216296   2.943   5.660   5.154
 5133SOL     OW16297   3.699   6.411   6.518
 5133SOL    HW116298   3.611   6.382   6.480
 5133SOL    HW216299   3.707   6.510   6.512
 5134SOL     OW16300   0.495   3.961   0.671
 5134SOL    HW116301   0.530   4.020   0.745
 5134SOL    HW216302   0.495   4.012   0.585
 5135SOL     OW16303   6.633   1.627   5.176
 5135SOL    HW116304   6.542   1.628   5.217
 5135SOL    HW216305   6.637   1.696   5.103
 5136SOL     OW16306   4.244   1.509   4.056
 5136SOL    HW116307   4.185   1.503   3.976
 5136SOL    HW216308   4.271   1.604   4.072
 5137SOL     OW16309   3.753   4.591   6.244
 5137SOL    HW116310   3.685   4.596   6.171
 5137SOL    HW216311   3.813   4.670   6.240
 5138SOL     OW16312   2.524   3.783   5.656
 5138SOL    HW116313   2.607   3.799   5.602
 5138SOL    HW216314   2.518   3.686   5.678
 5139SOL     OW16315   1.192   6.710   3.976
 5139SOL    HW116316   1.202   6.684   3.880
 5139SOL    HW216317   1.120   6.656   4.018
 5140SOL     OW16318   3.638   2.868   1.411
 5140SOL    HW116319   3.691   2.794   1.452
 5140SOL    HW216320   3.580   2.911   1.481
 5141SOL     OW16321   5.876   3.289   6.742
 5141SOL    HW116322   5.968   3.328   6.749
 5141SOL    HW216323   5.854   3.238   6.825
 5142SOL     OW16324   5.255   3.899   4.455
 5142SOL    HW116325   5.273   3.811   4.498
 5142SOL    HW216326   5.240   3.968   4.525
 5143SOL     OW16327   6.696   5.401   3.871
 5143SOL    HW116328   6.647   5.318   3.899
 5143SOL    HW216329   6.672   5.424   3.777
 5144SOL     OW16330   1.597   1.218   5.806
 5144SOL    HW116331   1.633   1.310   5.826
 5144SOL    HW216332   1.528   1.225   5.733
 5145SOL     OW16333   2.783   5.481   5.809
 5145SOL    HW116334   2.726   5.426   5.748
 5145SOL    HW216335   2.744   5.573   5.816
 5146SOL     OW16336   2.850   4.836   7.004
 5146SOL    HW116337   2.862   4.838   0.080
 5146SOL    HW216338   2.893   4.754   6.968
 5147SOL     OW16339   6.340   4.768   6.441
 5147SOL    HW116340   6.408   4.759   6.368
 5147SOL    HW216341   6.343   4.861   6.478
 5148SOL     OW16342   0.597   6.032   1.274
 5148SOL    HW116343   0.521   6.079   1.228
 5148SOL    HW216344   0.595   5.935   1.251
 5149SOL     OW16345   6.898   1.147   4.377
 5149SOL    HW116346   6.832   1.082   4.338
 5149SOL    HW216347   6.848   1.221   4.423
 5150SOL     OW16348   1.703   4.951   4.485
 5150SOL    HW116349   1.781   4.938   4.546
 5150SOL    HW216350   1.651   4.866   4.478
 5151SOL     OW16351   4.022   1.160   6.713
 5151SOL    HW116352   4.117   1.192   6.705
 5151SOL    HW216353   4.005   1.091   6.643
 5152SOL     OW16354   0.995   4.729   6.829
 5152SOL    HW116355   1.066   4.710   6.897
 5152SOL    HW216356   0.965   4.643   6.788
 5153SOL     OW16357   1.375   1.965   0.799
 5153SOL    HW116358   1.463   1.983   0.755
 5153SOL    HW216359   1.391   1.933   0.892
 5154SOL     OW16360   1.570   2.730   5.155
 5154SOL    HW116361   1.531   2.814   5.191
 5154SOL    HW216362   1.532   2.711   5.064
 5155SOL     OW16363   3.222   0.061   2.302
 5155SOL    HW116364   3.201   7.004   2.247
 5155SOL    HW216365   3.307   0.103   2.270
 5156SOL     OW16366   5.731   2.613   5.546
 5156SOL    HW116367   5.764   2.703   5.574
 5156SOL    HW216368   5.780   2.541   5.596
 5157SOL     OW16369   5.280   2.819   3.370
 5157SOL    HW116370   5.291   2.907   3.414
 5157SOL    HW216371   5.245   2.752   3.436
 5158SOL     OW16372   3.730   1.462   1.242
 5158SOL    HW116373   3.715   1.465   1.143
 5158SOL    HW216374   3.641   1.463   1.289
 5159SOL     OW16375   1.564   2.981   4.179
 5159SOL    HW116376   1.556   2.885   4.204
 5159SOL    HW216377   1.629   3.026   4.240
 5160SOL     OW16378   2.022   3.374   4.534
 5160SOL    HW116379   2.073   3.381   4.448
 5160SOL    HW216380   2.078   3.410   4.609
 5161SOL     OW16381   0.855   2.935   5.260
 5161SOL    HW116382   0.832   2.950   5.164
 5161SOL    HW216383   0.952   2.955   5.274
 5162SOL     OW16384   6.554   6.106   3.973
 5162SOL    HW116385   6.539   6.010   3.950
 5162SOL    HW216386   6.480   6.139   4.030
 5163SOL     OW16387   5.080   4.219   1.223
 5163SOL    HW116388   5.118   4.160   1.151
 5163SOL    HW216389   5.152   4.243   1.288
 5164SOL     OW16390   5.928   3.971   5.823
 5164SOL    HW116391   5.988   3.951   5.901
 5164SOL    HW216392   5.973   4.036   5.762
 5165SOL     OW16393   6.302   4.215   3.824
 5165SOL    HW116394   6.345   4.300   3.795
 5165SOL    HW216395   6.204   4.219   3.809
 5166SOL     OW16396   1.795   6.100   2.135
 5166SOL    HW116397   1.773   6.084   2.231
 5166SOL    HW216398   1.724   6.157   2.094
 5167SOL     OW16399   0.309   6.089   5.855
 5167SOL    HW116400   0.271   6.139   5.933
 5167SOL    HW216401   0.269   6.124   5.771
 5168SOL     OW16402   4.212   2.255   3.015
 5168SOL    HW116403   4.294   2.289   3.060
 5168SOL    HW216404   4.224   2.258   2.916
 5169SOL     OW16405   3.823   3.944   6.283
 5169SOL    HW116406   3.890   3.891   6.231
 5169SOL    HW216407   3.815   3.906   6.375
 5170SOL     OW16408   5.278   4.271   5.116
 5170SOL    HW116409   5.364   4.221   5.125
 5170SOL    HW216410   5.213   4.218   5.062
 5171SOL     OW16411   2.400   5.136   4.641
 5171SOL    HW116412   2.468   5.203   4.611
 5171SOL    HW216413   2.445   5.050   4.664
 5172SOL     OW16414   1.344   5.188   2.106
 5172SOL    HW116415   1.402   5.218   2.030
 5172SOL    HW216416   1.286   5.113   2.075
 5173SOL     OW16417   5.151   3.300   6.342
 5173SOL    HW116418   5.212   3.252   6.279
 5173SOL    HW216419   5.166   3.399   6.335
 5174SOL     OW16420   1.176   4.748   6.167
 5174SOL    HW116421   1.260   4.713   6.209
 5174SOL    HW216422   1.173   4.721   6.071
 5175SOL     OW16423   0.696   4.583   6.884
 5175SOL    HW116424   0.774   4.559   6.826
 5175SOL    HW216425   0.629   4.635   6.830
 5176SOL     OW16426   5.036   3.687   0.390
 5176SOL    HW116427   5.115   3.713   0.445
 5176SOL    HW216428   4.954   3.690   0.446
 5177SOL     OW16429   5.099   0.128   6.427
 5177SOL    HW116430   5.198   0.143   6.429
 5177SOL    HW216431   5.078   0.039   6.468
 5178SOL     OW16432   2.402   2.591   1.951
 5178SOL    HW116433   2.389   2.493   1.966
 5178SOL    HW216434   2.347   2.642   2.016
 5179SOL     OW16435   3.305   6.342   5.977
 5179SOL    HW116436   3.318   6.261   5.920
 5179SOL    HW216437   3.209   6.371   5.971
 5180SOL     OW16438   2.778   2.104   1.562
 5180SOL    HW116439   2.687   2.127   1.527
 5180SOL    HW216440   2.829   2.188   1.578
 5181SOL     OW16441   4.192   6.566   2.638
 5181SOL    HW116442   4.190   6.606   2.729
 5181SOL    HW216443   4.279   6.518   2.624
 5182SOL     OW16444   5.343   4.462   1.388
 5182SOL    HW116445   5.327   4.441   1.484
 5182SOL    HW216446   5.390   4.385   1.344
 5183SOL     OW16447   4.558   0.461   1.857
 5183SOL    HW116448   4.483   0.428   1.914
 5183SOL    HW216449   4.521   0.521   1.786
 5184SOL     OW16450   0.846   1.018   3.118
 5184SOL    HW116451   0.824   1.114   3.104
 5184SOL    HW216452   0.939   1.000   3.084
 5185SOL     OW16453   3.788   0.177   2.201
 5185SOL    HW116454   3.768   0.245   2.131
 5185SOL    HW216455   3.885   0.181   2.226
 5186SOL     OW16456   6.449   4.387   0.707
 5186SOL    HW116457   6.362   4.344   0.732
 5186SOL    HW216458   6.432   4.480   0.674
 5187SOL     OW16459   5.523   1.812   3.972
 5187SOL    HW116460   5.592   1.877   4.002
 5187SOL    HW216461   5.434   1.838   4.007
 5188SOL     OW16462   0.920   4.007   5.707
 5188SOL    HW116463   0.903   3.929   5.647
 5188SOL    HW216464   0.862   4.000   5.788
 5189SOL     OW16465   4.546   5.370   6.737
 5189SOL    HW116466   4.509   5.303   6.802
 5189SOL    HW216467   4.643   5.351   6.722
 5190SOL     OW16468   1.518   2.422   3.760
 5190SOL    HW116469   1.485   2.333   3.791
 5190SOL    HW216470   1.611   2.414   3.725
 5191SOL     OW16471   3.935   0.145   1.526
 5191SOL    HW116472   3.987   0.229   1.509
 5191SOL    HW216473   3.993   0.079   1.572
 5192SOL     OW16474   6.331   5.649   2.660
 5192SOL    HW116475   6.418   5.608   2.688
 5192SOL    HW216476   6.299   5.712   2.731
 5193SOL     OW16477   4.950   3.800   3.104
 5193SOL    HW116478   5.049   3.812   3.097
 5193SOL    HW216479   4.908   3.821   3.015
 5194SOL     OW16480   5.928   0.512   5.818
 5194SOL    HW116481   5.857   0.442   5.828
 5194SOL    HW216482   5.977   0.522   5.905
 5195SOL     OW16483   6.250   6.259   5.485
 5195SOL    HW116484   6.195   6.211   5.554
 5195SOL    HW216485   6.199   6.264   5.400
 5196SOL     OW16486   0.066   4.037   2.019
 5196SOL    HW116487   6.989   4.044   2.015
 5196SOL    HW216488   0.106   4.092   1.945
 5197SOL     OW16489   2.960   5.815   4.897
 5197SOL    HW116490   2.913   5.734   4.863
 5197SOL    HW216491   2.903   5.860   4.965
 5198SOL     OW16492   4.124   6.740   5.193
 5198SOL    HW116493   4.154   6.796   5.271
 5198SOL    HW216494   4.158   6.780   5.108
 5199SOL     OW16495   1.371   5.043   1.421
 5199SOL    HW116496   1.352   5.067   1.325
 5199SOL    HW216497   1.466   5.014   1.430
 5200SOL     OW16498   6.829   1.195   5.462
 5200SOL    HW116499   6.893   1.179   5.537
 5200SOL    HW216500   6.868   1.263   5.400
 5201SOL     OW16501   6.417   5.156   3.770
 5201SOL    HW116502   6.367   5.088   3.825
 5201SOL    HW216503   6.496   5.113   3.727
 5202SOL     OW16504   3.695   2.684   6.003
 5202SOL    HW116505   3.596   2.687   5.989
 5202SOL    HW216506   3.718   2.603   6.057
 5203SOL     OW16507   1.581   0.284   0.469
 5203SOL    HW116508   1.618   0.317   0.556
 5203SOL    HW216509   1.536   0.359   0.421
 5204SOL     OW16510   3.160   0.774   0.224
 5204SOL    HW116511   3.132   0.799   0.132
 5204SOL    HW216512   3.167   0.856   0.281
 5205SOL     OW16513   0.486   5.868   0.878
 5205SOL    HW116514   0.585   5.862   0.872
 5205SOL    HW216515   0.452   5.931   0.808
 5206SOL     OW16516   1.005   4.226   4.405
 5206SOL    HW116517   1.038   4.180   4.323
 5206SOL    HW216518   0.957   4.310   4.379
 5207SOL     OW16519   0.120   0.362   3.905
 5207SOL    HW116520   0.109   0.302   3.826
 5207SOL    HW216521   0.042   0.351   3.966
 5208SOL     OW16522   4.820   1.983   0.055
 5208SOL    HW116523   4.858   2.064   0.100
 5208SOL    HW216524   4.856   1.977   6.986
 5209SOL     OW16525   5.450   5.698   2.689
 5209SOL    HW116526   5.484   5.787   2.719
 5209SOL    HW216527   5.507   5.626   2.730
 5210SOL     OW16528   5.420   4.215   0.426
 5210SOL    HW116529   5.333   4.217   0.475
 5210SOL    HW216530   5.417   4.279   0.349
 5211SOL     OW16531   4.879   3.260   4.371
 5211SOL    HW116532   4.819   3.332   4.408
 5211SOL    HW216533   4.854   3.172   4.411
 5212SOL     OW16534   1.175   3.476   0.187
 5212SOL    HW116535   1.103   3.494   0.253
 5212SOL    HW216536   1.257   3.442   0.234
 5213SOL     OW16537   4.116   3.247   2.774
 5213SOL    HW116538   4.100   3.169   2.834
 5213SOL    HW216539   4.129   3.215   2.680
 5214SOL     OW16540   5.255   3.716   5.529
 5214SOL    HW116541   5.317   3.765   5.591
 5214SOL    HW216542   5.288   3.725   5.435
 5215SOL     OW16543   6.975   3.773   4.646
 5215SOL    HW116544   6.970   3.872   4.636
 5215SOL    HW216545   6.900   3.742   4.705
 5216SOL     OW16546   5.018   5.583   1.256
 5216SOL    HW116547   5.041   5.656   1.320
 5216SOL    HW216548   4.966   5.621   1.179
 5217SOL     OW16549   4.330   5.971   3.854
 5217SOL    HW116550   4.405   5.921   3.896
 5217SOL    HW216551   4.307   6.051   3.910
 5218SOL     OW16552   0.175   6.918   1.010
 5218SOL    HW116553   0.102   6.852   1.028
 5218SOL    HW216554   0.157   6.964   0.923
 5219SOL     OW16555   3.182   1.713   5.021
 5219SOL    HW116556   3.190   1.616   5.045
 5219SOL    HW216557   3.092   1.747   5.048
 5220SOL     OW16558   2.385   4.356   4.358
 5220SOL    HW116559   2.372   4.258   4.350
 5220SOL    HW216560   2.307   4.403   4.316
 5221SOL     OW16561   6.372   5.868   1.025
 5221SOL    HW116562   6.457   5.820   1.046
 5221SOL    HW216563   6.348   5.853   0.930
 5222SOL     OW16564   5.316   4.162   1.037
 5222SOL    HW116565   5.327   4.084   1.099
 5222SOL    HW216566   5.344   4.135   0.945
 5223SOL     OW16567   0.572   3.118   1.016
 5223SOL    HW116568   0.663   3.107   1.056
 5223SOL    HW216569   0.569   3.204   0.965
 5224SOL     OW16570   0.433   2.355   5.026
 5224SOL    HW116571   0.432   2.351   4.927
 5224SOL    HW216572   0.523   2.385   5.058
 5225SOL     OW16573   6.988   1.604   5.018
 5225SOL    HW116574   6.953   1.522   4.972
 5225SOL    HW216575   6.957   1.686   4.970
 5226SOL     OW16576   0.967   6.437   3.839
 5226SOL    HW116577   0.972   6.344   3.803
 5226SOL    HW216578   1.046   6.489   3.806
 5227SOL     OW16579   0.007   2.575   5.514
 5227SOL    HW116580   7.017   2.673   5.529
 5227SOL    HW216581   0.084   2.543   5.569
 5228SOL     OW16582   1.378   2.363   5.741
 5228SOL    HW116583   1.463   2.355   5.689
 5228SOL    HW216584   1.332   2.274   5.743
 5229SOL     OW16585   3.433   1.192   6.089
 5229SOL    HW116586   3.499   1.191   6.164
 5229SOL    HW216587   3.481   1.195   6.002
 5230SOL     OW16588   6.679   6.436   1.992
 5230SOL    HW116589   6.752   6.502   2.009
 5230SOL    HW216590   6.665   6.427   1.893
 5231SOL     OW16591   6.739   2.316   1.723
 5231SOL    HW116592   6.702   2.235   1.677
 5231SOL    HW216593   6.829   2.337   1.686
 5232SOL     OW16594   1.726   3.005   5.685
 5232SOL    HW116595   1.646   2.996   5.745
 5232SOL    HW216596   1.789   3.072   5.723
 5233SOL     OW16597   2.835   6.973   2.809
 5233SOL    HW116598   2.931   7.002   2.812
 5233SOL    HW216599   2.817   6.927   2.722
 5234SOL     OW16600   2.242   2.230   0.383
 5234SOL    HW116601   2.328   2.221   0.333
 5234SOL    HW216602   2.194   2.142   0.383
 5235SOL     OW16603   2.167   2.445   1.311
 5235SOL    HW116604   2.136   2.386   1.237
 5235SOL    HW216605   2.165   2.395   1.397
 5236SOL     OW16606   3.673   5.728   1.969
 5236SOL    HW116607   3.638   5.635   1.976
 5236SOL    HW216608   3.772   5.727   1.983
 5237SOL     OW16609   1.954   1.796   2.890
 5237SOL    HW116610   2.048   1.830   2.889
 5237SOL    HW216611   1.892   1.870   2.862
 5238SOL     OW16612   0.738   6.837   3.059
 5238SOL    HW116613   0.736   6.738   3.067
 5238SOL    HW216614   0.695   6.865   2.973
 5239SOL     OW16615   2.375   4.038   1.121
 5239SOL    HW116616   2.434   3.999   1.192
 5239SOL    HW216617   2.379   3.981   1.039
 5240SOL     OW16618   2.153   3.531   5.931
 5240SOL    HW116619   2.251   3.510   5.928
 5240SOL    HW216620   2.106   3.482   5.857
 5241SOL     OW16621   1.116   5.752   2.294
 5241SOL    HW116622   1.070   5.835   2.325
 5241SOL    HW216623   1.122   5.687   2.370
 5242SOL     OW16624   4.919   0.253   6.592
 5242SOL    HW116625   5.004   0.210   6.562
 5242SOL    HW216626   4.862   0.273   6.512
 5243SOL     OW16627   2.481   6.808   2.632
 5243SOL    HW116628   2.564   6.839   2.587
 5243SOL    HW216629   2.450   6.722   2.590
 5244SOL     OW16630   4.723   2.793   0.532
 5244SOL    HW116631   4.712   2.881   0.486
 5244SOL    HW216632   4.816   2.759   0.519
 5245SOL     OW16633   3.929   3.518   1.923
 5245SOL    HW116634   3.942   3.617   1.913
 5245SOL    HW216635   4.014   3.476   1.954
 5246SOL     OW16636   5.956   3.189   0.680
 5246SOL    HW116637   5.946   3.106   0.735
 5246SOL    HW216638   5.875   3.200   0.621
 5247SOL     OW16639   3.680   2.145   6.419
 5247SOL    HW116640   3.696   2.186   6.329
 5247SOL    HW216641   3.767   2.133   6.466
 5248SOL     OW16642   6.948   1.006   3.584
 5248SOL    HW116643   6.887   1.086   3.584
 5248SOL    HW216644   6.989   0.996   3.493
 5249SOL     OW16645   0.348   4.820   6.462
 5249SOL    HW116646   0.283   4.756   6.504
 5249SOL    HW216647   0.441   4.792   6.484
 5250SOL     OW16648   2.169   5.623   1.291
 5250SOL    HW116649   2.088   5.566   1.304
 5250SOL    HW216650   2.141   5.714   1.263
 5251SOL     OW16651   0.814   4.858   0.527
 5251SOL    HW116652   0.735   4.839   0.469
 5251SOL    HW216653   0.788   4.918   0.602
 5252SOL     OW16654   3.796   6.909   2.187
 5252SOL    HW116655   3.699   6.886   2.185
 5252SOL    HW216656   3.807   7.009   2.187
 5253SOL     OW16657   6.785   6.040   4.381
 5253SOL    HW116658   6.787   5.946   4.349
 5253SOL    HW216659   6.738   6.097   4.313
 5254SOL     OW16660   6.025   0.308   3.684
 5254SOL    HW116661   6.036   0.388   3.625
 5254SOL    HW216662   5.954   0.248   3.647
 5255SOL     OW16663   6.241   1.666   5.564
 5255SOL    HW116664   6.204   1.743   5.511
 5255SOL    HW216665   6.281   1.700   5.649
 5256SOL     OW16666   6.799   1.599   2.572
 5256SOL    HW116667   6.720   1.653   2.543
 5256SOL    HW216668   6.789   1.574   2.669
 5257SOL     OW16669   3.850   1.109   6.190
 5257SOL    HW116670   3.914   1.083   6.117
 5257SOL    HW216671   3.759   1.073   6.169
 5258SOL     OW16672   4.185   1.354   3.038
 5258SOL    HW116673   4.124   1.400   2.974
 5258SOL    HW216674   4.270   1.330   2.992
 5259SOL     OW16675   6.555   5.335   3.207
 5259SOL    HW116676   6.613   5.411   3.236
 5259SOL    HW216677   6.603   5.249   3.221
 5260SOL     OW16678   2.295   0.998   0.723
 5260SOL    HW116679   2.356   1.038   0.792
 5260SOL    HW216680   2.251   1.072   0.672
 5261SOL     OW16681   5.921   4.386   0.104
 5261SOL    HW116682   5.871   4.437   0.174
 5261SOL    HW216683   6.009   4.357   0.141
 5262SOL     OW16684   1.914   0.782   3.031
 5262SOL    HW116685   1.922   0.864   3.087
 5262SOL    HW216686   1.960   0.797   2.943
 5263SOL     OW16687   1.523   6.823   2.346
 5263SOL    HW116688   1.473   6.798   2.263
 5263SOL    HW216689   1.583   6.747   2.373
 5264SOL     OW16690   6.180   1.723   1.810
 5264SOL    HW116691   6.246   1.681   1.872
 5264SOL    HW216692   6.087   1.696   1.838
 5265SOL     OW16693   6.349   4.694   4.531
 5265SOL    HW116694   6.430   4.748   4.507
 5265SOL    HW216695   6.267   4.743   4.503
 5266SOL     OW16696   2.188   0.718   0.197
 5266SOL    HW116697   2.273   0.678   0.232
 5266SOL    HW216698   2.116   0.705   0.265
 5267SOL     OW16699   5.356   2.881   4.332
 5267SOL    HW116700   5.352   2.965   4.277
 5267SOL    HW216701   5.304   2.809   4.287
 5268SOL     OW16702   5.168   0.550   6.181
 5268SOL    HW116703   5.255   0.500   6.189
 5268SOL    HW216704   5.093   0.484   6.171
 5269SOL     OW16705   0.347   6.113   3.719
 5269SOL    HW116706   0.413   6.107   3.794
 5269SOL    HW216707   0.254   6.107   3.756
 5270SOL     OW16708   0.764   2.346   6.140
 5270SOL    HW116709   0.735   2.307   6.052
 5270SOL    HW216710   0.853   2.389   6.129
 5271SOL     OW16711   0.294   4.884   3.377
 5271SOL    HW116712   0.235   4.862   3.300
 5271SOL    HW216713   0.306   4.802   3.434
 5272SOL     OW16714   4.600   0.913   0.101
 5272SOL    HW116715   4.667   0.859   0.151
 5272SOL    HW216716   4.642   0.999   0.070
 5273SOL     OW16717   1.006   2.296   3.118
 5273SOL    HW116718   0.906   2.289   3.110
 5273SOL    HW216719   1.042   2.347   3.041
 5274SOL     OW16720   4.925   5.405   1.807
 5274SOL    HW116721   4.975   5.490   1.788
 5274SOL    HW216722   4.977   5.351   1.874
 5275SOL     OW16723   4.372   2.010   6.346
 5275SOL    HW116724   4.320   1.936   6.388
 5275SOL    HW216725   4.456   2.026   6.397
 5276SOL     OW16726   4.440   6.449   2.645
 5276SOL    HW116727   4.494   6.533   2.636
 5276SOL    HW216728   4.445   6.416   2.739
 5277SOL     OW16729   2.229   2.515   1.736
 5277SOL    HW116730   2.302   2.555   1.791
 5277SOL    HW216731   2.156   2.582   1.721
 5278SOL     OW16732   4.593   4.259   1.520
 5278SOL    HW116733   4.580   4.331   1.588
 5278SOL    HW216734   4.560   4.172   1.557
 5279SOL     OW16735   2.607   5.390   2.308
 5279SOL    HW116736   2.567   5.444   2.234
 5279SOL    HW216737   2.707   5.398   2.305
 5280SOL     OW16738   5.048   6.237   4.433
 5280SOL    HW116739   5.139   6.264   4.402
 5280SOL    HW216740   5.003   6.182   4.362
 5281SOL     OW16741   0.113   1.935   1.354
 5281SOL    HW116742   0.046   1.910   1.284
 5281SOL    HW216743   0.122   1.860   1.419
 5282SOL     OW16744   4.525   2.012   2.534
 5282SOL    HW116745   4.501   2.102   2.500
 5282SOL    HW216746   4.602   1.976   2.481
 5283SOL     OW16747   5.071   4.493   6.165
 5283SOL    HW116748   5.017   4.492   6.249
 5283SOL    HW216749   5.168   4.488   6.186
 5284SOL     OW16750   5.509   2.988   3.697
 5284SOL    HW116751   5.469   2.897   3.693
 5284SOL    HW216752   5.494   3.028   3.787
 5285SOL     OW16753   3.287   5.423   3.518
 5285SOL    HW116754   3.229   5.457   3.592
 5285SOL    HW216755   3.321   5.332   3.543
 5286SOL     OW16756   2.249   4.653   2.054
 5286SOL    HW116757   2.160   4.629   2.092
 5286SOL    HW216758   2.293   4.720   2.115
 5287SOL     OW16759   1.244   1.843   1.051
 5287SOL    HW116760   1.169   1.905   1.025
 5287SOL    HW216761   1.236   1.820   1.148
 5288SOL     OW16762   4.285   0.501   0.978
 5288SOL    HW116763   4.272   0.419   1.034
 5288SOL    HW216764   4.331   0.476   0.892
 5289SOL     OW16765   2.397   5.392   0.981
 5289SOL    HW116766   2.463   5.318   0.998
 5289SOL    HW216767   2.331   5.361   0.912
 5290SOL     OW16768   4.720   5.935   0.434
 5290SOL    HW116769   4.674   5.846   0.436
 5290SOL    HW216770   4.706   5.977   0.344
 5291SOL     OW16771   1.646   5.191   6.093
 5291SOL    HW116772   1.568   5.136   6.120
 5291SOL    HW216773   1.652   5.193   5.993
 5292SOL     OW16774   4.798   2.715   5.643
 5292SOL    HW116775   4.764   2.687   5.733
 5292SOL    HW216776   4.721   2.743   5.586
 5293SOL     OW16777   0.445   0.329   4.227
 5293SOL    HW116778   0.362   0.359   4.274
 5293SOL    HW216779   0.459   0.231   4.245
 5294SOL     OW16780   5.281   2.007   5.513
 5294SOL    HW116781   5.219   2.083   5.534
 5294SOL    HW216782   5.262   1.930   5.573
 5295SOL     OW16783   6.329   1.415   2.177
 5295SOL    HW116784   6.342   1.316   2.166
 5295SOL    HW216785   6.233   1.434   2.198
 5296SOL     OW16786   1.315   4.471   0.431
 5296SOL    HW116787   1.262   4.461   0.347
 5296SOL    HW216788   1.276   4.545   0.487
 5297SOL     OW16789   1.867   3.251   1.792
 5297SOL    HW116790   1.912   3.195   1.723
 5297SOL    HW216791   1.868   3.203   1.880
 5298SOL     OW16792   0.920   5.035   1.433
 5298SOL    HW116793   0.951   5.079   1.349
 5298SOL    HW216794   0.828   5.067   1.456
 5299SOL     OW16795   2.935   0.549   1.923
 5299SOL    HW116796   2.972   0.602   1.847
 5299SOL    HW216797   2.838   0.569   1.934
 5300SOL     OW16798   0.192   5.131   3.077
 5300SOL    HW116799   0.277   5.176   3.103
 5300SOL    HW216800   0.190   5.039   3.116
 5301SOL     OW16801   4.140   1.436   0.006
 5301SOL    HW116802   4.043   1.413   0.011
 5301SOL    HW216803   4.152   1.534   0.024
 5302SOL     OW16804   6.665   4.791   2.957
 5302SOL    HW116805   6.686   4.847   3.037
 5302SOL    HW216806   6.586   4.732   2.977
 5303SOL     OW16807   0.767   4.870   3.780
 5303SOL    HW116808   0.770   4.834   3.873
 5303SOL    HW216809   0.860   4.891   3.750
 5304SOL     OW16810   5.464   2.263   5.810
 5304SOL    HW116811   5.461   2.307   5.720
 5304SOL    HW216812   5.372   2.260   5.848
 5305SOL     OW16813   2.807   1.057   3.064
 5305SOL    HW116814   2.727   1.041   3.123
 5305SOL    HW216815   2.820   1.155   3.051
 5306SOL     OW16816   2.783   0.230   5.444
 5306SOL    HW116817   2.847   0.267   5.377
 5306SOL    HW216818   2.776   0.292   5.522
 5307SOL     OW16819   4.812   6.762   6.653
 5307SOL    HW116820   4.834   6.761   6.750
 5307SOL    HW216821   4.742   6.832   6.636
 5308SOL     OW16822   6.963   0.714   3.204
 5308SOL    HW116823   6.913   0.632   3.177
 5308SOL    HW216824   7.010   0.752   3.125
 5309SOL     OW16825   3.528   3.704   3.926
 5309SOL    HW116826   3.623   3.714   3.954
 5309SOL    HW216827   3.469   3.711   4.007
 5310SOL     OW16828   5.230   1.935   0.812
 5310SOL    HW116829   5.308   1.915   0.871
 5310SOL    HW216830   5.168   1.999   0.859
 5311SOL     OW16831   1.388   6.100   0.017
 5311SOL    HW116832   1.455   6.162   0.059
 5311SOL    HW216833   1.432   6.048   6.967
 5312SOL     OW16834   0.365   3.035   2.049
 5312SOL    HW116835   0.366   2.983   2.134
 5312SOL    HW216836   0.349   3.132   2.070
 5313SOL     OW16837   1.398   5.691   0.344
 5313SOL    HW116838   1.337   5.766   0.317
 5313SOL    HW216839   1.389   5.675   0.442
 5314SOL     OW16840   3.323   4.769   0.595
 5314SOL    HW116841   3.340   4.868   0.592
 5314SOL    HW216842   3.235   4.749   0.554
 5315SOL     OW16843   5.082   2.702   2.501
 5315SOL    HW116844   5.066   2.691   2.403
 5315SOL    HW216845   5.090   2.799   2.523
 5316SOL     OW16846   6.360   5.065   4.516
 5316SOL    HW116847   6.404   4.983   4.553
 5316SOL    HW216848   6.328   5.046   4.423
 5317SOL     OW16849   5.880   6.077   2.855
 5317SOL    HW116850   5.886   6.058   2.953
 5317SOL    HW216851   5.950   6.024   2.807
 5318SOL     OW16852   0.021   2.657   4.988
 5318SOL    HW116853   0.116   2.627   4.990
 5318SOL    HW216854   0.008   2.729   5.055
 5319SOL     OW16855   4.176   6.980   1.145
 5319SOL    HW116856   4.083   7.013   1.162
 5319SOL    HW216857   4.209   6.931   1.225
 5320SOL     OW16858   5.517   3.637   5.756
 5320SOL    HW116859   5.557   3.719   5.714
 5320SOL    HW216860   5.432   3.614   5.710
 5321SOL     OW16861   1.253   5.367   6.135
 5321SOL    HW116862   1.338   5.379   6.188
 5321SOL    HW216863   1.276   5.345   6.041
 5322SOL     OW16864   3.326   6.081   0.616
 5322SOL    HW116865   3.348   6.122   0.527
 5322SOL    HW216866   3.311   5.983   0.604
 5323SOL     OW16867   5.941   3.261   0.289
 5323SOL    HW116868   6.038   3.274   0.307
 5323SOL    HW216869   5.907   3.337   0.233
 5324SOL     OW16870   3.794   3.438   1.663
 5324SOL    HW116871   3.762   3.472   1.752
 5324SOL    HW216872   3.889   3.410   1.671
 5325SOL     OW16873   5.070   5.805   3.421
 5325SOL    HW116874   5.017   5.730   3.383
 5325SOL    HW216875   5.091   5.871   3.349
 5326SOL     OW16876   6.656   0.110   2.150
 5326SOL    HW116877   6.666   0.155   2.239
 5326SOL    HW216878   6.733   0.134   2.091
 5327SOL     OW16879   6.747   0.538   4.637
 5327SOL    HW116880   6.787   0.476   4.704
 5327SOL    HW216881   6.749   0.631   4.673
 5328SOL     OW16882   3.661   4.980   1.089
 5328SOL    HW116883   3.577   4.982   1.035
 5328SOL    HW216884   3.678   4.886   1.120
 5329SOL     OW16885   6.521   4.919   0.316
 5329SOL    HW116886   6.465   4.974   0.255
 5329SOL    HW216887   6.615   4.952   0.315
 5330SOL     OW16888   4.387   4.852   0.057
 5330SOL    HW116889   4.459   4.801   0.011
 5330SOL    HW216890   4.427   4.929   0.107
 5331SOL     OW16891   4.840   2.903   6.667
 5331SOL    HW116892   4.897   2.941   6.740
 5331SOL    HW216893   4.890   2.905   6.581
 5332SOL     OW16894   6.271   2.745   0.035
 5332SOL    HW116895   6.366   2.762   0.008
 5332SOL    HW216896   6.267   2.728   0.133
 5333SOL     OW16897   1.578   1.648   4.152
 5333SOL    HW116898   1.640   1.574   4.126
 5333SOL    HW216899   1.569   1.713   4.076
 5334SOL     OW16900   3.145   5.394   2.113
 5334SOL    HW116901   3.090   5.437   2.041
 5334SOL    HW216902   3.177   5.304   2.081
 5335SOL     OW16903   0.008   4.557   1.293
 5335SOL    HW116904   7.002   4.554   1.389
 5335SOL    HW216905   0.097   4.513   1.284
 5336SOL     OW16906   1.922   2.832   4.428
 5336SOL    HW116907   1.971   2.918   4.443
 5336SOL    HW216908   1.975   2.756   4.468
 5337SOL     OW16909   5.771   5.530   0.533
 5337SOL    HW116910   5.769   5.528   0.433
 5337SOL    HW216911   5.857   5.492   0.566
 5338SOL     OW16912   6.267   3.171   0.811
 5338SOL    HW116913   6.198   3.173   0.884
 5338SOL    HW216914   6.243   3.102   0.743
 5339SOL     OW16915   5.689   4.006   2.872
 5339SOL    HW116916   5.690   4.086   2.812
 5339SOL    HW216917   5.644   3.930   2.826
 5340SOL     OW16918   5.270   3.261   2.919
 5340SOL    HW116919   5.210   3.238   2.995
 5340SOL    HW216920   5.277   3.361   2.912
 5341SOL     OW16921   3.953   4.827   3.819
 5341SOL    HW116922   4.037   4.810   3.767
 5341SOL    HW216923   3.874   4.814   3.759
 5342SOL     OW16924   6.716   6.243   4.998
 5342SOL    HW116925   6.637   6.207   4.949
 5342SOL    HW216926   6.788   6.173   5.001
 5343SOL     OW16927   3.179   2.969   6.839
 5343SOL    HW116928   3.089   3.003   6.812
 5343SOL    HW216929   3.212   2.904   6.771
 5344SOL     OW16930   1.312   1.774   6.277
 5344SOL    HW116931   1.271   1.721   6.351
 5344SOL    HW216932   1.345   1.861   6.313
 5345SOL     OW16933   4.335   1.265   6.669
 5345SOL    HW116934   4.384   1.194   6.720
 5345SOL    HW216935   4.365   1.355   6.700
 5346SOL     OW16936   2.950   6.264   3.587
 5346SOL    HW116937   3.012   6.242   3.511
 5346SOL    HW216938   2.981   6.217   3.670
 5347SOL     OW16939   5.976   1.886   4.137
 5347SOL    HW116940   6.014   1.816   4.197
 5347SOL    HW216941   6.047   1.922   4.077
 5348SOL     OW16942   5.061   2.606   3.784
 5348SOL    HW116943   5.124   2.530   3.771
 5348SOL    HW216944   5.018   2.629   3.697
 5349SOL     OW16945   0.722   3.527   1.664
 5349SOL    HW116946   0.623   3.544   1.668
 5349SOL    HW216947   0.754   3.539   1.570
 5350SOL     OW16948   1.076   6.482   0.310
 5350SOL    HW116949   1.090   6.521   0.219
 5350SOL    HW216950   1.059   6.384   0.302
 5351SOL     OW16951   6.352   6.344   3.307
 5351SOL    HW116952   6.416   6.416   3.280
 5351SOL    HW216953   6.259   6.371   3.281
 5352SOL     OW16954   1.342   3.181   5.525
 5352SOL    HW116955   1.283   3.214   5.451
 5352SOL    HW216956   1.385   3.095   5.499
 5353SOL     OW16957   3.905   5.092   3.585
 5353SOL    HW116958   3.968   5.142   3.644
 5353SOL    HW216959   3.842   5.156   3.541
 5354SOL     OW16960   4.246   6.324   0.528
 5354SOL    HW116961   4.200   6.334   0.617
 5354SOL    HW216962   4.336   6.284   0.542
 5355SOL     OW16963   5.288   4.601   5.156
 5355SOL    HW116964   5.267   4.505   5.173
 5355SOL    HW216965   5.263   4.655   5.236
 5356SOL     OW16966   0.193   5.752   0.954
 5356SOL    HW116967   0.195   5.772   0.856
 5356SOL    HW216968   0.125   5.810   0.998
 5357SOL     OW16969   5.847   3.643   2.873
 5357SOL    HW116970   5.807   3.690   2.794
 5357SOL    HW216971   5.943   3.623   2.854
 5358SOL     OW16972   4.304   1.717   6.826
 5358SOL    HW116973   4.260   1.693   6.913
 5358SOL    HW216974   4.252   1.790   6.782
 5359SOL     OW16975   3.725   2.223   6.990
 5359SOL    HW116976   3.814   2.178   6.989
 5359SOL    HW216977   3.665   2.176   0.032
 5360SOL     OW16978   5.536   4.729   4.181
 5360SOL    HW116979   5.484   4.671   4.243
 5360SOL    HW216980   5.476   4.762   4.108
 5361SOL     OW16981   1.998   5.724   2.836
 5361SOL    HW116982   1.959   5.709   2.744
 5361SOL    HW216983   2.085   5.774   2.827
 5362SOL     OW16984   5.724   1.119   2.560
 5362SOL    HW116985   5.666   1.041   2.536
 5362SOL    HW216986   5.667   1.197   2.587
 5363SOL     OW16987   6.056   5.528   3.437
 5363SOL    HW116988   5.956   5.539   3.438
 5363SOL    HW216989   6.091   5.555   3.347
 5364SOL     OW16990   4.673   1.348   2.432
 5364SOL    HW116991   4.764   1.320   2.460
 5364SOL    HW216992   4.641   1.422   2.492
 5365SOL     OW16993   3.143   3.245   4.127
 5365SOL    HW116994   3.099   3.212   4.044
 5365SOL    HW216995   3.110   3.191   4.205
 5366SOL     OW16996   6.397   5.866   2.892
 5366SOL    HW116997   6.423   5.934   2.959
 5366SOL    HW216998   6.399   5.906   2.800
 5367SOL     OW16999   6.080   5.684   1.714
 5367SOL    HW117000   6.043   5.703   1.805
 5367SOL    HW217001   6.030   5.608   1.673
 5368SOL     OW17002   6.421   5.818   3.972
 5368SOL    HW117003   6.376   5.846   4.057
 5368SOL    HW217004   6.352   5.803   3.901
 5369SOL     OW17005   3.429   5.230   3.194
 5369SOL    HW117006   3.510   5.286   3.208
 5369SOL    HW217007   3.347   5.287   3.206
 5370SOL     OW17008   1.776   3.340   0.586
 5370SOL    HW117009   1.841   3.363   0.514
 5370SOL    HW217010   1.693   3.395   0.575
 5371SOL     OW17011   6.042   4.744   4.712
 5371SOL    HW117012   6.113   4.763   4.779
 5371SOL    HW217013   5.952   4.746   4.756
 5372SOL     OW17014   1.537   6.876   2.915
 5372SOL    HW117015   1.443   6.890   2.948
 5372SOL    HW217016   1.535   6.866   2.815
 5373SOL     OW17017   3.070   1.656   6.706
 5373SOL    HW117018   3.036   1.750   6.702
 5373SOL    HW217019   3.077   1.619   6.613
 5374SOL     OW17020   1.900   4.450   2.416
 5374SOL    HW117021   1.968   4.459   2.488
 5374SOL    HW217022   1.837   4.527   2.420
 5375SOL     OW17023   2.346   4.532   4.912
 5375SOL    HW117024   2.435   4.576   4.903
 5375SOL    HW217025   2.306   4.556   5.000
 5376SOL     OW17026   0.443   0.174   6.197
 5376SOL    HW117027   0.443   0.100   6.130
 5376SOL    HW217028   0.383   0.150   6.273
 5377SOL     OW17029   1.903   0.990   3.207
 5377SOL    HW117030   1.985   1.045   3.186
 5377SOL    HW217031   1.896   0.977   3.305
 5378SOL     OW17032   4.592   0.742   2.190
 5378SOL    HW117033   4.639   0.800   2.256
 5378SOL    HW217034   4.636   0.752   2.101
 5379SOL     OW17035   1.727   2.291   5.390
 5379SOL    HW117036   1.764   2.254   5.305
 5379SOL    HW217037   1.630   2.311   5.379
 5380SOL     OW17038   4.235   6.619   1.538
 5380SOL    HW117039   4.320   6.650   1.494
 5380SOL    HW217040   4.176   6.698   1.555
 5381SOL     OW17041   3.744   0.377   3.893
 5381SOL    HW117042   3.690   0.365   3.976
 5381SOL    HW217043   3.744   0.474   3.868
 5382SOL     OW17044   4.801   1.093   1.577
 5382SOL    HW117045   4.873   1.046   1.627
 5382SOL    HW217046   4.788   1.184   1.615
 5383SOL     OW17047   2.483   2.560   4.537
 5383SOL    HW117048   2.492   2.569   4.438
 5383SOL    HW217049   2.416   2.625   4.571
 5384SOL     OW17050   5.725   5.090   4.624
 5384SOL    HW117051   5.629   5.117   4.632
 5384SOL    HW217052   5.734   5.019   4.554
 5385SOL     OW17053   3.963   3.360   6.022
 5385SOL    HW117054   4.049   3.346   6.071
 5385SOL    HW217055   3.887   3.354   6.086
 5386SOL     OW17056   5.187   4.480   4.492
 5386SOL    HW117057   5.136   4.394   4.486
 5386SOL    HW217058   5.188   4.511   4.587
 5387SOL     OW17059   0.863   1.875   3.754
 5387SOL    HW117060   0.811   1.790   3.753
 5387SOL    HW217061   0.959   1.855   3.776
 5388SOL     OW17062   0.634   6.740   2.416
 5388SOL    HW117063   0.724   6.774   2.390
 5388SOL    HW217064   0.564   6.807   2.390
 5389SOL     OW17065   4.364   1.403   3.696
 5389SOL    HW117066   4.440   1.468   3.694
 5389SOL    HW217067   4.307   1.416   3.615
 5390SOL     OW17068   0.392   2.562   3.217
 5390SOL    HW117069   0.448   2.514   3.285
 5390SOL    HW217070   0.346   2.639   3.261
 5391SOL     OW17071   2.887   2.994   0.567
 5391SOL    HW117072   2.913   2.903   0.597
 5391SOL    HW217073   2.805   3.024   0.616
 5392SOL     OW17074   6.052   0.960   4.129
 5392SOL    HW117075   6.092   0.945   4.039
 5392SOL    HW217076   5.993   1.041   4.127
 5393SOL     OW17077   4.979   2.350   4.838
 5393SOL    HW117078   4.945   2.299   4.759
 5393SOL    HW217079   4.998   2.445   4.811
 5394SOL     OW17080   0.914   2.007   1.527
 5394SOL    HW117081   0.838   2.051   1.478
 5394SOL    HW217082   0.887   1.993   1.623
 5395SOL     OW17083   6.384   1.309   0.558
 5395SOL    HW117084   6.446   1.382   0.529
 5395SOL    HW217085   6.290   1.344   0.559
 5396SOL     OW17086   4.614   3.998   0.649
 5396SOL    HW117087   4.614   4.046   0.737
 5396SOL    HW217088   4.519   3.981   0.621
 5397SOL     OW17089   0.308   1.144   2.644
 5397SOL    HW117090   0.301   1.238   2.610
 5397SOL    HW217091   0.334   1.146   2.740
 5398SOL     OW17092   6.218   2.326   2.448
 5398SOL    HW117093   6.186   2.240   2.408
 5398SOL    HW217094   6.286   2.307   2.519
 5399SOL     OW17095   1.802   2.116   0.233
 5399SOL    HW117096   1.848   2.029   0.248
 5399SOL    HW217097   1.809   2.172   0.315
 5400SOL     OW17098   4.625   3.199   1.681
 5400SOL    HW117099   4.712   3.245   1.699
 5400SOL    HW217100   4.614   3.122   1.743
 5401SOL     OW17101   6.132   2.623   1.590
 5401SOL    HW117102   6.162   2.652   1.681
 5401SOL    HW217103   6.197   2.558   1.552
 5402SOL     OW17104   1.734   6.670   2.481
 5402SOL    HW117105   1.695   6.636   2.567
 5402SOL    HW217106   1.798   6.743   2.500
 5403SOL     OW17107   4.951   3.084   0.324
 5403SOL    HW117108   5.001   3.013   0.275
 5403SOL    HW217109   4.935   3.162   0.263
 5404SOL     OW17110   5.882   0.344   6.893
 5404SOL    HW117111   5.960   0.348   6.955
 5404SOL    HW217112   5.844   0.436   6.881
 5405SOL     OW17113   0.789   4.747   0.085
 5405SOL    HW117114   0.782   4.721   7.012
 5405SOL    HW217115   0.710   4.801   0.111
 5406SOL     OW17116   2.682   0.832   6.267
 5406SOL    HW117117   2.662   0.811   6.172
 5406SOL    HW217118   2.600   0.865   6.313
 5407SOL     OW17119   1.783   6.964   3.101
 5407SOL    HW117120   1.762   6.901   3.176
 5407SOL    HW217121   1.708   6.963   3.035
 5408SOL     OW17122   2.510   1.500   4.087
 5408SOL    HW117123   2.549   1.522   3.998
 5408SOL    HW217124   2.415   1.469   4.075
 5409SOL     OW17125   0.621   3.022   1.744
 5409SOL    HW117126   0.606   2.934   1.791
 5409SOL    HW217127   0.611   3.008   1.645
 5410SOL     OW17128   0.304   2.496   0.919
 5410SOL    HW117129   0.272   2.451   0.835
 5410SOL    HW217130   0.380   2.557   0.896
 5411SOL     OW17131   3.475   5.305   0.077
 5411SOL    HW117132   3.459   5.209   0.055
 5411SOL    HW217133   3.509   5.312   0.171
 5412SOL     OW17134   0.133   1.977   6.158
 5412SOL    HW117135   0.071   1.965   6.081
 5412SOL    HW217136   0.135   2.073   6.186
 5413SOL     OW17137   0.547   5.906   4.691
 5413SOL    HW117138   0.602   5.828   4.659
 5413SOL    HW217139   0.521   5.962   4.612
 5414SOL     OW17140   5.310   4.389   5.493
 5414SOL    HW117141   5.407   4.412   5.488
 5414SOL    HW217142   5.283   4.378   5.588
 5415SOL     OW17143   3.993   0.613   7.005
 5415SOL    HW117144   3.910   0.607   0.037
 5415SOL    HW217145   4.037   0.523   7.002
 5416SOL     OW17146   3.756   5.890   6.838
 5416SOL    HW117147   3.662   5.915   6.863
 5416SOL    HW217148   3.756   5.800   6.795
 5417SOL     OW17149   4.194   6.819   4.243
 5417SOL    HW117150   4.173   6.859   4.332
 5417SOL    HW217151   4.109   6.795   4.196
 5418SOL     OW17152   6.932   3.089   5.350
 5418SOL    HW117153   6.996   3.091   5.273
 5418SOL    HW217154   6.845   3.131   5.323
 5419SOL     OW17155   4.424   1.097   5.690
 5419SOL    HW117156   4.507   1.112   5.635
 5419SOL    HW217157   4.409   0.999   5.701
 5420SOL     OW17158   0.906   1.835   2.127
 5420SOL    HW117159   0.922   1.873   2.036
 5420SOL    HW217160   0.965   1.883   2.193
 5421SOL     OW17161   3.639   4.934   2.213
 5421SOL    HW117162   3.656   4.882   2.130
 5421SOL    HW217163   3.541   4.950   2.223
 5422SOL     OW17164   2.544   5.324   3.595
 5422SOL    HW117165   2.498   5.324   3.506
 5422SOL    HW217166   2.573   5.231   3.617
 5423SOL     OW17167   4.565   6.475   2.337
 5423SOL    HW117168   4.569   6.573   2.357
 5423SOL    HW217169   4.490   6.433   2.388
 5424SOL     OW17170   4.247   3.855   5.518
 5424SOL    HW117171   4.337   3.830   5.553
 5424SOL    HW217172   4.255   3.939   5.464
 5425SOL     OW17173   1.318   4.325   5.499
 5425SOL    HW117174   1.289   4.392   5.568
 5425SOL    HW217175   1.252   4.323   5.424
 5426SOL     OW17176   6.551   5.653   1.350
 5426SOL    HW117177   6.598   5.716   1.411
 5426SOL    HW217178   6.461   5.631   1.386
 5427SOL     OW17179   4.338   3.099   6.722
 5427SOL    HW117180   4.368   3.040   6.797
 5427SOL    HW217181   4.358   3.054   6.635
 5428SOL     OW17182   5.804   5.591   2.682
 5428SOL    HW117183   5.720   5.538   2.696
 5428SOL    HW217184   5.864   5.579   2.761
 5429SOL     OW17185   3.553   0.682   4.929
 5429SOL    HW117186   3.540   0.718   4.837
 5429SOL    HW217187   3.630   0.618   4.930
 5430SOL     OW17188   2.878   3.995   5.188
 5430SOL    HW117189   2.793   4.045   5.204
 5430SOL    HW217190   2.954   4.061   5.183
 5431SOL     OW17191   4.276   4.412   0.504
 5431SOL    HW117192   4.267   4.473   0.583
 5431SOL    HW217193   4.245   4.320   0.528
 5432SOL     OW17194   0.255   5.131   6.331
 5432SOL    HW117195   0.336   5.143   6.388
 5432SOL    HW217196   0.282   5.100   6.240
 5433SOL     OW17197   2.674   0.766   1.565
 5433SOL    HW117198   2.645   0.806   1.478
 5433SOL    HW217199   2.681   0.667   1.555
 5434SOL     OW17200   5.209   1.053   4.628
 5434SOL    HW117201   5.151   1.049   4.546
 5434SOL    HW217202   5.182   1.131   4.685
 5435SOL     OW17203   6.528   4.699   1.050
 5435SOL    HW117204   6.509   4.745   0.964
 5435SOL    HW217205   6.528   4.600   1.036
 5436SOL     OW17206   1.268   4.075   2.982
 5436SOL    HW117207   1.296   4.054   2.888
 5436SOL    HW217208   1.337   4.134   3.025
 5437SOL     OW17209   3.449   5.483   1.223
 5437SOL    HW117210   3.447   5.477   1.124
 5437SOL    HW217211   3.392   5.560   1.253
 5438SOL     OW17212   5.034   5.775   2.485
 5438SOL    HW117213   5.074   5.739   2.570
 5438SOL    HW217214   4.934   5.776   2.493
 5439SOL     OW17215   0.975   4.366   1.633
 5439SOL    HW117216   0.980   4.462   1.662
 5439SOL    HW217217   1.068   4.327   1.631
 5440SOL     OW17218   6.001   6.843   4.017
 5440SOL    HW117219   5.997   6.927   3.963
 5440SOL    HW217220   6.091   6.834   4.059
 5441SOL     OW17221   5.878   3.147   4.519
 5441SOL    HW117222   5.844   3.068   4.571
 5441SOL    HW217223   5.942   3.115   4.449
 5442SOL     OW17224   3.431   0.072   6.424
 5442SOL    HW117225   3.428   0.029   6.514
 5442SOL    HW217226   3.441   0.002   6.354
 5443SOL     OW17227   4.549   1.044   3.400
 5443SOL    HW117228   4.610   1.098   3.458
 5443SOL    HW217229   4.601   0.969   3.359
 5444SOL     OW17230   6.070   1.080   5.704
 5444SOL    HW117231   6.128   1.005   5.671
 5444SOL    HW217232   5.990   1.089   5.644
 5445SOL     OW17233   5.685   5.778   5.125
 5445SOL    HW117234   5.686   5.839   5.204
 5445SOL    HW217235   5.644   5.691   5.151
 5446SOL     OW17236   0.039   4.187   6.437
 5446SOL    HW117237   0.069   4.202   6.531
 5446SOL    HW217238   0.050   4.091   6.412
 5447SOL     OW17239   0.259   2.102   1.181
 5447SOL    HW117240   0.265   2.024   1.120
 5447SOL    HW217241   0.202   2.078   1.260
 5448SOL     OW17242   4.400   4.716   3.174
 5448SOL    HW117243   4.423   4.799   3.224
 5448SOL    HW217244   4.338   4.738   3.099
 5449SOL     OW17245   2.896   1.249   1.941
 5449SOL    HW117246   2.891   1.214   2.035
 5449SOL    HW217247   2.804   1.252   1.902
 5450SOL     OW17248   4.195   5.400   1.719
 5450SOL    HW117249   4.167   5.398   1.624
 5450SOL    HW217250   4.278   5.346   1.731
 5451SOL     OW17251   6.482   6.983   2.911
 5451SOL    HW117252   6.529   6.939   2.835
 5451SOL    HW217253   6.507   6.937   2.996
 5452SOL     OW17254   2.289   4.188   2.233
 5452SOL    HW117255   2.335   4.169   2.146
 5452SOL    HW217256   2.205   4.240   2.215
 5453SOL     OW17257   5.738   4.397   3.631
 5453SOL    HW117258   5.737   4.302   3.664
 5453SOL    HW217259   5.744   4.459   3.709
 5454SOL     OW17260   6.018   4.586   2.631
 5454SOL    HW117261   6.041   4.573   2.727
 5454SOL    HW217262   6.071   4.521   2.575
 5455SOL     OW17263   2.181   1.796   3.510
 5455SOL    HW117264   2.244   1.801   3.588
 5455SOL    HW217265   2.086   1.798   3.544
 5456SOL     OW17266   5.470   1.942   1.285
 5456SOL    HW117267   5.377   1.963   1.316
 5456SOL    HW217268   5.476   1.844   1.266
 5457SOL     OW17269   5.741   1.268   6.649
 5457SOL    HW117270   5.694   1.264   6.737
 5457SOL    HW217271   5.701   1.201   6.587
 5458SOL     OW17272   5.748   3.271   0.510
 5458SOL    HW117273   5.777   3.293   0.416
 5458SOL    HW217274   5.722   3.355   0.557
 5459SOL     OW17275   1.808   3.284   5.207
 5459SOL    HW117276   1.863   3.219   5.259
 5459SOL    HW217277   1.796   3.367   5.261
 5460SOL     OW17278   0.704   0.881   1.655
 5460SOL    HW117279   0.800   0.882   1.626
 5460SOL    HW217280   0.677   0.973   1.683
 5461SOL     OW17281   6.364   1.021   5.541
 5461SOL    HW117282   6.415   0.967   5.607
 5461SOL    HW217283   6.427   1.064   5.476
 5462SOL     OW17284   4.933   4.451   6.397
 5462SOL    HW117285   4.948   4.364   6.443
 5462SOL    HW217286   4.837   4.478   6.406
 5463SOL     OW17287   0.816   2.537   6.412
 5463SOL    HW117288   0.852   2.501   6.326
 5463SOL    HW217289   0.719   2.513   6.421
 5464SOL     OW17290   1.279   6.146   5.548
 5464SOL    HW117291   1.367   6.176   5.511
 5464SOL    HW217292   1.270   6.180   5.642
 5465SOL     OW17293   0.468   6.726   4.670
 5465SOL    HW117294   0.435   6.791   4.602
 5465SOL    HW217295   0.533   6.663   4.627
 5466SOL     OW17296   6.135   2.457   5.082
 5466SOL    HW117297   6.222   2.459   5.032
 5466SOL    HW217298   6.095   2.548   5.083
 5467SOL     OW17299   4.826   3.024   4.484
 5467SOL    HW117300   4.771   2.948   4.450
 5467SOL    HW217301   4.802   3.042   4.580
 5468SOL     OW17302   6.925   1.416   0.950
 5468SOL    HW117303   6.918   1.355   0.871
 5468SOL    HW217304   6.877   1.375   1.028
 5469SOL     OW17305   3.386   7.014   4.570
 5469SOL    HW117306   3.310   6.949   4.564
 5469SOL    HW217307   3.382   0.053   4.493
 5470SOL     OW17308   3.830   5.289   3.842
 5470SOL    HW117309   3.922   5.301   3.805
 5470SOL    HW217310   3.828   5.318   3.938
 5471SOL     OW17311   4.622   0.835   3.828
 5471SOL    HW117312   4.538   0.784   3.811
 5471SOL    HW217313   4.605   0.933   3.816
 5472SOL     OW17314   2.703   3.033   6.905
 5472SOL    HW117315   2.666   3.065   6.992
 5472SOL    HW217316   2.631   2.987   6.853
 5473SOL     OW17317   2.670   4.485   1.605
 5473SOL    HW117318   2.750   4.490   1.665
 5473SOL    HW217319   2.601   4.550   1.638
 5474SOL     OW17320   0.696   5.079   2.825
 5474SOL    HW117321   0.755   5.007   2.862
 5474SOL    HW217322   0.752   5.149   2.781
 5475SOL     OW17323   0.455   1.155   5.320
 5475SOL    HW117324   0.476   1.178   5.225
 5475SOL    HW217325   0.386   1.217   5.355
 5476SOL     OW17326   2.612   0.055   5.171
 5476SOL    HW117327   2.690   7.017   5.162
 5476SOL    HW217328   2.553   0.046   5.091
 5477SOL     OW17329   1.596   4.129   4.557
 5477SOL    HW117330   1.608   4.055   4.491
 5477SOL    HW217331   1.685   4.163   4.586
 5478SOL     OW17332   5.577   4.725   5.722
 5478SOL    HW117333   5.652   4.791   5.711
 5478SOL    HW217334   5.491   4.770   5.698
 5479SOL     OW17335   4.326   1.855   4.988
 5479SOL    HW117336   4.265   1.780   5.014
 5479SOL    HW217337   4.273   1.929   4.946
 5480SOL     OW17338   0.265   3.389   3.797
 5480SOL    HW117339   0.290   3.298   3.763
 5480SOL    HW217340   0.180   3.419   3.752
 5481SOL     OW17341   4.037   0.933   6.313
 5481SOL    HW117342   3.991   1.012   6.274
 5481SOL    HW217343   4.136   0.940   6.298
 5482SOL     OW17344   4.648   2.751   1.481
 5482SOL    HW117345   4.615   2.696   1.404
 5482SOL    HW217346   4.609   2.843   1.476
 5483SOL     OW17347   6.871   2.669   5.880
 5483SOL    HW117348   6.945   2.631   5.936
 5483SOL    HW217349   6.891   2.765   5.859
 5484SOL     OW17350   6.648   6.787   4.653
 5484SOL    HW117351   6.583   6.838   4.710
 5484SOL    HW217352   6.738   6.790   4.696
 5485SOL     OW17353   3.040   0.073   5.394
 5485SOL    HW117354   3.073   0.037   5.482
 5485SOL    HW217355   2.987   0.157   5.411
 5486SOL     OW17356   0.655   0.901   3.591
 5486SOL    HW117357   0.632   0.945   3.503
 5486SOL    HW217358   0.660   0.802   3.578
 5487SOL     OW17359   4.820   5.372   1.324
 5487SOL    HW117360   4.729   5.409   1.309
 5487SOL    HW217361   4.887   5.446   1.323
 5488SOL     OW17362   5.362   1.202   6.763
 5488SOL    HW117363   5.350   1.105   6.740
 5488SOL    HW217364   5.289   1.232   6.823
 5489SOL     OW17365   1.353   3.501   2.818
 5489SOL    HW117366   1.253   3.500   2.818
 5489SOL    HW217367   1.386   3.576   2.761
 5490SOL     OW17368   2.008   1.977   0.355
 5490SOL    HW117369   2.076   1.943   0.419
 5490SOL    HW217370   2.053   2.004   0.270
 5491SOL     OW17371   0.685   5.380   0.899
 5491SOL    HW117372   0.594   5.344   0.919
 5491SOL    HW217373   0.728   5.413   0.983
 5492SOL     OW17374   1.115   1.042   5.805
 5492SOL    HW117375   1.174   0.977   5.756
 5492SOL    HW217376   1.159   1.132   5.807
 5493SOL     OW17377   3.256   3.067   0.076
 5493SOL    HW117378   3.245   3.039   7.004
 5493SOL    HW217379   3.301   3.156   0.080
 5494SOL     OW17380   5.930   3.483   1.875
 5494SOL    HW117381   6.029   3.479   1.892
 5494SOL    HW217382   5.883   3.519   1.955
 5495SOL     OW17383   3.306   3.215   2.384
 5495SOL    HW117384   3.270   3.232   2.476
 5495SOL    HW217385   3.301   3.117   2.365
 5496SOL     OW17386   3.767   5.847   1.648
 5496SOL    HW117387   3.807   5.872   1.559
 5496SOL    HW217388   3.682   5.899   1.661
 5497SOL     OW17389   6.837   6.686   1.876
 5497SOL    HW117390   6.854   6.750   1.950
 5497SOL    HW217391   6.766   6.722   1.816
 5498SOL     OW17392   4.138   1.079   5.332
 5498SOL    HW117393   4.041   1.054   5.324
 5498SOL    HW217394   4.195   1.005   5.298
 5499SOL     OW17395   0.076   1.410   3.115
 5499SOL    HW117396   0.120   1.467   3.046
 5499SOL    HW217397   0.136   1.400   3.194
 5500SOL     OW17398   1.994   6.093   1.769
 5500SOL    HW117399   1.897   6.119   1.776
 5500SOL    HW217400   2.010   6.049   1.681
 5501SOL     OW17401   2.336   6.495   2.640
 5501SOL    HW117402   2.321   6.399   2.665
 5501SOL    HW217403   2.397   6.499   2.561
 5502SOL     OW17404   4.964   3.859   6.220
 5502SOL    HW117405   4.873   3.821   6.233
 5502SOL    HW217406   4.961   3.958   6.234
 5503SOL     OW17407   1.168   5.529   3.653
 5503SOL    HW117408   1.139   5.436   3.676
 5503SOL    HW217409   1.233   5.562   3.722
 5504SOL     OW17410   3.361   2.089   5.088
 5504SOL    HW117411   3.324   2.045   5.170
 5504SOL    HW217412   3.296   2.156   5.054
 5505SOL     OW17413   2.609   5.230   5.949
 5505SOL    HW117414   2.580   5.270   5.861
 5505SOL    HW217415   2.708   5.237   5.958
 5506SOL     OW17416   6.221   0.418   5.724
 5506SOL    HW117417   6.173   0.504   5.744
 5506SOL    HW217418   6.159   0.356   5.677
 5507SOL     OW17419   2.209   6.280   3.895
 5507SOL    HW117420   2.261   6.360   3.865
 5507SOL    HW217421   2.127   6.310   3.944
 5508SOL     OW17422   2.912   0.886   6.643
 5508SOL    HW117423   2.832   0.839   6.682
 5508SOL    HW217424   2.919   0.978   6.680
 5509SOL     OW17425   5.918   6.412   6.651
 5509SOL    HW117426   5.997   6.457   6.692
 5509SOL    HW217427   5.920   6.314   6.672
 5510SOL     OW17428   5.305   0.862   5.456
 5510SOL    HW117429   5.338   0.953   5.481
 5510SOL    HW217430   5.275   0.814   5.538
 5511SOL     OW17431   0.109   1.033   2.507
 5511SOL    HW117432   0.139   1.018   2.412
 5511SOL    HW217433   0.183   1.076   2.559
 5512SOL     OW17434   1.157   0.354   0.835
 5512SOL    HW117435   1.228   0.424   0.837
 5512SOL    HW217436   1.199   0.263   0.842
 5513SOL     OW17437   4.274   4.714   4.631
 5513SOL    HW117438   4.341   4.651   4.592
 5513SOL    HW217439   4.182   4.678   4.617
 5514SOL     OW17440   5.521   5.316   3.017
 5514SOL    HW117441   5.422   5.328   3.026
 5514SOL    HW217442   5.561   5.300   3.108
 5515SOL     OW17443   6.682   2.980   1.231
 5515SOL    HW117444   6.712   2.910   1.296
 5515SOL    HW217445   6.750   3.053   1.225
 5516SOL     OW17446   1.321   3.075   6.505
 5516SOL    HW117447   1.272   3.143   6.449
 5516SOL    HW217448   1.302   3.093   6.602
 5517SOL     OW17449   2.576   1.758   2.370
 5517SOL    HW117450   2.571   1.661   2.347
 5517SOL    HW217451   2.656   1.799   2.325
 5518SOL     OW17452   5.994   4.720   5.012
 5518SOL    HW117453   6.021   4.625   5.002
 5518SOL    HW217454   6.045   4.762   5.087
 5519SOL     OW17455   5.393   3.894   4.203
 5519SOL    HW117456   5.342   3.882   4.288
 5519SOL    HW217457   5.491   3.897   4.223
 5520SOL     OW17458   1.750   3.629   1.914
 5520SOL    HW117459   1.700   3.545   1.937
 5520SOL    HW217460   1.849   3.610   1.916
 5521SOL     OW17461   5.778   5.167   1.595
 5521SOL    HW117462   5.876   5.153   1.609
 5521SOL    HW217463   5.765   5.228   1.516
 5522SOL     OW17464   2.294   3.662   1.732
 5522SOL    HW117465   2.309   3.578   1.784
 5522SOL    HW217466   2.355   3.664   1.653
 5523SOL     OW17467   2.528   0.012   2.275
 5523SOL    HW117468   2.526   0.102   2.318
 5523SOL    HW217469   2.437   6.994   2.281
 5524SOL     OW17470   0.046   5.269   6.222
 5524SOL    HW117471   0.093   5.352   6.192
 5524SOL    HW217472   0.096   5.227   6.298
 5525SOL     OW17473   6.729   5.489   4.906
 5525SOL    HW117474   6.764   5.571   4.950
 5525SOL    HW217475   6.631   5.480   4.926
 5526SOL     OW17476   6.679   3.071   4.530
 5526SOL    HW117477   6.636   3.008   4.465
 5526SOL    HW217478   6.748   3.125   4.482
 5527SOL     OW17479   1.812   3.749   1.632
 5527SOL    HW117480   1.781   3.830   1.582
 5527SOL    HW217481   1.741   3.722   1.697
 5528SOL     OW17482   0.524   3.467   3.091
 5528SOL    HW117483   0.489   3.426   3.007
 5528SOL    HW217484   0.461   3.539   3.122
 5529SOL     OW17485   2.345   1.326   5.040
 5529SOL    HW117486   2.421   1.276   5.081
 5529SOL    HW217487   2.363   1.424   5.045
 5530SOL     OW17488   0.778   2.576   0.469
 5530SOL    HW117489   0.779   2.646   0.540
 5530SOL    HW217490   0.738   2.614   0.386
 5531SOL     OW17491   3.694   3.137   5.967
 5531SOL    HW117492   3.649   3.147   5.878
 5531SOL    HW217493   3.663   3.210   6.029
 5532SOL     OW17494   2.537   1.770   1.324
 5532SOL    HW117495   2.460   1.706   1.329
 5532SOL    HW217496   2.585   1.756   1.237
 5533SOL     OW17497   4.137   1.058   1.278
 5533SOL    HW117498   4.065   1.119   1.309
 5533SOL    HW217499   4.220   1.073   1.333
 5534SOL     OW17500   0.120   4.019   6.887
 5534SOL    HW117501   0.068   4.018   6.972
 5534SOL    HW217502   0.076   3.958   6.821
 5535SOL     OW17503   6.055   3.372   2.873
 5535SOL    HW117504   6.021   3.399   2.963
 5535SOL    HW217505   6.096   3.451   2.827
 5536SOL     OW17506   2.264   0.358   3.732
 5536SOL    HW117507   2.251   0.325   3.639
 5536SOL    HW217508   2.177   0.354   3.782
 5537SOL     OW17509   4.316   0.428   4.800
 5537SOL    HW117510   4.309   0.503   4.864
 5537SOL    HW217511   4.389   0.366   4.828
 5538SOL     OW17512   4.834   1.514   6.948
 5538SOL    HW117513   4.752   1.480   6.994
 5538SOL    HW217514   4.811   1.597   6.897
 5539SOL     OW17515   3.273   0.074   0.775
 5539SOL    HW117516   3.244   0.103   0.866
 5539SOL    HW217517   3.345   0.135   0.742
 5540SOL     OW17518   5.614   0.883   6.672
 5540SOL    HW117519   5.632   0.971   6.628
 5540SOL    HW217520   5.699   0.833   6.683
 5541SOL     OW17521   4.614   3.916   6.377
 5541SOL    HW117522   4.697   3.965   6.403
 5541SOL    HW217523   4.639   3.838   6.319
 5542SOL     OW17524   4.586   4.708   6.990
 5542SOL    HW117525   4.666   4.721   0.026
 5542SOL    HW217526   4.584   4.613   6.958
 5543SOL     OW17527   1.494   0.863   0.928
 5543SOL    HW117528   1.517   0.942   0.986
 5543SOL    HW217529   1.543   0.782   0.961
 5544SOL     OW17530   4.350   5.809   5.949
 5544SOL    HW117531   4.308   5.899   5.936
 5544SOL    HW217532   4.305   5.761   6.024
 5545SOL     OW17533   4.165   0.629   3.109
 5545SOL    HW117534   4.245   0.689   3.103
 5545SOL    HW217535   4.181   0.545   3.058
 5546SOL     OW17536   0.505   5.673   5.407
 5546SOL    HW117537   0.450   5.735   5.463
 5546SOL    HW217538   0.578   5.723   5.362
 5547SOL     OW17539   5.638   1.967   4.914
 5547SOL    HW117540   5.656   1.874   4.945
 5547SOL    HW217541   5.675   2.033   4.980
 5548SOL     OW17542   0.328   4.526   5.169
 5548SOL    HW117543   0.377   4.606   5.203
 5548SOL    HW217544   0.247   4.555   5.118
 5549SOL     OW17545   4.214   3.243   1.445
 5549SOL    HW117546   4.262   3.274   1.362
 5549SOL    HW217547   4.174   3.153   1.428
 5550SOL     OW17548   1.294   3.253   2.773
 5550SOL    HW117549   1.224   3.238   2.843
 5550SOL    HW217550   1.321   3.349   2.774
 5551SOL     OW17551   2.298   5.030   3.810
 5551SOL    HW117552   2.367   5.061   3.875
 5551SOL    HW217553   2.210   5.021   3.856
 5552SOL     OW17554   0.511   6.597   6.443
 5552SOL    HW117555   0.435   6.580   6.507
 5552SOL    HW217556   0.532   6.694   6.442
 5553SOL     OW17557   4.806   0.516   6.763
 5553SOL    HW117558   4.849   0.544   6.849
 5553SOL    HW217559   4.847   0.431   6.732
 5554SOL     OW17560   5.584   3.068   1.574
 5554SOL    HW117561   5.489   3.040   1.586
 5554SOL    HW217562   5.644   3.000   1.616
 5555SOL     OW17563   1.624   4.019   2.449
 5555SOL    HW117564   1.548   4.083   2.439
 5555SOL    HW217565   1.708   4.069   2.470
 5556SOL     OW17566   6.358   0.537   4.806
 5556SOL    HW117567   6.415   0.519   4.887
 5556SOL    HW217568   6.360   0.457   4.746
 5557SOL     OW17569   3.262   5.651   2.128
 5557SOL    HW117570   3.322   5.651   2.208
 5557SOL    HW217571   3.223   5.559   2.116
 5558SOL     OW17572   3.476   4.322   0.167
 5558SOL    HW117573   3.492   4.233   0.123
 5558SOL    HW217574   3.546   4.338   0.237
 5559SOL     OW17575   1.834   6.571   2.880
 5559SOL    HW117576   1.777   6.542   2.802
 5559SOL    HW217577   1.801   6.526   2.963
 5560SOL     OW17578   0.616   6.056   2.859
 5560SOL    HW117579   0.623   5.990   2.785
 5560SOL    HW217580   0.570   6.014   2.938
 5561SOL     OW17581   3.362   0.810   3.751
 5561SOL    HW117582   3.266   0.804   3.722
 5561SOL    HW217583   3.370   0.877   3.825
 5562SOL     OW17584   4.276   3.649   0.870
 5562SOL    HW117585   4.352   3.674   0.931
 5562SOL    HW217586   4.197   3.624   0.926
 5563SOL     OW17587   2.902   4.947   2.904
 5563SOL    HW117588   2.820   4.898   2.933
 5563SOL    HW217589   2.918   4.931   2.807
 5564SOL     OW17590   5.445   0.600   5.743
 5564SOL    HW117591   5.511   0.656   5.793
 5564SOL    HW217592   5.374   0.660   5.704
 5565SOL     OW17593   3.564   2.558   0.237
 5565SOL    HW117594   3.525   2.631   0.293
 5565SOL    HW217595   3.660   2.578   0.219
 5566SOL     OW17596   1.071   3.505   6.819
 5566SOL    HW117597   1.018   3.466   6.744
 5566SOL    HW217598   1.030   3.477   6.906
 5567SOL     OW17599   6.508   3.972   1.328
 5567SOL    HW117600   6.542   4.064   1.305
 5567SOL    HW217601   6.501   3.964   1.428
 5568SOL     OW17602   4.126   6.443   2.207
 5568SOL    HW117603   4.161   6.532   2.236
 5568SOL    HW217604   4.103   6.446   2.110
 5569SOL     OW17605   2.318   2.289   4.222
 5569SOL    HW117606   2.286   2.365   4.279
 5569SOL    HW217607   2.390   2.239   4.269
 5570SOL     OW17608   6.804   3.242   2.788
 5570SOL    HW117609   6.746   3.162   2.804
 5570SOL    HW217610   6.747   3.324   2.788
 5571SOL     OW17611   0.382   5.358   1.955
 5571SOL    HW117612   0.322   5.411   2.016
 5571SOL    HW217613   0.462   5.413   1.931
 5572SOL     OW17614   0.714   3.245   4.922
 5572SOL    HW117615   0.628   3.216   4.963
 5572SOL    HW217616   0.722   3.205   4.830
 5573SOL     OW17617   2.107   5.102   4.646
 5573SOL    HW117618   2.083   5.196   4.673
 5573SOL    HW217619   2.194   5.077   4.688
 5574SOL     OW17620   0.109   2.800   6.167
 5574SOL    HW117621   0.097   2.741   6.088
 5574SOL    HW217622   0.023   2.807   6.217
 5575SOL     OW17623   0.616   0.650   1.523
 5575SOL    HW117624   0.520   0.645   1.498
 5575SOL    HW217625   0.638   0.743   1.555
 5576SOL     OW17626   1.802   3.821   3.572
 5576SOL    HW117627   1.897   3.790   3.579
 5576SOL    HW217628   1.741   3.742   3.582
 5577SOL     OW17629   1.555   3.345   6.609
 5577SOL    HW117630   1.462   3.380   6.620
 5577SOL    HW217631   1.615   3.420   6.581
 5578SOL     OW17632   3.146   2.965   2.848
 5578SOL    HW117633   3.107   3.050   2.883
 5578SOL    HW217634   3.153   2.970   2.748
 5579SOL     OW17635   6.951   3.150   1.448
 5579SOL    HW117636   6.893   3.187   1.376
 5579SOL    HW217637   6.894   3.127   1.527
 5580SOL     OW17638   4.684   1.671   5.740
 5580SOL    HW117639   4.759   1.707   5.684
 5580SOL    HW217640   4.598   1.677   5.689
 5581SOL     OW17641   0.518   1.738   1.035
 5581SOL    HW117642   0.433   1.691   1.012
 5581SOL    HW217643   0.552   1.786   0.954
 5582SOL     OW17644   2.295   3.695   6.217
 5582SOL    HW117645   2.203   3.688   6.179
 5582SOL    HW217646   2.293   3.674   6.315
 5583SOL     OW17647   5.440   1.160   2.542
 5583SOL    HW117648   5.397   1.234   2.593
 5583SOL    HW217649   5.408   1.072   2.578
 5584SOL     OW17650   6.795   4.742   4.411
 5584SOL    HW117651   6.745   4.682   4.472
 5584SOL    HW217652   6.809   4.831   4.454
 5585SOL     OW17653   4.567   5.408   2.425
 5585SOL    HW117654   4.624   5.475   2.377
 5585SOL    HW217655   4.623   5.358   2.491
 5586SOL     OW17656   6.872   3.287   6.005
 5586SOL    HW117657   6.949   3.239   5.962
 5586SOL    HW217658   6.878   3.385   5.986
 5587SOL     OW17659   4.246   0.929   6.624
 5587SOL    HW117660   4.320   0.983   6.664
 5587SOL    HW217661   4.257   0.924   6.525
 5588SOL     OW17662   3.052   6.451   2.046
 5588SOL    HW117663   3.145   6.477   2.019
 5588SOL    HW217664   3.045   6.352   2.049
 5589SOL     OW17665   6.133   4.464   6.692
 5589SOL    HW117666   6.052   4.521   6.680
 5589SOL    HW217667   6.112   4.389   6.754
 5590SOL     OW17668   5.776   5.947   4.075
 5590SOL    HW117669   5.704   5.961   4.144
 5590SOL    HW217670   5.856   5.906   4.119
 5591SOL     OW17671   6.659   1.653   2.009
 5591SOL    HW117672   6.661   1.658   2.109
 5591SOL    HW217673   6.715   1.726   1.971
 5592SOL     OW17674   1.029   4.040   3.436
 5592SOL    HW117675   0.980   4.126   3.426
 5592SOL    HW217676   1.126   4.053   3.414
 5593SOL     OW17677   6.518   2.172   6.977
 5593SOL    HW117678   6.438   2.224   7.006
 5593SOL    HW217679   6.489   2.094   6.922
 5594SOL     OW17680   5.126   1.928   5.778
 5594SOL    HW117681   5.029   1.940   5.758
 5594SOL    HW217682   5.146   1.831   5.788
 5595SOL     OW17683   0.923   2.242   5.479
 5595SOL    HW117684   0.903   2.224   5.383
 5595SOL    HW217685   0.929   2.341   5.493
 5596SOL     OW17686   3.876   6.662   2.836
 5596SOL    HW117687   3.909   6.571   2.809
 5596SOL    HW217688   3.949   6.711   2.884
 5597SOL     OW17689   5.240   2.576   3.488
 5597SOL    HW117690   5.274   2.490   3.527
 5597SOL    HW217691   5.202   2.559   3.397
 5598SOL     OW17692   5.396   2.738   4.059
 5598SOL    HW117693   5.442   2.748   3.971
 5598SOL    HW217694   5.437   2.663   4.110
 5599SOL     OW17695   0.980   1.769   4.749
 5599SOL    HW117696   1.064   1.718   4.766
 5599SOL    HW217697   0.919   1.715   4.691
 5600SOL     OW17698   1.330   2.409   4.216
 5600SOL    HW117699   1.288   2.418   4.306
 5600SOL    HW217700   1.296   2.481   4.156
 5601SOL     OW17701   2.430   0.575   6.033
 5601SOL    HW117702   2.488   0.493   6.034
 5601SOL    HW217703   2.358   0.566   6.101
 5602SOL     OW17704   0.509   1.061   1.022
 5602SOL    HW117705   0.424   1.104   0.992
 5602SOL    HW217706   0.557   1.122   1.085
 5603SOL     OW17707   5.204   1.837   6.834
 5603SOL    HW117708   5.236   1.779   6.909
 5603SOL    HW217709   5.266   1.830   6.757
 5604SOL     OW17710   6.293   2.201   5.811
 5604SOL    HW117711   6.347   2.117   5.811
 5604SOL    HW217712   6.353   2.279   5.832
 5605SOL     OW17713   0.527   1.644   4.967
 5605SOL    HW117714   0.466   1.671   5.041
 5605SOL    HW217715   0.479   1.579   4.907
 5606SOL     OW17716   5.043   6.456   1.360
 5606SOL    HW117717   5.033   6.383   1.428
 5606SOL    HW217718   5.134   6.497   1.369
 5607SOL     OW17719   5.195   1.603   1.792
 5607SOL    HW117720   5.127   1.533   1.768
 5607SOL    HW217721   5.245   1.630   1.709
 5608SOL     OW17722   4.501   0.338   5.312
 5608SOL    HW117723   4.575   0.349   5.246
 5608SOL    HW217724   4.455   0.250   5.296
 5609SOL     OW17725   2.603   5.927   0.011
 5609SOL    HW117726   2.626   6.024   0.009
 5609SOL    HW217727   2.685   5.873   0.029
 5610SOL     OW17728   4.957   0.680   0.387
 5610SOL    HW117729   4.899   0.742   0.333
 5610SOL    HW217730   5.052   0.713   0.385
 5611SOL     OW17731   1.722   4.847   2.848
 5611SOL    HW117732   1.707   4.748   2.858
 5611SOL    HW217733   1.820   4.865   2.838
 5612SOL     OW17734   3.558   1.462   6.423
 5612SOL    HW117735   3.587   1.485   6.330
 5612SOL    HW217736   3.615   1.389   6.459
 5613SOL     OW17737   4.514   4.629   2.731
 5613SOL    HW117738   4.430   4.642   2.678
 5613SOL    HW217739   4.587   4.597   2.670
 5614SOL     OW17740   4.498   2.514   3.547
 5614SOL    HW117741   4.533   2.462   3.625
 5614SOL    HW217742   4.489   2.610   3.573
 5615SOL     OW17743   1.141   0.473   0.091
 5615SOL    HW117744   1.228   0.426   0.105
 5615SOL    HW217745   1.075   0.440   0.158
 5616SOL     OW17746   2.429   0.605   4.850
 5616SOL    HW117747   2.463   0.584   4.942
 5616SOL    HW217748   2.333   0.631   4.856
 5617SOL     OW17749   2.361   0.448   5.427
 5617SOL    HW117750   2.405   0.402   5.350
 5617SOL    HW217751   2.266   0.470   5.404
 5618SOL     OW17752   6.454   4.066   3.995
 5618SOL    HW117753   6.380   4.008   4.029
 5618SOL    HW217754   6.418   4.126   3.923
 5619SOL     OW17755   2.964   3.988   6.073
 5619SOL    HW117756   3.053   3.944   6.083
 5619SOL    HW217757   2.957   4.030   5.983
 5620SOL     OW17758   4.077   2.485   0.340
 5620SOL    HW117759   4.134   2.452   0.264
 5620SOL    HW217760   4.129   2.481   0.425
 5621SOL     OW17761   1.678   1.440   5.914
 5621SOL    HW117762   1.662   1.538   5.927
 5621SOL    HW217763   1.767   1.416   5.953
 5622SOL     OW17764   4.750   0.284   5.722
 5622SOL    HW117765   4.790   0.312   5.635
 5622SOL    HW217766   4.815   0.227   5.773
 5623SOL     OW17767   1.993   5.954   6.483
 5623SOL    HW117768   2.019   6.008   6.403
 5623SOL    HW217769   1.932   5.880   6.454
 5624SOL     OW17770   1.285   4.437   3.426
 5624SOL    HW117771   1.265   4.528   3.390
 5624SOL    HW217772   1.200   4.388   3.442
 5625SOL     OW17773   6.615   2.843   4.363
 5625SOL    HW117774   6.583   2.785   4.288
 5625SOL    HW217775   6.553   2.832   4.441
 5626SOL     OW17776   3.453   6.721   4.646
 5626SOL    HW117777   3.522   6.749   4.714
 5626SOL    HW217778   3.378   6.787   4.645
 5627SOL     OW17779   1.721   6.281   1.772
 5627SOL    HW117780   1.810   6.301   1.812
 5627SOL    HW217781   1.715   6.324   1.681
 5628SOL     OW17782   1.575   2.189   5.664
 5628SOL    HW117783   1.661   2.191   5.715
 5628SOL    HW217784   1.595   2.190   5.566
 5629SOL     OW17785   3.295   3.803   2.308
 5629SOL    HW117786   3.345   3.719   2.327
 5629SOL    HW217787   3.319   3.872   2.377
 5630SOL     OW17788   0.800   5.029   0.739
 5630SOL    HW117789   0.794   5.016   0.838
 5630SOL    HW217790   0.895   5.050   0.714
 5631SOL     OW17791   4.153   1.712   0.057
 5631SOL    HW117792   4.211   1.720   0.138
 5631SOL    HW217793   4.067   1.760   0.074
 5632SOL     OW17794   4.360   4.052   6.369
 5632SOL    HW117795   4.445   4.020   6.409
 5632SOL    HW217796   4.311   4.109   6.435
 5633SOL     OW17797   6.993   2.821   3.647
 5633SOL    HW117798   6.925   2.847   3.716
 5633SOL    HW217799   6.971   2.731   3.610
 5634SOL     OW17800   3.610   4.997   4.534
 5634SOL    HW117801   3.562   4.964   4.454
 5634SOL    HW217802   3.553   4.985   4.615
 5635SOL     OW17803   2.560   2.463   5.014
 5635SOL    HW117804   2.502   2.467   5.095
 5635SOL    HW217805   2.653   2.437   5.040
 5636SOL     OW17806   4.313   5.592   3.177
 5636SOL    HW117807   4.324   5.494   3.156
 5636SOL    HW217808   4.242   5.603   3.246
 5637SOL     OW17809   6.319   0.370   4.280
 5637SOL    HW117810   6.242   0.432   4.265
 5637SOL    HW217811   6.383   0.410   4.345
 5638SOL     OW17812   5.841   2.757   0.348
 5638SOL    HW117813   5.896   2.840   0.348
 5638SOL    HW217814   5.802   2.743   0.257
 5639SOL     OW17815   0.076   1.360   6.551
 5639SOL    HW117816   0.020   1.354   6.634
 5639SOL    HW217817   0.130   1.444   6.554
 5640SOL     OW17818   2.508   0.200   3.846
 5640SOL    HW117819   2.528   0.199   3.748
 5640SOL    HW217820   2.433   0.263   3.864
 5641SOL     OW17821   6.400   4.890   5.564
 5641SOL    HW117822   6.458   4.897   5.645
 5641SOL    HW217823   6.456   4.869   5.484
 5642SOL     OW17824   2.093   1.459   0.052
 5642SOL    HW117825   2.146   1.429   6.996
 5642SOL    HW217826   1.995   1.454   0.030
 5643SOL     OW17827   6.292   3.084   4.550
 5643SOL    HW117828   6.218   3.030   4.509
 5643SOL    HW217829   6.335   3.140   4.479
 5644SOL     OW17830   3.166   6.866   6.136
 5644SOL    HW117831   3.189   6.963   6.140
 5644SOL    HW217832   3.068   6.856   6.116
 5645SOL     OW17833   5.938   3.398   3.622
 5645SOL    HW117834   6.000   3.474   3.646
 5645SOL    HW217835   5.959   3.366   3.530
 5646SOL     OW17836   1.848   4.139   2.916
 5646SOL    HW117837   1.885   4.224   2.878
 5646SOL    HW217838   1.871   4.133   3.013
 5647SOL     OW17839   5.804   6.108   2.431
 5647SOL    HW117840   5.800   6.034   2.498
 5647SOL    HW217841   5.841   6.190   2.475
 5648SOL     OW17842   3.707   6.026   3.072
 5648SOL    HW117843   3.802   6.037   3.101
 5648SOL    HW217844   3.694   5.934   3.033
 5649SOL     OW17845   0.931   5.447   3.915
 5649SOL    HW117846   0.876   5.518   3.958
 5649SOL    HW217847   1.027   5.475   3.916
 5650SOL     OW17848   0.127   4.497   0.858
 5650SOL    HW117849   0.216   4.469   0.896
 5650SOL    HW217850   0.127   4.596   0.843
 5651SOL     OW17851   1.616   0.810   0.670
 5651SOL    HW117852   1.551   0.853   0.732
 5651SOL    HW217853   1.709   0.837   0.694
 5652SOL     OW17854   0.830   4.847   1.892
 5652SOL    HW117855   0.737   4.883   1.881
 5652SOL    HW217856   0.853   4.844   1.990
 5653SOL     OW17857   0.307   6.113   1.700
 5653SOL    HW117858   0.213   6.107   1.733
 5653SOL    HW217859   0.310   6.169   1.618
 5654SOL     OW17860   1.916   6.343   4.918
 5654SOL    HW117861   1.839   6.309   4.865
 5654SOL    HW217862   1.906   6.442   4.930
 5655SOL     OW17863   6.788   3.018   4.134
 5655SOL    HW117864   6.862   3.034   4.069
 5655SOL    HW217865   6.817   2.951   4.202
 5656SOL     OW17866   0.076   3.189   6.418
 5656SOL    HW117867   0.154   3.251   6.431
 5656SOL    HW217868   0.110   3.097   6.397
 5657SOL     OW17869   4.423   5.132   4.831
 5657SOL    HW117870   4.449   5.075   4.909
 5657SOL    HW217871   4.419   5.075   4.748
 5658SOL     OW17872   1.932   2.316   5.553
 5658SOL    HW117873   1.859   2.269   5.503
 5658SOL    HW217874   1.962   2.396   5.500
 5659SOL     OW17875   3.280   4.055   6.112
 5659SOL    HW117876   3.240   3.980   6.164
 5659SOL    HW217877   3.274   4.139   6.165
 5660SOL     OW17878   4.508   0.149   6.761
 5660SOL    HW117879   4.420   0.105   6.749
 5660SOL    HW217880   4.505   0.242   6.725
 5661SOL     OW17881   0.929   5.978   5.701
 5661SOL    HW117882   0.995   5.990   5.627
 5661SOL    HW217883   0.837   5.997   5.666
 5662SOL     OW17884   2.921   6.251   3.016
 5662SOL    HW117885   2.981   6.289   2.945
 5662SOL    HW217886   2.932   6.151   3.018
 5663SOL     OW17887   1.371   3.003   0.658
 5663SOL    HW117888   1.276   2.993   0.687
 5663SOL    HW217889   1.388   2.945   0.579
 5664SOL     OW17890   5.080   4.224   4.440
 5664SOL    HW117891   4.993   4.187   4.409
 5664SOL    HW217892   5.150   4.211   4.369
 5665SOL     OW17893   2.093   0.479   1.213
 5665SOL    HW117894   2.127   0.487   1.119
 5665SOL    HW217895   2.031   0.555   1.233
 5666SOL     OW17896   6.304   0.943   4.973
 5666SOL    HW117897   6.309   1.004   4.894
 5666SOL    HW217898   6.312   0.997   5.057
 5667SOL     OW17899   2.210   5.602   4.769
 5667SOL    HW117900   2.278   5.663   4.729
 5667SOL    HW217901   2.236   5.580   4.863
 5668SOL     OW17902   5.775   2.875   3.609
 5668SOL    HW117903   5.712   2.837   3.541
 5668SOL    HW217904   5.724   2.902   3.690
 5669SOL     OW17905   6.220   4.240   6.858
 5669SOL    HW117906   6.293   4.195   6.807
 5669SOL    HW217907   6.250   4.253   6.953
 5670SOL     OW17908   0.881   2.358   2.222
 5670SOL    HW117909   0.870   2.440   2.279
 5670SOL    HW217910   0.792   2.332   2.183
 5671SOL     OW17911   1.012   6.845   3.716
 5671SOL    HW117912   0.987   6.850   3.620
 5671SOL    HW217913   0.960   6.772   3.760
 5672SOL     OW17914   5.062   4.102   5.001
 5672SOL    HW117915   5.024   4.022   5.048
 5672SOL    HW217916   5.052   4.091   4.903
 5673SOL     OW17917   0.998   0.568   1.131
 5673SOL    HW117918   0.912   0.612   1.154
 5673SOL    HW217919   1.058   0.567   1.211
 5674SOL     OW17920   1.077   5.710   5.243
 5674SOL    HW117921   1.062   5.793   5.189
 5674SOL    HW217922   1.123   5.734   5.328
 5675SOL     OW17923   2.486   1.599   0.187
 5675SOL    HW117924   2.533   1.681   0.220
 5675SOL    HW217925   2.524   1.573   0.098
 5676SOL     OW17926   2.774   2.156   1.875
 5676SOL    HW117927   2.840   2.207   1.931
 5676SOL    HW217928   2.822   2.084   1.825
 5677SOL     OW17929   0.164   0.014   1.387
 5677SOL    HW117930   0.106   6.957   1.398
 5677SOL    HW217931   0.229   0.019   1.463
 5678SOL     OW17932   3.306   1.776   1.599
 5678SOL    HW117933   3.259   1.858   1.565
 5678SOL    HW217934   3.250   1.695   1.583
 5679SOL     OW17935   5.908   3.331   5.043
 5679SOL    HW117936   5.880   3.348   5.138
 5679SOL    HW217937   5.840   3.272   4.999
 5680SOL     OW17938   1.290   5.659   5.984
 5680SOL    HW117939   1.204   5.702   6.013
 5680SOL    HW217940   1.366   5.702   6.033
 5681SOL     OW17941   0.167   4.279   3.015
 5681SOL    HW117942   0.151   4.317   2.924
 5681SOL    HW217943   0.134   4.343   3.084
 5682SOL     OW17944   2.132   4.362   2.085
 5682SOL    HW117945   2.071   4.439   2.069
 5682SOL    HW217946   2.084   4.276   2.067
 5683SOL     OW17947   4.522   1.805   6.978
 5683SOL    HW117948   4.456   1.779   6.908
 5683SOL    HW217949   4.485   1.879   0.010
 5684SOL     OW17950   2.335   2.666   5.400
 5684SOL    HW117951   2.310   2.625   5.487
 5684SOL    HW217952   2.265   2.732   5.372
 5685SOL     OW17953   2.369   2.174   3.553
 5685SOL    HW117954   2.314   2.159   3.471
 5685SOL    HW217955   2.311   2.163   3.634
 5686SOL     OW17956   3.297   6.692   6.311
 5686SOL    HW117957   3.229   6.748   6.263
 5686SOL    HW217958   3.389   6.721   6.285
 5687SOL     OW17959   1.731   6.285   5.760
 5687SOL    HW117960   1.744   6.186   5.749
 5687SOL    HW217961   1.820   6.328   5.776
 5688SOL     OW17962   2.142   3.288   3.310
 5688SOL    HW117963   2.051   3.246   3.304
 5688SOL    HW217964   2.138   3.382   3.274
 5689SOL     OW17965   1.274   1.511   1.531
 5689SOL    HW117966   1.267   1.509   1.631
 5689SOL    HW217967   1.369   1.495   1.504
 5690SOL     OW17968   1.068   5.762   0.245
 5690SOL    HW117969   1.137   5.829   0.219
 5690SOL    HW217970   1.109   5.670   0.246
 5691SOL     OW17971   3.960   1.045   2.584
 5691SOL    HW117972   3.982   1.138   2.616
 5691SOL    HW217973   3.892   1.051   2.511
 5692SOL     OW17974   4.964   4.942   1.112
 5692SOL    HW117975   5.036   4.872   1.111
 5692SOL    HW217976   4.883   4.906   1.159
 5693SOL     OW17977   3.425   0.805   1.304
 5693SOL    HW117978   3.383   0.837   1.219
 5693SOL    HW217979   3.461   0.713   1.291
 5694SOL     OW17980   0.502   7.022   2.201
 5694SOL    HW117981   0.498   6.965   2.119
 5694SOL    HW217982   0.595   7.023   2.237
 5695SOL     OW17983   1.080   0.667   0.876
 5695SOL    HW117984   1.058   0.608   0.953
 5695SOL    HW217985   1.175   0.652   0.848
 5696SOL     OW17986   1.639   6.976   4.373
 5696SOL    HW117987   1.710   6.910   4.399
 5696SOL    HW217988   1.666   0.044   4.404
 5697SOL     OW17989   6.366   2.845   0.858
 5697SOL    HW117990   6.430   2.785   0.810
 5697SOL    HW217991   6.412   2.889   0.935
 5698SOL     OW17992   2.139   3.141   3.582
 5698SOL    HW117993   2.166   3.108   3.492
 5698SOL    HW217994   2.124   3.240   3.579
 5699SOL     OW17995   2.402   2.663   3.127
 5699SOL    HW117996   2.464   2.631   3.056
 5699SOL    HW217997   2.399   2.596   3.201
 5700SOL     OW17998   6.156   0.272   3.022
 5700SOL    HW117999   6.087   0.233   3.083
 5700SOL    HW218000   6.166   0.215   2.941
 5701SOL     OW18001   6.600   0.698   0.989
 5701SOL    HW118002   6.620   0.796   0.978
 5701SOL    HW218003   6.677   0.645   0.954
 5702SOL     OW18004   2.531   6.625   4.632
 5702SOL    HW118005   2.531   6.529   4.604
 5702SOL    HW218006   2.574   6.633   4.722
 5703SOL     OW18007   6.473   2.953   6.262
 5703SOL    HW118008   6.532   3.030   6.288
 5703SOL    HW218009   6.527   2.886   6.210
 5704SOL     OW18010   5.717   4.614   3.794
 5704SOL    HW118011   5.621   4.590   3.780
 5704SOL    HW218012   5.728   4.655   3.885
 5705SOL     OW18013   5.805   6.403   6.293
 5705SOL    HW118014   5.840   6.463   6.365
 5705SOL    HW218015   5.880   6.377   6.232
 5706SOL     OW18016   5.201   2.100   0.268
 5706SOL    HW118017   5.266   2.098   0.343
 5706SOL    HW218018   5.250   2.093   0.181
 5707SOL     OW18019   5.537   6.420   2.371
 5707SOL    HW118020   5.489   6.335   2.349
 5707SOL    HW218021   5.471   6.487   2.404
 5708SOL     OW18022   4.566   6.101   3.707
 5708SOL    HW118023   4.577   6.078   3.610
 5708SOL    HW218024   4.538   6.019   3.757
 5709SOL     OW18025   0.512   1.239   2.264
 5709SOL    HW118026   0.599   1.195   2.243
 5709SOL    HW218027   0.460   1.253   2.179
 5710SOL     OW18028   2.572   2.359   1.227
 5710SOL    HW118029   2.605   2.324   1.140
 5710SOL    HW218030   2.580   2.287   1.297
 5711SOL     OW18031   5.148   1.557   2.058
 5711SOL    HW118032   5.233   1.529   2.104
 5711SOL    HW218033   5.165   1.567   1.960
 5712SOL     OW18034   0.041   6.155   1.765
 5712SOL    HW118035   0.055   6.136   1.862
 5712SOL    HW218036   6.986   6.216   1.754
 5713SOL     OW18037   2.648   6.410   0.442
 5713SOL    HW118038   2.742   6.438   0.421
 5713SOL    HW218039   2.650   6.336   0.509
 5714SOL     OW18040   6.159   6.336   2.030
 5714SOL    HW118041   6.158   6.324   1.931
 5714SOL    HW218042   6.068   6.315   2.067
 5715SOL     OW18043   0.819   0.059   1.073
 5715SOL    HW118044   0.908   0.020   1.095
 5715SOL    HW218045   0.831   0.152   1.037
 5716SOL     OW18046   0.205   4.460   5.807
 5716SOL    HW118047   0.143   4.436   5.733
 5716SOL    HW218048   0.229   4.378   5.859
 5717SOL     OW18049   1.736   5.081   3.049
 5717SOL    HW118050   1.724   4.991   3.008
 5717SOL    HW218051   1.651   5.134   3.038
 5718SOL     OW18052   1.206   2.886   0.325
 5718SOL    HW118053   1.275   2.958   0.322
 5718SOL    HW218054   1.177   2.865   0.231
 5719SOL     OW18055   3.155   3.942   1.204
 5719SOL    HW118056   3.112   4.012   1.261
 5719SOL    HW218057   3.250   3.928   1.235
 5720SOL     OW18058   1.974   5.456   5.910
 5720SOL    HW118059   2.055   5.515   5.911
 5720SOL    HW218060   1.987   5.383   5.843
 5721SOL     OW18061   4.758   4.732   0.458
 5721SOL    HW118062   4.783   4.795   0.531
 5721SOL    HW218063   4.667   4.756   0.423
 5722SOL     OW18064   0.961   0.974   5.416
 5722SOL    HW118065   0.989   0.935   5.503
 5722SOL    HW218066   0.965   0.904   5.345
 5723SOL     OW18067   4.301   3.088   0.053
 5723SOL    HW118068   4.220   3.129   0.013
 5723SOL    HW218069   4.292   3.088   0.153
 5724SOL     OW18070   5.152   2.179   3.698
 5724SOL    HW118071   5.110   2.099   3.741
 5724SOL    HW218072   5.116   2.191   3.606
 5725SOL     OW18073   6.527   4.013   3.602
 5725SOL    HW118074   6.442   3.973   3.635
 5725SOL    HW218075   6.601   3.993   3.668
 5726SOL     OW18076   4.797   4.601   2.963
 5726SOL    HW118077   4.817   4.599   3.061
 5726SOL    HW218078   4.723   4.538   2.942
 5727SOL     OW18079   0.795   2.292   4.399
 5727SOL    HW118080   0.765   2.197   4.414
 5727SOL    HW218081   0.879   2.309   4.450
 5728SOL     OW18082   5.246   6.306   4.854
 5728SOL    HW118083   5.195   6.237   4.803
 5728SOL    HW218084   5.185   6.380   4.881
 5729SOL     OW18085   1.959   1.447   6.040
 5729SOL    HW118086   1.969   1.363   5.987
 5729SOL    HW218087   1.993   1.432   6.133
 5730SOL     OW18088   6.521   4.080   5.964
 5730SOL    HW118089   6.490   4.017   6.035
 5730SOL    HW218090   6.455   4.080   5.888
 5731SOL     OW18091   0.682   6.326   1.881
 5731SOL    HW118092   0.658   6.359   1.972
 5731SOL    HW218093   0.694   6.227   1.884
 5732SOL     OW18094   1.633   6.974   4.077
 5732SOL    HW118095   1.620   0.034   4.024
 5732SOL    HW218096   1.605   6.990   4.172
 5733SOL     OW18097   3.427   6.926   5.017
 5733SOL    HW118098   3.447   6.971   4.930
 5733SOL    HW218099   3.328   6.916   5.028
 5734SOL     OW18100   1.526   5.442   3.467
 5734SOL    HW118101   1.543   5.540   3.460
 5734SOL    HW218102   1.546   5.412   3.560
 5735SOL     OW18103   3.323   1.476   2.203
 5735SOL    HW118104   3.263   1.397   2.216
 5735SOL    HW218105   3.400   1.450   2.145
 5736SOL     OW18106   0.899   5.488   6.896
 5736SOL    HW118107   0.965   5.560   6.915
 5736SOL    HW218108   0.888   5.430   6.976
 5737SOL     OW18109   5.173   4.557   0.489
 5737SOL    HW118110   5.103   4.602   0.544
 5737SOL    HW218111   5.131   4.520   0.405
 5738SOL     OW18112   1.060   3.668   5.807
 5738SOL    HW118113   1.105   3.580   5.820
 5738SOL    HW218114   1.077   3.700   5.713
 5739SOL     OW18115   0.720   1.520   0.968
 5739SOL    HW118116   0.654   1.594   0.977
 5739SOL    HW218117   0.788   1.526   1.040
 5740SOL     OW18118   3.985   6.221   6.110
 5740SOL    HW118119   4.000   6.124   6.129
 5740SOL    HW218120   3.893   6.247   6.140
 5741SOL     OW18121   1.118   5.232   4.240
 5741SOL    HW118122   1.050   5.281   4.295
 5741SOL    HW218123   1.109   5.134   4.254
 5742SOL     OW18124   6.523   6.837   3.870
 5742SOL    HW118125   6.497   6.741   3.862
 5742SOL    HW218126   6.604   6.844   3.928
 5743SOL     OW18127   1.895   6.896   5.033
 5743SOL    HW118128   1.951   6.948   4.968
 5743SOL    HW218129   1.804   6.937   5.039
 5744SOL     OW18130   6.479   0.437   2.272
 5744SOL    HW118131   6.447   0.370   2.205
 5744SOL    HW218132   6.423   0.430   2.355
 5745SOL     OW18133   1.943   1.755   3.637
 5745SOL    HW118134   1.936   1.657   3.617
 5745SOL    HW218135   1.903   1.807   3.562
 5746SOL     OW18136   5.744   2.892   0.058
 5746SOL    HW118137   5.697   2.950   0.125
 5746SOL    HW218138   5.676   2.837   0.008
 5747SOL     OW18139   1.237   5.767   3.104
 5747SOL    HW118140   1.282   5.750   3.017
 5747SOL    HW218141   1.145   5.804   3.088
 5748SOL     OW18142   2.567   6.037   2.799
 5748SOL    HW118143   2.556   6.107   2.729
 5748SOL    HW218144   2.592   6.080   2.886
 5749SOL     OW18145   2.531   1.809   3.502
 5749SOL    HW118146   2.461   1.811   3.574
 5749SOL    HW218147   2.560   1.903   3.481
 5750SOL     OW18148   6.894   5.729   2.806
 5750SOL    HW118149   6.881   5.806   2.867
 5750SOL    HW218150   6.909   5.646   2.859
 5751SOL     OW18151   2.274   3.779   5.784
 5751SOL    HW118152   2.274   3.680   5.800
 5751SOL    HW218153   2.326   3.798   5.700
 5752SOL     OW18154   6.731   6.962   6.786
 5752SOL    HW118155   6.652   7.003   6.740
 5752SOL    HW218156   6.797   6.930   6.717
 5753SOL     OW18157   3.794   2.548   0.534
 5753SOL    HW118158   3.792   2.575   0.438
 5753SOL    HW218159   3.779   2.629   0.591
 5754SOL     OW18160   6.117   4.618   1.616
 5754SOL    HW118161   6.167   4.684   1.673
 5754SOL    HW218162   6.112   4.652   1.522
 5755SOL     OW18163   3.527   4.103   0.659
 5755SOL    HW118164   3.542   4.011   0.622
 5755SOL    HW218165   3.434   4.110   0.695
 5756SOL     OW18166   6.990   5.423   4.378
 5756SOL    HW118167   6.949   5.497   4.430
 5756SOL    HW218168   6.958   5.426   4.283
 5757SOL     OW18169   0.436   4.761   1.003
 5757SOL    HW118170   0.473   4.785   1.093
 5757SOL    HW218171   0.336   4.761   1.008
 5758SOL     OW18172   1.215   1.943   5.704
 5758SOL    HW118173   1.279   1.894   5.645
 5758SOL    HW218174   1.266   1.987   5.778
 5759SOL     OW18175   5.515   1.630   5.483
 5759SOL    HW118176   5.613   1.607   5.485
 5759SOL    HW218177   5.499   1.696   5.410
 5760SOL     OW18178   2.190   5.381   2.375
 5760SOL    HW118179   2.261   5.404   2.442
 5760SOL    HW218180   2.111   5.343   2.423
 5761SOL     OW18181   4.935   0.172   5.050
 5761SOL    HW118182   4.969   0.116   4.975
 5761SOL    HW218183   5.010   0.190   5.114
 5762SOL     OW18184   5.914   6.050   1.890
 5762SOL    HW118185   5.913   6.124   1.957
 5762SOL    HW218186   6.008   6.027   1.868
 5763SOL     OW18187   1.262   0.983   1.724
 5763SOL    HW118188   1.344   0.999   1.780
 5763SOL    HW218189   1.289   0.936   1.640
 5764SOL     OW18190   4.592   3.386   5.358
 5764SOL    HW118191   4.628   3.450   5.290
 5764SOL    HW218192   4.612   3.421   5.450
 5765SOL     OW18193   5.737   4.987   0.103
 5765SOL    HW118194   5.756   5.009   0.008
 5765SOL    HW218195   5.690   5.064   0.146
 5766SOL     OW18196   3.693   1.342   2.823
 5766SOL    HW118197   3.720   1.339   2.919
 5766SOL    HW218198   3.763   1.391   2.770
 5767SOL     OW18199   0.472   6.111   1.925
 5767SOL    HW118200   0.429   6.130   1.837
 5767SOL    HW218201   0.428   6.167   1.996
 5768SOL     OW18202   6.410   1.639   2.900
 5768SOL    HW118203   6.413   1.554   2.847
 5768SOL    HW218204   6.378   1.714   2.843
 5769SOL     OW18205   2.165   5.320   3.877
 5769SOL    HW118206   2.084   5.377   3.866
 5769SOL    HW218207   2.139   5.231   3.914
 5770SOL     OW18208   6.157   0.693   1.408
 5770SOL    HW118209   6.240   0.735   1.444
 5770SOL    HW218210   6.158   0.595   1.426
 5771SOL     OW18211   0.746   1.691   1.864
 5771SOL    HW118212   0.752   1.774   1.808
 5771SOL    HW218213   0.834   1.675   1.909
 5772SOL     OW18214   6.555   4.445   6.970
 5772SOL    HW118215   6.550   4.484   0.039
 5772SOL    HW218216   6.606   4.359   6.973
 5773SOL     OW18217   5.576   5.671   4.269
 5773SOL    HW118218   5.483   5.683   4.234
 5773SOL    HW218219   5.633   5.630   4.198
 5774SOL     OW18220   1.899   5.001   3.620
 5774SOL    HW118221   1.838   4.936   3.666
 5774SOL    HW218222   1.865   5.019   3.527
 5775SOL     OW18223   6.975   0.251   6.873
 5775SOL    HW118224   6.987   0.340   6.917
 5775SOL    HW218225   6.926   0.190   6.935
 5776SOL     OW18226   5.303   0.828   5.177
 5776SOL    HW118227   5.315   0.849   5.274
 5776SOL    HW218228   5.215   0.783   5.163
 5777SOL     OW18229   6.864   0.935   5.362
 5777SOL    HW118230   6.811   0.932   5.277
 5777SOL    HW218231   6.821   0.997   5.427
 5778SOL     OW18232   2.541   6.716   3.858
 5778SOL    HW118233   2.469   6.735   3.925
 5778SOL    HW218234   2.620   6.775   3.876
 5779SOL     OW18235   4.604   1.293   2.175
 5779SOL    HW118236   4.587   1.384   2.136
 5779SOL    HW218237   4.659   1.303   2.258
 5780SOL     OW18238   5.821   3.696   1.260
 5780SOL    HW118239   5.786   3.740   1.343
 5780SOL    HW218240   5.875   3.761   1.208
 5781SOL     OW18241   2.037   5.359   4.658
 5781SOL    HW118242   1.941   5.336   4.675
 5781SOL    HW218243   2.063   5.438   4.713
 5782SOL     OW18244   2.988   1.771   2.786
 5782SOL    HW118245   2.956   1.758   2.692
 5782SOL    HW218246   2.922   1.825   2.837
 5783SOL     OW18247   1.502   0.293   0.878
 5783SOL    HW118248   1.454   0.353   0.941
 5783SOL    HW218249   1.486   0.197   0.904
 5784SOL     OW18250   1.631   5.467   6.975
 5784SOL    HW118251   1.597   5.525   6.901
 5784SOL    HW218252   1.730   5.480   6.985
 5785SOL     OW18253   2.084   2.066   0.117
 5785SOL    HW118254   2.173   2.038   0.082
 5785SOL    HW218255   2.039   2.125   0.050
 5786SOL     OW18256   1.301   3.423   1.469
 5786SOL    HW118257   1.223   3.365   1.449
 5786SOL    HW218258   1.269   3.514   1.497
 5787SOL     OW18259   0.202   3.271   5.642
 5787SOL    HW118260   0.170   3.353   5.689
 5787SOL    HW218261   0.301   3.276   5.629
 5788SOL     OW18262   2.087   1.998   2.193
 5788SOL    HW118263   2.174   2.033   2.159
 5788SOL    HW218264   2.012   2.057   2.162
 5789SOL     OW18265   3.198   4.989   6.709
 5789SOL    HW118266   3.118   5.002   6.767
 5789SOL    HW218267   3.172   5.001   6.613
 5790SOL     OW18268   5.933   6.283   4.120
 5790SOL    HW118269   5.978   6.337   4.049
 5790SOL    HW218270   5.837   6.269   4.096
 5791SOL     OW18271   3.777   1.343   1.949
 5791SOL    HW118272   3.840   1.269   1.925
 5791SOL    HW218273   3.818   1.431   1.923
 5792SOL     OW18274   5.108   3.154   3.148
 5792SOL    HW118275   5.024   3.139   3.200
 5792SOL    HW218276   5.158   3.068   3.141
 5793SOL     OW18277   4.373   2.581   5.924
 5793SOL    HW118278   4.294   2.642   5.917
 5793SOL    HW218279   4.363   2.507   5.856
 5794SOL     OW18280   4.398   6.851   0.481
 5794SOL    HW118281   4.320   6.900   0.441
 5794SOL    HW218282   4.371   6.758   0.505
 5795SOL     OW18283   2.383   5.876   1.686
 5795SOL    HW118284   2.345   5.888   1.595
 5795SOL    HW218285   2.445   5.951   1.708
 5796SOL     OW18286   4.767   1.736   6.827
 5796SOL    HW118287   4.679   1.769   6.861
 5796SOL    HW218288   4.831   1.812   6.821
 5797SOL     OW18289   5.723   2.263   1.083
 5797SOL    HW118290   5.728   2.174   1.129
 5797SOL    HW218291   5.814   2.303   1.077
 5798SOL     OW18292   1.911   3.734   5.063
 5798SOL    HW118293   1.881   3.829   5.069
 5798SOL    HW218294   1.858   3.687   4.993
 5799SOL     OW18295   2.661   6.640   3.539
 5799SOL    HW118296   2.590   6.601   3.481
 5799SOL    HW218297   2.639   6.736   3.557
 5800SOL     OW18298   1.105   0.022   1.160
 5800SOL    HW118299   1.106   0.020   1.260
 5800SOL    HW218300   1.122   0.115   1.128
 5801SOL     OW18301   1.972   1.476   1.986
 5801SOL    HW118302   2.019   1.493   2.072
 5801SOL    HW218303   1.972   1.559   1.930
 5802SOL     OW18304   0.034   0.662   1.764
 5802SOL    HW118305   0.029   0.723   1.684
 5802SOL    HW218306   6.987   0.592   1.757
 5803SOL     OW18307   0.394   5.333   4.033
 5803SOL    HW118308   0.468   5.295   3.977
 5803SOL    HW218309   0.432   5.366   4.120
 5804SOL     OW18310   6.190   1.494   3.528
 5804SOL    HW118311   6.262   1.468   3.464
 5804SOL    HW218312   6.228   1.502   3.620
 5805SOL     OW18313   1.234   2.500   1.878
 5805SOL    HW118314   1.210   2.582   1.827
 5805SOL    HW218315   1.320   2.463   1.842
 5806SOL     OW18316   6.316   4.132   2.314
 5806SOL    HW118317   6.227   4.177   2.323
 5806SOL    HW218318   6.308   4.057   2.248
 5807SOL     OW18319   1.284   0.547   1.308
 5807SOL    HW118320   1.379   0.566   1.285
 5807SOL    HW218321   1.234   0.633   1.320
 5808SOL     OW18322   6.619   0.081   5.881
 5808SOL    HW118323   6.609   0.085   5.980
 5808SOL    HW218324   6.672   7.023   5.856
 5809SOL     OW18325   0.883   2.027   5.674
 5809SOL    HW118326   0.975   1.999   5.704
 5809SOL    HW218327   0.890   2.112   5.622
 5810SOL     OW18328   2.924   6.729   5.493
 5810SOL    HW118329   2.832   6.757   5.466
 5810SOL    HW218330   2.932   6.731   5.593
 5811SOL     OW18331   3.552   4.137   6.800
 5811SOL    HW118332   3.623   4.205   6.818
 5811SOL    HW218333   3.585   4.047   6.827
 5812SOL     OW18334   6.120   2.311   6.844
 5812SOL    HW118335   6.078   2.251   6.777
 5812SOL    HW218336   6.180   2.376   6.798
 5813SOL     OW18337   4.925   6.096   0.520
 5813SOL    HW118338   4.863   6.018   0.508
 5813SOL    HW218339   5.012   6.076   0.476
 5814SOL     OW18340   5.245   1.510   1.271
 5814SOL    HW118341   5.287   1.440   1.213
 5814SOL    HW218342   5.180   1.467   1.334
 5815SOL     OW18343   6.815   2.077   3.945
 5815SOL    HW118344   6.883   2.064   4.017
 5815SOL    HW218345   6.785   1.988   3.911
 5816SOL     OW18346   0.153   3.286   2.551
 5816SOL    HW118347   0.080   3.219   2.536
 5816SOL    HW218348   0.143   3.362   2.488
 5817SOL     OW18349   6.033   3.453   3.164
 5817SOL    HW118350   6.009   3.505   3.246
 5817SOL    HW218351   6.115   3.492   3.123
 5818SOL     OW18352   2.671   0.288   4.775
 5818SOL    HW118353   2.700   0.207   4.826
 5818SOL    HW218354   2.697   0.278   4.679
 5819SOL     OW18355   4.428   5.414   0.548
 5819SOL    HW118356   4.510   5.358   0.537
 5819SOL    HW218357   4.371   5.376   0.621
 5820SOL     OW18358   5.470   5.975   2.407
 5820SOL    HW118359   5.533   5.985   2.484
 5820SOL    HW218360   5.480   6.053   2.345
 5821SOL     OW18361   0.183   6.589   1.067
 5821SOL    HW118362   0.283   6.600   1.063
 5821SOL    HW218363   0.144   6.607   0.977
 5822SOL     OW18364   1.695   3.207   2.773
 5822SOL    HW118365   1.782   3.168   2.742
 5822SOL    HW218366   1.622   3.182   2.708
 5823SOL     OW18367   1.996   4.881   3.359
 5823SOL    HW118368   2.034   4.849   3.446
 5823SOL    HW218369   2.001   4.808   3.291
 5824SOL     OW18370   1.136   1.117   2.525
 5824SOL    HW118371   1.116   1.127   2.427
 5824SOL    HW218372   1.062   1.158   2.578
 5825SOL     OW18373   5.559   1.224   4.712
 5825SOL    HW118374   5.579   1.129   4.690
 5825SOL    HW218375   5.605   1.249   4.797
 5826SOL     OW18376   0.664   6.883   5.176
 5826SOL    HW118377   0.753   6.925   5.195
 5826SOL    HW218378   0.594   6.954   5.175
 5827SOL     OW18379   2.085   3.815   3.520
 5827SOL    HW118380   2.127   3.732   3.556
 5827SOL    HW218381   2.071   3.805   3.422
 5828SOL     OW18382   3.710   0.260   4.844
 5828SOL    HW118383   3.780   0.197   4.811
 5828SOL    HW218384   3.752   0.349   4.862
 5829SOL     OW18385   2.454   0.864   4.111
 5829SOL    HW118386   2.541   0.858   4.063
 5829SOL    HW218387   2.449   0.952   4.159
 5830SOL     OW18388   3.968   4.808   4.325
 5830SOL    HW118389   4.064   4.780   4.316
 5830SOL    HW218390   3.948   4.829   4.421
 5831SOL     OW18391   1.699   2.592   5.434
 5831SOL    HW118392   1.711   2.493   5.432
 5831SOL    HW218393   1.656   2.622   5.349
 5832SOL     OW18394   2.969   5.212   1.724
 5832SOL    HW118395   2.984   5.140   1.657
 5832SOL    HW218396   2.871   5.233   1.730
 5833SOL     OW18397   3.335   4.659   0.016
 5833SOL    HW118398   3.423   4.615   7.023
 5833SOL    HW218399   3.312   4.653   0.113
 5834SOL     OW18400   5.621   2.946   6.384
 5834SOL    HW118401   5.563   3.023   6.356
 5834SOL    HW218402   5.590   2.863   6.337
 5835SOL     OW18403   4.919   2.371   3.025
 5835SOL    HW118404   4.821   2.353   3.033
 5835SOL    HW218405   4.957   2.313   2.953
 5836SOL     OW18406   4.851   6.102   3.028
 5836SOL    HW118407   4.789   6.136   2.958
 5836SOL    HW218408   4.853   6.165   3.105
 5837SOL     OW18409   2.803   5.384   6.857
 5837SOL    HW118410   2.772   5.293   6.830
 5837SOL    HW218411   2.841   5.431   6.778
 5838SOL     OW18412   3.976   2.485   1.011
 5838SOL    HW118413   3.945   2.395   0.981
 5838SOL    HW218414   3.905   2.528   1.067
 5839SOL     OW18415   1.927   2.650   0.905
 5839SOL    HW118416   1.959   2.655   1.000
 5839SOL    HW218417   2.003   2.667   0.843
 5840SOL     OW18418   0.409   3.217   2.912
 5840SOL    HW118419   0.326   3.269   2.933
 5840SOL    HW218420   0.463   3.267   2.844
 5841SOL     OW18421   5.251   1.684   0.314
 5841SOL    HW118422   5.253   1.641   0.404
 5841SOL    HW218423   5.170   1.743   0.307
 5842SOL     OW18424   2.066   2.818   1.519
 5842SOL    HW118425   2.047   2.824   1.421
 5842SOL    HW218426   2.008   2.748   1.561
 5843SOL     OW18427   2.593   3.995   0.876
 5843SOL    HW118428   2.552   4.064   0.816
 5843SOL    HW218429   2.521   3.935   0.911
 5844SOL     OW18430   0.401   6.501   5.295
 5844SOL    HW118431   0.326   6.566   5.282
 5844SOL    HW218432   0.488   6.546   5.271
 5845SOL     OW18433   1.116   6.878   2.450
 5845SOL    HW118434   1.171   6.816   2.507
 5845SOL    HW218435   1.171   6.958   2.427
 5846SOL     OW18436   6.551   4.025   5.599
 5846SOL    HW118437   6.594   3.966   5.531
 5846SOL    HW218438   6.601   4.019   5.685
 5847SOL     OW18439   2.459   4.211   6.435
 5847SOL    HW118440   2.431   4.116   6.418
 5847SOL    HW218441   2.536   4.234   6.377
 5848SOL     OW18442   2.142   5.633   2.291
 5848SOL    HW118443   2.144   5.536   2.314
 5848SOL    HW218444   2.136   5.643   2.191
 5849SOL     OW18445   3.785   6.043   5.513
 5849SOL    HW118446   3.739   5.955   5.519
 5849SOL    HW218447   3.778   6.091   5.600
 5850SOL     OW18448   0.753   1.498   2.890
 5850SOL    HW118449   0.707   1.419   2.930
 5850SOL    HW218450   0.781   1.561   2.963
 5851SOL     OW18451   6.646   3.455   4.160
 5851SOL    HW118452   6.600   3.541   4.178
 5851SOL    HW218453   6.736   3.473   4.120
 5852SOL     OW18454   4.846   4.068   2.554
 5852SOL    HW118455   4.858   3.977   2.594
 5852SOL    HW218456   4.832   4.059   2.455
 5853SOL     OW18457   4.032   4.998   6.097
 5853SOL    HW118458   4.103   4.933   6.124
 5853SOL    HW218459   3.952   4.948   6.065
 5854SOL     OW18460   2.840   4.720   5.333
 5854SOL    HW118461   2.854   4.652   5.261
 5854SOL    HW218462   2.901   4.700   5.410
 5855SOL     OW18463   2.191   2.835   3.099
 5855SOL    HW118464   2.282   2.793   3.092
 5855SOL    HW218465   2.121   2.763   3.092
 5856SOL     OW18466   0.990   6.943   3.117
 5856SOL    HW118467   0.992   0.020   3.113
 5856SOL    HW218468   0.901   6.910   3.086
 5857SOL     OW18469   5.886   4.576   6.646
 5857SOL    HW118470   5.797   4.578   6.692
 5857SOL    HW218471   5.873   4.577   6.547
 5858SOL     OW18472   1.504   1.246   3.082
 5858SOL    HW118473   1.423   1.260   3.138
 5858SOL    HW218474   1.494   1.161   3.029
 5859SOL     OW18475   5.975   6.313   1.326
 5859SOL    HW118476   6.037   6.243   1.362
 5859SOL    HW218477   5.984   6.316   1.226
 5860SOL     OW18478   0.346   4.627   3.456
 5860SOL    HW118479   0.346   4.548   3.395
 5860SOL    HW218480   0.280   4.613   3.530
 5861SOL     OW18481   5.156   1.128   5.620
 5861SOL    HW118482   5.106   1.121   5.534
 5861SOL    HW218483   5.236   1.187   5.607
 5862SOL     OW18484   6.722   5.739   2.596
 5862SOL    HW118485   6.805   5.741   2.651
 5862SOL    HW218486   6.655   5.804   2.633
 5863SOL     OW18487   3.732   6.530   6.785
 5863SOL    HW118488   3.751   6.434   6.762
 5863SOL    HW218489   3.807   6.566   6.839
 5864SOL     OW18490   3.630   4.111   2.355
 5864SOL    HW118491   3.642   4.113   2.454
 5864SOL    HW218492   3.713   4.078   2.311
 5865SOL     OW18493   6.618   0.641   6.192
 5865SOL    HW118494   6.664   0.637   6.281
 5865SOL    HW218495   6.667   0.583   6.127
 5866SOL     OW18496   3.999   3.058   2.972
 5866SOL    HW118497   3.914   3.041   2.922
 5866SOL    HW218498   4.052   2.973   2.977
 5867SOL     OW18499   3.183   1.306   1.628
 5867SOL    HW118500   3.256   1.268   1.571
 5867SOL    HW218501   3.223   1.360   1.702
 5868SOL     OW18502   0.878   1.209   5.874
 5868SOL    HW118503   0.948   1.143   5.849
 5868SOL    HW218504   0.881   1.287   5.811
 5869SOL     OW18505   0.701   6.145   3.308
 5869SOL    HW118506   0.640   6.144   3.387
 5869SOL    HW218507   0.761   6.065   3.311
 5870SOL     OW18508   3.578   5.486   4.670
 5870SOL    HW118509   3.673   5.507   4.695
 5870SOL    HW218510   3.525   5.571   4.665
 5871SOL     OW18511   3.034   3.934   3.590
 5871SOL    HW118512   2.972   3.965   3.517
 5871SOL    HW218513   3.000   3.848   3.627
 5872SOL     OW18514   4.684   5.617   1.520
 5872SOL    HW118515   4.756   5.646   1.582
 5872SOL    HW218516   4.667   5.519   1.532
 5873SOL     OW18517   4.282   5.726   2.112
 5873SOL    HW118518   4.240   5.676   2.036
 5873SOL    HW218519   4.221   5.723   2.191
 5874SOL     OW18520   1.707   3.678   5.549
 5874SOL    HW118521   1.784   3.684   5.486
 5874SOL    HW218522   1.740   3.684   5.643
 5875SOL     OW18523   3.005   1.782   1.067
 5875SOL    HW118524   2.964   1.700   1.026
 5875SOL    HW218525   2.978   1.863   1.015
 5876SOL     OW18526   3.657   3.514   1.946
 5876SOL    HW118527   3.747   3.493   1.985
 5876SOL    HW218528   3.626   3.603   1.980
 5877SOL     OW18529   5.448   4.272   1.245
 5877SOL    HW118530   5.423   4.264   1.149
 5877SOL    HW218531   5.501   4.192   1.273
 5878SOL     OW18532   2.007   4.583   2.621
 5878SOL    HW118533   2.055   4.537   2.696
 5878SOL    HW218534   2.058   4.666   2.595
 5879SOL     OW18535   0.420   4.423   4.947
 5879SOL    HW118536   0.391   4.453   5.038
 5879SOL    HW218537   0.359   4.462   4.878
 5880SOL     OW18538   3.112   5.560   0.960
 5880SOL    HW118539   3.126   5.483   1.021
 5880SOL    HW218540   3.167   5.547   0.877
 5881SOL     OW18541   1.215   6.187   4.659
 5881SOL    HW118542   1.130   6.141   4.634
 5881SOL    HW218543   1.286   6.162   4.594
 5882SOL     OW18544   4.626   0.841   1.861
 5882SOL    HW118545   4.558   0.873   1.796
 5882SOL    HW218546   4.623   0.897   1.944
 5883SOL     OW18547   0.053   3.774   5.483
 5883SOL    HW118548   0.145   3.768   5.522
 5883SOL    HW218549   0.048   3.853   5.423
 5884SOL     OW18550   1.119   1.619   2.989
 5884SOL    HW118551   1.172   1.653   2.911
 5884SOL    HW218552   1.073   1.695   3.034
 5885SOL     OW18553   5.700   6.595   1.303
 5885SOL    HW118554   5.681   6.505   1.343
 5885SOL    HW218555   5.722   6.584   1.206
 5886SOL     OW18556   1.338   1.440   6.160
 5886SOL    HW118557   1.354   1.362   6.100
 5886SOL    HW218558   1.242   1.468   6.154
 5887SOL     OW18559   4.458   6.633   4.034
 5887SOL    HW118560   4.490   6.608   3.942
 5887SOL    HW218561   4.490   6.725   4.056
 5888SOL     OW18562   2.202   0.404   3.453
 5888SOL    HW118563   2.131   0.416   3.384
 5888SOL    HW218564   2.292   0.413   3.411
 5889SOL     OW18565   2.633   0.663   0.628
 5889SOL    HW118566   2.550   0.701   0.587
 5889SOL    HW218567   2.702   0.650   0.557
 5890SOL     OW18568   3.310   4.764   5.929
 5890SOL    HW118569   3.233   4.826   5.939
 5890SOL    HW218570   3.278   4.676   5.893
 5891SOL     OW18571   2.675   3.739   0.119
 5891SOL    HW118572   2.737   3.774   0.189
 5891SOL    HW218573   2.635   3.817   0.070
 5892SOL     OW18574   0.813   6.949   1.509
 5892SOL    HW118575   0.773   6.883   1.572
 5892SOL    HW218576   0.742   7.014   1.480
 5893SOL     OW18577   1.645   0.659   3.763
 5893SOL    HW118578   1.634   0.690   3.668
 5893SOL    HW218579   1.704   0.579   3.765
 5894SOL     OW18580   1.122   2.858   3.267
 5894SOL    HW118581   1.075   2.797   3.331
 5894SOL    HW218582   1.141   2.808   3.182
 5895SOL     OW18583   4.946   3.374   3.710
 5895SOL    HW118584   4.910   3.402   3.621
 5895SOL    HW218585   5.044   3.392   3.714
 5896SOL     OW18586   3.236   2.173   5.959
 5896SOL    HW118587   3.336   2.175   5.959
 5896SOL    HW218588   3.201   2.260   5.923
 5897SOL     OW18589   4.303   0.378   1.398
 5897SOL    HW118590   4.207   0.392   1.421
 5897SOL    HW218591   4.311   0.312   1.323
 5898SOL     OW18592   1.927   0.363   2.440
 5898SOL    HW118593   2.024   0.378   2.425
 5898SOL    HW218594   1.879   0.451   2.438
 5899SOL     OW18595   5.255   0.022   3.870
 5899SOL    HW118596   5.173   0.055   3.823
 5899SOL    HW218597   5.334   0.075   3.840
 5900SOL     OW18598   4.542   5.350   2.823
 5900SOL    HW118599   4.586   5.334   2.912
 5900SOL    HW218600   4.461   5.407   2.835
 5901SOL     OW18601   3.626   6.758   5.113
 5901SOL    HW118602   3.570   6.814   5.053
 5901SOL    HW218603   3.716   6.744   5.072
 5902SOL     OW18604   6.509   1.555   6.588
 5902SOL    HW118605   6.444   1.512   6.525
 5902SOL    HW218606   6.584   1.491   6.607
 5903SOL     OW18607   6.020   2.938   6.066
 5903SOL    HW118608   6.071   2.859   6.098
 5903SOL    HW218609   5.947   2.908   6.004
 5904SOL     OW18610   0.261   4.038   2.678
 5904SOL    HW118611   0.296   4.099   2.750
 5904SOL    HW218612   0.179   3.992   2.712
 5905SOL     OW18613   0.267   5.242   2.702
 5905SOL    HW118614   0.350   5.249   2.758
 5905SOL    HW218615   0.195   5.299   2.741
 5906SOL     OW18616   6.333   1.607   3.777
 5906SOL    HW118617   6.331   1.520   3.827
 5906SOL    HW218618   6.400   1.668   3.818
 5907SOL     OW18619   1.625   6.562   1.988
 5907SOL    HW118620   1.667   6.540   1.900
 5907SOL    HW218621   1.672   6.640   2.029
 5908SOL     OW18622   0.560   3.195   5.658
 5908SOL    HW118623   0.579   3.144   5.742
 5908SOL    HW218624   0.603   3.149   5.581
 5909SOL     OW18625   6.922   4.757   1.038
 5909SOL    HW118626   6.902   4.659   1.030
 5909SOL    HW218627   6.847   4.809   0.999
 5910SOL     OW18628   2.187   1.361   3.648
 5910SOL    HW118629   2.233   1.380   3.734
 5910SOL    HW218630   2.253   1.358   3.574
 5911SOL     OW18631   6.432   5.704   6.348
 5911SOL    HW118632   6.517   5.727   6.394
 5911SOL    HW218633   6.451   5.682   6.252
 5912SOL     OW18634   0.166   1.039   3.813
 5912SOL    HW118635   0.257   1.056   3.774
 5912SOL    HW218636   0.169   1.054   3.912
 5913SOL     OW18637   5.910   1.408   6.995
 5913SOL    HW118638   5.816   1.425   6.964
 5913SOL    HW218639   5.974   1.436   6.924
 5914SOL     OW18640   0.796   6.070   0.240
 5914SOL    HW118641   0.759   6.001   0.177
 5914SOL    HW218642   0.892   6.087   0.218
 5915SOL     OW18643   3.712   1.854   6.016
 5915SOL    HW118644   3.669   1.784   6.072
 5915SOL    HW218645   3.796   1.885   6.060
 5916SOL     OW18646   1.122   6.302   2.909
 5916SOL    HW118647   1.086   6.359   2.836
 5916SOL    HW218648   1.097   6.206   2.892
 5917SOL     OW18649   4.022   4.534   0.384
 5917SOL    HW118650   3.946   4.518   0.447
 5917SOL    HW218651   4.095   4.468   0.401
 5918SOL     OW18652   3.203   6.253   5.351
 5918SOL    HW118653   3.220   6.160   5.383
 5918SOL    HW218654   3.225   6.318   5.423
 5919SOL     OW18655   3.507   3.052   3.995
 5919SOL    HW118656   3.479   3.130   3.939
 5919SOL    HW218657   3.427   3.010   4.037
 5920SOL     OW18658   6.776   6.967   5.444
 5920SOL    HW118659   6.762   6.931   5.536
 5920SOL    HW218660   6.717   0.022   5.429
 5921SOL     OW18661   2.602   4.698   6.304
 5921SOL    HW118662   2.555   4.730   6.387
 5921SOL    HW218663   2.679   4.640   6.330
 5922SOL     OW18664   4.801   3.984   3.252
 5922SOL    HW118665   4.869   3.927   3.208
 5922SOL    HW218666   4.746   4.031   3.182
 5923SOL     OW18667   6.679   0.224   2.399
 5923SOL    HW118668   6.710   0.313   2.364
 5923SOL    HW218669   6.668   0.229   2.499
 5924SOL     OW18670   5.703   0.404   3.513
 5924SOL    HW118671   5.729   0.318   3.557
 5924SOL    HW218672   5.725   0.398   3.415
 5925SOL     OW18673   4.779   6.305   1.604
 5925SOL    HW118674   4.756   6.402   1.607
 5925SOL    HW218675   4.867   6.293   1.559
 5926SOL     OW18676   4.892   5.307   3.733
 5926SOL    HW118677   4.815   5.275   3.679
 5926SOL    HW218678   4.923   5.396   3.699
 5927SOL     OW18679   1.201   4.725   1.718
 5927SOL    HW118680   1.177   4.790   1.646
 5927SOL    HW218681   1.136   4.648   1.717
 5928SOL     OW18682   3.700   0.241   0.530
 5928SOL    HW118683   3.643   0.202   0.602
 5928SOL    HW218684   3.719   0.337   0.550
 5929SOL     OW18685   1.785   1.017   6.660
 5929SOL    HW118686   1.686   1.016   6.645
 5929SOL    HW218687   1.827   1.089   6.605
 5930SOL     OW18688   1.182   3.348   2.261
 5930SOL    HW118689   1.236   3.269   2.291
 5930SOL    HW218690   1.237   3.431   2.269
 5931SOL     OW18691   4.844   6.082   3.475
 5931SOL    HW118692   4.909   6.111   3.545
 5931SOL    HW218693   4.784   6.011   3.512
 5932SOL     OW18694   3.142   1.504   6.929
 5932SOL    HW118695   3.065   1.516   6.991
 5932SOL    HW218696   3.146   1.582   6.866
 5933SOL     OW18697   5.936   6.010   4.423
 5933SOL    HW118698   5.948   5.910   4.425
 5933SOL    HW218699   5.980   6.047   4.341
 5934SOL     OW18700   3.268   3.666   5.924
 5934SOL    HW118701   3.268   3.566   5.928
 5934SOL    HW218702   3.197   3.697   5.860
 5935SOL     OW18703   6.948   5.792   5.888
 5935SOL    HW118704   7.021   5.809   5.954
 5935SOL    HW218705   6.914   5.699   5.899
 5936SOL     OW18706   3.662   3.190   1.351
 5936SOL    HW118707   3.631   3.201   1.445
 5936SOL    HW218708   3.743   3.131   1.349
 5937SOL     OW18709   6.751   3.599   1.523
 5937SOL    HW118710   6.660   3.627   1.552
 5937SOL    HW218711   6.819   3.634   1.588
 5938SOL     OW18712   0.290   4.960   4.907
 5938SOL    HW118713   0.387   4.979   4.891
 5938SOL    HW218714   0.237   4.985   4.826
 5939SOL     OW18715   3.797   0.740   5.278
 5939SOL    HW118716   3.829   0.664   5.336
 5939SOL    HW218717   3.829   0.826   5.316
 5940SOL     OW18718   5.105   6.170   2.637
 5940SOL    HW118719   5.070   6.146   2.546
 5940SOL    HW218720   5.145   6.090   2.680
 5941SOL     OW18721   6.289   1.997   2.003
 5941SOL    HW118722   6.218   1.929   1.989
 5941SOL    HW218723   6.351   1.967   2.075
 5942SOL     OW18724   5.218   3.063   6.020
 5942SOL    HW118725   5.276   3.010   5.958
 5942SOL    HW218726   5.270   3.089   6.101
 5943SOL     OW18727   3.334   4.307   1.677
 5943SOL    HW118728   3.322   4.261   1.589
 5943SOL    HW218729   3.332   4.406   1.663
 5944SOL     OW18730   0.675   3.318   6.821
 5944SOL    HW118731   0.749   3.345   6.758
 5944SOL    HW218732   0.648   3.397   6.875
 5945SOL     OW18733   6.852   5.903   5.656
 5945SOL    HW118734   6.881   5.864   5.743
 5945SOL    HW218735   6.890   5.995   5.647
 5946SOL     OW18736   3.450   4.156   1.135
 5946SOL    HW118737   3.544   4.139   1.106
 5946SOL    HW218738   3.425   4.090   1.206
 5947SOL     OW18739   3.028   3.138   4.636
 5947SOL    HW118740   3.006   3.139   4.734
 5947SOL    HW218741   3.123   3.109   4.623
 5948SOL     OW18742   5.311   4.063   2.168
 5948SOL    HW118743   5.352   4.137   2.221
 5948SOL    HW218744   5.327   4.079   2.070
 5949SOL     OW18745   6.316   4.236   1.851
 5949SOL    HW118746   6.274   4.154   1.811
 5949SOL    HW218747   6.350   4.295   1.778
 5950SOL     OW18748   5.047   1.125   5.369
 5950SOL    HW118749   5.112   1.119   5.292
 5950SOL    HW218750   4.961   1.163   5.336
 5951SOL     OW18751   1.277   4.050   6.433
 5951SOL    HW118752   1.266   4.037   6.531
 5951SOL    HW218753   1.370   4.023   6.406
 5952SOL     OW18754   3.973   4.920   1.309
 5952SOL    HW118755   3.920   4.858   1.368
 5952SOL    HW218756   4.068   4.921   1.339
 5953SOL     OW18757   6.288   2.604   4.585
 5953SOL    HW118758   6.211   2.667   4.599
 5953SOL    HW218759   6.372   2.656   4.573
 5954SOL     OW18760   1.559   6.257   4.234
 5954SOL    HW118761   1.501   6.338   4.245
 5954SOL    HW218762   1.654   6.281   4.255
 5955SOL     OW18763   6.363   3.631   0.965
 5955SOL    HW118764   6.270   3.598   0.982
 5955SOL    HW218765   6.413   3.563   0.911
 5956SOL     OW18766   5.396   2.894   4.604
 5956SOL    HW118767   5.400   2.880   4.505
 5956SOL    HW218768   5.487   2.881   4.644
 5957SOL     OW18769   0.714   1.269   2.499
 5957SOL    HW118770   0.633   1.287   2.442
 5957SOL    HW218771   0.773   1.349   2.500
 5958SOL     OW18772   3.759   6.840   2.466
 5958SOL    HW118773   3.832   6.851   2.534
 5958SOL    HW218774   3.798   6.849   2.374
 5959SOL     OW18775   5.665   2.642   4.411
 5959SOL    HW118776   5.664   2.735   4.374
 5959SOL    HW218777   5.598   2.586   4.362
 5960SOL     OW18778   4.216   0.236   6.208
 5960SOL    HW118779   4.129   0.265   6.248
 5960SOL    HW218780   4.266   0.316   6.173
 5961SOL     OW18781   2.423   1.662   3.263
 5961SOL    HW118782   2.447   1.722   3.340
 5961SOL    HW218783   2.368   1.713   3.197
 5962SOL     OW18784   4.843   6.554   0.053
 5962SOL    HW118785   4.823   6.648   0.084
 5962SOL    HW218786   4.881   6.502   0.129
 5963SOL     OW18787   3.575   4.079   0.107
 5963SOL    HW118788   3.595   4.002   0.046
 5963SOL    HW218789   3.529   4.046   0.189
 5964SOL     OW18790   2.284   6.648   3.199
 5964SOL    HW118791   2.295   6.733   3.147
 5964SOL    HW218792   2.254   6.575   3.137
 5965SOL     OW18793   1.722   0.670   0.466
 5965SOL    HW118794   1.688   0.717   0.547
 5965SOL    HW218795   1.667   0.697   0.386
 5966SOL     OW18796   2.523   0.838   5.308
 5966SOL    HW118797   2.513   0.821   5.211
 5966SOL    HW218798   2.554   0.755   5.354
 5967SOL     OW18799   3.172   1.750   3.704
 5967SOL    HW118800   3.230   1.771   3.782
 5967SOL    HW218801   3.118   1.831   3.679
 5968SOL     OW18802   5.226   2.035   1.337
 5968SOL    HW118803   5.189   1.974   1.407
 5968SOL    HW218804   5.158   2.105   1.314
 5969SOL     OW18805   5.032   0.895   6.958
 5969SOL    HW118806   5.086   0.811   6.972
 5969SOL    HW218807   5.063   0.965   7.023
 5970SOL     OW18808   0.445   3.604   0.804
 5970SOL    HW118809   0.378   3.542   0.763
 5970SOL    HW218810   0.401   3.691   0.824
 5971SOL     OW18811   0.809   6.664   3.836
 5971SOL    HW118812   0.721   6.664   3.788
 5971SOL    HW218813   0.855   6.577   3.820
 5972SOL     OW18814   4.805   4.809   1.325
 5972SOL    HW118815   4.707   4.795   1.313
 5972SOL    HW218816   4.822   4.845   1.417
 5973SOL     OW18817   1.677   2.342   2.600
 5973SOL    HW118818   1.727   2.265   2.559
 5973SOL    HW218819   1.727   2.427   2.583
 5974SOL     OW18820   4.822   2.000   5.763
 5974SOL    HW118821   4.853   1.994   5.857
 5974SOL    HW218822   4.773   2.086   5.749
 5975SOL     OW18823   4.786   4.957   0.619
 5975SOL    HW118824   4.805   4.928   0.713
 5975SOL    HW218825   4.827   5.047   0.604
 5976SOL     OW18826   2.492   3.557   5.792
 5976SOL    HW118827   2.514   3.484   5.727
 5976SOL    HW218828   2.483   3.518   5.884
 5977SOL     OW18829   0.180   4.885   0.314
 5977SOL    HW118830   0.206   4.816   0.382
 5977SOL    HW218831   0.108   4.848   0.255
 5978SOL     OW18832   3.224   5.181   0.342
 5978SOL    HW118833   3.299   5.121   0.368
 5978SOL    HW218834   3.171   5.138   0.268
 5979SOL     OW18835   5.932   0.177   1.316
 5979SOL    HW118836   5.951   0.264   1.270
 5979SOL    HW218837   6.018   0.128   1.329
 5980SOL     OW18838   3.184   3.282   1.772
 5980SOL    HW118839   3.203   3.267   1.869
 5980SOL    HW218840   3.185   3.194   1.724
 5981SOL     OW18841   2.584   2.994   0.423
 5981SOL    HW118842   2.573   2.906   0.469
 5981SOL    HW218843   2.617   3.063   0.489
 5982SOL     OW18844   6.345   2.475   1.460
 5982SOL    HW118845   6.344   2.418   1.543
 5982SOL    HW218846   6.433   2.463   1.414
 5983SOL     OW18847   0.118   0.720   3.709
 5983SOL    HW118848   0.114   0.669   3.623
 5983SOL    HW218849   0.136   0.816   3.690
 5984SOL     OW18850   6.444   6.602   3.211
 5984SOL    HW118851   6.534   6.561   3.225
 5984SOL    HW218852   6.430   6.619   3.114
 5985SOL     OW18853   5.563   2.317   2.718
 5985SOL    HW118854   5.558   2.278   2.810
 5985SOL    HW218855   5.472   2.315   2.677
 5986SOL     OW18856   4.168   3.721   5.285
 5986SOL    HW118857   4.192   3.773   5.366
 5986SOL    HW218858   4.238   3.652   5.267
 5987SOL     OW18859   6.785   6.896   5.728
 5987SOL    HW118860   6.875   6.940   5.722
 5987SOL    HW218861   6.797   6.800   5.751
 5988SOL     OW18862   1.730   2.521   6.361
 5988SOL    HW118863   1.717   2.620   6.354
 5988SOL    HW218864   1.826   2.498   6.348
 5989SOL     OW18865   0.410   5.676   6.674
 5989SOL    HW118866   0.375   5.608   6.609
 5989SOL    HW218867   0.489   5.638   6.722
 5990SOL     OW18868   3.750   5.160   1.918
 5990SOL    HW118869   3.814   5.236   1.925
 5990SOL    HW218870   3.801   5.074   1.909
 5991SOL     OW18871   5.258   6.763   1.243
 5991SOL    HW118872   5.244   6.829   1.170
 5991SOL    HW218873   5.291   6.677   1.204
 5992SOL     OW18874   3.386   0.333   1.651
 5992SOL    HW118875   3.312   0.318   1.587
 5992SOL    HW218876   3.381   0.427   1.686
 5993SOL     OW18877   6.131   1.907   0.346
 5993SOL    HW118878   6.075   1.930   0.267
 5993SOL    HW218879   6.072   1.885   0.424
 5994SOL     OW18880   0.744   3.121   0.572
 5994SOL    HW118881   0.657   3.166   0.550
 5994SOL    HW218882   0.808   3.135   0.496
 5995SOL     OW18883   4.761   3.991   1.445
 5995SOL    HW118884   4.804   4.080   1.463
 5995SOL    HW218885   4.680   3.981   1.503
 5996SOL     OW18886   3.103   5.191   1.352
 5996SOL    HW118887   3.173   5.130   1.389
 5996SOL    HW218888   3.034   5.138   1.303
 5997SOL     OW18889   0.140   0.225   3.678
 5997SOL    HW118890   0.231   0.199   3.644
 5997SOL    HW218891   0.089   0.271   3.605
 5998SOL     OW18892   6.860   6.901   1.544
 5998SOL    HW118893   6.877   6.995   1.574
 5998SOL    HW218894   6.931   6.874   1.480
 5999SOL     OW18895   4.763   2.877   1.005
 5999SOL    HW118896   4.793   2.972   0.996
 5999SOL    HW218897   4.728   2.845   0.916
 6000SOL     OW18898   6.937   4.484   1.067
 6000SOL    HW118899   6.976   4.531   1.146
 6000SOL    HW218900   6.932   4.385   1.086
 6001SOL     OW18901   5.908   5.341   5.480
 6001SOL    HW118902   5.838   5.349   5.410
 6001SOL    HW218903   5.951   5.251   5.475
 6002SOL     OW18904   5.658   5.676   4.573
 6002SOL    HW118905   5.619   5.655   4.483
 6002SOL    HW218906   5.662   5.593   4.628
 6003SOL     OW18907   0.187   3.222   4.657
 6003SOL    HW118908   0.210   3.292   4.589
 6003SOL    HW218909   0.211   3.255   4.748
 6004SOL     OW18910   5.156   2.839   3.986
 6004SOL    HW118911   5.245   2.803   4.013
 6004SOL    HW218912   5.118   2.783   3.912
 6005SOL     OW18913   3.630   5.414   6.061
 6005SOL    HW118914   3.695   5.482   6.028
 6005SOL    HW218915   3.612   5.430   6.158
 6006SOL     OW18916   3.505   6.000   5.683
 6006SOL    HW118917   3.518   6.030   5.588
 6006SOL    HW218918   3.497   5.901   5.685
 6007SOL     OW18919   1.959   5.784   5.997
 6007SOL    HW118920   1.887   5.717   5.980
 6007SOL    HW218921   2.048   5.739   5.990
 6008SOL     OW18922   3.177   4.716   5.532
 6008SOL    HW118923   3.186   4.802   5.481
 6008SOL    HW218924   3.156   4.642   5.468
 6009SOL     OW18925   3.763   5.168   3.175
 6009SOL    HW118926   3.745   5.082   3.224
 6009SOL    HW218927   3.743   5.245   3.235
 6010SOL     OW18928   0.307   5.591   5.186
 6010SOL    HW118929   0.236   5.660   5.167
 6010SOL    HW218930   0.396   5.627   5.160
 6011SOL     OW18931   6.158   2.217   1.949
 6011SOL    HW118932   6.214   2.135   1.957
 6011SOL    HW218933   6.070   2.201   1.993
 6012SOL     OW18934   0.278   0.101   6.371
 6012SOL    HW118935   0.315   0.021   6.417
 6012SOL    HW218936   0.179   0.089   6.358
 6013SOL     OW18937   6.167   1.742   2.459
 6013SOL    HW118938   6.177   1.801   2.378
 6013SOL    HW218939   6.137   1.651   2.430
 6014SOL     OW18940   3.797   3.110   4.413
 6014SOL    HW118941   3.847   3.147   4.334
 6014SOL    HW218942   3.713   3.067   4.382
 6015SOL     OW18943   6.009   1.357   4.613
 6015SOL    HW118944   5.916   1.325   4.593
 6015SOL    HW218945   6.072   1.317   4.547
 6016SOL     OW18946   5.007   1.750   4.490
 6016SOL    HW118947   4.976   1.672   4.545
 6016SOL    HW218948   4.983   1.734   4.394
 6017SOL     OW18949   6.743   2.464   5.482
 6017SOL    HW118950   6.833   2.503   5.504
 6017SOL    HW218951   6.676   2.538   5.475
 6018SOL     OW18952   3.008   1.291   5.494
 6018SOL    HW118953   3.023   1.382   5.454
 6018SOL    HW218954   2.939   1.242   5.440
 6019SOL     OW18955   6.846   3.513   6.790
 6019SOL    HW118956   6.869   3.430   6.740
 6019SOL    HW218957   6.805   3.579   6.727
 6020SOL     OW18958   0.859   4.235   6.865
 6020SOL    HW118959   0.769   4.212   6.901
 6020SOL    HW218960   0.860   4.331   6.835
 6021SOL     OW18961   4.428   6.981   3.298
 6021SOL    HW118962   4.469   6.950   3.383
 6021SOL    HW218963   4.403   0.054   3.306
 6022SOL     OW18964   6.147   1.770   1.481
 6022SOL    HW118965   6.142   1.787   1.580
 6022SOL    HW218966   6.158   1.857   1.433
 6023SOL     OW18967   5.019   0.970   1.704
 6023SOL    HW118968   4.981   0.878   1.700
 6023SOL    HW218969   5.087   0.981   1.631
 6024SOL     OW18970   0.602   5.541   6.829
 6024SOL    HW118971   0.530   5.486   6.873
 6024SOL    HW218972   0.691   5.505   6.853
 6025SOL     OW18973   2.416   0.898   4.547
 6025SOL    HW118974   2.512   0.870   4.544
 6025SOL    HW218975   2.357   0.818   4.534
 6026SOL     OW18976   6.562   4.182   4.214
 6026SOL    HW118977   6.531   4.145   4.127
 6026SOL    HW218978   6.633   4.251   4.197
 6027SOL     OW18979   5.773   4.074   6.384
 6027SOL    HW118980   5.717   4.012   6.440
 6027SOL    HW218981   5.793   4.030   6.296
 6028SOL     OW18982   5.711   5.266   6.065
 6028SOL    HW118983   5.716   5.173   6.027
 6028SOL    HW218984   5.716   5.261   6.165
 6029SOL     OW18985   2.354   0.552   3.083
 6029SOL    HW118986   2.393   0.473   3.035
 6029SOL    HW218987   2.415   0.631   3.072
 6030SOL     OW18988   5.249   3.803   5.052
 6030SOL    HW118989   5.269   3.898   5.029
 6030SOL    HW218990   5.291   3.742   4.985
 6031SOL     OW18991   0.676   6.055   5.577
 6031SOL    HW118992   0.697   6.004   5.493
 6031SOL    HW218993   0.588   6.102   5.566
 6032SOL     OW18994   3.151   5.758   3.625
 6032SOL    HW118995   3.125   5.701   3.704
 6032SOL    HW218996   3.077   5.757   3.558
 6033SOL     OW18997   2.072   1.372   2.472
 6033SOL    HW118998   2.129   1.365   2.554
 6033SOL    HW218999   2.020   1.288   2.460
 6034SOL     OW19000   1.287   1.118   0.101
 6034SOL    HW119001   1.271   1.084   0.194
 6034SOL    HW219002   1.267   1.216   0.098
 6035SOL     OW19003   1.521   0.746   3.047
 6035SOL    HW119004   1.602   0.698   3.014
 6035SOL    HW219005   1.449   0.680   3.067
 6036SOL     OW19006   6.308   2.064   0.643
 6036SOL    HW119007   6.296   1.998   0.717
 6036SOL    HW219008   6.388   2.121   0.663
 6037SOL     OW19009   4.648   2.496   0.290
 6037SOL    HW119010   4.595   2.507   0.374
 6037SOL    HW219011   4.738   2.539   0.301
 6038SOL     OW19012   0.777   2.287   5.853
 6038SOL    HW119013   0.869   2.327   5.847
 6038SOL    HW219014   0.784   2.188   5.855
 6039SOL     OW19015   3.570   3.789   3.426
 6039SOL    HW119016   3.550   3.758   3.333
 6039SOL    HW219017   3.493   3.765   3.486
 6040SOL     OW19018   0.664   1.962   0.172
 6040SOL    HW119019   0.663   1.889   0.240
 6040SOL    HW219020   0.727   1.938   0.099
 6041SOL     OW19021   2.428   2.954   5.534
 6041SOL    HW119022   2.369   2.972   5.456
 6041SOL    HW219023   2.524   2.958   5.506
 6042SOL     OW19024   3.528   5.524   3.056
 6042SOL    HW119025   3.584   5.491   2.980
 6042SOL    HW219026   3.573   5.503   3.143
 6043SOL     OW19027   2.333   0.792   3.863
 6043SOL    HW119028   2.246   0.833   3.837
 6043SOL    HW219029   2.360   0.827   3.953
 6044SOL     OW19030   0.682   2.455   1.337
 6044SOL    HW119031   0.659   2.467   1.240
 6044SOL    HW219032   0.703   2.359   1.354
 6045SOL     OW19033   5.380   2.204   3.453
 6045SOL    HW119034   5.310   2.132   3.458
 6045SOL    HW219035   5.429   2.208   3.540
 6046SOL     OW19036   2.982   3.118   2.491
 6046SOL    HW119037   2.937   3.139   2.404
 6046SOL    HW219038   2.969   3.194   2.554
 6047SOL     OW19039   5.884   1.344   0.560
 6047SOL    HW119040   5.924   1.431   0.588
 6047SOL    HW219041   5.881   1.338   0.460
 6048SOL     OW19042   5.690   5.435   4.359
 6048SOL    HW119043   5.621   5.483   4.305
 6048SOL    HW219044   5.662   5.339   4.371
 6049SOL     OW19045   4.265   4.582   5.486
 6049SOL    HW119046   4.263   4.514   5.559
 6049SOL    HW219047   4.188   4.646   5.497
 6050SOL     OW19048   3.892   5.798   1.376
 6050SOL    HW119049   3.827   5.724   1.392
 6050SOL    HW219050   3.843   5.883   1.358
 6051SOL     OW19051   1.655   1.164   3.356
 6051SOL    HW119052   1.717   1.126   3.424
 6051SOL    HW219053   1.706   1.189   3.274
 6052SOL     OW19054   5.446   6.622   0.810
 6052SOL    HW119055   5.540   6.588   0.804
 6052SOL    HW219056   5.445   6.719   0.786
 6053SOL     OW19057   4.055   2.550   6.182
 6053SOL    HW119058   4.061   2.611   6.103
 6053SOL    HW219059   4.091   2.597   6.263
 6054SOL     OW19060   4.207   4.629   0.721
 6054SOL    HW119061   4.247   4.710   0.679
 6054SOL    HW219062   4.161   4.655   0.806
 6055SOL     OW19063   3.630   4.694   0.271
 6055SOL    HW119064   3.657   4.738   0.186
 6055SOL    HW219065   3.530   4.685   0.274
 6056SOL     OW19066   5.924   4.986   4.959
 6056SOL    HW119067   5.983   5.031   4.891
 6056SOL    HW219068   5.948   4.888   4.964
 6057SOL     OW19069   5.183   0.326   3.304
 6057SOL    HW119070   5.246   0.402   3.291
 6057SOL    HW219071   5.201   0.282   3.392
 6058SOL     OW19072   5.589   2.142   6.074
 6058SOL    HW119073   5.601   2.045   6.095
 6058SOL    HW219074   5.541   2.187   6.150
 6059SOL     OW19075   4.334   4.582   0.307
 6059SOL    HW119076   4.275   4.552   0.382
 6059SOL    HW219077   4.404   4.644   0.343
 6060SOL     OW19078   2.679   3.375   0.099
 6060SOL    HW119079   2.711   3.407   0.188
 6060SOL    HW219080   2.651   3.279   0.106
 6061SOL     OW19081   3.458   5.062   7.000
 6061SOL    HW119082   3.490   4.992   6.937
 6061SOL    HW219083   3.372   5.033   0.018
 6062SOL     OW19084   2.060   2.659   0.631
 6062SOL    HW119085   2.014   2.612   0.556
 6062SOL    HW219086   2.037   2.757   0.627
 6063SOL     OW19087   3.560   5.078   5.770
 6063SOL    HW119088   3.543   5.109   5.864
 6063SOL    HW219089   3.609   4.991   5.773
 6064SOL     OW19090   6.991   5.938   0.753
 6064SOL    HW119091   0.008   6.021   0.791
 6064SOL    HW219092   0.024   5.905   0.677
 6065SOL     OW19093   1.222   6.019   2.209
 6065SOL    HW119094   1.304   5.986   2.255
 6065SOL    HW219095   1.155   5.945   2.202
 6066SOL     OW19096   4.422   6.585   3.251
 6066SOL    HW119097   4.367   6.613   3.330
 6066SOL    HW219098   4.413   6.653   3.178
 6067SOL     OW19099   5.684   0.577   6.156
 6067SOL    HW119100   5.662   0.589   6.253
 6067SOL    HW219101   5.770   0.624   6.135
 6068SOL     OW19102   4.396   1.606   5.624
 6068SOL    HW119103   4.349   1.573   5.705
 6068SOL    HW219104   4.343   1.679   5.582
 6069SOL     OW19105   6.910   3.508   6.418
 6069SOL    HW119106   7.003   3.495   6.455
 6069SOL    HW219107   6.844   3.503   6.493
 6070SOL     OW19108   2.833   1.683   1.354
 6070SOL    HW119109   2.911   1.745   1.352
 6070SOL    HW219110   2.781   1.697   1.439
 6071SOL     OW19111   6.046   0.103   5.422
 6071SOL    HW119112   6.042   0.163   5.342
 6071SOL    HW219113   6.076   0.012   5.395
 6072SOL     OW19114   0.253   2.641   0.534
 6072SOL    HW119115   0.160   2.677   0.537
 6072SOL    HW219116   0.318   2.716   0.551
 6073SOL     OW19117   5.003   2.725   0.647
 6073SOL    HW119118   4.989   2.715   0.549
 6073SOL    HW219119   5.018   2.822   0.669
 6074SOL     OW19120   0.904   6.389   2.600
 6074SOL    HW119121   0.996   6.366   2.568
 6074SOL    HW219122   0.852   6.305   2.617
 6075SOL     OW19123   4.998   6.663   6.276
 6075SOL    HW119124   5.001   6.715   6.361
 6075SOL    HW219125   4.997   6.726   6.198
 6076SOL     OW19126   1.520   4.700   3.869
 6076SOL    HW119127   1.438   4.687   3.925
 6076SOL    HW219128   1.509   4.650   3.782
 6077SOL     OW19129   5.887   6.253   2.067
 6077SOL    HW119130   5.808   6.195   2.091
 6077SOL    HW219131   5.855   6.344   2.042
 6078SOL     OW19132   4.401   3.379   0.074
 6078SOL    HW119133   4.368   3.301   0.021
 6078SOL    HW219134   4.326   3.444   0.088
 6079SOL     OW19135   3.632   4.293   6.186
 6079SOL    HW119136   3.564   4.348   6.235
 6079SOL    HW219137   3.709   4.275   6.247
 6080SOL     OW19138   0.465   4.708   6.767
 6080SOL    HW119139   0.385   4.713   6.707
 6080SOL    HW219140   0.441   4.744   6.857
 6081SOL     OW19141   1.498   3.235   4.577
 6081SOL    HW119142   1.553   3.245   4.494
 6081SOL    HW219143   1.477   3.139   4.593
 6082SOL     OW19144   4.200   1.467   0.324
 6082SOL    HW119145   4.209   1.451   0.226
 6082SOL    HW219146   4.283   1.511   0.358
 6083SOL     OW19147   4.760   6.924   6.189
 6083SOL    HW119148   4.768   6.996   6.121
 6083SOL    HW219149   4.745   6.836   6.144
 6084SOL     OW19150   0.358   6.791   3.025
 6084SOL    HW119151   0.390   6.733   3.100
 6084SOL    HW219152   0.292   6.740   2.970
 6085SOL     OW19153   0.496   6.393   0.652
 6085SOL    HW119154   0.535   6.368   0.563
 6085SOL    HW219155   0.568   6.432   0.710
 6086SOL     OW19156   3.148   3.807   6.179
 6086SOL    HW119157   3.240   3.769   6.188
 6086SOL    HW219158   3.088   3.742   6.133
 6087SOL     OW19159   5.056   6.386   1.058
 6087SOL    HW119160   5.121   6.451   1.019
 6087SOL    HW219161   4.982   6.436   1.104
 6088SOL     OW19162   5.025   6.669   3.396
 6088SOL    HW119163   5.055   6.587   3.444
 6088SOL    HW219164   5.009   6.743   3.462
 6089SOL     OW19165   6.285   3.326   3.334
 6089SOL    HW119166   6.326   3.379   3.408
 6089SOL    HW219167   6.288   3.379   3.249
 6090SOL     OW19168   4.271   6.569   4.248
 6090SOL    HW119169   4.237   6.663   4.251
 6090SOL    HW219170   4.345   6.562   4.181
 6091SOL     OW19171   2.695   0.926   1.329
 6091SOL    HW119172   2.607   0.906   1.286
 6091SOL    HW219173   2.701   1.023   1.351
 6092SOL     OW19174   4.505   6.255   1.520
 6092SOL    HW119175   4.571   6.229   1.590
 6092SOL    HW219176   4.532   6.215   1.432
 6093SOL     OW19177   2.443   1.464   2.448
 6093SOL    HW119178   2.481   1.445   2.358
 6093SOL    HW219179   2.415   1.560   2.453
 6094SOL     OW19180   0.729   6.268   4.741
 6094SOL    HW119181   0.637   6.277   4.703
 6094SOL    HW219182   0.768   6.359   4.754
 6095SOL     OW19183   4.406   5.910   0.498
 6095SOL    HW119184   4.483   5.860   0.536
 6095SOL    HW219185   4.437   5.967   0.422
 6096SOL     OW19186   5.989   6.465   2.392
 6096SOL    HW119187   6.040   6.449   2.476
 6096SOL    HW219188   6.053   6.489   2.318
 6097SOL     OW19189   2.001   6.248   2.667
 6097SOL    HW119190   2.015   6.259   2.569
 6097SOL    HW219191   2.033   6.330   2.715
 6098SOL     OW19192   6.425   1.189   4.850
 6098SOL    HW119193   6.524   1.175   4.839
 6098SOL    HW219194   6.391   1.247   4.776
 6099SOL     OW19195   4.384   6.991   6.228
 6099SOL    HW119196   4.340   0.053   6.200
 6099SOL    HW219197   4.403   6.935   6.148
 6100SOL     OW19198   0.049   5.745   4.264
 6100SOL    HW119199   6.974   5.760   4.267
 6100SOL    HW219200   0.097   5.823   4.304
 6101SOL     OW19201   6.215   2.561   1.234
 6101SOL    HW119202   6.115   2.559   1.231
 6101SOL    HW219203   6.247   2.517   1.318
 6102SOL     OW19204   4.271   0.374   2.507
 6102SOL    HW119205   4.300   0.302   2.444
 6102SOL    HW219206   4.206   0.337   2.573
 6103SOL     OW19207   0.176   1.061   1.419
 6103SOL    HW119208   0.140   1.097   1.333
 6103SOL    HW219209   0.219   0.972   1.402
 6104SOL     OW19210   6.532   1.012   4.605
 6104SOL    HW119211   6.607   1.078   4.605
 6104SOL    HW219212   6.445   1.059   4.594
 6105SOL     OW19213   2.874   5.474   5.449
 6105SOL    HW119214   2.877   5.573   5.438
 6105SOL    HW219215   2.944   5.445   5.515
 6106SOL     OW19216   6.437   4.656   0.198
 6106SOL    HW119217   6.349   4.670   0.153
 6106SOL    HW219218   6.462   4.738   0.250
 6107SOL     OW19219   4.784   4.735   5.345
 6107SOL    HW119220   4.760   4.831   5.337
 6107SOL    HW219221   4.823   4.703   5.258
 6108SOL     OW19222   2.004   1.946   1.093
 6108SOL    HW119223   1.927   1.911   1.039
 6108SOL    HW219224   1.972   1.972   1.184
 6109SOL     OW19225   6.107   6.682   3.247
 6109SOL    HW119226   6.093   6.619   3.323
 6109SOL    HW219227   6.168   6.639   3.180
 6110SOL     OW19228   2.112   1.531   5.122
 6110SOL    HW119229   2.201   1.556   5.158
 6110SOL    HW219230   2.063   1.613   5.093
 6111SOL     OW19231   2.112   4.241   1.327
 6111SOL    HW119232   2.018   4.255   1.295
 6111SOL    HW219233   2.126   4.291   1.412
 6112SOL     OW19234   4.588   0.407   2.632
 6112SOL    HW119235   4.631   0.493   2.603
 6112SOL    HW219236   4.490   0.412   2.618
 6113SOL     OW19237   2.406   5.771   7.001
 6113SOL    HW119238   2.419   5.676   0.006
 6113SOL    HW219239   2.481   5.827   0.011
 6114SOL     OW19240   5.451   1.683   0.117
 6114SOL    HW119241   5.384   1.677   0.190
 6114SOL    HW219242   5.541   1.700   0.156
 6115SOL     OW19243   0.909   0.775   5.226
 6115SOL    HW119244   0.933   0.743   5.134
 6115SOL    HW219245   0.810   0.772   5.237
 6116SOL     OW19246   4.817   1.854   4.986
 6116SOL    HW119247   4.859   1.928   4.933
 6116SOL    HW219248   4.877   1.830   5.062
 6117SOL     OW19249   1.485   1.639   2.125
 6117SOL    HW119250   1.470   1.655   2.027
 6117SOL    HW219251   1.478   1.725   2.175
 6118SOL     OW19252   6.106   0.708   7.016
 6118SOL    HW119253   6.188   0.740   0.040
 6118SOL    HW219254   6.025   0.749   0.035
 6119SOL     OW19255   6.781   1.898   1.051
 6119SOL    HW119256   6.738   1.966   0.991
 6119SOL    HW219257   6.718   1.822   1.066
 6120SOL     OW19258   1.818   1.001   5.503
 6120SOL    HW119259   1.831   1.047   5.415
 6120SOL    HW219260   1.848   0.906   5.496
 6121SOL     OW19261   0.511   3.205   5.104
 6121SOL    HW119262   0.474   3.157   5.184
 6121SOL    HW219263   0.468   3.296   5.097
 6122SOL     OW19264   5.020   5.594   5.560
 6122SOL    HW119265   5.049   5.546   5.643
 6122SOL    HW219266   4.977   5.681   5.584
 6123SOL     OW19267   5.811   1.674   5.605
 6123SOL    HW119268   5.779   1.604   5.541
 6123SOL    HW219269   5.883   1.635   5.663
 6124SOL     OW19270   2.330   6.742   4.040
 6124SOL    HW119271   2.261   6.697   3.983
 6124SOL    HW219272   2.333   6.699   4.130
 6125SOL     OW19273   1.600   2.402   6.594
 6125SOL    HW119274   1.511   2.434   6.626
 6125SOL    HW219275   1.636   2.464   6.525
 6126SOL     OW19276   6.423   3.387   5.236
 6126SOL    HW119277   6.363   3.323   5.188
 6126SOL    HW219278   6.505   3.403   5.181
 6127SOL     OW19279   3.679   2.051   1.530
 6127SOL    HW119280   3.689   2.045   1.431
 6127SOL    HW219281   3.657   1.960   1.567
 6128SOL     OW19282   5.704   6.257   0.550
 6128SOL    HW119283   5.710   6.292   0.457
 6128SOL    HW219284   5.795   6.232   0.583
 6129SOL     OW19285   1.979   5.131   2.936
 6129SOL    HW119286   2.070   5.156   2.968
 6129SOL    HW219287   1.920   5.112   3.014
 6130SOL     OW19288   4.961   2.739   1.114
 6130SOL    HW119289   4.869   2.767   1.087
 6130SOL    HW219290   4.997   2.674   1.047
 6131SOL     OW19291   0.128   1.971   2.239
 6131SOL    HW119292   0.074   1.909   2.295
 6131SOL    HW219293   0.102   2.066   2.259
 6132SOL     OW19294   3.425   1.722   6.451
 6132SOL    HW119295   3.458   1.632   6.426
 6132SOL    HW219296   3.385   1.767   6.371
 6133SOL     OW19297   1.808   2.091   3.747
 6133SOL    HW119298   1.876   2.083   3.673
 6133SOL    HW219299   1.793   2.187   3.768
 6134SOL     OW19300   4.752   6.563   5.747
 6134SOL    HW119301   4.653   6.567   5.762
 6134SOL    HW219302   4.797   6.547   5.835
 6135SOL     OW19303   6.121   0.379   0.010
 6135SOL    HW119304   6.162   0.462   0.048
 6135SOL    HW219305   6.170   0.352   6.950
 6136SOL     OW19306   1.356   2.625   2.084
 6136SOL    HW119307   1.295   2.635   2.164
 6136SOL    HW219308   1.304   2.590   2.007
 6137SOL     OW19309   6.677   4.132   2.323
 6137SOL    HW119310   6.683   4.230   2.300
 6137SOL    HW219311   6.767   4.090   2.312
 6138SOL     OW19312   2.739   0.280   2.008
 6138SOL    HW119313   2.646   0.280   1.971
 6138SOL    HW219314   2.740   0.327   2.096
 6139SOL     OW19315   1.917   0.017   5.816
 6139SOL    HW119316   1.991   6.987   5.858
 6139SOL    HW219317   1.829   7.005   5.846
 6140SOL     OW19318   1.794   0.438   3.751
 6140SOL    HW119319   1.834   0.347   3.752
 6140SOL    HW219320   1.790   0.474   3.844
 6141SOL     OW19321   0.295   0.275   5.679
 6141SOL    HW119322   0.240   0.281   5.762
 6141SOL    HW219323   0.367   0.344   5.680
 6142SOL     OW19324   0.559   0.443   0.502
 6142SOL    HW119325   0.603   0.438   0.413
 6142SOL    HW219326   0.486   0.375   0.508
 6143SOL     OW19327   6.179   3.989   6.538
 6143SOL    HW119328   6.173   3.890   6.540
 6143SOL    HW219329   6.264   4.019   6.582
 6144SOL     OW19330   4.632   4.962   2.628
 6144SOL    HW119331   4.564   4.901   2.586
 6144SOL    HW219332   4.660   4.925   2.716
 6145SOL     OW19333   4.896   3.444   4.660
 6145SOL    HW119334   4.867   3.516   4.723
 6145SOL    HW219335   4.963   3.480   4.595
 6146SOL     OW19336   4.966   0.433   4.829
 6146SOL    HW119337   4.978   0.341   4.794
 6146SOL    HW219338   5.055   0.476   4.843
 6147SOL     OW19339   2.048   2.335   4.058
 6147SOL    HW119340   2.115   2.267   4.088
 6147SOL    HW219341   2.076   2.373   3.970
 6148SOL     OW19342   3.711   5.574   7.021
 6148SOL    HW119343   3.765   5.492   0.016
 6148SOL    HW219344   3.699   5.584   6.922
 6149SOL     OW19345   2.721   6.890   1.815
 6149SOL    HW119346   2.657   6.835   1.761
 6149SOL    HW219347   2.708   6.871   1.912
 6150SOL     OW19348   6.508   4.375   6.592
 6150SOL    HW119349   6.471   4.410   6.506
 6150SOL    HW219350   6.470   4.427   6.668
 6151SOL     OW19351   4.452   4.540   4.489
 6151SOL    HW119352   4.517   4.466   4.499
 6151SOL    HW219353   4.409   4.535   4.399
 6152SOL     OW19354   0.479   4.408   4.104
 6152SOL    HW119355   0.527   4.423   4.190
 6152SOL    HW219356   0.516   4.469   4.034
 6153SOL     OW19357   4.822   5.176   1.121
 6153SOL    HW119358   4.832   5.210   1.215
 6153SOL    HW219359   4.891   5.105   1.104
 6154SOL     OW19360   5.964   3.134   2.214
 6154SOL    HW119361   5.930   3.182   2.132
 6154SOL    HW219362   5.907   3.053   2.230
 6155SOL     OW19363   2.654   0.920   2.713
 6155SOL    HW119364   2.687   0.863   2.789
 6155SOL    HW219365   2.689   1.013   2.723
 6156SOL     OW19366   4.963   4.501   1.688
 6156SOL    HW119367   4.980   4.418   1.635
 6156SOL    HW219368   4.999   4.580   1.639
 6157SOL     OW19369   1.219   2.262   2.690
 6157SOL    HW119370   1.162   2.300   2.617
 6157SOL    HW219371   1.305   2.229   2.651
 6158SOL     OW19372   2.732   2.646   5.442
 6158SOL    HW119373   2.694   2.686   5.359
 6158SOL    HW219374   2.804   2.581   5.419
 6159SOL     OW19375   5.689   2.092   0.231
 6159SOL    HW119376   5.772   2.114   0.283
 6159SOL    HW219377   5.609   2.102   0.290
 6160SOL     OW19378   0.921   6.939   6.998
 6160SOL    HW119379   0.935   6.853   0.024
 6160SOL    HW219380   1.006   6.990   6.995
 6161SOL     OW19381   4.816   2.418   6.564
 6161SOL    HW119382   4.892   2.478   6.540
 6161SOL    HW219383   4.809   2.410   6.663
 6162SOL     OW19384   6.535   5.417   2.521
 6162SOL    HW119385   6.581   5.441   2.606
 6162SOL    HW219386   6.539   5.495   2.458
 6163SOL     OW19387   5.615   6.704   3.111
 6163SOL    HW119388   5.611   6.644   3.191
 6163SOL    HW219389   5.610   6.649   3.028
 6164SOL     OW19390   4.122   3.435   4.152
 6164SOL    HW119391   4.083   3.431   4.244
 6164SOL    HW219392   4.202   3.494   4.153
 6165SOL     OW19393   4.059   2.041   0.664
 6165SOL    HW119394   4.017   1.999   0.583
 6165SOL    HW219395   4.024   2.133   0.676
 6166SOL     OW19396   0.426   2.498   0.056
 6166SOL    HW119397   0.477   2.412   0.066
 6166SOL    HW219398   0.481   2.563   0.003
 6167SOL     OW19399   1.393   3.348   3.351
 6167SOL    HW119400   1.343   3.409   3.413
 6167SOL    HW219401   1.346   3.261   3.344
 6168SOL     OW19402   0.556   2.941   4.265
 6168SOL    HW119403   0.534   3.003   4.341
 6168SOL    HW219404   0.486   2.948   4.194
 6169SOL     OW19405   2.076   0.004   0.342
 6169SOL    HW119406   1.994   7.011   0.397
 6169SOL    HW219407   2.065   6.986   0.252
 6170SOL     OW19408   3.828   4.193   0.168
 6170SOL    HW119409   3.819   4.292   0.160
 6170SOL    HW219410   3.742   4.149   0.139
 6171SOL     OW19411   1.409   4.872   2.368
 6171SOL    HW119412   1.350   4.902   2.442
 6171SOL    HW219413   1.497   4.919   2.373
 6172SOL     OW19414   1.115   6.775   2.961
 6172SOL    HW119415   1.070   6.839   3.023
 6172SOL    HW219416   1.070   6.686   2.968
 6173SOL     OW19417   0.959   4.732   3.164
 6173SOL    HW119418   1.025   4.779   3.105
 6173SOL    HW219419   0.892   4.684   3.108
 6174SOL     OW19420   5.591   5.449   2.756
 6174SOL    HW119421   5.579   5.439   2.854
 6174SOL    HW219422   5.516   5.402   2.708
 6175SOL     OW19423   4.863   0.500   2.942
 6175SOL    HW119424   4.851   0.599   2.951
 6175SOL    HW219425   4.774   0.455   2.946
 6176SOL     OW19426   6.009   3.183   6.234
 6176SOL    HW119427   5.997   3.119   6.310
 6176SOL    HW219428   6.016   3.132   6.148
 6177SOL     OW19429   5.589   2.269   1.564
 6177SOL    HW119430   5.678   2.266   1.610
 6177SOL    HW219431   5.603   2.263   1.465
 6178SOL     OW19432   5.300   3.792   0.830
 6178SOL    HW119433   5.291   3.768   0.926
 6178SOL    HW219434   5.379   3.851   0.817
 6179SOL     OW19435   0.474   2.667   5.272
 6179SOL    HW119436   0.498   2.689   5.366
 6179SOL    HW219437   0.554   2.678   5.213
 6180SOL     OW19438   3.931   0.027   1.269
 6180SOL    HW119439   3.946   0.084   1.349
 6180SOL    HW219440   3.939   6.954   1.295
 6181SOL     OW19441   4.863   6.267   6.563
 6181SOL    HW119442   4.809   6.185   6.542
 6181SOL    HW219443   4.915   6.252   6.647
 6182SOL     OW19444   5.084   5.511   5.806
 6182SOL    HW119445   5.134   5.428   5.834
 6182SOL    HW219446   5.027   5.542   5.882
 6183SOL     OW19447   2.698   6.956   3.023
 6183SOL    HW119448   2.746   6.957   2.936
 6183SOL    HW219449   2.638   6.876   3.027
 6184SOL     OW19450   1.114   0.438   6.674
 6184SOL    HW119451   1.044   0.439   6.602
 6184SOL    HW219452   1.196   0.484   6.640
 6185SOL     OW19453   6.875   3.764   6.307
 6185SOL    HW119454   6.781   3.787   6.333
 6185SOL    HW219455   6.899   3.674   6.345
 6186SOL     OW19456   5.488   0.147   3.837
 6186SOL    HW119457   5.584   0.119   3.842
 6186SOL    HW219458   5.476   0.235   3.884
 6187SOL     OW19459   4.340   4.830   4.122
 6187SOL    HW119460   4.284   4.865   4.046
 6187SOL    HW219461   4.421   4.784   4.084
 6188SOL     OW19462   3.003   6.642   1.598
 6188SOL    HW119463   2.995   6.717   1.533
 6188SOL    HW219464   2.920   6.586   1.594
 6189SOL     OW19465   5.346   5.282   3.245
 6189SOL    HW119466   5.295   5.255   3.326
 6189SOL    HW219467   5.384   5.374   3.258
 6190SOL     OW19468   5.181   2.413   6.495
 6190SOL    HW119469   5.133   2.467   6.564
 6190SOL    HW219470   5.127   2.413   6.410
 6191SOL     OW19471   5.691   1.763   6.743
 6191SOL    HW119472   5.613   1.761   6.681
 6191SOL    HW219473   5.690   1.681   6.800
 6192SOL     OW19474   2.551   3.316   0.513
 6192SOL    HW119475   2.505   3.361   0.436
 6192SOL    HW219476   2.524   3.360   0.598
 6193SOL     OW19477   5.567   0.120   1.848
 6193SOL    HW119478   5.473   0.090   1.862
 6193SOL    HW219479   5.582   0.207   1.894
 6194SOL     OW19480   2.540   0.563   0.890
 6194SOL    HW119481   2.615   0.568   0.825
 6194SOL    HW219482   2.508   0.655   0.911
 6195SOL     OW19483   3.558   6.713   6.233
 6195SOL    HW119484   3.567   6.634   6.171
 6195SOL    HW219485   3.609   6.695   6.317
 6196SOL     OW19486   1.223   2.288   6.086
 6196SOL    HW119487   1.290   2.361   6.078
 6196SOL    HW219488   1.246   2.230   6.165
 6197SOL     OW19489   2.926   3.805   1.080
 6197SOL    HW119490   2.992   3.857   1.133
 6197SOL    HW219491   2.871   3.748   1.142
 6198SOL     OW19492   3.707   4.871   2.492
 6198SOL    HW119493   3.621   4.892   2.538
 6198SOL    HW219494   3.695   4.874   2.393
 6199SOL     OW19495   1.721   0.337   0.704
 6199SOL    HW119496   1.643   0.314   0.762
 6199SOL    HW219497   1.763   0.422   0.738
 6200SOL     OW19498   3.295   0.927   6.598
 6200SOL    HW119499   3.275   0.972   6.511
 6200SOL    HW219500   3.351   0.846   6.581
 6201SOL     OW19501   2.159   3.682   5.489
 6201SOL    HW119502   2.179   3.637   5.403
 6201SOL    HW219503   2.062   3.709   5.491
 6202SOL     OW19504   2.944   1.945   1.351
 6202SOL    HW119505   2.921   2.042   1.366
 6202SOL    HW219506   2.886   1.908   1.278
 6203SOL     OW19507   5.073   1.242   4.783
 6203SOL    HW119508   5.051   1.336   4.810
 6203SOL    HW219509   4.994   1.183   4.801
 6204SOL     OW19510   1.481   5.846   5.231
 6204SOL    HW119511   1.558   5.910   5.232
 6204SOL    HW219512   1.443   5.840   5.138
 6205SOL     OW19513   4.850   5.529   6.360
 6205SOL    HW119514   4.934   5.573   6.392
 6205SOL    HW219515   4.771   5.586   6.385
 6206SOL     OW19516   6.121   0.680   2.286
 6206SOL    HW119517   6.090   0.638   2.371
 6206SOL    HW219518   6.053   0.747   2.255
 6207SOL     OW19519   1.042   3.833   4.812
 6207SOL    HW119520   1.082   3.829   4.904
 6207SOL    HW219521   1.108   3.875   4.750
 6208SOL     OW19522   6.266   0.320   6.136
 6208SOL    HW119523   6.325   0.249   6.100
 6208SOL    HW219524   6.317   0.376   6.201
 6209SOL     OW19525   4.606   6.464   0.464
 6209SOL    HW119526   4.655   6.378   0.478
 6209SOL    HW219527   4.577   6.472   0.369
 6210SOL     OW19528   5.385   4.260   3.293
 6210SOL    HW119529   5.440   4.230   3.216
 6210SOL    HW219530   5.442   4.312   3.357
 6211SOL     OW19531   2.631   0.588   5.379
 6211SOL    HW119532   2.705   0.558   5.439
 6211SOL    HW219533   2.543   0.556   5.415
 6212SOL     OW19534   6.293   6.203   3.731
 6212SOL    HW119535   6.383   6.172   3.702
 6212SOL    HW219536   6.226   6.130   3.714
 6213SOL     OW19537   6.065   0.579   6.775
 6213SOL    HW119538   6.130   0.506   6.753
 6213SOL    HW219539   6.087   0.618   6.864
 6214SOL     OW19540   5.971   4.869   2.581
 6214SOL    HW119541   6.013   4.779   2.595
 6214SOL    HW219542   6.038   4.931   2.540
 6215SOL     OW19543   3.093   2.745   0.978
 6215SOL    HW119544   3.140   2.777   0.896
 6215SOL    HW219545   3.118   2.804   1.055
 6216SOL     OW19546   5.872   1.759   2.408
 6216SOL    HW119547   5.847   1.686   2.472
 6216SOL    HW219548   5.918   1.832   2.458
 6217SOL     OW19549   4.596   2.338   1.061
 6217SOL    HW119550   4.689   2.361   1.089
 6217SOL    HW219551   4.560   2.412   1.003
 6218SOL     OW19552   2.212   4.851   4.873
 6218SOL    HW119553   2.288   4.830   4.935
 6218SOL    HW219554   2.202   4.777   4.807
 6219SOL     OW19555   1.035   2.040   4.693
 6219SOL    HW119556   1.024   1.946   4.724
 6219SOL    HW219557   1.127   2.053   4.655
 6220SOL     OW19558   2.118   4.932   5.302
 6220SOL    HW119559   2.113   4.841   5.343
 6220SOL    HW219560   2.067   4.997   5.359
 6221SOL     OW19561   3.863   5.538   4.732
 6221SOL    HW119562   3.878   5.445   4.698
 6221SOL    HW219563   3.940   5.566   4.789
 6222SOL     OW19564   6.844   6.877   2.054
 6222SOL    HW119565   6.818   6.971   2.030
 6222SOL    HW219566   6.903   6.879   2.134
 6223SOL     OW19567   5.347   4.070   4.718
 6223SOL    HW119568   5.404   3.990   4.698
 6223SOL    HW219569   5.380   4.114   4.801
 6224SOL     OW19570   2.165   1.143   5.411
 6224SOL    HW119571   2.110   1.168   5.491
 6224SOL    HW219572   2.198   1.049   5.423
 6225SOL     OW19573   3.543   3.403   0.625
 6225SOL    HW119574   3.460   3.452   0.649
 6225SOL    HW219575   3.623   3.460   0.647
 6226SOL     OW19576   5.584   0.981   4.498
 6226SOL    HW119577   5.630   0.908   4.448
 6226SOL    HW219578   5.520   1.028   4.437
 6227SOL     OW19579   3.507   4.266   5.707
 6227SOL    HW119580   3.428   4.236   5.759
 6227SOL    HW219581   3.590   4.249   5.760
 6228SOL     OW19582   6.863   1.289   3.020
 6228SOL    HW119583   6.797   1.310   3.092
 6228SOL    HW219584   6.955   1.312   3.052
 6229SOL     OW19585   2.466   2.191   2.903
 6229SOL    HW119586   2.403   2.251   2.952
 6229SOL    HW219587   2.555   2.235   2.895
 6230SOL     OW19588   2.443   1.817   4.098
 6230SOL    HW119589   2.394   1.733   4.121
 6230SOL    HW219590   2.379   1.893   4.091
 6231SOL     OW19591   0.356   5.290   1.220
 6231SOL    HW119592   0.396   5.366   1.270
 6231SOL    HW219593   0.257   5.289   1.235
 6232SOL     OW19594   0.108   0.399   0.430
 6232SOL    HW119595   0.128   0.496   0.446
 6232SOL    HW219596   0.184   0.344   0.466
 6233SOL     OW19597   4.922   1.755   6.233
 6233SOL    HW119598   4.927   1.773   6.135
 6233SOL    HW219599   4.981   1.678   6.257
 6234SOL     OW19600   1.911   2.177   4.541
 6234SOL    HW119601   1.862   2.260   4.515
 6234SOL    HW219602   1.897   2.159   4.638
 6235SOL     OW19603   2.114   0.228   2.745
 6235SOL    HW119604   2.017   0.236   2.723
 6235SOL    HW219605   2.125   0.215   2.844
 6236SOL     OW19606   0.419   5.260   0.933
 6236SOL    HW119607   0.346   5.322   0.963
 6236SOL    HW219608   0.454   5.210   1.013
 6237SOL     OW19609   4.616   6.557   0.920
 6237SOL    HW119610   4.592   6.567   0.824
 6237SOL    HW219611   4.688   6.622   0.944
 6238SOL     OW19612   5.080   5.284   2.008
 6238SOL    HW119613   5.115   5.282   2.102
 6238SOL    HW219614   5.131   5.218   1.952
 6239SOL     OW19615   2.779   6.834   2.576
 6239SOL    HW119616   2.833   6.901   2.525
 6239SOL    HW219617   2.814   6.742   2.556
 6240SOL     OW19618   1.949   3.347   0.358
 6240SOL    HW119619   1.977   3.434   0.317
 6240SOL    HW219620   2.030   3.291   0.376
 6241SOL     OW19621   2.690   0.479   1.468
 6241SOL    HW119622   2.781   0.488   1.428
 6241SOL    HW219623   2.674   0.384   1.495
 6242SOL     OW19624   5.058   1.474   3.810
 6242SOL    HW119625   5.074   1.427   3.723
 6242SOL    HW219626   5.098   1.565   3.807
 6243SOL     OW19627   5.597   6.928   4.327
 6243SOL    HW119628   5.548   6.974   4.252
 6243SOL    HW219629   5.536   6.864   4.373
 6244SOL     OW19630   2.758   2.377   2.603
 6244SOL    HW119631   2.679   2.405   2.548
 6244SOL    HW219632   2.811   2.309   2.553
 6245SOL     OW19633   3.122   4.818   1.404
 6245SOL    HW119634   3.046   4.754   1.394
 6245SOL    HW219635   3.205   4.779   1.363
 6246SOL     OW19636   2.376   1.925   5.944
 6246SOL    HW119637   2.315   1.993   5.902
 6246SOL    HW219638   2.399   1.855   5.877
 6247SOL     OW19639   0.580   6.830   3.739
 6247SOL    HW119640   0.512   6.889   3.783
 6247SOL    HW219641   0.551   6.735   3.746
 6248SOL     OW19642   0.796   4.514   1.441
 6248SOL    HW119643   0.866   4.456   1.484
 6248SOL    HW219644   0.800   4.606   1.481
 6249SOL     OW19645   6.828   4.147   0.249
 6249SOL    HW119646   6.835   4.192   0.338
 6249SOL    HW219647   6.877   4.201   0.180
 6250SOL     OW19648   6.451   6.351   0.127
 6250SOL    HW119649   6.447   6.266   0.075
 6250SOL    HW219650   6.431   6.429   0.067
 6251SOL     OW19651   4.426   1.254   0.920
 6251SOL    HW119652   4.418   1.339   0.973
 6251SOL    HW219653   4.486   1.270   0.841
 6252SOL     OW19654   2.923   5.079   5.115
 6252SOL    HW119655   2.997   5.023   5.151
 6252SOL    HW219656   2.943   5.176   5.131
 6253SOL     OW19657   2.580   4.272   1.748
 6253SOL    HW119658   2.514   4.296   1.820
 6253SOL    HW219659   2.627   4.355   1.718
 6254SOL     OW19660   5.826   0.271   0.371
 6254SOL    HW119661   5.733   0.288   0.404
 6254SOL    HW219662   5.831   0.178   0.332
 6255SOL     OW19663   0.688   1.130   1.748
 6255SOL    HW119664   0.751   1.139   1.825
 6255SOL    HW219665   0.698   1.209   1.687
 6256SOL     OW19666   3.962   5.178   2.647
 6256SOL    HW119667   3.910   5.206   2.566
 6256SOL    HW219668   3.933   5.086   2.674
 6257SOL     OW19669   5.558   2.632   0.760
 6257SOL    HW119670   5.485   2.689   0.724
 6257SOL    HW219671   5.628   2.618   0.690
 6258SOL     OW19672   4.492   1.207   1.923
 6258SOL    HW119673   4.536   1.212   2.013
 6258SOL    HW219674   4.458   1.114   1.909
 6259SOL     OW19675   3.183   2.423   1.697
 6259SOL    HW119676   3.105   2.362   1.683
 6259SOL    HW219677   3.151   2.518   1.699
 6260SOL     OW19678   3.946   4.075   0.411
 6260SOL    HW119679   3.982   3.991   0.371
 6260SOL    HW219680   3.916   4.137   0.339
 6261SOL     OW19681   3.733   0.517   0.560
 6261SOL    HW119682   3.779   0.502   0.647
 6261SOL    HW219683   3.788   0.578   0.503
 6262SOL     OW19684   1.359   4.729   0.194
 6262SOL    HW119685   1.265   4.725   0.159
 6262SOL    HW219686   1.412   4.653   0.157
 6263SOL     OW19687   6.907   6.866   0.520
 6263SOL    HW119688   6.957   6.781   0.537
 6263SOL    HW219689   6.972   6.942   0.514
 6264SOL     OW19690   2.717   2.006   0.865
 6264SOL    HW119691   2.639   1.957   0.904
 6264SOL    HW219692   2.775   2.041   0.939
 6265SOL     OW19693   3.995   4.487   1.136
 6265SOL    HW119694   3.912   4.433   1.147
 6265SOL    HW219695   4.074   4.435   1.169
 6266SOL     OW19696   3.400   0.862   3.494
 6266SOL    HW119697   3.390   0.774   3.448
 6266SOL    HW219698   3.384   0.851   3.592
 6267SOL     OW19699   2.877   0.300   0.221
 6267SOL    HW119700   2.925   0.269   0.139
 6267SOL    HW219701   2.888   0.232   0.294
 6268SOL     OW19702   3.164   4.982   2.965
 6268SOL    HW119703   3.163   5.011   3.060
 6268SOL    HW219704   3.070   4.972   2.932
 6269SOL     OW19705   5.709   6.051   2.164
 6269SOL    HW119706   5.700   6.080   2.259
 6269SOL    HW219707   5.751   5.960   2.161
 6270SOL     OW19708   1.556   1.476   4.833
 6270SOL    HW119709   1.536   1.546   4.901
 6270SOL    HW219710   1.478   1.415   4.825
 6271SOL     OW19711   0.248   2.129   6.645
 6271SOL    HW119712   0.218   2.215   6.687
 6271SOL    HW219713   0.239   2.054   6.711
 6272SOL     OW19714   2.438   2.552   4.260
 6272SOL    HW119715   2.342   2.576   4.271
 6272SOL    HW219716   2.471   2.586   4.172
 6273SOL     OW19717   2.278   1.653   1.365
 6273SOL    HW119718   2.257   1.590   1.290
 6273SOL    HW219719   2.213   1.729   1.364
 6274SOL     OW19720   3.331   5.754   6.585
 6274SOL    HW119721   3.332   5.657   6.561
 6274SOL    HW219722   3.265   5.770   6.659
 6275SOL     OW19723   2.313   0.113   4.736
 6275SOL    HW119724   2.332   0.053   4.658
 6275SOL    HW219725   2.342   0.206   4.713
 6276SOL     OW19726   0.964   5.539   3.469
 6276SOL    HW119727   0.887   5.499   3.520
 6276SOL    HW219728   1.041   5.552   3.531
 6277SOL     OW19729   5.332   2.582   2.458
 6277SOL    HW119730   5.245   2.624   2.486
 6277SOL    HW219731   5.408   2.626   2.506
 6278SOL     OW19732   4.723   0.303   4.290
 6278SOL    HW119733   4.662   0.231   4.255
 6278SOL    HW219734   4.799   0.260   4.340
 6279SOL     OW19735   3.739   1.546   0.953
 6279SOL    HW119736   3.655   1.598   0.965
 6279SOL    HW219737   3.809   1.605   0.914
 6280SOL     OW19738   0.056   3.865   5.845
 6280SOL    HW119739   0.101   3.841   5.759
 6280SOL    HW219740   0.057   3.965   5.855
 6281SOL     OW19741   2.004   0.417   5.217
 6281SOL    HW119742   1.920   0.434   5.166
 6281SOL    HW219743   1.995   0.450   5.310
 6282SOL     OW19744   1.912   0.189   4.288
 6282SOL    HW119745   1.834   0.193   4.350
 6282SOL    HW219746   1.881   0.165   4.196
 6283SOL     OW19747   0.046   2.409   5.195
 6283SOL    HW119748   0.070   2.491   5.142
 6283SOL    HW219749   0.112   2.396   5.268
 6284SOL     OW19750   1.513   4.688   5.594
 6284SOL    HW119751   1.557   4.653   5.512
 6284SOL    HW219752   1.521   4.620   5.667
 6285SOL     OW19753   1.310   3.093   4.107
 6285SOL    HW119754   1.236   3.102   4.040
 6285SOL    HW219755   1.385   3.041   4.068
 6286SOL     OW19756   5.366   1.500   3.231
 6286SOL    HW119757   5.296   1.448   3.280
 6286SOL    HW219758   5.323   1.570   3.175
 6287SOL     OW19759   4.827   3.820   2.063
 6287SOL    HW119760   4.819   3.756   1.987
 6287SOL    HW219761   4.891   3.893   2.038
 6288SOL     OW19762   5.357   3.643   0.140
 6288SOL    HW119763   5.333   3.730   0.096
 6288SOL    HW219764   5.297   3.571   0.107
 6289SOL     OW19765   1.976   1.873   3.874
 6289SOL    HW119766   1.933   1.962   3.856
 6289SOL    HW219767   1.977   1.819   3.790
 6290SOL     OW19768   5.036   4.293   3.878
 6290SOL    HW119769   5.054   4.285   3.780
 6290SOL    HW219770   5.018   4.202   3.916
 6291SOL     OW19771   3.773   3.630   3.087
 6291SOL    HW119772   3.853   3.691   3.087
 6291SOL    HW219773   3.800   3.541   3.123
 6292SOL     OW19774   0.752   1.736   2.747
 6292SOL    HW119775   0.757   1.641   2.779
 6292SOL    HW219776   0.822   1.790   2.794
 6293SOL     OW19777   5.284   0.297   6.937
 6293SOL    HW119778   5.376   0.298   6.898
 6293SOL    HW219779   5.287   0.334   0.006
 6294SOL     OW19780   3.500   5.334   2.755
 6294SOL    HW119781   3.458   5.269   2.818
 6294SOL    HW219782   3.587   5.367   2.793
 6295SOL     OW19783   5.465   5.831   5.642
 6295SOL    HW119784   5.448   5.816   5.545
 6295SOL    HW219785   5.423   5.758   5.696
 6296SOL     OW19786   6.996   0.603   3.461
 6296SOL    HW119787   6.912   0.627   3.509
 6296SOL    HW219788   6.990   0.634   3.366
 6297SOL     OW19789   5.218   5.982   5.516
 6297SOL    HW119790   5.281   6.021   5.584
 6297SOL    HW219791   5.144   5.935   5.563
 6298SOL     OW19792   0.329   3.414   5.180
 6298SOL    HW119793   0.274   3.383   5.257
 6298SOL    HW219794   0.300   3.506   5.153
 6299SOL     OW19795   6.235   2.895   6.396
 6299SOL    HW119796   6.327   2.904   6.359
 6299SOL    HW219797   6.240   2.861   6.490
 6300SOL     OW19798   4.755   1.043   4.530
 6300SOL    HW119799   4.659   1.063   4.513
 6300SOL    HW219800   4.770   0.944   4.523
 6301SOL     OW19801   3.128   6.561   1.047
 6301SOL    HW119802   3.082   6.631   1.101
 6301SOL    HW219803   3.202   6.603   0.993
 6302SOL     OW19804   1.804   0.910   3.728
 6302SOL    HW119805   1.775   0.814   3.724
 6302SOL    HW219806   1.738   0.963   3.780
 6303SOL     OW19807   2.237   6.677   4.738
 6303SOL    HW119808   2.198   6.767   4.716
 6303SOL    HW219809   2.304   6.652   4.668
 6304SOL     OW19810   2.429   1.142   0.346
 6304SOL    HW119811   2.524   1.173   0.334
 6304SOL    HW219812   2.405   1.081   0.271
 6305SOL     OW19813   7.020   6.819   1.355
 6305SOL    HW119814   6.967   6.799   1.273
 6305SOL    HW219815   0.069   6.750   1.365
 6306SOL     OW19816   6.782   2.796   3.828
 6306SOL    HW119817   6.832   2.775   3.911
 6306SOL    HW219818   6.749   2.712   3.786
 6307SOL     OW19819   2.596   5.420   6.520
 6307SOL    HW119820   2.537   5.389   6.595
 6307SOL    HW219821   2.591   5.354   6.445
 6308SOL     OW19822   2.889   1.678   4.929
 6308SOL    HW119823   2.849   1.734   5.001
 6308SOL    HW219824   2.928   1.737   4.859
 6309SOL     OW19825   5.527   2.505   3.845
 6309SOL    HW119826   5.619   2.545   3.854
 6309SOL    HW219827   5.525   2.416   3.889
 6310SOL     OW19828   1.215   4.763   5.135
 6310SOL    HW119829   1.284   4.695   5.109
 6310SOL    HW219830   1.168   4.733   5.219
 6311SOL     OW19831   6.190   0.145   5.065
 6311SOL    HW119832   6.286   0.117   5.066
 6311SOL    HW219833   6.134   0.070   5.030
 6312SOL     OW19834   4.297   5.384   6.353
 6312SOL    HW119835   4.351   5.334   6.285
 6312SOL    HW219836   4.358   5.442   6.407
 6313SOL     OW19837   1.970   5.454   3.221
 6313SOL    HW119838   1.970   5.502   3.309
 6313SOL    HW219839   2.056   5.405   3.210
 6314SOL     OW19840   2.469   5.769   2.826
 6314SOL    HW119841   2.512   5.858   2.813
 6314SOL    HW219842   2.475   5.742   2.922
 6315SOL     OW19843   3.491   3.572   0.060
 6315SOL    HW119844   3.547   3.644   0.101
 6315SOL    HW219845   3.424   3.613   7.022
 6316SOL     OW19846   4.640   2.186   5.752
 6316SOL    HW119847   4.581   2.105   5.749
 6316SOL    HW219848   4.584   2.268   5.756
 6317SOL     OW19849   5.115   0.016   2.828
 6317SOL    HW119850   5.026   0.053   2.802
 6317SOL    HW219851   5.185   0.087   2.817
 6318SOL     OW19852   2.167   2.112   5.315
 6318SOL    HW119853   2.153   2.182   5.245
 6318SOL    HW219854   2.221   2.150   5.390
 6319SOL     OW19855   1.048   2.389   3.464
 6319SOL    HW119856   1.108   2.357   3.537
 6319SOL    HW219857   1.060   2.331   3.383
 6320SOL     OW19858   5.623   3.507   2.968
 6320SOL    HW119859   5.648   3.412   2.987
 6320SOL    HW219860   5.688   3.546   2.902
 6321SOL     OW19861   2.956   5.298   0.801
 6321SOL    HW119862   2.989   5.389   0.774
 6321SOL    HW219863   2.859   5.291   0.780
 6322SOL     OW19864   1.579   1.293   6.826
 6322SOL    HW119865   1.526   1.209   6.821
 6322SOL    HW219866   1.597   1.327   6.734
 6323SOL     OW19867   3.828   2.663   1.454
 6323SOL    HW119868   3.927   2.676   1.463
 6323SOL    HW219869   3.800   2.585   1.511
 6324SOL     OW19870   4.096   0.886   5.657
 6324SOL    HW119871   4.096   0.974   5.706
 6324SOL    HW219872   4.079   0.812   5.722
 6325SOL     OW19873   0.653   2.902   2.028
 6325SOL    HW119874   0.742   2.948   2.024
 6325SOL    HW219875   0.580   2.969   2.010
 6326SOL     OW19876   5.311   5.791   1.588
 6326SOL    HW119877   5.250   5.807   1.666
 6326SOL    HW219878   5.402   5.825   1.609
 6327SOL     OW19879   5.401   5.832   5.326
 6327SOL    HW119880   5.328   5.881   5.372
 6327SOL    HW219881   5.364   5.750   5.282
 6328SOL     OW19882   2.047   3.897   0.037
 6328SOL    HW119883   2.030   3.799   0.041
 6328SOL    HW219884   2.073   3.923   6.968
 6329SOL     OW19885   1.696   1.253   3.636
 6329SOL    HW119886   1.681   1.239   3.538
 6329SOL    HW219887   1.785   1.297   3.650
 6330SOL     OW19888   4.340   0.704   0.255
 6330SOL    HW119889   4.398   0.705   0.173
 6330SOL    HW219890   4.257   0.757   0.238
 6331SOL     OW19891   6.429   1.480   1.374
 6331SOL    HW119892   6.529   1.469   1.380
 6331SOL    HW219893   6.397   1.533   1.452
 6332SOL     OW19894   6.072   6.040   1.236
 6332SOL    HW119895   5.983   6.023   1.194
 6332SOL    HW219896   6.124   5.954   1.239
 6333SOL     OW19897   3.355   4.931   3.516
 6333SOL    HW119898   3.430   4.881   3.558
 6333SOL    HW219899   3.365   4.930   3.416
 6334SOL     OW19900   2.267   0.358   2.277
 6334SOL    HW119901   2.334   0.308   2.332
 6334SOL    HW219902   2.229   0.298   2.207
 6335SOL     OW19903   6.623   1.136   6.608
 6335SOL    HW119904   6.535   1.110   6.647
 6335SOL    HW219905   6.650   1.226   6.643
 6336SOL     OW19906   0.313   2.650   4.681
 6336SOL    HW119907   0.381   2.685   4.617
 6336SOL    HW219908   0.320   2.699   4.768
 6337SOL     OW19909   5.191   3.526   5.983
 6337SOL    HW119910   5.214   3.517   5.886
 6337SOL    HW219911   5.124   3.457   6.008
 6338SOL     OW19912   3.288   2.004   3.093
 6338SOL    HW119913   3.237   1.937   3.039
 6338SOL    HW219914   3.379   2.016   3.055
 6339SOL     OW19915   0.629   2.124   3.433
 6339SOL    HW119916   0.618   2.089   3.340
 6339SOL    HW219917   0.539   2.143   3.472
 6340SOL     OW19918   2.811   5.964   3.807
 6340SOL    HW119919   2.783   5.891   3.869
 6340SOL    HW219920   2.803   5.932   3.713
 6341SOL     OW19921   6.841   4.352   3.163
 6341SOL    HW119922   6.881   4.401   3.086
 6341SOL    HW219923   6.765   4.295   3.131
 6342SOL     OW19924   1.941   2.188   2.104
 6342SOL    HW119925   1.986   2.277   2.108
 6342SOL    HW219926   1.842   2.200   2.118
 6343SOL     OW19927   3.900   2.023   6.206
 6343SOL    HW119928   3.867   1.961   6.278
 6343SOL    HW219929   3.833   2.097   6.193
 6344SOL     OW19930   0.194   4.014   4.684
 6344SOL    HW119931   0.138   4.024   4.766
 6344SOL    HW219932   0.255   3.935   4.695
 6345SOL     OW19933   3.269   1.831   1.873
 6345SOL    HW119934   3.265   1.803   1.777
 6345SOL    HW219935   3.234   1.757   1.930
 6346SOL     OW19936   0.173   3.863   3.058
 6346SOL    HW119937   0.132   3.847   3.147
 6346SOL    HW219938   0.119   3.818   2.987
 6347SOL     OW19939   3.033   0.256   0.794
 6347SOL    HW119940   3.096   0.189   0.754
 6347SOL    HW219941   2.971   0.289   0.723
 6348SOL     OW19942   0.909   2.863   4.348
 6348SOL    HW119943   0.991   2.862   4.291
 6348SOL    HW219944   0.857   2.779   4.335
 6349SOL     OW19945   3.065   0.658   0.969
 6349SOL    HW119946   2.978   0.622   1.004
 6349SOL    HW219947   3.060   0.667   0.870
 6350SOL     OW19948   1.726   6.249   2.384
 6350SOL    HW119949   1.823   6.230   2.369
 6350SOL    HW219950   1.698   6.328   2.329
 6351SOL     OW19951   0.248   1.528   2.018
 6351SOL    HW119952   0.272   1.624   2.002
 6351SOL    HW219953   0.244   1.480   1.930
 6352SOL     OW19954   1.964   5.242   2.616
 6352SOL    HW119955   1.905   5.181   2.563
 6352SOL    HW219956   1.921   5.264   2.703
 6353SOL     OW19957   0.848   6.940   0.237
 6353SOL    HW119958   0.858   6.937   0.138
 6353SOL    HW219959   0.911   6.876   0.280
 6354SOL     OW19960   0.880   0.061   2.586
 6354SOL    HW119961   0.975   0.057   2.554
 6354SOL    HW219962   0.858   7.001   2.636
 6355SOL     OW19963   1.464   2.956   3.105
 6355SOL    HW119964   1.562   2.969   3.123
 6355SOL    HW219965   1.437   2.865   3.137
 6356SOL     OW19966   3.795   4.683   0.980
 6356SOL    HW119967   3.831   4.610   0.922
 6356SOL    HW219968   3.829   4.771   0.948
 6357SOL     OW19969   4.496   2.612   0.492
 6357SOL    HW119970   4.569   2.681   0.487
 6357SOL    HW219971   4.415   2.646   0.444
 6358SOL     OW19972   0.028   2.199   3.858
 6358SOL    HW119973   0.104   2.160   3.910
 6358SOL    HW219974   6.966   2.156   3.886
 6359SOL     OW19975   0.298   0.591   5.496
 6359SOL    HW119976   0.279   0.609   5.592
 6359SOL    HW219977   0.277   0.496   5.474
 6360SOL     OW19978   2.474   5.055   4.054
 6360SOL    HW119979   2.556   5.055   3.998
 6360SOL    HW219980   2.499   5.052   4.150
 6361SOL     OW19981   3.975   6.355   5.884
 6361SOL    HW119982   3.992   6.285   5.953
 6361SOL    HW219983   4.044   6.427   5.891
 6362SOL     OW19984   6.008   5.170   0.042
 6362SOL    HW119985   6.102   5.199   0.061
 6362SOL    HW219986   6.001   5.071   0.049
 6363SOL     OW19987   1.826   5.610   4.377
 6363SOL    HW119988   1.895   5.613   4.306
 6363SOL    HW219989   1.826   5.520   4.420
 6364SOL     OW19990   2.527   2.761   5.880
 6364SOL    HW119991   2.545   2.689   5.812
 6364SOL    HW219992   2.523   2.720   5.971
 6365SOL     OW19993   4.497   6.848   3.532
 6365SOL    HW119994   4.421   6.783   3.528
 6365SOL    HW219995   4.575   6.812   3.481
 6366SOL     OW19996   0.475   5.272   4.970
 6366SOL    HW119997   0.508   5.178   4.975
 6366SOL    HW219998   0.397   5.283   5.032
 6367SOL     OW19999   5.359   0.533   3.288
 6367SOL    HW120000   5.402   0.580   3.366
 6367SOL    HW220001   5.328   0.601   3.222
 6368SOL     OW20002   2.928   7.023   3.972
 6368SOL    HW120003   3.007   0.013   3.912
 6368SOL    HW220004   2.955   0.016   4.067
 6369SOL     OW20005   2.211   5.174   3.584
 6369SOL    HW120006   2.227   5.144   3.678
 6369SOL    HW220007   2.121   5.217   3.578
 6370SOL     OW20008   6.494   1.943   1.273
 6370SOL    HW120009   6.482   1.844   1.262
 6370SOL    HW220010   6.475   1.988   1.186
 6371SOL     OW20011   4.812   3.056   2.509
 6371SOL    HW120012   4.759   2.971   2.508
 6371SOL    HW220013   4.814   3.095   2.418
 6372SOL     OW20014   3.681   6.397   2.143
 6372SOL    HW120015   3.682   6.456   2.223
 6372SOL    HW220016   3.597   6.343   2.142
 6373SOL     OW20017   4.369   4.041   5.724
 6373SOL    HW120018   4.381   4.068   5.628
 6373SOL    HW220019   4.281   4.076   5.758
 6374SOL     OW20020   3.035   3.268   2.979
 6374SOL    HW120021   3.120   3.319   2.967
 6374SOL    HW220022   2.981   3.308   3.053
 6375SOL     OW20023   1.499   0.376   2.999
 6375SOL    HW120024   1.449   0.448   3.047
 6375SOL    HW220025   1.546   0.318   3.065
 6376SOL     OW20026   6.486   2.251   4.672
 6376SOL    HW120027   6.493   2.349   4.690
 6376SOL    HW220028   6.490   2.235   4.573
 6377SOL     OW20029   0.096   1.131   4.794
 6377SOL    HW120030   0.037   1.064   4.841
 6377SOL    HW220031   0.064   1.141   4.700
 6378SOL     OW20032   4.810   4.156   4.295
 6378SOL    HW120033   4.807   4.073   4.350
 6378SOL    HW220034   4.859   4.138   4.210
 6379SOL     OW20035   2.350   4.304   3.974
 6379SOL    HW120036   2.388   4.281   4.063
 6379SOL    HW220037   2.266   4.358   3.986
 6380SOL     OW20038   0.466   1.300   6.077
 6380SOL    HW120039   0.396   1.279   6.009
 6380SOL    HW220040   0.531   1.224   6.081
 6381SOL     OW20041   3.381   3.632   2.865
 6381SOL    HW120042   3.408   3.723   2.896
 6381SOL    HW220043   3.291   3.637   2.820
 6382SOL     OW20044   0.875   3.091   5.835
 6382SOL    HW120045   0.951   3.032   5.864
 6382SOL    HW220046   0.789   3.043   5.851
 6383SOL     OW20047   2.774   2.120   4.303
 6383SOL    HW120048   2.755   2.071   4.218
 6383SOL    HW220049   2.746   2.216   4.293
 6384SOL     OW20050   6.292   5.295   2.829
 6384SOL    HW120051   6.356   5.298   2.752
 6384SOL    HW220052   6.343   5.311   2.914
 6385SOL     OW20053   0.223   5.536   4.411
 6385SOL    HW120054   0.239   5.437   4.417
 6385SOL    HW220055   0.144   5.553   4.353
 6386SOL     OW20056   2.662   5.261   0.761
 6386SOL    HW120057   2.605   5.325   0.709
 6386SOL    HW220058   2.645   5.168   0.727
 6387SOL     OW20059   0.104   1.717   5.236
 6387SOL    HW120060   0.068   1.706   5.144
 6387SOL    HW220061   0.036   1.762   5.293
 6388SOL     OW20062   3.348   4.894   1.957
 6388SOL    HW120063   3.272   4.861   1.901
 6388SOL    HW220064   3.418   4.823   1.963
 6389SOL     OW20065   1.508   5.792   2.947
 6389SOL    HW120066   1.538   5.746   3.031
 6389SOL    HW220067   1.587   5.833   2.901
 6390SOL     OW20068   0.775   2.787   3.597
 6390SOL    HW120069   0.685   2.804   3.557
 6390SOL    HW220070   0.770   2.707   3.656
 6391SOL     OW20071   2.733   2.397   0.342
 6391SOL    HW120072   2.802   2.359   0.280
 6391SOL    HW220073   2.747   2.495   0.352
 6392SOL     OW20074   1.498   6.767   3.569
 6392SOL    HW120075   1.415   6.803   3.527
 6392SOL    HW220076   1.500   6.668   3.557
 6393SOL     OW20077   5.826   6.589   0.576
 6393SOL    HW120078   5.924   6.587   0.559
 6393SOL    HW220079   5.777   6.597   0.489
 6394SOL     OW20080   2.072   4.902   0.424
 6394SOL    HW120081   2.059   4.971   0.495
 6394SOL    HW220082   2.032   4.934   0.338
 6395SOL     OW20083   6.162   1.070   1.190
 6395SOL    HW120084   6.085   1.036   1.137
 6395SOL    HW220085   6.205   1.146   1.143
 6396SOL     OW20086   4.951   3.371   5.718
 6396SOL    HW120087   4.923   3.312   5.642
 6396SOL    HW220088   5.039   3.340   5.753
 6397SOL     OW20089   0.056   2.185   6.859
 6397SOL    HW120090   7.014   2.180   6.934
 6397SOL    HW220091   0.148   2.195   6.896
 6398SOL     OW20092   2.873   1.889   1.679
 6398SOL    HW120093   2.827   1.962   1.629
 6398SOL    HW220094   2.967   1.915   1.698
 6399SOL     OW20095   1.916   5.943   6.992
 6399SOL    HW120096   1.988   6.012   6.980
 6399SOL    HW220097   1.867   5.930   6.906
 6400SOL     OW20098   2.939   5.698   3.449
 6400SOL    HW120099   2.923   5.695   3.350
 6400SOL    HW220100   2.931   5.606   3.487
 6401SOL     OW20101   0.384   4.244   3.602
 6401SOL    HW120102   0.354   4.149   3.610
 6401SOL    HW220103   0.455   4.251   3.532
 6402SOL     OW20104   2.487   0.786   3.069
 6402SOL    HW120105   2.565   0.785   3.006
 6402SOL    HW220106   2.504   0.850   3.143
 6403SOL     OW20107   1.170   4.465   6.701
 6403SOL    HW120108   1.196   4.499   6.792
 6403SOL    HW220109   1.235   4.499   6.633
 6404SOL     OW20110   4.569   1.781   3.085
 6404SOL    HW120111   4.542   1.746   3.175
 6404SOL    HW220112   4.490   1.825   3.042
 6405SOL     OW20113   2.414   1.796   2.593
 6405SOL    HW120114   2.484   1.767   2.528
 6405SOL    HW220115   2.425   1.893   2.613
 6406SOL     OW20116   2.382   1.278   3.935
 6406SOL    HW120117   2.454   1.343   3.912
 6406SOL    HW220118   2.382   1.204   3.869
 6407SOL     OW20119   3.474   5.703   5.332
 6407SOL    HW120120   3.458   5.694   5.430
 6407SOL    HW220121   3.410   5.770   5.294
 6408SOL     OW20122   5.631   1.077   6.497
 6408SOL    HW120123   5.543   1.116   6.467
 6408SOL    HW220124   5.661   1.009   6.431
 6409SOL     OW20125   6.881   3.375   3.301
 6409SOL    HW120126   6.791   3.394   3.261
 6409SOL    HW220127   6.881   3.284   3.342
 6410SOL     OW20128   1.585   1.865   0.447
 6410SOL    HW120129   1.560   1.941   0.387
 6410SOL    HW220130   1.634   1.795   0.394
 6411SOL     OW20131   0.760   1.249   3.544
 6411SOL    HW120132   0.669   1.245   3.503
 6411SOL    HW220133   0.761   1.197   3.629
 6412SOL     OW20134   6.582   2.974   5.625
 6412SOL    HW120135   6.641   3.000   5.701
 6412SOL    HW220136   6.548   3.056   5.578
 6413SOL     OW20137   6.740   4.572   1.377
 6413SOL    HW120138   6.774   4.650   1.324
 6413SOL    HW220139   6.812   4.537   1.436
 6414SOL     OW20140   6.464   0.181   1.734
 6414SOL    HW120141   6.430   0.273   1.713
 6414SOL    HW220142   6.389   0.116   1.724
 6415SOL     OW20143   1.392   1.934   1.879
 6415SOL    HW120144   1.382   2.024   1.838
 6415SOL    HW220145   1.319   1.874   1.845
 6416SOL     OW20146   1.271   0.205   6.748
 6416SOL    HW120147   1.320   0.252   6.821
 6416SOL    HW220148   1.205   0.268   6.706
 6417SOL     OW20149   0.670   0.208   3.729
 6417SOL    HW120150   0.660   0.240   3.823
 6417SOL    HW220151   0.767   0.187   3.711
 6418SOL     OW20152   0.419   5.638   2.210
 6418SOL    HW120153   0.511   5.647   2.173
 6418SOL    HW220154   0.367   5.721   2.191
 6419SOL     OW20155   3.533   4.985   1.768
 6419SOL    HW120156   3.493   4.946   1.851
 6419SOL    HW220157   3.581   5.069   1.791
 6420SOL     OW20158   2.719   4.036   6.390
 6420SOL    HW120159   2.634   3.985   6.378
 6420SOL    HW220160   2.786   3.977   6.436
 6421SOL     OW20161   5.129   0.783   1.122
 6421SOL    HW120162   5.187   0.791   1.203
 6421SOL    HW220163   5.177   0.822   1.043
 6422SOL     OW20164   6.947   1.262   3.388
 6422SOL    HW120165   6.881   1.286   3.317
 6422SOL    HW220166   6.977   1.167   3.375
 6423SOL     OW20167   5.237   3.343   1.077
 6423SOL    HW120168   5.160   3.321   1.017
 6423SOL    HW220169   5.323   3.332   1.028
 6424SOL     OW20170   6.636   3.892   6.382
 6424SOL    HW120171   6.686   3.977   6.401
 6424SOL    HW220172   6.567   3.910   6.311
 6425SOL     OW20173   0.372   4.528   2.339
 6425SOL    HW120174   0.351   4.626   2.333
 6425SOL    HW220175   0.469   4.513   2.321
 6426SOL     OW20176   1.627   2.253   3.392
 6426SOL    HW120177   1.678   2.334   3.422
 6426SOL    HW220178   1.655   2.228   3.299
 6427SOL     OW20179   1.546   3.389   5.605
 6427SOL    HW120180   1.481   3.314   5.593
 6427SOL    HW220181   1.497   3.474   5.623
 6428SOL     OW20182   6.718   3.395   1.964
 6428SOL    HW120183   6.700   3.383   1.867
 6428SOL    HW220184   6.736   3.307   2.007
 6429SOL     OW20185   1.534   0.847   4.273
 6429SOL    HW120186   1.488   0.760   4.255
 6429SOL    HW220187   1.624   0.846   4.228
 6430SOL     OW20188   5.539   1.517   1.624
 6430SOL    HW120189   5.474   1.496   1.551
 6430SOL    HW220190   5.630   1.485   1.597
 6431SOL     OW20191   5.062   6.722   2.904
 6431SOL    HW120192   5.131   6.650   2.907
 6431SOL    HW220193   5.094   6.796   2.845
 6432SOL     OW20194   5.046   3.303   0.848
 6432SOL    HW120195   4.977   3.375   0.838
 6432SOL    HW220196   5.127   3.327   0.793
 6433SOL     OW20197   2.630   4.380   1.366
 6433SOL    HW120198   2.656   4.405   1.460
 6433SOL    HW220199   2.706   4.332   1.323
 6434SOL     OW20200   1.332   3.828   0.667
 6434SOL    HW120201   1.291   3.774   0.593
 6434SOL    HW220202   1.364   3.916   0.630
 6435SOL     OW20203   4.346   4.968   6.436
 6435SOL    HW120204   4.444   4.969   6.417
 6435SOL    HW220205   4.325   4.894   6.500
 6436SOL     OW20206   1.808   3.103   3.530
 6436SOL    HW120207   1.837   3.145   3.444
 6436SOL    HW220208   1.835   3.006   3.531
 6437SOL     OW20209   1.184   6.944   0.123
 6437SOL    HW120210   1.159   6.883   0.198
 6437SOL    HW220211   1.263   6.999   0.150
 6438SOL     OW20212   1.111   3.765   3.757
 6438SOL    HW120213   1.143   3.680   3.798
 6438SOL    HW220214   1.183   3.803   3.699
 6439SOL     OW20215   1.254   6.843   1.006
 6439SOL    HW120216   1.328   6.828   1.071
 6439SOL    HW220217   1.191   6.912   1.043
 6440SOL     OW20218   1.353   1.398   2.531
 6440SOL    HW120219   1.326   1.374   2.624
 6440SOL    HW220220   1.309   1.336   2.467
 6441SOL     OW20221   2.199   1.084   3.218
 6441SOL    HW120222   2.168   1.099   3.312
 6441SOL    HW220223   2.246   1.166   3.185
 6442SOL     OW20224   2.173   2.408   4.444
 6442SOL    HW120225   2.102   2.337   4.447
 6442SOL    HW220226   2.258   2.371   4.483
 6443SOL     OW20227   3.115   3.090   0.660
 6443SOL    HW120228   3.174   3.115   0.583
 6443SOL    HW220229   3.041   3.031   0.627
 6444SOL     OW20230   0.724   1.258   3.039
 6444SOL    HW120231   0.733   1.210   2.952
 6444SOL    HW220232   0.628   1.281   3.055
 6445SOL     OW20233   3.973   2.819   5.267
 6445SOL    HW120234   4.002   2.726   5.243
 6445SOL    HW220235   3.878   2.816   5.299
 6446SOL     OW20236   6.469   1.115   7.007
 6446SOL    HW120237   6.553   1.141   6.961
 6446SOL    HW220238   6.390   1.153   6.957
 6447SOL     OW20239   1.855   6.705   2.115
 6447SOL    HW120240   1.937   6.727   2.064
 6447SOL    HW220241   1.867   6.619   2.163
 6448SOL     OW20242   6.381   3.021   2.963
 6448SOL    HW120243   6.303   2.962   2.985
 6448SOL    HW220244   6.415   2.998   2.872
 6449SOL     OW20245   3.350   3.292   1.438
 6449SOL    HW120246   3.278   3.224   1.454
 6449SOL    HW220247   3.426   3.275   1.502
 6450SOL     OW20248   6.103   3.830   1.506
 6450SOL    HW120249   6.060   3.758   1.561
 6450SOL    HW220250   6.154   3.788   1.430
 6451SOL     OW20251   2.339   6.330   5.679
 6451SOL    HW120252   2.424   6.311   5.631
 6451SOL    HW220253   2.339   6.424   5.711
 6452SOL     OW20254   3.167   6.758   4.260
 6452SOL    HW120255   3.138   6.712   4.344
 6452SOL    HW220256   3.095   6.820   4.229
 6453SOL     OW20257   1.495   6.418   6.812
 6453SOL    HW120258   1.516   6.512   6.786
 6453SOL    HW220259   1.427   6.380   6.750
 6454SOL     OW20260   2.904   1.729   4.516
 6454SOL    HW120261   2.808   1.713   4.494
 6454SOL    HW220262   2.910   1.773   4.606
 6455SOL     OW20263   7.023   2.820   5.223
 6455SOL    HW120264   6.976   2.797   5.308
 6455SOL    HW220265   0.008   2.919   5.216
 6456SOL     OW20266   0.724   0.786   3.016
 6456SOL    HW120267   0.792   0.712   3.015
 6456SOL    HW220268   0.763   0.866   3.062
 6457SOL     OW20269   6.522   2.434   1.896
 6457SOL    HW120270   6.601   2.393   1.849
 6457SOL    HW220271   6.545   2.448   1.993
 6458SOL     OW20272   1.569   5.618   3.147
 6458SOL    HW120273   1.553   5.586   3.241
 6458SOL    HW220274   1.665   5.643   3.136
 6459SOL     OW20275   6.432   4.627   0.563
 6459SOL    HW120276   6.463   4.722   0.564
 6459SOL    HW220277   6.335   4.624   0.536
 6460SOL     OW20278   3.572   4.567   6.692
 6460SOL    HW120279   3.572   4.530   6.785
 6460SOL    HW220280   3.655   4.538   6.645
 6461SOL     OW20281   3.512   4.954   5.125
 6461SOL    HW120282   3.481   4.863   5.150
 6461SOL    HW220283   3.607   4.966   5.155
 6462SOL     OW20284   2.015   3.288   4.997
 6462SOL    HW120285   1.946   3.342   5.045
 6462SOL    HW220286   2.052   3.342   4.921
 6463SOL     OW20287   2.363   4.406   6.032
 6463SOL    HW120288   2.431   4.333   6.029
 6463SOL    HW220289   2.279   4.371   6.075
 6464SOL     OW20290   0.377   5.492   3.700
 6464SOL    HW120291   0.402   5.508   3.795
 6464SOL    HW220292   0.341   5.399   3.690
 6465SOL     OW20293   5.861   1.676   3.570
 6465SOL    HW120294   5.818   1.754   3.526
 6465SOL    HW220295   5.950   1.703   3.606
 6466SOL     OW20296   0.322   2.612   5.062
 6466SOL    HW120297   0.353   2.518   5.042
 6466SOL    HW220298   0.368   2.645   5.145
 6467SOL     OW20299   2.778   1.526   6.762
 6467SOL    HW120300   2.718   1.462   6.810
 6467SOL    HW220301   2.870   1.522   6.800
 6468SOL     OW20302   4.901   5.919   1.134
 6468SOL    HW120303   4.955   5.919   1.218
 6468SOL    HW220304   4.922   5.836   1.081
 6469SOL     OW20305   6.812   0.296   5.676
 6469SOL    HW120306   6.751   0.288   5.756
 6469SOL    HW220307   6.819   0.392   5.649
 6470SOL     OW20308   5.992   6.640   5.783
 6470SOL    HW120309   5.939   6.605   5.706
 6470SOL    HW220310   5.965   6.734   5.803
 6471SOL     OW20311   6.747   4.794   6.906
 6471SOL    HW120312   6.801   4.727   6.856
 6471SOL    HW220313   6.787   4.810   6.996
 6472SOL     OW20314   1.211   6.690   1.933
 6472SOL    HW120315   1.277   6.706   1.860
 6472SOL    HW220316   1.189   6.777   1.977
 6473SOL     OW20317   1.791   1.372   6.350
 6473SOL    HW120318   1.798   1.459   6.301
 6473SOL    HW220319   1.697   1.338   6.344
 6474SOL     OW20320   1.295   3.466   5.851
 6474SOL    HW120321   1.319   3.504   5.941
 6474SOL    HW220322   1.342   3.518   5.780
 6475SOL     OW20323   5.303   6.690   3.952
 6475SOL    HW120324   5.325   6.599   3.987
 6475SOL    HW220325   5.224   6.726   3.999
 6476SOL     OW20326   4.589   4.393   2.874
 6476SOL    HW120327   4.530   4.431   2.803
 6476SOL    HW220328   4.579   4.446   2.958
 6477SOL     OW20329   6.629   5.577   0.203
 6477SOL    HW120330   6.547   5.630   0.179
 6477SOL    HW220331   6.631   5.493   0.148
 6478SOL     OW20332   4.569   6.147   2.000
 6478SOL    HW120333   4.637   6.150   2.073
 6478SOL    HW220334   4.479   6.169   2.037
 6479SOL     OW20335   4.477   5.420   2.174
 6479SOL    HW120336   4.509   5.426   2.268
 6479SOL    HW220337   4.453   5.325   2.153
 6480SOL     OW20338   2.919   2.985   6.718
 6480SOL    HW120339   2.835   3.029   6.751
 6480SOL    HW220340   2.899   2.892   6.688
 6481SOL     OW20341   3.715   0.725   1.275
 6481SOL    HW120342   3.683   0.816   1.300
 6481SOL    HW220343   3.644   0.657   1.294
 6482SOL     OW20344   6.640   0.173   6.954
 6482SOL    HW120345   6.689   0.100   6.907
 6482SOL    HW220346   6.543   0.150   6.961
 6483SOL     OW20347   1.391   6.742   2.126
 6483SOL    HW120348   1.325   6.816   2.138
 6483SOL    HW220349   1.351   6.671   2.068
 6484SOL     OW20350   5.064   0.501   2.717
 6484SOL    HW120351   5.103   0.410   2.734
 6484SOL    HW220352   4.990   0.518   2.782
 6485SOL     OW20353   1.762   2.392   3.664
 6485SOL    HW120354   1.793   2.444   3.584
 6485SOL    HW220355   1.834   2.391   3.733
 6486SOL     OW20356   1.394   3.599   3.709
 6486SOL    HW120357   1.395   3.630   3.804
 6486SOL    HW220358   1.447   3.514   3.701
 6487SOL     OW20359   6.189   6.905   4.230
 6487SOL    HW120360   6.245   6.979   4.267
 6487SOL    HW220361   6.092   6.929   4.239
 6488SOL     OW20362   2.876   5.313   6.018
 6488SOL    HW120363   2.911   5.335   6.109
 6488SOL    HW220364   2.872   5.397   5.964
 6489SOL     OW20365   1.575   2.107   5.995
 6489SOL    HW120366   1.651   2.133   5.936
 6489SOL    HW220367   1.568   2.173   6.070
 6490SOL     OW20368   3.544   2.037   0.378
 6490SOL    HW120369   3.491   2.099   0.436
 6490SOL    HW220370   3.640   2.065   0.378
 6491SOL     OW20371   4.648   1.266   6.378
 6491SOL    HW120372   4.658   1.167   6.386
 6491SOL    HW220373   4.737   1.310   6.390
 6492SOL     OW20374   6.154   6.555   0.465
 6492SOL    HW120375   6.181   6.645   0.433
 6492SOL    HW220376   6.209   6.485   0.418
 6493SOL     OW20377   2.177   6.786   6.519
 6493SOL    HW120378   2.109   6.837   6.467
 6493SOL    HW220379   2.141   6.697   6.544
 6494SOL     OW20380   1.195   0.530   3.592
 6494SOL    HW120381   1.138   0.586   3.653
 6494SOL    HW220382   1.167   0.435   3.599
 6495SOL     OW20383   5.285   4.754   2.812
 6495SOL    HW120384   5.194   4.712   2.802
 6495SOL    HW220385   5.311   4.798   2.726
 6496SOL     OW20386   0.696   6.668   1.943
 6496SOL    HW120387   0.747   6.625   1.868
 6496SOL    HW220388   0.759   6.696   2.015
 6497SOL     OW20389   1.760   4.139   0.262
 6497SOL    HW120390   1.840   4.114   0.207
 6497SOL    HW220391   1.778   4.225   0.310
 6498SOL     OW20392   2.186   3.783   4.483
 6498SOL    HW120393   2.192   3.874   4.525
 6498SOL    HW220394   2.155   3.718   4.552
 6499SOL     OW20395   4.862   1.281   4.449
 6499SOL    HW120396   4.930   1.338   4.496
 6499SOL    HW220397   4.838   1.203   4.507
 6500SOL     OW20398   5.187   4.524   3.546
 6500SOL    HW120399   5.195   4.540   3.448
 6500SOL    HW220400   5.156   4.431   3.563
 6501SOL     OW20401   6.033   3.841   1.018
 6501SOL    HW120402   5.956   3.850   0.955
 6501SOL    HW220403   6.088   3.761   0.993
 6502SOL     OW20404   1.001   4.881   3.642
 6502SOL    HW120405   1.038   4.964   3.601
 6502SOL    HW220406   0.945   4.832   3.574
 6503SOL     OW20407   5.417   6.763   4.472
 6503SOL    HW120408   5.409   6.834   4.541
 6503SOL    HW220409   5.344   6.695   4.486
 6504SOL     OW20410   3.396   0.999   0.421
 6504SOL    HW120411   3.431   0.907   0.404
 6504SOL    HW220412   3.303   1.006   0.385
 6505SOL     OW20413   5.814   4.505   0.938
 6505SOL    HW120414   5.717   4.526   0.923
 6505SOL    HW220415   5.825   4.460   1.026
 6506SOL     OW20416   1.596   3.554   0.795
 6506SOL    HW120417   1.596   3.500   0.879
 6506SOL    HW220418   1.605   3.651   0.819
 6507SOL     OW20419   2.214   6.224   1.444
 6507SOL    HW120420   2.127   6.270   1.457
 6507SOL    HW220421   2.254   6.252   1.356
 6508SOL     OW20422   2.208   2.047   3.363
 6508SOL    HW120423   2.200   1.954   3.400
 6508SOL    HW220424   2.267   2.045   3.282
 6509SOL     OW20425   1.417   2.505   4.584
 6509SOL    HW120426   1.359   2.460   4.517
 6509SOL    HW220427   1.422   2.603   4.565
 6510SOL     OW20428   6.332   5.314   6.814
 6510SOL    HW120429   6.426   5.347   6.812
 6510SOL    HW220430   6.329   5.224   6.858
 6511SOL     OW20431   6.661   6.479   5.843
 6511SOL    HW120432   6.623   6.497   5.934
 6511SOL    HW220433   6.589   6.491   5.774
 6512SOL     OW20434   4.815   6.761   2.788
 6512SOL    HW120435   4.812   6.850   2.743
 6512SOL    HW220436   4.902   6.750   2.835
 6513SOL     OW20437   4.212   6.160   3.598
 6513SOL    HW120438   4.269   6.107   3.661
 6513SOL    HW220439   4.212   6.116   3.508
 6514SOL     OW20440   3.983   0.242   3.906
 6514SOL    HW120441   3.911   0.312   3.901
 6514SOL    HW220442   4.069   0.281   3.872
 6515SOL     OW20443   0.132   6.447   4.857
 6515SOL    HW120444   0.161   6.438   4.762
 6515SOL    HW220445   0.032   6.450   4.861
 6516SOL     OW20446   1.009   2.004   6.056
 6516SOL    HW120447   1.088   2.064   6.043
 6516SOL    HW220448   0.963   2.028   6.141
 6517SOL     OW20449   0.859   1.252   0.181
 6517SOL    HW120450   0.932   1.319   0.175
 6517SOL    HW220451   0.770   1.296   0.166
 6518SOL     OW20452   0.293   6.292   1.141
 6518SOL    HW120453   0.326   6.257   1.053
 6518SOL    HW220454   0.283   6.391   1.136
 6519SOL     OW20455   2.270   1.598   4.173
 6519SOL    HW120456   2.186   1.607   4.227
 6519SOL    HW220457   2.343   1.562   4.231
 6520SOL     OW20458   6.241   5.743   2.017
 6520SOL    HW120459   6.313   5.787   2.070
 6520SOL    HW220460   6.221   5.653   2.055
 6521SOL     OW20461   0.699   1.852   4.854
 6521SOL    HW120462   0.793   1.818   4.845
 6521SOL    HW220463   0.638   1.775   4.873
 6522SOL     OW20464   2.463   5.662   6.457
 6522SOL    HW120465   2.535   5.594   6.473
 6522SOL    HW220466   2.499   5.754   6.474
 6523SOL     OW20467   2.050   1.520   6.527
 6523SOL    HW120468   1.963   1.569   6.522
 6523SOL    HW220469   2.088   1.509   6.435
 6524SOL     OW20470   3.809   3.376   3.230
 6524SOL    HW120471   3.874   3.301   3.245
 6524SOL    HW220472   3.772   3.407   3.318
 6525SOL     OW20473   0.822   2.844   3.151
 6525SOL    HW120474   0.781   2.918   3.205
 6525SOL    HW220475   0.779   2.758   3.176
 6526SOL     OW20476   1.309   5.801   5.015
 6526SOL    HW120477   1.247   5.838   5.085
 6526SOL    HW220478   1.257   5.746   4.950
 6527SOL     OW20479   1.125   6.708   4.576
 6527SOL    HW120480   1.201   6.643   4.570
 6527SOL    HW220481   1.148   6.781   4.640
 6528SOL     OW20482   0.400   1.555   4.705
 6528SOL    HW120483   0.395   1.651   4.679
 6528SOL    HW220484   0.339   1.538   4.783
 6529SOL     OW20485   6.382   1.587   1.949
 6529SOL    HW120486   6.481   1.600   1.942
 6529SOL    HW220487   6.363   1.517   2.018
 6530SOL     OW20488   6.701   2.083   0.443
 6530SOL    HW120489   6.696   2.145   0.521
 6530SOL    HW220490   6.776   2.018   0.457
 6531SOL     OW20491   5.415   3.220   3.872
 6531SOL    HW120492   5.466   3.265   3.944
 6531SOL    HW220493   5.330   3.182   3.909
 6532SOL     OW20494   6.733   1.392   6.616
 6532SOL    HW120495   6.757   1.336   6.536
 6532SOL    HW220496   6.793   1.472   6.619
 6533SOL     OW20497   4.845   6.804   0.787
 6533SOL    HW120498   4.807   6.893   0.763
 6533SOL    HW220499   4.821   6.781   0.882
 6534SOL     OW20500   2.540   3.951   1.298
 6534SOL    HW120501   2.523   3.997   1.385
 6534SOL    HW220502   2.638   3.944   1.283
 6535SOL     OW20503   0.649   3.590   5.822
 6535SOL    HW120504   0.716   3.615   5.753
 6535SOL    HW220505   0.686   3.607   5.913
 6536SOL     OW20506   5.705   1.816   0.131
 6536SOL    HW120507   5.774   1.810   0.059
 6536SOL    HW220508   5.698   1.911   0.163
 6537SOL     OW20509   0.698   6.563   0.459
 6537SOL    HW120510   0.698   6.563   0.359
 6537SOL    HW220511   0.729   6.475   0.493
 6538SOL     OW20512   3.061   3.746   6.886
 6538SOL    HW120513   2.994   3.690   6.935
 6538SOL    HW220514   3.019   3.832   6.857
 6539SOL     OW20515   2.556   1.669   6.917
 6539SOL    HW120516   2.636   1.614   6.890
 6539SOL    HW220517   2.586   1.743   6.978
 6540SOL     OW20518   2.955   0.802   4.488
 6540SOL    HW120519   2.923   0.893   4.512
 6540SOL    HW220520   3.055   0.799   4.496
 6541SOL     OW20521   2.581   2.418   5.977
 6541SOL    HW120522   2.630   2.447   6.060
 6541SOL    HW220523   2.644   2.367   5.918
 6542SOL     OW20524   6.850   4.644   3.262
 6542SOL    HW120525   6.812   4.577   3.199
 6542SOL    HW220526   6.882   4.597   3.344
 6543SOL     OW20527   5.894   6.104   6.775
 6543SOL    HW120528   5.929   6.026   6.725
 6543SOL    HW220529   5.878   6.078   6.870
 6544SOL     OW20530   6.759   6.178   4.150
 6544SOL    HW120531   6.706   6.139   4.075
 6544SOL    HW220532   6.856   6.164   4.133
 6545SOL     OW20533   5.125   1.651   5.784
 6545SOL    HW120534   5.223   1.655   5.764
 6545SOL    HW220535   5.082   1.581   5.728
 6546SOL     OW20536   3.041   4.882   5.979
 6546SOL    HW120537   3.002   4.971   5.955
 6546SOL    HW220538   2.969   4.824   6.018
 6547SOL     OW20539   5.093   2.586   6.845
 6547SOL    HW120540   5.050   2.531   6.916
 6547SOL    HW220541   5.189   2.558   6.835
 6548SOL     OW20542   6.426   4.252   5.545
 6548SOL    HW120543   6.415   4.266   5.446
 6548SOL    HW220544   6.474   4.166   5.561
 6549SOL     OW20545   3.925   2.365   0.731
 6549SOL    HW120546   3.842   2.311   0.745
 6549SOL    HW220547   3.909   2.430   0.656
 6550SOL     OW20548   0.776   5.687   3.335
 6550SOL    HW120549   0.858   5.643   3.372
 6550SOL    HW220550   0.699   5.624   3.342
 6551SOL     OW20551   1.854   4.460   1.836
 6551SOL    HW120552   1.889   4.516   1.911
 6551SOL    HW220553   1.755   4.457   1.841
 6552SOL     OW20554   2.733   4.788   5.665
 6552SOL    HW120555   2.694   4.833   5.745
 6552SOL    HW220556   2.832   4.782   5.675
 6553SOL     OW20557   0.243   2.909   2.439
 6553SOL    HW120558   0.269   2.986   2.497
 6553SOL    HW220559   0.213   2.833   2.497
 6554SOL     OW20560   6.295   1.786   5.804
 6554SOL    HW120561   6.277   1.865   5.745
 6554SOL    HW220562   6.391   1.760   5.797
 6555SOL     OW20563   1.603   1.238   1.740
 6555SOL    HW120564   1.652   1.264   1.823
 6555SOL    HW220565   1.556   1.151   1.755
 6556SOL     OW20566   3.545   5.754   4.690
 6556SOL    HW120567   3.583   5.792   4.606
 6556SOL    HW220568   3.475   5.816   4.726
 6557SOL     OW20569   6.007   5.630   1.019
 6557SOL    HW120570   5.939   5.583   0.963
 6557SOL    HW220571   6.066   5.686   0.960
 6558SOL     OW20572   5.988   5.845   6.697
 6558SOL    HW120573   5.939   5.820   6.781
 6558SOL    HW220574   6.060   5.910   6.719
 6559SOL     OW20575   4.731   3.968   1.157
 6559SOL    HW120576   4.733   3.989   1.255
 6559SOL    HW220577   4.814   4.005   1.114
 6560SOL     OW20578   3.962   2.870   0.428
 6560SOL    HW120579   3.913   2.796   0.381
 6560SOL    HW220580   3.896   2.932   0.469
 6561SOL     OW20581   4.128   3.625   3.168
 6561SOL    HW120582   4.111   3.631   3.266
 6561SOL    HW220583   4.152   3.715   3.133
 6562SOL     OW20584   6.492   4.847   5.850
 6562SOL    HW120585   6.448   4.936   5.860
 6562SOL    HW220586   6.426   4.775   5.872
 6563SOL     OW20587   0.787   5.784   1.439
 6563SOL    HW120588   0.864   5.724   1.458
 6563SOL    HW220589   0.735   5.748   1.361
 6564SOL     OW20590   1.434   4.629   1.791
 6564SOL    HW120591   1.449   4.579   1.706
 6564SOL    HW220592   1.354   4.689   1.781
 6565SOL     OW20593   0.111   3.066   5.167
 6565SOL    HW120594   0.089   3.060   5.069
 6565SOL    HW220595   0.194   3.012   5.186
 6566SOL     OW20596   3.358   6.647   0.940
 6566SOL    HW120597   3.443   6.698   0.929
 6566SOL    HW220598   3.373   6.571   1.003
 6567SOL     OW20599   5.334   2.791   0.697
 6567SOL    HW120600   5.328   2.824   0.791
 6567SOL    HW220601   5.314   2.866   0.634
 6568SOL     OW20602   4.600   4.502   1.819
 6568SOL    HW120603   4.565   4.438   1.887
 6568SOL    HW220604   4.673   4.458   1.767
 6569SOL     OW20605   1.895   4.503   6.983
 6569SOL    HW120606   1.937   4.436   6.922
 6569SOL    HW220607   1.848   4.456   0.033
 6570SOL     OW20608   5.516   1.697   2.140
 6570SOL    HW120609   5.536   1.744   2.226
 6570SOL    HW220610   5.504   1.765   2.067
 6571SOL     OW20611   2.629   6.182   3.974
 6571SOL    HW120612   2.686   6.250   4.022
 6571SOL    HW220613   2.680   6.147   3.896
 6572SOL     OW20614   6.778   4.314   5.687
 6572SOL    HW120615   6.748   4.229   5.644
 6572SOL    HW220616   6.748   4.392   5.632
 6573SOL     OW20617   2.758   1.329   2.310
 6573SOL    HW120618   2.855   1.324   2.287
 6573SOL    HW220619   2.739   1.270   2.389
 6574SOL     OW20620   2.709   4.740   2.945
 6574SOL    HW120621   2.652   4.785   3.014
 6574SOL    HW220622   2.655   4.723   2.863
 6575SOL     OW20623   0.984   1.477   2.166
 6575SOL    HW120624   0.916   1.523   2.223
 6575SOL    HW220625   1.076   1.499   2.200
 6576SOL     OW20626   1.077   6.031   6.494
 6576SOL    HW120627   1.113   6.063   6.582
 6576SOL    HW220628   1.064   5.932   6.498
 6577SOL     OW20629   0.417   1.774   3.882
 6577SOL    HW120630   0.424   1.689   3.830
 6577SOL    HW220631   0.421   1.852   3.819
 6578SOL     OW20632   6.394   5.521   3.668
 6578SOL    HW120633   6.445   5.482   3.745
 6578SOL    HW220634   6.311   5.564   3.703
 6579SOL     OW20635   6.483   4.117   3.126
 6579SOL    HW120636   6.569   4.146   3.082
 6579SOL    HW220637   6.496   4.112   3.225
 6580SOL     OW20638   5.465   1.319   1.871
 6580SOL    HW120639   5.515   1.404   1.855
 6580SOL    HW220640   5.498   1.248   1.810
 6581SOL     OW20641   3.985   2.295   6.708
 6581SOL    HW120642   4.014   2.329   6.619
 6581SOL    HW220643   3.915   2.225   6.696
 6582SOL     OW20644   6.600   6.843   2.720
 6582SOL    HW120645   6.546   6.846   2.636
 6582SOL    HW220646   6.693   6.874   2.702
 6583SOL     OW20647   5.278   0.891   5.771
 6583SOL    HW120648   5.191   0.942   5.770
 6583SOL    HW220649   5.277   0.827   5.847
 6584SOL     OW20650   6.022   1.957   0.088
 6584SOL    HW120651   5.966   1.889   0.041
 6584SOL    HW220652   6.080   2.004   0.022
 6585SOL     OW20653   0.917   1.869   6.709
 6585SOL    HW120654   0.859   1.804   6.661
 6585SOL    HW220655   1.011   1.834   6.714
 6586SOL     OW20656   6.339   1.956   6.081
 6586SOL    HW120657   6.378   1.996   5.998
 6586SOL    HW220658   6.365   1.860   6.088
 6587SOL     OW20659   2.123   5.892   3.688
 6587SOL    HW120660   2.160   5.823   3.625
 6587SOL    HW220661   2.027   5.909   3.666
 6588SOL     OW20662   1.705   3.018   6.699
 6588SOL    HW120663   1.691   2.922   6.675
 6588SOL    HW220664   1.642   3.044   6.772
 6589SOL     OW20665   4.645   1.409   5.948
 6589SOL    HW120666   4.712   1.371   5.884
 6589SOL    HW220667   4.617   1.499   5.917
 6590SOL     OW20668   0.082   0.974   5.212
 6590SOL    HW120669   0.153   0.913   5.247
 6590SOL    HW220670   0.011   0.987   5.281
 6591SOL     OW20671   6.272   6.925   3.402
 6591SOL    HW120672   6.208   6.899   3.473
 6591SOL    HW220673   6.228   6.918   3.312
 6592SOL     OW20674   5.032   6.521   4.254
 6592SOL    HW120675   5.024   6.443   4.316
 6592SOL    HW220676   4.947   6.573   4.256
 6593SOL     OW20677   3.626   1.796   3.275
 6593SOL    HW120678   3.596   1.736   3.200
 6593SOL    HW220679   3.582   1.767   3.360
 6594SOL     OW20680   4.920   0.588   6.990
 6594SOL    HW120681   5.012   0.612   7.022
 6594SOL    HW220682   4.895   0.499   0.003
 6595SOL     OW20683   1.635   3.810   0.849
 6595SOL    HW120684   1.659   3.831   0.944
 6595SOL    HW220685   1.581   3.886   0.811
 6596SOL     OW20686   4.455   6.904   5.105
 6596SOL    HW120687   4.542   6.933   5.064
 6596SOL    HW220688   4.391   6.878   5.032
 6597SOL     OW20689   0.209   5.986   4.787
 6597SOL    HW120690   0.217   5.886   4.780
 6597SOL    HW220691   0.115   6.014   4.768
 6598SOL     OW20692   1.748   5.929   5.242
 6598SOL    HW120693   1.809   5.858   5.276
 6598SOL    HW220694   1.776   6.018   5.280
 6599SOL     OW20695   4.361   5.519   6.038
 6599SOL    HW120696   4.267   5.523   6.071
 6599SOL    HW220697   4.375   5.433   5.988
 6600SOL     OW20698   4.748   5.768   4.061
 6600SOL    HW120699   4.811   5.711   4.115
 6600SOL    HW220700   4.776   5.767   3.965
 6601SOL     OW20701   0.700   0.460   0.266
 6601SOL    HW120702   0.663   0.478   0.175
 6601SOL    HW220703   0.777   0.397   0.259
 6602SOL     OW20704   6.743   1.368   1.600
 6602SOL    HW120705   6.784   1.286   1.641
 6602SOL    HW220706   6.677   1.408   1.664
 6603SOL     OW20707   2.165   3.750   3.069
 6603SOL    HW120708   2.159   3.809   3.149
 6603SOL    HW220709   2.201   3.803   2.992
 6604SOL     OW20710   3.058   5.389   2.732
 6604SOL    HW120711   3.021   5.385   2.825
 6604SOL    HW220712   2.984   5.408   2.667
 6605SOL     OW20713   5.720   5.788   0.131
 6605SOL    HW120714   5.762   5.875   0.106
 6605SOL    HW220715   5.660   5.757   0.057
 6606SOL     OW20716   5.658   0.822   2.190
 6606SOL    HW120717   5.742   0.876   2.181
 6606SOL    HW220718   5.579   0.880   2.172
 6607SOL     OW20719   2.073   1.252   1.879
 6607SOL    HW120720   2.157   1.289   1.839
 6607SOL    HW220721   2.022   1.327   1.922
 6608SOL     OW20722   5.613   3.871   4.002
 6608SOL    HW120723   5.577   3.964   3.996
 6608SOL    HW220724   5.538   3.808   4.021
 6609SOL     OW20725   5.336   0.857   6.448
 6609SOL    HW120726   5.248   0.819   6.418
 6609SOL    HW220727   5.343   0.848   6.548
 6610SOL     OW20728   2.370   0.769   0.540
 6610SOL    HW120729   2.348   0.853   0.590
 6610SOL    HW220730   2.294   0.705   0.548
 6611SOL     OW20731   5.986   2.193   3.284
 6611SOL    HW120732   5.976   2.208   3.382
 6611SOL    HW220733   5.966   2.278   3.235
 6612SOL     OW20734   1.438   6.490   0.276
 6612SOL    HW120735   1.440   6.546   0.194
 6612SOL    HW220736   1.448   6.548   0.357
 6613SOL     OW20737   5.066   4.942   2.349
 6613SOL    HW120738   5.068   4.924   2.448
 6613SOL    HW220739   5.133   5.012   2.327
 6614SOL     OW20740   5.025   5.831   6.186
 6614SOL    HW120741   4.998   5.738   6.159
 6614SOL    HW220742   5.083   5.826   6.268
 6615SOL     OW20743   0.650   3.995   5.380
 6615SOL    HW120744   0.634   4.020   5.284
 6615SOL    HW220745   0.674   3.899   5.385
 6616SOL     OW20746   5.185   1.533   5.095
 6616SOL    HW120747   5.280   1.514   5.121
 6616SOL    HW220748   5.172   1.511   4.998
 6617SOL     OW20749   2.919   6.650   4.734
 6617SOL    HW120750   2.901   6.591   4.656
 6617SOL    HW220751   2.843   6.714   4.746
 6618SOL     OW20752   1.202   4.615   2.007
 6618SOL    HW120753   1.247   4.665   1.933
 6618SOL    HW220754   1.108   4.595   1.982
 6619SOL     OW20755   4.647   5.919   3.070
 6619SOL    HW120756   4.557   5.929   3.026
 6619SOL    HW220757   4.697   6.005   3.062
 6620SOL     OW20758   1.123   2.851   6.111
 6620SOL    HW120759   1.213   2.812   6.132
 6620SOL    HW220760   1.125   2.949   6.127
 6621SOL     OW20761   2.593   4.525   0.019
 6621SOL    HW120762   2.615   4.484   6.954
 6621SOL    HW220763   2.592   4.625   0.010
 6622SOL     OW20764   6.183   5.834   0.383
 6622SOL    HW120765   6.188   5.932   0.403
 6622SOL    HW220766   6.259   5.787   0.430
 6623SOL     OW20767   3.285   2.933   2.281
 6623SOL    HW120768   3.208   2.922   2.217
 6623SOL    HW220769   3.366   2.960   2.230
 6624SOL     OW20770   4.344   5.452   4.431
 6624SOL    HW120771   4.254   5.461   4.474
 6624SOL    HW220772   4.396   5.536   4.445
 6625SOL     OW20773   6.434   0.198   6.569
 6625SOL    HW120774   6.454   0.106   6.603
 6625SOL    HW220775   6.498   0.222   6.497
 6626SOL     OW20776   3.193   5.356   3.256
 6626SOL    HW120777   3.216   5.356   3.353
 6626SOL    HW220778   3.109   5.408   3.242
 6627SOL     OW20779   1.863   0.880   6.870
 6627SOL    HW120780   1.956   0.912   6.890
 6627SOL    HW220781   1.828   0.928   6.790
 6628SOL     OW20782   4.279   5.735   2.730
 6628SOL    HW120783   4.346   5.808   2.722
 6628SOL    HW220784   4.309   5.656   2.676
 6629SOL     OW20785   3.678   5.639   1.076
 6629SOL    HW120786   3.742   5.713   1.056
 6629SOL    HW220787   3.673   5.578   0.997
 6630SOL     OW20788   3.129   2.149   0.387
 6630SOL    HW120789   3.164   2.131   0.479
 6630SOL    HW220790   3.146   2.070   0.328
 6631SOL     OW20791   4.970   0.617   2.493
 6631SOL    HW120792   4.977   0.565   2.408
 6631SOL    HW220793   4.988   0.557   2.570
 6632SOL     OW20794   0.098   0.706   0.160
 6632SOL    HW120795   0.150   0.704   0.245
 6632SOL    HW220796   0.142   0.645   0.094
 6633SOL     OW20797   1.789   6.381   0.733
 6633SOL    HW120798   1.776   6.297   0.786
 6633SOL    HW220799   1.709   6.396   0.674
 6634SOL     OW20800   6.288   2.881   5.769
 6634SOL    HW120801   6.371   2.838   5.805
 6634SOL    HW220802   6.274   2.969   5.813
 6635SOL     OW20803   4.496   5.090   4.030
 6635SOL    HW120804   4.527   5.152   3.958
 6635SOL    HW220805   4.574   5.060   4.085
 6636SOL     OW20806   1.501   2.745   4.334
 6636SOL    HW120807   1.421   2.779   4.382
 6636SOL    HW220808   1.473   2.703   4.248
 6637SOL     OW20809   0.454   7.002   0.615
 6637SOL    HW120810   0.464   6.904   0.600
 6637SOL    HW220811   0.504   0.005   0.698
 6638SOL     OW20812   2.219   6.030   5.767
 6638SOL    HW120813   2.178   5.971   5.698
 6638SOL    HW220814   2.255   6.113   5.723
 6639SOL     OW20815   5.990   4.968   6.849
 6639SOL    HW120816   6.037   5.053   6.872
 6639SOL    HW220817   6.044   4.890   6.881
 6640SOL     OW20818   6.696   2.253   3.619
 6640SOL    HW120819   6.784   2.206   3.614
 6640SOL    HW220820   6.643   2.234   3.536
 6641SOL     OW20821   1.880   4.057   6.238
 6641SOL    HW120822   1.898   4.073   6.141
 6641SOL    HW220823   1.967   4.052   6.288
 6642SOL     OW20824   1.001   6.108   6.081
 6642SOL    HW120825   0.928   6.100   6.149
 6642SOL    HW220826   0.961   6.114   5.989
 6643SOL     OW20827   5.552   4.246   6.210
 6643SOL    HW120828   5.616   4.234   6.285
 6643SOL    HW220829   5.460   4.220   6.239
 6644SOL     OW20830   2.984   4.838   2.025
 6644SOL    HW120831   2.919   4.767   2.001
 6644SOL    HW220832   3.021   4.820   2.116
 6645SOL     OW20833   0.071   4.703   5.888
 6645SOL    HW120834   0.101   4.610   5.866
 6645SOL    HW220835   0.030   4.746   5.808
 6646SOL     OW20836   2.818   5.749   4.127
 6646SOL    HW120837   2.823   5.849   4.132
 6646SOL    HW220838   2.722   5.721   4.130
 6647SOL     OW20839   3.238   1.210   2.229
 6647SOL    HW120840   3.252   1.127   2.283
 6647SOL    HW220841   3.188   1.187   2.145
 6648SOL     OW20842   4.836   6.025   2.570
 6648SOL    HW120843   4.836   5.984   2.661
 6648SOL    HW220844   4.750   6.075   2.556
 6649SOL     OW20845   4.672   1.779   6.388
 6649SOL    HW120846   4.769   1.764   6.372
 6649SOL    HW220847   4.623   1.779   6.302
 6650SOL     OW20848   4.085   1.189   4.282
 6650SOL    HW120849   4.019   1.128   4.238
 6650SOL    HW220850   4.070   1.189   4.381
 6651SOL     OW20851   0.616   2.612   6.938
 6651SOL    HW120852   0.609   2.555   6.856
 6651SOL    HW220853   0.712   2.621   6.964
 6652SOL     OW20854   0.677   5.903   1.832
 6652SOL    HW120855   0.620   5.958   1.893
 6652SOL    HW220856   0.632   5.815   1.814
 6653SOL     OW20857   3.989   3.905   3.899
 6653SOL    HW120858   3.976   3.961   3.817
 6653SOL    HW220859   3.989   3.808   3.874
 6654SOL     OW20860   2.249   3.284   1.695
 6654SOL    HW120861   2.225   3.197   1.737
 6654SOL    HW220862   2.285   3.346   1.765
 6655SOL     OW20863   2.800   6.505   1.936
 6655SOL    HW120864   2.880   6.478   1.989
 6655SOL    HW220865   2.764   6.426   1.887
 6656SOL     OW20866   6.461   1.183   1.440
 6656SOL    HW120867   6.540   1.236   1.470
 6656SOL    HW220868   6.452   1.191   1.340
 6657SOL     OW20869   3.470   6.497   6.808
 6657SOL    HW120870   3.469   6.397   6.809
 6657SOL    HW220871   3.564   6.530   6.799
 6658SOL     OW20872   6.061   1.401   4.859
 6658SOL    HW120873   6.044   1.373   4.764
 6658SOL    HW220874   6.146   1.452   4.863
 6659SOL     OW20875   2.345   3.623   0.351
 6659SOL    HW120876   2.365   3.647   0.446
 6659SOL    HW220877   2.325   3.525   0.345
 6660SOL     OW20878   6.992   6.719   2.761
 6660SOL    HW120879   6.967   6.764   2.676
 6660SOL    HW220880   0.014   6.784   2.821
 6661SOL     OW20881   6.864   5.437   4.085
 6661SOL    HW120882   6.928   5.514   4.080
 6661SOL    HW220883   6.830   5.416   3.994
 6662SOL     OW20884   2.223   1.706   0.325
 6662SOL    HW120885   2.178   1.618   0.309
 6662SOL    HW220886   2.319   1.691   0.344
 6663SOL     OW20887   0.568   5.953   2.141
 6663SOL    HW120888   0.624   6.034   2.127
 6663SOL    HW220889   0.481   5.963   2.094
 6664SOL     OW20890   1.746   0.697   2.340
 6664SOL    HW120891   1.752   0.621   2.405
 6664SOL    HW220892   1.820   0.691   2.274
 6665SOL     OW20893   1.852   6.006   3.014
 6665SOL    HW120894   1.774   6.005   2.951
 6665SOL    HW220895   1.935   5.980   2.965
 6666SOL     OW20896   6.246   0.979   6.147
 6666SOL    HW120897   6.239   0.880   6.162
 6666SOL    HW220898   6.342   1.004   6.132
 6667SOL     OW20899   6.980   5.119   5.354
 6667SOL    HW120900   0.003   5.201   5.319
 6667SOL    HW220901   0.016   5.074   5.421
 6668SOL     OW20902   0.948   4.498   1.950
 6668SOL    HW120903   0.858   4.492   1.994
 6668SOL    HW220904   0.966   4.413   1.900
 6669SOL     OW20905   1.951   5.844   3.260
 6669SOL    HW120906   1.980   5.933   3.296
 6669SOL    HW220907   1.911   5.857   3.169
 6670SOL     OW20908   3.001   5.200   6.598
 6670SOL    HW120909   3.099   5.212   6.618
 6670SOL    HW220910   2.961   5.290   6.579
 6671SOL     OW20911   6.514   3.594   6.103
 6671SOL    HW120912   6.588   3.532   6.127
 6671SOL    HW220913   6.503   3.595   6.004
 6672SOL     OW20914   0.997   0.578   5.709
 6672SOL    HW120915   1.097   0.573   5.718
 6672SOL    HW220916   0.971   0.551   5.617
 6673SOL     OW20917   4.880   4.977   2.133
 6673SOL    HW120918   4.839   5.068   2.142
 6673SOL    HW220919   4.932   4.955   2.216
 6674SOL     OW20920   1.022   6.549   5.037
 6674SOL    HW120921   0.977   6.540   5.126
 6674SOL    HW220922   1.010   6.641   5.002
 6675SOL     OW20923   5.847   4.535   0.331
 6675SOL    HW120924   5.811   4.616   0.285
 6675SOL    HW220925   5.809   4.530   0.424
 6676SOL     OW20926   0.604   2.637   5.808
 6676SOL    HW120927   0.618   2.542   5.834
 6676SOL    HW220928   0.676   2.694   5.848
 6677SOL     OW20929   0.330   2.921   0.427
 6677SOL    HW120930   0.300   2.952   0.517
 6677SOL    HW220931   0.314   2.994   0.360
 6678SOL     OW20932   0.884   2.821   6.252
 6678SOL    HW120933   0.969   2.813   6.199
 6678SOL    HW220934   0.889   2.761   6.332
 6679SOL     OW20935   1.485   2.693   4.884
 6679SOL    HW120936   1.571   2.686   4.834
 6679SOL    HW220937   1.455   2.602   4.913
 6680SOL     OW20938   3.736   6.686   6.451
 6680SOL    HW120939   3.721   6.785   6.451
 6680SOL    HW220940   3.833   6.667   6.435
 6681SOL     OW20941   5.068   5.390   0.472
 6681SOL    HW120942   5.128   5.377   0.552
 6681SOL    HW220943   5.012   5.472   0.486
 6682SOL     OW20944   0.490   5.497   2.629
 6682SOL    HW120945   0.553   5.514   2.554
 6682SOL    HW220946   0.399   5.477   2.593
 6683SOL     OW20947   4.998   1.786   5.161
 6683SOL    HW120948   5.082   1.824   5.200
 6683SOL    HW220949   4.998   1.687   5.171
 6684SOL     OW20950   1.193   0.172   2.298
 6684SOL    HW120951   1.293   0.160   2.295
 6684SOL    HW220952   1.167   0.211   2.386
 6685SOL     OW20953   5.519   3.502   6.387
 6685SOL    HW120954   5.432   3.512   6.339
 6685SOL    HW220955   5.588   3.466   6.323
 6686SOL     OW20956   5.932   3.792   3.547
 6686SOL    HW120957   5.860   3.862   3.550
 6686SOL    HW220958   6.021   3.836   3.540
 6687SOL     OW20959   1.514   1.741   1.014
 6687SOL    HW120960   1.427   1.778   0.980
 6687SOL    HW220961   1.515   1.744   1.114
 6688SOL     OW20962   0.448   4.482   2.604
 6688SOL    HW120963   0.422   4.501   2.510
 6688SOL    HW220964   0.374   4.432   2.650
 6689SOL     OW20965   5.110   4.210   6.977
 6689SOL    HW120966   5.139   4.295   7.020
 6689SOL    HW220967   5.045   4.163   0.013
 6690SOL     OW20968   2.202   3.469   1.145
 6690SOL    HW120969   2.166   3.466   1.051
 6690SOL    HW220970   2.167   3.391   1.197
 6691SOL     OW20971   2.647   5.470   1.812
 6691SOL    HW120972   2.731   5.516   1.840
 6691SOL    HW220973   2.670   5.393   1.752
 6692SOL     OW20974   3.033   4.207   5.255
 6692SOL    HW120975   3.067   4.201   5.349
 6692SOL    HW220976   3.012   4.303   5.234
 6693SOL     OW20977   4.471   3.699   5.524
 6693SOL    HW120978   4.469   3.648   5.610
 6693SOL    HW220979   4.420   3.649   5.454
 6694SOL     OW20980   4.528   6.175   0.545
 6694SOL    HW120981   4.559   6.138   0.458
 6694SOL    HW220982   4.607   6.202   0.600
 6695SOL     OW20983   1.140   1.695   6.721
 6695SOL    HW120984   1.202   1.735   6.789
 6695SOL    HW220985   1.087   1.621   6.763
 6696SOL     OW20986   1.984   3.511   1.830
 6696SOL    HW120987   2.048   3.501   1.907
 6696SOL    HW220988   1.975   3.422   1.784
 6697SOL     OW20989   4.294   1.541   2.836
 6697SOL    HW120990   4.218   1.606   2.833
 6697SOL    HW220991   4.327   1.533   2.930
 6698SOL     OW20992   4.142   3.448   6.718
 6698SOL    HW120993   4.049   3.482   6.727
 6698SOL    HW220994   4.153   3.366   6.775
 6699SOL     OW20995   2.212   4.979   0.030
 6699SOL    HW120996   2.213   4.881   0.009
 6699SOL    HW220997   2.156   4.996   0.111
 6700SOL     OW20998   7.019   6.157   0.941
 6700SOL    HW120999   0.062   6.231   0.931
 6700SOL    HW221000   0.038   6.081   0.991
 6701SOL     OW21001   0.374   1.733   0.702
 6701SOL    HW121002   0.357   1.824   0.739
 6701SOL    HW221003   0.445   1.738   0.632
 6702SOL     OW21004   2.469   1.463   1.096
 6702SOL    HW121005   2.375   1.489   1.122
 6702SOL    HW221006   2.478   1.466   0.997
 6703SOL     OW21007   6.909   1.578   6.753
 6703SOL    HW121008   6.936   1.633   6.674
 6703SOL    HW221009   6.818   1.605   6.784
 6704SOL     OW21010   4.585   2.644   2.586
 6704SOL    HW121011   4.658   2.698   2.543
 6704SOL    HW221012   4.604   2.634   2.684
 6705SOL     OW21013   6.235   2.377   0.917
 6705SOL    HW121014   6.222   2.319   0.836
 6705SOL    HW221015   6.328   2.367   0.951
 6706SOL     OW21016   0.901   4.076   6.554
 6706SOL    HW121017   0.930   4.023   6.634
 6706SOL    HW221018   0.941   4.035   6.472
 6707SOL     OW21019   0.804   5.408   3.643
 6707SOL    HW121020   0.872   5.369   3.705
 6707SOL    HW221021   0.747   5.335   3.605
 6708SOL     OW21022   2.377   6.046   2.031
 6708SOL    HW121023   2.328   6.111   1.972
 6708SOL    HW221024   2.329   6.038   2.118
 6709SOL     OW21025   3.996   1.178   1.902
 6709SOL    HW121026   4.053   1.161   1.822
 6709SOL    HW221027   3.971   1.091   1.945
 6710SOL     OW21028   3.277   2.702   0.078
 6710SOL    HW121029   3.274   2.700   0.178
 6710SOL    HW221030   3.194   2.746   0.043
 6711SOL     OW21031   4.056   3.837   0.361
 6711SOL    HW121032   4.000   3.757   0.339
 6711SOL    HW221033   4.132   3.844   0.296
 6712SOL     OW21034   3.589   6.064   0.398
 6712SOL    HW121035   3.610   6.026   0.308
 6712SOL    HW221036   3.607   5.994   0.468
 6713SOL     OW21037   1.514   2.422   1.814
 6713SOL    HW121038   1.566   2.484   1.872
 6713SOL    HW221039   1.577   2.367   1.760
 6714SOL     OW21040   5.628   0.534   4.140
 6714SOL    HW121041   5.700   0.556   4.074
 6714SOL    HW221042   5.544   0.580   4.114
 6715SOL     OW21043   0.345   1.096   0.595
 6715SOL    HW121044   0.271   1.160   0.615
 6715SOL    HW221045   0.313   1.026   0.531
 6716SOL     OW21046   2.365   5.490   1.437
 6716SOL    HW121047   2.341   5.534   1.524
 6716SOL    HW221048   2.307   5.526   1.364
 6717SOL     OW21049   4.558   2.163   0.516
 6717SOL    HW121050   4.576   2.153   0.418
 6717SOL    HW221051   4.596   2.084   0.565
 6718SOL     OW21052   2.857   0.408   0.611
 6718SOL    HW121053   2.894   0.436   0.523
 6718SOL    HW221054   2.768   0.365   0.598
 6719SOL     OW21055   6.949   6.272   5.710
 6719SOL    HW121056   6.878   6.268   5.639
 6719SOL    HW221057   6.972   6.368   5.728
 6720SOL     OW21058   1.973   5.425   1.305
 6720SOL    HW121059   1.956   5.340   1.355
 6720SOL    HW221060   2.038   5.408   1.231
 6721SOL     OW21061   5.342   6.755   3.630
 6721SOL    HW121062   5.242   6.754   3.632
 6721SOL    HW221063   5.376   6.793   3.716
 6722SOL     OW21064   4.625   3.503   6.513
 6722SOL    HW121065   4.588   3.578   6.567
 6722SOL    HW221066   4.571   3.420   6.531
 6723SOL     OW21067   3.722   6.699   3.547
 6723SOL    HW121068   3.626   6.671   3.544
 6723SOL    HW221069   3.776   6.626   3.589
 6724SOL     OW21070   3.160   4.510   5.345
 6724SOL    HW121071   3.205   4.422   5.357
 6724SOL    HW221072   3.084   4.500   5.280
 6725SOL     OW21073   0.831   5.223   2.638
 6725SOL    HW121074   0.851   5.316   2.670
 6725SOL    HW221075   0.837   5.220   2.539
 6726SOL     OW21076   2.638   2.222   3.855
 6726SOL    HW121077   2.576   2.270   3.918
 6726SOL    HW221078   2.632   2.264   3.764
 6727SOL     OW21079   4.183   3.325   6.153
 6727SOL    HW121080   4.275   3.287   6.151
 6727SOL    HW221081   4.182   3.407   6.211
 6728SOL     OW21082   3.962   1.678   3.691
 6728SOL    HW121083   4.036   1.616   3.719
 6728SOL    HW221084   3.892   1.679   3.763
 6729SOL     OW21085   5.624   1.068   3.223
 6729SOL    HW121086   5.710   1.105   3.260
 6729SOL    HW221087   5.565   1.143   3.195
 6730SOL     OW21088   2.368   1.192   7.016
 6730SOL    HW121089   2.277   1.159   0.017
 6730SOL    HW221090   2.361   1.260   6.943
 6731SOL     OW21091   2.666   4.978   1.606
 6731SOL    HW121092   2.574   5.017   1.609
 6731SOL    HW221093   2.699   4.962   1.699
 6732SOL     OW21094   2.797   5.868   0.669
 6732SOL    HW121095   2.711   5.860   0.617
 6732SOL    HW221096   2.866   5.809   0.628
 6733SOL     OW21097   5.553   5.906   4.923
 6733SOL    HW121098   5.599   5.837   4.979
 6733SOL    HW221099   5.509   5.973   4.982
 6734SOL     OW21100   2.487   3.319   5.605
 6734SOL    HW121101   2.476   3.276   5.515
 6734SOL    HW221102   2.471   3.252   5.676
 6735SOL     OW21103   6.541   5.434   5.667
 6735SOL    HW121104   6.446   5.418   5.691
 6735SOL    HW221105   6.569   5.524   5.699
 6736SOL     OW21106   2.076   3.331   2.157
 6736SOL    HW121107   2.081   3.233   2.143
 6736SOL    HW221108   2.123   3.378   2.082
 6737SOL     OW21109   1.959   0.892   1.915
 6737SOL    HW121110   1.970   0.868   1.818
 6737SOL    HW221111   2.031   0.957   1.941
 6738SOL     OW21112   3.283   0.979   2.379
 6738SOL    HW121113   3.343   0.919   2.433
 6738SOL    HW221114   3.190   0.973   2.413
 6739SOL     OW21115   3.670   6.367   4.762
 6739SOL    HW121116   3.609   6.297   4.800
 6739SOL    HW221117   3.627   6.409   4.682
 6740SOL     OW21118   1.234   1.564   4.199
 6740SOL    HW121119   1.293   1.563   4.119
 6740SOL    HW221120   1.168   1.489   4.193
 6741SOL     OW21121   6.553   6.941   6.383
 6741SOL    HW121122   6.521   6.986   6.300
 6741SOL    HW221123   6.653   6.950   6.388
 6742SOL     OW21124   6.198   5.377   5.339
 6742SOL    HW121125   6.113   5.383   5.390
 6742SOL    HW221126   6.191   5.305   5.270
 6743SOL     OW21127   4.427   3.371   1.147
 6743SOL    HW121128   4.346   3.359   1.089
 6743SOL    HW221129   4.489   3.294   1.132
 6744SOL     OW21130   4.585   4.429   5.695
 6744SOL    HW121131   4.527   4.501   5.733
 6744SOL    HW221132   4.678   4.463   5.685
 6745SOL     OW21133   1.138   4.632   4.194
 6745SOL    HW121134   1.232   4.616   4.224
 6745SOL    HW221135   1.137   4.660   4.098
 6746SOL     OW21136   0.228   1.869   1.003
 6746SOL    HW121137   0.251   1.772   1.007
 6746SOL    HW221138   0.146   1.882   0.947
 6747SOL     OW21139   5.448   6.117   5.370
 6747SOL    HW121140   5.402   6.033   5.397
 6747SOL    HW221141   5.402   6.156   5.290
 6748SOL     OW21142   0.962   0.128   2.204
 6748SOL    HW121143   0.915   0.213   2.180
 6748SOL    HW221144   1.050   0.150   2.248
 6749SOL     OW21145   4.406   6.732   0.181
 6749SOL    HW121146   4.502   6.735   0.208
 6749SOL    HW221147   4.362   6.819   0.202
 6750SOL     OW21148   2.766   3.086   5.331
 6750SOL    HW121149   2.738   3.052   5.421
 6750SOL    HW221150   2.695   3.065   5.264
 6751SOL     OW21151   2.828   1.885   5.116
 6751SOL    HW121152   2.759   1.938   5.165
 6751SOL    HW221153   2.877   1.944   5.052
 6752SOL     OW21154   6.087   2.166   0.507
 6752SOL    HW121155   6.185   2.147   0.517
 6752SOL    HW221156   6.074   2.237   0.439
 6753SOL     OW21157   4.580   2.328   6.488
 6753SOL    HW121158   4.671   2.350   6.522
 6753SOL    HW221159   4.578   2.234   6.453
 6754SOL     OW21160   6.252   0.846   6.713
 6754SOL    HW121161   6.302   0.927   6.682
 6754SOL    HW221162   6.312   0.791   6.771
 6755SOL     OW21163   5.032   1.957   3.804
 6755SOL    HW121164   5.091   1.877   3.795
 6755SOL    HW221165   4.941   1.928   3.835
 6756SOL     OW21166   5.096   4.863   4.518
 6756SOL    HW121167   5.110   4.961   4.533
 6756SOL    HW221168   5.129   4.839   4.427
 6757SOL     OW21169   5.889   5.788   1.940
 6757SOL    HW121170   5.800   5.763   1.976
 6757SOL    HW221171   5.897   5.888   1.937
 6758SOL     OW21172   4.710   2.352   2.140
 6758SOL    HW121173   4.796   2.381   2.097
 6758SOL    HW221174   4.654   2.432   2.160
 6759SOL     OW21175   0.278   4.605   3.078
 6759SOL    HW121176   0.226   4.576   3.159
 6759SOL    HW221177   0.215   4.632   3.006
 6760SOL     OW21178   6.507   3.937   4.354
 6760SOL    HW121179   6.445   3.955   4.431
 6760SOL    HW221180   6.537   4.024   4.314
 6761SOL     OW21181   4.929   3.131   6.276
 6761SOL    HW121182   5.017   3.158   6.314
 6761SOL    HW221183   4.857   3.189   6.313
 6762SOL     OW21184   6.440   4.683   4.165
 6762SOL    HW121185   6.484   4.768   4.192
 6762SOL    HW221186   6.408   4.690   4.071
 6763SOL     OW21187   5.867   6.358   5.877
 6763SOL    HW121188   5.880   6.452   5.845
 6763SOL    HW221189   5.939   6.337   5.944
 6764SOL     OW21190   2.103   4.158   6.422
 6764SOL    HW121191   2.057   4.242   6.395
 6764SOL    HW221192   2.201   4.165   6.403
 6765SOL     OW21193   5.572   5.071   2.855
 6765SOL    HW121194   5.598   4.977   2.879
 6765SOL    HW221195   5.555   5.123   2.938
 6766SOL     OW21196   1.901   0.654   5.675
 6766SOL    HW121197   1.998   0.677   5.668
 6766SOL    HW221198   1.870   0.673   5.768
 6767SOL     OW21199   6.850   2.579   6.636
 6767SOL    HW121200   6.878   2.672   6.611
 6767SOL    HW221201   6.880   2.515   6.565
 6768SOL     OW21202   0.205   0.132   4.751
 6768SOL    HW121203   0.196   0.224   4.787
 6768SOL    HW221204   0.220   0.068   4.827
 6769SOL     OW21205   1.811   2.945   6.040
 6769SOL    HW121206   1.825   2.998   5.956
 6769SOL    HW221207   1.820   3.005   6.119
 6770SOL     OW21208   0.879   1.314   3.249
 6770SOL    HW121209   0.811   1.295   3.178
 6770SOL    HW221210   0.859   1.402   3.291
 6771SOL     OW21211   4.124   1.882   3.013
 6771SOL    HW121212   4.179   1.826   3.074
 6771SOL    HW221213   4.184   1.940   2.957
 6772SOL     OW21214   0.059   1.091   1.160
 6772SOL    HW121215   6.997   1.074   1.112
 6772SOL    HW221216   0.107   1.004   1.174
 6773SOL     OW21217   1.646   6.449   1.577
 6773SOL    HW121218   1.551   6.429   1.601
 6773SOL    HW221219   1.653   6.472   1.480
 6774SOL     OW21220   2.594   2.545   5.695
 6774SOL    HW121221   2.625   2.567   5.603
 6774SOL    HW221222   2.651   2.473   5.734
 6775SOL     OW21223   0.473   2.141   4.646
 6775SOL    HW121224   0.572   2.128   4.648
 6775SOL    HW221225   0.448   2.223   4.698
 6776SOL     OW21226   3.906   3.935   2.860
 6776SOL    HW121227   3.984   3.905   2.805
 6776SOL    HW221228   3.923   3.914   2.956
 6777SOL     OW21229   5.880   5.781   6.921
 6777SOL    HW121230   5.950   5.805   6.988
 6777SOL    HW221231   5.865   5.682   6.923
 6778SOL     OW21232   5.994   5.578   2.108
 6778SOL    HW121233   5.965   5.614   2.019
 6778SOL    HW221234   5.967   5.482   2.116
 6779SOL     OW21235   5.059   3.301   6.060
 6779SOL    HW121236   5.084   3.213   6.020
 6779SOL    HW221237   5.003   3.285   6.141
 6780SOL     OW21238   3.478   2.120   3.278
 6780SOL    HW121239   3.413   2.087   3.210
 6780SOL    HW221240   3.570   2.121   3.239
 6781SOL     OW21241   6.668   1.727   3.552
 6781SOL    HW121242   6.670   1.633   3.585
 6781SOL    HW221243   6.760   1.767   3.555
 6782SOL     OW21244   6.735   1.412   3.222
 6782SOL    HW121245   6.789   1.489   3.256
 6782SOL    HW221246   6.651   1.446   3.180
 6783SOL     OW21247   1.232   4.545   5.646
 6783SOL    HW121248   1.217   4.643   5.632
 6783SOL    HW221249   1.324   4.530   5.683
 6784SOL     OW21250   2.261   3.934   1.763
 6784SOL    HW121251   2.265   3.968   1.669
 6784SOL    HW221252   2.277   3.835   1.764
 6785SOL     OW21253   5.535   5.192   4.371
 6785SOL    HW121254   5.607   5.140   4.325
 6785SOL    HW221255   5.501   5.139   4.449
 6786SOL     OW21256   5.904   1.625   6.097
 6786SOL    HW121257   6.003   1.644   6.098
 6786SOL    HW221258   5.855   1.705   6.062
 6787SOL     OW21259   3.195   2.120   6.883
 6787SOL    HW121260   3.281   2.169   6.864
 6787SOL    HW221261   3.216   2.031   6.923
 6788SOL     OW21262   0.285   4.104   2.157
 6788SOL    HW121263   0.197   4.060   2.137
 6788SOL    HW221264   0.311   4.086   2.251
 6789SOL     OW21265   4.820   4.565   3.268
 6789SOL    HW121266   4.886   4.639   3.279
 6789SOL    HW221267   4.807   4.518   3.355
 6790SOL     OW21268   0.862   5.136   6.276
 6790SOL    HW121269   0.848   5.221   6.226
 6790SOL    HW221270   0.927   5.078   6.225
 6791SOL     OW21271   2.831   0.194   3.041
 6791SOL    HW121272   2.830   0.101   3.005
 6791SOL    HW221273   2.820   0.192   3.141
 6792SOL     OW21274   3.851   0.032   5.311
 6792SOL    HW121275   3.765   7.009   5.286
 6792SOL    HW221276   3.902   6.998   5.374
 6793SOL     OW21277   1.855   3.121   6.242
 6793SOL    HW121278   1.949   3.142   6.269
 6793SOL    HW221279   1.799   3.204   6.252
 6794SOL     OW21280   5.688   1.976   5.346
 6794SOL    HW121281   5.729   2.029   5.271
 6794SOL    HW221282   5.639   1.897   5.309
 6795SOL     OW21283   1.176   0.392   1.510
 6795SOL    HW121284   1.243   0.318   1.520
 6795SOL    HW221285   1.199   0.446   1.430
 6796SOL     OW21286   6.092   2.011   2.815
 6796SOL    HW121287   6.093   2.111   2.817
 6796SOL    HW221288   6.022   1.980   2.751
 6797SOL     OW21289   0.710   2.713   1.345
 6797SOL    HW121290   0.683   2.617   1.345
 6797SOL    HW221291   0.782   2.727   1.276
 6798SOL     OW21292   5.766   6.979   2.007
 6798SOL    HW121293   5.833   0.024   2.032
 6798SOL    HW221294   5.690   7.023   1.958
 6799SOL     OW21295   6.598   0.414   3.611
 6799SOL    HW121296   6.665   0.482   3.583
 6799SOL    HW221297   6.561   0.438   3.701
 6800SOL     OW21298   6.398   2.805   1.306
 6800SOL    HW121299   6.398   2.889   1.360
 6800SOL    HW221300   6.305   2.769   1.302
 6801SOL     OW21301   1.044   6.942   6.410
 6801SOL    HW121302   1.024   6.848   6.384
 6801SOL    HW221303   1.037   6.952   6.510
 6802SOL     OW21304   3.338   4.906   2.298
 6802SOL    HW121305   3.303   4.999   2.308
 6802SOL    HW221306   3.301   4.865   2.214
 6803SOL     OW21307   5.379   4.994   6.108
 6803SOL    HW121308   5.450   4.974   6.041
 6803SOL    HW221309   5.362   4.912   6.163
 6804SOL     OW21310   3.831   4.921   2.737
 6804SOL    HW121311   3.770   4.977   2.793
 6804SOL    HW221312   3.789   4.903   2.648
 6805SOL     OW21313   0.074   4.859   4.642
 6805SOL    HW121314   0.011   4.929   4.677
 6805SOL    HW221315   0.144   4.903   4.586
 6806SOL     OW21316   6.508   2.808   1.692
 6806SOL    HW121317   6.457   2.723   1.706
 6806SOL    HW221318   6.530   2.819   1.595
 6807SOL     OW21319   3.347   4.091   1.853
 6807SOL    HW121320   3.361   4.107   1.950
 6807SOL    HW221321   3.313   4.174   1.809
 6808SOL     OW21322   3.123   1.242   4.398
 6808SOL    HW121323   3.063   1.245   4.318
 6808SOL    HW221324   3.120   1.331   4.445
 6809SOL     OW21325   5.849   3.445   0.081
 6809SOL    HW121326   5.864   3.388   7.023
 6809SOL    HW221327   5.754   3.475   0.083
 6810SOL     OW21328   2.763   0.530   4.884
 6810SOL    HW121329   2.768   0.608   4.822
 6810SOL    HW221330   2.748   0.447   4.831
 6811SOL     OW21331   6.212   1.536   0.415
 6811SOL    HW121332   6.219   1.437   0.398
 6811SOL    HW221333   6.247   1.586   0.335
 6812SOL     OW21334   3.756   4.202   5.253
 6812SOL    HW121335   3.703   4.248   5.182
 6812SOL    HW221336   3.694   4.167   5.323
 6813SOL     OW21337   6.444   3.392   2.344
 6813SOL    HW121338   6.391   3.474   2.321
 6813SOL    HW221339   6.409   3.314   2.293
 6814SOL     OW21340   5.857   0.746   6.729
 6814SOL    HW121341   5.921   0.671   6.743
 6814SOL    HW221342   5.906   0.829   6.705
 6815SOL     OW21343   1.247   4.990   5.901
 6815SOL    HW121344   1.309   4.969   5.977
 6815SOL    HW221345   1.252   5.088   5.881
 6816SOL     OW21346   0.061   0.343   3.439
 6816SOL    HW121347   0.136   0.336   3.373
 6816SOL    HW221348   0.043   0.440   3.459
 6817SOL     OW21349   4.024   2.052   1.373
 6817SOL    HW121350   4.015   2.031   1.275
 6817SOL    HW221351   3.974   2.136   1.393
 6818SOL     OW21352   1.591   6.863   5.683
 6818SOL    HW121353   1.589   6.955   5.644
 6818SOL    HW221354   1.517   6.809   5.644
 6819SOL     OW21355   4.643   4.308   2.246
 6819SOL    HW121356   4.742   4.323   2.236
 6819SOL    HW221357   4.611   4.249   2.171
 6820SOL     OW21358   3.196   5.183   1.853
 6820SOL    HW121359   3.124   5.194   1.785
 6820SOL    HW221360   3.269   5.249   1.834
 6821SOL     OW21361   3.879   2.533   5.387
 6821SOL    HW121362   3.819   2.613   5.384
 6821SOL    HW221363   3.948   2.541   5.314
 6822SOL     OW21364   6.217   3.101   5.910
 6822SOL    HW121365   6.160   3.064   5.983
 6822SOL    HW221366   6.282   3.167   5.947
 6823SOL     OW21367   6.494   2.185   5.107
 6823SOL    HW121368   6.531   2.277   5.094
 6823SOL    HW221369   6.511   2.130   5.025
 6824SOL     OW21370   1.123   0.278   5.619
 6824SOL    HW121371   1.211   0.250   5.659
 6824SOL    HW221372   1.058   0.298   5.693
 6825SOL     OW21373   4.588   4.373   0.916
 6825SOL    HW121374   4.637   4.412   0.995
 6825SOL    HW221375   4.492   4.398   0.921
 6826SOL     OW21376   6.302   6.234   4.011
 6826SOL    HW121377   6.292   6.212   3.914
 6826SOL    HW221378   6.256   6.321   4.030
 6827SOL     OW21379   5.131   6.052   5.019
 6827SOL    HW121380   5.196   6.046   4.943
 6827SOL    HW221381   5.046   6.093   4.986
 6828SOL     OW21382   2.875   2.158   2.391
 6828SOL    HW121383   2.960   2.167   2.444
 6828SOL    HW221384   2.897   2.125   2.299
 6829SOL     OW21385   4.081   6.892   3.093
 6829SOL    HW121386   4.087   6.846   3.182
 6829SOL    HW221387   4.167   6.879   3.043
 6830SOL     OW21388   4.962   4.781   3.326
 6830SOL    HW121389   5.033   4.829   3.379
 6830SOL    HW221390   4.950   4.826   3.238
 6831SOL     OW21391   1.674   2.497   6.009
 6831SOL    HW121392   1.737   2.550   6.065
 6831SOL    HW221393   1.720   2.468   5.925
 6832SOL     OW21394   3.171   2.508   6.546
 6832SOL    HW121395   3.205   2.432   6.492
 6832SOL    HW221396   3.091   2.479   6.599
 6833SOL     OW21397   3.926   5.491   5.869
 6833SOL    HW121398   3.915   5.399   5.908
 6833SOL    HW221399   3.897   5.490   5.774
 6834SOL     OW21400   6.451   6.090   0.020
 6834SOL    HW121401   6.546   6.110   7.021
 6834SOL    HW221402   6.426   6.000   7.009
 6835SOL     OW21403   2.787   1.126   5.241
 6835SOL    HW121404   2.734   1.101   5.322
 6835SOL    HW221405   2.813   1.043   5.192
 6836SOL     OW21406   2.071   4.429   6.514
 6836SOL    HW121407   2.142   4.487   6.475
 6836SOL    HW221408   1.981   4.462   6.485
 6837SOL     OW21409   0.277   1.036   2.255
 6837SOL    HW121410   0.372   1.054   2.283
 6837SOL    HW221411   0.268   1.051   2.157
 6838SOL     OW21412   3.136   4.122   4.832
 6838SOL    HW121413   3.063   4.190   4.830
 6838SOL    HW221414   3.097   4.030   4.826
 6839SOL     OW21415   6.674   3.372   4.416
 6839SOL    HW121416   6.767   3.338   4.429
 6839SOL    HW221417   6.661   3.397   4.320
 6840SOL     OW21418   2.697   6.793   4.834
 6840SOL    HW121419   2.669   6.744   4.916
 6840SOL    HW221420   2.698   6.891   4.853
 6841SOL     OW21421   4.918   5.666   1.019
 6841SOL    HW121422   4.989   5.681   0.950
 6841SOL    HW221423   4.828   5.666   0.974
 6842SOL     OW21424   0.298   3.688   4.944
 6842SOL    HW121425   0.318   3.698   4.847
 6842SOL    HW221426   0.208   3.645   4.954
 6843SOL     OW21427   3.832   2.184   1.695
 6843SOL    HW121428   3.774   2.134   1.631
 6843SOL    HW221429   3.775   2.233   1.761
 6844SOL     OW21430   4.319   5.612   4.045
 6844SOL    HW121431   4.398   5.649   4.095
 6844SOL    HW221432   4.283   5.532   4.094
 6845SOL     OW21433   4.382   4.547   1.103
 6845SOL    HW121434   4.375   4.635   1.057
 6845SOL    HW221435   4.358   4.474   1.039
 6846SOL     OW21436   3.247   3.307   2.667
 6846SOL    HW121437   3.247   3.392   2.614
 6846SOL    HW221438   3.336   3.296   2.711
 6847SOL     OW21439   5.610   3.364   2.266
 6847SOL    HW121440   5.608   3.456   2.305
 6847SOL    HW221441   5.613   3.297   2.340
 6848SOL     OW21442   0.128   6.787   3.318
 6848SOL    HW121443   0.097   6.766   3.410
 6848SOL    HW221444   0.136   6.886   3.307
 6849SOL     OW21445   3.617   6.518   3.843
 6849SOL    HW121446   3.526   6.496   3.807
 6849SOL    HW221447   3.611   6.602   3.898
 6850SOL     OW21448   5.352   2.965   1.908
 6850SOL    HW121449   5.445   2.930   1.897
 6850SOL    HW221450   5.317   2.995   1.819
 6851SOL     OW21451   1.243   5.715   5.474
 6851SOL    HW121452   1.233   5.644   5.543
 6851SOL    HW221453   1.338   5.717   5.443
 6852SOL     OW21454   0.425   4.798   2.341
 6852SOL    HW121455   0.493   4.821   2.411
 6852SOL    HW221456   0.444   4.849   2.258
 6853SOL     OW21457   6.613   3.570   5.642
 6853SOL    HW121458   6.709   3.550   5.622
 6853SOL    HW221459   6.606   3.604   5.736
 6854SOL     OW21460   6.715   1.481   6.093
 6854SOL    HW121461   6.690   1.534   6.174
 6854SOL    HW221462   6.692   1.384   6.108
 6855SOL     OW21463   3.228   6.057   1.457
 6855SOL    HW121464   3.242   6.034   1.360
 6855SOL    HW221465   3.258   5.981   1.514
 6856SOL     OW21466   0.169   3.957   5.309
 6856SOL    HW121467   0.248   3.976   5.367
 6856SOL    HW221468   0.198   3.955   5.213
 6857SOL     OW21469   4.268   2.054   5.683
 6857SOL    HW121470   4.178   2.094   5.662
 6857SOL    HW221471   4.261   1.995   5.763
 6858SOL     OW21472   3.592   2.948   4.827
 6858SOL    HW121473   3.580   2.903   4.915
 6858SOL    HW221474   3.689   2.947   4.802
 6859SOL     OW21475   3.986   6.723   1.269
 6859SOL    HW121476   4.080   6.692   1.263
 6859SOL    HW221477   3.962   6.741   1.365
 6860SOL     OW21478   4.776   4.342   0.062
 6860SOL    HW121479   4.802   4.246   0.076
 6860SOL    HW221480   4.794   4.393   0.146
 6861SOL     OW21481   6.628   4.842   0.569
 6861SOL    HW121482   6.597   4.875   0.480
 6861SOL    HW221483   6.728   4.837   0.569
 6862SOL     OW21484   3.576   5.752   4.197
 6862SOL    HW121485   3.502   5.789   4.140
 6862SOL    HW221486   3.537   5.705   4.276
 6863SOL     OW21487   0.200   3.125   4.289
 6863SOL    HW121488   0.118   3.172   4.257
 6863SOL    HW221489   0.186   3.097   4.384
 6864SOL     OW21490   4.480   6.172   4.253
 6864SOL    HW121491   4.449   6.077   4.254
 6864SOL    HW221492   4.481   6.206   4.159
 6865SOL     OW21493   6.729   4.389   4.141
 6865SOL    HW121494   6.820   4.425   4.161
 6865SOL    HW221495   6.716   4.384   4.042
 6866SOL     OW21496   7.012   3.488   2.311
 6866SOL    HW121497   7.006   3.394   2.276
 6866SOL    HW221498   6.953   3.547   2.256
 6867SOL     OW21499   2.252   4.164   2.509
 6867SOL    HW121500   2.186   4.094   2.536
 6867SOL    HW221501   2.261   4.164   2.409
 6868SOL     OW21502   1.753   5.464   5.661
 6868SOL    HW121503   1.717   5.535   5.721
 6868SOL    HW221504   1.852   5.456   5.671
 6869SOL     OW21505   5.837   3.355   5.300
 6869SOL    HW121506   5.746   3.322   5.324
 6869SOL    HW221507   5.903   3.324   5.369
 6870SOL     OW21508   5.253   3.585   3.299
 6870SOL    HW121509   5.241   3.551   3.391
 6870SOL    HW221510   5.325   3.655   3.299
 6871SOL     OW21511   5.211   6.290   1.694
 6871SOL    HW121512   5.252   6.354   1.630
 6871SOL    HW221513   5.224   6.324   1.788
 6872SOL     OW21514   2.936   3.093   6.317
 6872SOL    HW121515   3.030   3.115   6.340
 6872SOL    HW221516   2.875   3.125   6.389
 6873SOL     OW21517   5.384   4.229   5.887
 6873SOL    HW121518   5.460   4.290   5.910
 6873SOL    HW221519   5.397   4.141   5.932
 6874SOL     OW21520   1.048   2.316   5.859
 6874SOL    HW121521   1.105   2.314   5.941
 6874SOL    HW221522   1.099   2.278   5.781
 6875SOL     OW21523   3.227   2.165   3.939
 6875SOL    HW121524   3.274   2.158   4.026
 6875SOL    HW221525   3.137   2.121   3.946
 6876SOL     OW21526   3.425   6.140   6.669
 6876SOL    HW121527   3.437   6.103   6.577
 6876SOL    HW221528   3.514   6.159   6.710
 6877SOL     OW21529   2.563   4.345   6.819
 6877SOL    HW121530   2.649   4.306   6.786
 6877SOL    HW221531   2.518   4.394   6.744
 6878SOL     OW21532   1.919   1.386   4.986
 6878SOL    HW121533   1.946   1.426   4.898
 6878SOL    HW221534   1.997   1.391   5.049
 6879SOL     OW21535   1.315   2.719   5.863
 6879SOL    HW121536   1.397   2.775   5.875
 6879SOL    HW221537   1.322   2.637   5.918
 6880SOL     OW21538   1.798   4.251   5.046
 6880SOL    HW121539   1.764   4.314   4.976
 6880SOL    HW221540   1.874   4.294   5.095
 6881SOL     OW21541   6.938   4.209   1.150
 6881SOL    HW121542   6.943   4.115   1.117
 6881SOL    HW221543   6.842   4.238   1.153
 6882SOL     OW21544   1.688   6.833   5.386
 6882SOL    HW121545   1.757   6.866   5.450
 6882SOL    HW221546   1.664   6.738   5.408
 6883SOL     OW21547   3.614   6.531   1.920
 6883SOL    HW121548   3.669   6.475   1.982
 6883SOL    HW221549   3.637   6.509   1.825
 6884SOL     OW21550   2.520   4.654   3.385
 6884SOL    HW121551   2.619   4.659   3.397
 6884SOL    HW221552   2.492   4.558   3.384
 6885SOL     OW21553   2.562   5.359   4.541
 6885SOL    HW121554   2.640   5.324   4.488
 6885SOL    HW221555   2.503   5.413   4.481
 6886SOL     OW21556   5.652   1.690   2.833
 6886SOL    HW121557   5.633   1.769   2.892
 6886SOL    HW221558   5.576   1.626   2.837
 6887SOL     OW21559   5.893   0.559   4.703
 6887SOL    HW121560   5.969   0.624   4.702
 6887SOL    HW221561   5.853   0.557   4.795
 6888SOL     OW21562   5.536   6.445   4.302
 6888SOL    HW121563   5.586   6.531   4.312
 6888SOL    HW221564   5.512   6.409   4.392
 6889SOL     OW21565   1.019   4.171   5.979
 6889SOL    HW121566   1.023   4.072   5.985
 6889SOL    HW221567   1.036   4.211   6.070
 6890SOL     OW21568   2.028   0.654   0.426
 6890SOL    HW121569   2.055   0.708   0.506
 6890SOL    HW221570   1.945   0.603   0.447
 6891SOL     OW21571   2.683   4.660   4.189
 6891SOL    HW121572   2.646   4.597   4.120
 6891SOL    HW221573   2.629   4.651   4.273
 6892SOL     OW21574   4.088   0.428   4.242
 6892SOL    HW121575   4.048   0.410   4.332
 6892SOL    HW221576   4.173   0.480   4.254
 6893SOL     OW21577   5.201   5.681   2.170
 6893SOL    HW121578   5.227   5.763   2.221
 6893SOL    HW221579   5.275   5.613   2.176
 6894SOL     OW21580   6.538   4.779   6.251
 6894SOL    HW121581   6.577   4.702   6.199
 6894SOL    HW221582   6.518   4.854   6.189
 6895SOL     OW21583   3.683   6.193   6.808
 6895SOL    HW121584   3.674   6.196   6.908
 6895SOL    HW221585   3.771   6.153   6.784
 6896SOL     OW21586   4.056   0.220   2.644
 6896SOL    HW121587   3.970   0.193   2.601
 6896SOL    HW221588   4.044   0.224   2.744
 6897SOL     OW21589   3.287   2.767   0.800
 6897SOL    HW121590   3.299   2.681   0.752
 6897SOL    HW221591   3.367   2.785   0.858
 6898SOL     OW21592   4.184   2.302   2.413
 6898SOL    HW121593   4.161   2.234   2.343
 6898SOL    HW221594   4.122   2.293   2.490
 6899SOL     OW21595   4.910   6.087   6.826
 6899SOL    HW121596   4.811   6.073   6.838
 6899SOL    HW221597   4.950   6.006   6.784
 6900SOL     OW21598   4.385   0.823   5.629
 6900SOL    HW121599   4.411   0.803   5.724
 6900SOL    HW221600   4.286   0.819   5.620
 6901SOL     OW21601   1.161   1.048   6.708
 6901SOL    HW121602   1.142   1.141   6.674
 6901SOL    HW221603   1.111   0.982   6.652
 6902SOL     OW21604   6.885   5.702   0.841
 6902SOL    HW121605   6.944   5.780   0.819
 6902SOL    HW221606   6.804   5.704   0.783
 6903SOL     OW21607   4.910   3.576   0.735
 6903SOL    HW121608   4.971   3.594   0.812
 6903SOL    HW221609   4.827   3.631   0.744
 6904SOL     OW21610   0.276   1.372   3.354
 6904SOL    HW121611   0.312   1.420   3.434
 6904SOL    HW221612   0.243   1.282   3.381
 6905SOL     OW21613   5.751   6.225   0.899
 6905SOL    HW121614   5.783   6.192   0.810
 6905SOL    HW221615   5.797   6.173   0.972
 6906SOL     OW21616   4.449   0.647   3.669
 6906SOL    HW121617   4.393   0.564   3.678
 6906SOL    HW221618   4.530   0.627   3.614
 6907SOL     OW21619   3.736   1.713   1.381
 6907SOL    HW121620   3.764   1.648   1.309
 6907SOL    HW221621   3.740   1.667   1.470
 6908SOL     OW21622   1.332   6.786   6.465
 6908SOL    HW121623   1.249   6.742   6.430
 6908SOL    HW221624   1.409   6.761   6.406
 6909SOL     OW21625   3.897   4.007   6.579
 6909SOL    HW121626   3.841   4.032   6.500
 6909SOL    HW221627   3.887   3.909   6.597
 6910SOL     OW21628   7.000   1.493   2.386
 6910SOL    HW121629   6.959   1.429   2.321
 6910SOL    HW221630   6.933   1.518   2.455
 6911SOL     OW21631   3.730   1.066   4.866
 6911SOL    HW121632   3.795   1.072   4.942
 6911SOL    HW221633   3.752   0.987   4.810
 6912SOL     OW21634   4.697   5.231   0.860
 6912SOL    HW121635   4.620   5.166   0.858
 6912SOL    HW221636   4.767   5.196   0.922
 6913SOL     OW21637   5.285   5.173   5.329
 6913SOL    HW121638   5.271   5.088   5.278
 6913SOL    HW221639   5.242   5.165   5.419
 6914SOL     OW21640   6.115   5.080   0.759
 6914SOL    HW121641   6.116   5.015   0.836
 6914SOL    HW221642   6.190   5.060   0.697
 6915SOL     OW21643   0.708   5.398   1.294
 6915SOL    HW121644   0.760   5.425   1.213
 6915SOL    HW221645   0.765   5.406   1.376
 6916SOL     OW21646   6.653   1.734   0.072
 6916SOL    HW121647   6.616   1.762   0.161
 6916SOL    HW221648   6.750   1.759   0.067
 6917SOL     OW21649   4.263   6.566   6.211
 6917SOL    HW121650   4.218   6.652   6.237
 6917SOL    HW221651   4.208   6.489   6.245
 6918SOL     OW21652   1.995   2.942   3.709
 6918SOL    HW121653   1.968   2.988   3.794
 6918SOL    HW221654   2.039   3.009   3.648
 6919SOL     OW21655   2.027   6.551   3.328
 6919SOL    HW121656   1.983   6.623   3.381
 6919SOL    HW221657   2.125   6.570   3.320
 6920SOL     OW21658   5.273   6.311   4.315
 6920SOL    HW121659   5.326   6.358   4.244
 6920SOL    HW221660   5.327   6.308   4.400
 6921SOL     OW21661   0.624   0.455   3.151
 6921SOL    HW121662   0.608   0.394   3.228
 6921SOL    HW221663   0.677   0.534   3.182
 6922SOL     OW21664   2.160   6.455   0.349
 6922SOL    HW121665   2.240   6.431   0.404
 6922SOL    HW221666   2.079   6.459   0.408
 6923SOL     OW21667   5.045   0.150   3.724
 6923SOL    HW121668   5.012   0.243   3.713
 6923SOL    HW221669   4.988   0.102   3.790
 6924SOL     OW21670   0.343   5.987   1.062
 6924SOL    HW121671   0.402   5.956   0.987
 6924SOL    HW221672   0.250   5.954   1.047
 6925SOL     OW21673   5.244   5.893   2.331
 6925SOL    HW121674   5.316   5.949   2.371
 6925SOL    HW221675   5.184   5.858   2.404
 6926SOL     OW21676   2.930   3.389   4.483
 6926SOL    HW121677   2.985   3.314   4.519
 6926SOL    HW221678   2.934   3.387   4.383
 6927SOL     OW21679   4.365   3.839   5.917
 6927SOL    HW121680   4.357   3.911   5.847
 6927SOL    HW221681   4.436   3.865   5.982
 6928SOL     OW21682   5.364   0.547   6.572
 6928SOL    HW121683   5.395   0.638   6.600
 6928SOL    HW221684   5.267   0.536   6.597
 6929SOL     OW21685   3.823   5.274   0.087
 6929SOL    HW121686   3.783   5.314   0.168
 6929SOL    HW221687   3.914   5.237   0.109
 6930SOL     OW21688   0.766   6.959   3.565
 6930SOL    HW121689   0.696   6.910   3.616
 6930SOL    HW221690   0.792   0.019   3.614
 6931SOL     OW21691   1.788   1.243   1.266
 6931SOL    HW121692   1.886   1.252   1.249
 6931SOL    HW221693   1.773   1.225   1.364
 6932SOL     OW21694   2.859   2.524   0.788
 6932SOL    HW121695   2.853   2.539   0.887
 6932SOL    HW221696   2.772   2.487   0.756
 6933SOL     OW21697   3.702   6.401   5.935
 6933SOL    HW121698   3.802   6.409   5.931
 6933SOL    HW221699   3.673   6.318   5.889
 6934SOL     OW21700   5.483   3.228   6.945
 6934SOL    HW121701   5.435   3.158   6.999
 6934SOL    HW221702   5.449   3.225   6.851
 6935SOL     OW21703   4.207   5.423   3.509
 6935SOL    HW121704   4.213   5.494   3.439
 6935SOL    HW221705   4.251   5.456   3.593
 6936SOL     OW21706   1.719   4.201   1.030
 6936SOL    HW121707   1.748   4.185   0.935
 6936SOL    HW221708   1.731   4.117   1.083
 6937SOL     OW21709   4.007   0.165   5.601
 6937SOL    HW121710   4.071   0.096   5.635
 6937SOL    HW221711   3.915   0.144   5.634
 6938SOL     OW21712   4.576   2.481   5.354
 6938SOL    HW121713   4.571   2.581   5.361
 6938SOL    HW221714   4.499   2.448   5.298
 6939SOL     OW21715   0.666   4.397   2.837
 6939SOL    HW121716   0.665   4.297   2.848
 6939SOL    HW221717   0.590   4.425   2.779
 6940SOL     OW21718   4.813   1.136   4.808
 6940SOL    HW121719   4.846   1.084   4.886
 6940SOL    HW221720   4.810   1.078   4.727
 6941SOL     OW21721   3.849   3.016   3.431
 6941SOL    HW121722   3.768   3.063   3.468
 6941SOL    HW221723   3.880   3.063   3.349
 6942SOL     OW21724   6.983   2.073   0.163
 6942SOL    HW121725   6.884   2.083   0.169
 6942SOL    HW221726   0.004   2.147   0.214
 6943SOL     OW21727   4.659   6.171   5.974
 6943SOL    HW121728   4.683   6.200   5.881
 6943SOL    HW221729   4.735   6.118   6.013
 6944SOL     OW21730   1.477   6.327   6.106
 6944SOL    HW121731   1.486   6.228   6.096
 6944SOL    HW221732   1.384   6.350   6.133
 6945SOL     OW21733   5.743   3.228   5.984
 6945SOL    HW121734   5.822   3.232   5.923
 6945SOL    HW221735   5.667   3.281   5.943
 6946SOL     OW21736   5.089   4.467   2.637
 6946SOL    HW121737   5.124   4.546   2.586
 6946SOL    HW221738   5.089   4.387   2.577
 6947SOL     OW21739   4.035   6.262   2.875
 6947SOL    HW121740   3.944   6.297   2.898
 6947SOL    HW221741   4.027   6.199   2.798
 6948SOL     OW21742   4.271   1.308   5.650
 6948SOL    HW121743   4.274   1.354   5.561
 6948SOL    HW221744   4.328   1.226   5.648
 6949SOL     OW21745   5.336   0.509   2.371
 6949SOL    HW121746   5.347   0.414   2.400
 6949SOL    HW221747   5.345   0.569   2.451
 6950SOL     OW21748   2.085   0.212   3.022
 6950SOL    HW121749   2.175   0.217   3.067
 6950SOL    HW221750   2.015   0.198   3.091
 6951SOL     OW21751   6.391   5.093   6.240
 6951SOL    HW121752   6.363   5.093   6.335
 6951SOL    HW221753   6.489   5.072   6.234
 6952SOL     OW21754   0.437   4.755   4.491
 6952SOL    HW121755   0.483   4.759   4.403
 6952SOL    HW221756   0.504   4.766   4.564
 6953SOL     OW21757   5.034   1.495   5.299
 6953SOL    HW121758   5.097   1.491   5.222
 6953SOL    HW221759   5.054   1.576   5.355
 6954SOL     OW21760   0.417   3.966   3.340
 6954SOL    HW121761   0.478   3.898   3.300
 6954SOL    HW221762   0.391   4.033   3.271
 6955SOL     OW21763   0.014   5.667   2.097
 6955SOL    HW121764   0.079   5.709   2.034
 6955SOL    HW221765   6.948   5.710   2.085
 6956SOL     OW21766   3.680   4.918   1.459
 6956SOL    HW121767   3.686   4.869   1.372
 6956SOL    HW221768   3.725   5.006   1.451
 6957SOL     OW21769   0.544   4.645   0.791
 6957SOL    HW121770   0.637   4.610   0.784
 6957SOL    HW221771   0.538   4.709   0.869
 6958SOL     OW21772   2.555   3.765   6.854
 6958SOL    HW121773   2.640   3.806   6.887
 6958SOL    HW221774   2.477   3.818   6.887
 6959SOL     OW21775   2.783   0.878   4.282
 6959SOL    HW121776   2.765   0.973   4.257
 6959SOL    HW221777   2.801   0.872   4.381
 6960SOL     OW21778   0.614   4.717   6.545
 6960SOL    HW121779   0.560   4.681   6.622
 6960SOL    HW221780   0.665   4.797   6.575
 6961SOL     OW21781   0.100   0.480   2.634
 6961SOL    HW121782   0.123   0.569   2.593
 6961SOL    HW221783   0.139   0.407   2.578
 6962SOL     OW21784   4.265   4.229   1.365
 6962SOL    HW121785   4.353   4.237   1.317
 6962SOL    HW221786   4.268   4.283   1.449
 6963SOL     OW21787   7.005   5.101   1.688
 6963SOL    HW121788   6.932   5.123   1.624
 6963SOL    HW221789   0.060   5.159   1.670
 6964SOL     OW21790   4.136   5.692   5.282
 6964SOL    HW121791   4.050   5.642   5.275
 6964SOL    HW221792   4.134   5.772   5.222
 6965SOL     OW21793   6.944   2.918   5.786
 6965SOL    HW121794   0.001   2.970   5.815
 6965SOL    HW221795   6.864   2.978   5.785
 6966SOL     OW21796   4.683   2.703   4.102
 6966SOL    HW121797   4.779   2.713   4.130
 6966SOL    HW221798   4.637   2.792   4.109
 6967SOL     OW21799   1.786   0.742   5.898
 6967SOL    HW121800   1.883   0.766   5.905
 6967SOL    HW221801   1.732   0.826   5.893
 6968SOL     OW21802   5.428   6.184   2.206
 6968SOL    HW121803   5.469   6.163   2.117
 6968SOL    HW221804   5.328   6.183   2.197
 6969SOL     OW21805   3.211   2.360   1.156
 6969SOL    HW121806   3.256   2.295   1.217
 6969SOL    HW221807   3.253   2.450   1.168
 6970SOL     OW21808   5.072   4.510   6.952
 6970SOL    HW121809   5.119   4.575   6.892
 6970SOL    HW221810   4.995   4.469   6.904
 6971SOL     OW21811   5.089   0.286   1.250
 6971SOL    HW121812   5.093   0.376   1.208
 6971SOL    HW221813   5.007   0.238   1.217
 6972SOL     OW21814   5.940   5.017   4.394
 6972SOL    HW121815   5.953   5.102   4.446
 6972SOL    HW221816   5.844   5.010   4.365
 6973SOL     OW21817   1.635   4.576   2.834
 6973SOL    HW121818   1.707   4.533   2.780
 6973SOL    HW221819   1.549   4.573   2.782
 6974SOL     OW21820   3.527   3.889   4.289
 6974SOL    HW121821   3.502   3.969   4.234
 6974SOL    HW221822   3.474   3.810   4.259
 6975SOL     OW21823   3.718   0.861   5.842
 6975SOL    HW121824   3.710   0.804   5.924
 6975SOL    HW221825   3.715   0.804   5.760
 6976SOL     OW21826   2.009   4.648   6.082
 6976SOL    HW121827   1.938   4.688   6.024
 6976SOL    HW221828   2.003   4.688   6.173
 6977SOL     OW21829   3.230   2.166   2.854
 6977SOL    HW121830   3.287   2.128   2.928
 6977SOL    HW221831   3.260   2.127   2.767
 6978SOL     OW21832   6.316   0.586   2.102
 6978SOL    HW121833   6.409   0.581   2.138
 6978SOL    HW221834   6.259   0.640   2.163
 6979SOL     OW21835   0.425   4.885   2.764
 6979SOL    HW121836   0.468   4.951   2.825
 6979SOL    HW221837   0.495   4.841   2.709
 6980SOL     OW21838   3.400   0.953   4.604
 6980SOL    HW121839   3.339   0.927   4.529
 6980SOL    HW221840   3.452   0.874   4.635
 6981SOL     OW21841   2.197   5.788   0.388
 6981SOL    HW121842   2.187   5.703   0.336
 6981SOL    HW221843   2.127   5.853   0.360
 6982SOL     OW21844   0.694   0.485   4.612
 6982SOL    HW121845   0.724   0.535   4.531
 6982SOL    HW221846   0.604   0.445   4.595
 6983SOL     OW21847   6.503   0.493   4.425
 6983SOL    HW121848   6.459   0.568   4.474
 6983SOL    HW221849   6.573   0.451   4.483
 6984SOL     OW21850   1.399   0.946   6.333
 6984SOL    HW121851   1.348   0.872   6.291
 6984SOL    HW221852   1.339   1.025   6.345
 6985SOL     OW21853   4.955   5.830   2.126
 6985SOL    HW121854   4.960   5.896   2.201
 6985SOL    HW221855   5.027   5.762   2.137
 6986SOL     OW21856   2.323   6.591   5.742
 6986SOL    HW121857   2.348   6.667   5.682
 6986SOL    HW221858   2.239   6.613   5.791
 6987SOL     OW21859   0.578   3.649   6.625
 6987SOL    HW121860   0.526   3.732   6.642
 6987SOL    HW221861   0.668   3.673   6.586
 6988SOL     OW21862   5.036   0.863   3.937
 6988SOL    HW121863   5.128   0.855   3.899
 6988SOL    HW221864   4.973   0.803   3.887
 6989SOL     OW21865   1.582   2.511   4.096
 6989SOL    HW121866   1.507   2.466   4.145
 6989SOL    HW221867   1.665   2.457   4.105
 6990SOL     OW21868   3.704   3.418   0.001
 6990SOL    HW121869   3.641   3.340   0.004
 6990SOL    HW221870   3.655   3.502   0.022
 6991SOL     OW21871   3.148   4.207   5.519
 6991SOL    HW121872   3.200   4.126   5.547
 6991SOL    HW221873   3.087   4.235   5.593
 6992SOL     OW21874   5.608   6.694   3.538
 6992SOL    HW121875   5.510   6.703   3.558
 6992SOL    HW221876   5.633   6.759   3.466
 6993SOL     OW21877   0.251   0.349   3.194
 6993SOL    HW121878   0.209   0.388   3.112
 6993SOL    HW221879   0.327   0.289   3.166
 6994SOL     OW21880   0.952   3.104   6.260
 6994SOL    HW121881   0.922   3.009   6.255
 6994SOL    HW221882   1.047   3.111   6.230
 6995SOL     OW21883   6.544   5.867   3.269
 6995SOL    HW121884   6.633   5.846   3.311
 6995SOL    HW221885   6.540   5.827   3.178
 6996SOL     OW21886   2.191   0.178   5.498
 6996SOL    HW121887   2.199   0.086   5.460
 6996SOL    HW221888   2.141   0.236   5.434
 6997SOL     OW21889   4.794   0.641   5.256
 6997SOL    HW121890   4.802   0.735   5.289
 6997SOL    HW221891   4.786   0.579   5.334
 6998SOL     OW21892   0.969   2.656   3.420
 6998SOL    HW121893   0.928   2.701   3.499
 6998SOL    HW221894   1.020   2.575   3.451
 6999SOL     OW21895   3.234   1.675   5.674
 6999SOL    HW121896   3.195   1.727   5.598
 6999SOL    HW221897   3.190   1.704   5.759
 7000SOL     OW21898   0.420   6.299   3.064
 7000SOL    HW121899   0.436   6.388   3.022
 7000SOL    HW221900   0.375   6.238   2.999
 7001SOL     OW21901   2.305   2.497   5.623
 7001SOL    HW121902   2.297   2.585   5.671
 7001SOL    HW221903   2.401   2.468   5.623
 7002SOL     OW21904   1.724   4.800   3.571
 7002SOL    HW121905   1.637   4.841   3.599
 7002SOL    HW221906   1.713   4.756   3.482
 7003SOL     OW21907   2.464   6.060   0.938
 7003SOL    HW121908   2.485   5.965   0.958
 7003SOL    HW221909   2.467   6.076   0.839
 7004SOL     OW21910   1.488   4.332   1.098
 7004SOL    HW121911   1.583   4.306   1.079
 7004SOL    HW221912   1.432   4.314   1.017
 7005SOL     OW21913   4.957   6.087   5.482
 7005SOL    HW121914   5.050   6.052   5.493
 7005SOL    HW221915   4.913   6.092   5.571
 7006SOL     OW21916   4.374   4.790   4.876
 7006SOL    HW121917   4.334   4.772   4.786
 7006SOL    HW221918   4.341   4.722   4.941
 7007SOL     OW21919   4.595   5.275   3.118
 7007SOL    HW121920   4.688   5.248   3.143
 7007SOL    HW221921   4.534   5.197   3.128
 7008SOL     OW21922   1.048   5.052   3.900
 7008SOL    HW121923   1.062   4.989   3.823
 7008SOL    HW221924   0.950   5.062   3.916
 7009SOL     OW21925   0.683   4.450   2.038
 7009SOL    HW121926   0.669   4.468   2.135
 7009SOL    HW221927   0.595   4.447   1.992
 7010SOL     OW21928   3.466   4.803   5.650
 7010SOL    HW121929   3.382   4.764   5.613
 7010SOL    HW221930   3.453   4.826   5.746
 7011SOL     OW21931   2.783   0.809   5.508
 7011SOL    HW121932   2.852   0.784   5.440
 7011SOL    HW221933   2.716   0.871   5.466
 7012SOL     OW21934   1.088   1.183   1.750
 7012SOL    HW121935   1.148   1.103   1.757
 7012SOL    HW221936   1.035   1.177   1.666
 7013SOL     OW21937   1.125   0.865   2.058
 7013SOL    HW121938   1.054   0.830   2.119
 7013SOL    HW221939   1.178   0.789   2.022
 7014SOL     OW21940   2.831   4.261   1.239
 7014SOL    HW121941   2.807   4.234   1.146
 7014SOL    HW221942   2.854   4.180   1.293
 7015SOL     OW21943   5.670   2.521   2.585
 7015SOL    HW121944   5.625   2.607   2.611
 7015SOL    HW221945   5.641   2.448   2.647
 7016SOL     OW21946   4.259   5.246   1.174
 7016SOL    HW121947   4.307   5.264   1.261
 7016SOL    HW221948   4.314   5.282   1.098
 7017SOL     OW21949   3.315   1.370   3.495
 7017SOL    HW121950   3.216   1.375   3.507
 7017SOL    HW221951   3.349   1.280   3.523
 7018SOL     OW21952   0.244   4.524   4.774
 7018SOL    HW121953   0.146   4.528   4.759
 7018SOL    HW221954   0.287   4.609   4.740
 7019SOL     OW21955   2.262   6.273   0.086
 7019SOL    HW121956   2.166   6.296   0.099
 7019SOL    HW221957   2.272   6.174   0.077
 7020SOL     OW21958   6.108   6.662   6.325
 7020SOL    HW121959   6.017   6.651   6.364
 7020SOL    HW221960   6.105   6.733   6.254
 7021SOL     OW21961   2.729   1.683   6.246
 7021SOL    HW121962   2.661   1.650   6.181
 7021SOL    HW221963   2.748   1.780   6.229
 7022SOL     OW21964   5.434   4.651   0.453
 7022SOL    HW121965   5.443   4.635   0.355
 7022SOL    HW221966   5.350   4.609   0.486
 7023SOL     OW21967   6.148   3.602   2.755
 7023SOL    HW121968   6.101   3.618   2.668
 7023SOL    HW221969   6.141   3.684   2.812
 7024SOL     OW21970   1.231   5.851   0.595
 7024SOL    HW121971   1.173   5.771   0.581
 7024SOL    HW221972   1.177   5.925   0.637
 7025SOL     OW21973   2.820   2.197   6.517
 7025SOL    HW121974   2.733   2.245   6.529
 7025SOL    HW221975   2.859   2.175   6.607
 7026SOL     OW21976   4.298   1.945   0.510
 7026SOL    HW121977   4.240   1.942   0.592
 7026SOL    HW221978   4.340   2.036   0.503
 7027SOL     OW21979   4.415   6.726   4.560
 7027SOL    HW121980   4.432   6.802   4.623
 7027SOL    HW221981   4.343   6.667   4.598
 7028SOL     OW21982   3.523   0.528   4.456
 7028SOL    HW121983   3.533   0.448   4.397
 7028SOL    HW221984   3.508   0.610   4.400
 7029SOL     OW21985   4.105   0.678   5.857
 7029SOL    HW121986   4.089   0.599   5.798
 7029SOL    HW221987   4.178   0.656   5.923
 7030SOL     OW21988   1.362   3.397   4.385
 7030SOL    HW121989   1.384   3.364   4.476
 7030SOL    HW221990   1.397   3.489   4.373
 7031SOL     OW21991   1.870   5.964   4.052
 7031SOL    HW121992   1.800   5.894   4.039
 7031SOL    HW221993   1.960   5.926   4.031
 7032SOL     OW21994   5.920   1.944   2.231
 7032SOL    HW121995   5.983   2.012   2.269
 7032SOL    HW221996   5.914   1.866   2.292
 7033SOL     OW21997   6.884   0.811   3.791
 7033SOL    HW121998   6.906   0.886   3.729
 7033SOL    HW221999   6.967   0.760   3.812
 7034SOL     OW22000   6.835   6.209   2.909
 7034SOL    HW122001   6.789   6.241   2.992
 7034SOL    HW222002   6.826   6.279   2.837
 7035SOL     OW22003   6.438   5.863   2.198
 7035SOL    HW122004   6.421   5.960   2.219
 7035SOL    HW222005   6.445   5.811   2.284
 7036SOL     OW22006   0.260   4.776   2.031
 7036SOL    HW122007   0.202   4.798   1.953
 7036SOL    HW222008   0.203   4.752   2.109
 7037SOL     OW22009   1.691   6.593   6.426
 7037SOL    HW122010   1.739   6.610   6.340
 7037SOL    HW222011   1.689   6.677   6.481
 7038SOL     OW22012   0.798   4.264   4.121
 7038SOL    HW122013   0.851   4.246   4.038
 7038SOL    HW222014   0.734   4.190   4.136
 7039SOL     OW22015   3.573   1.439   0.057
 7039SOL    HW122016   3.550   1.370   7.012
 7039SOL    HW222017   3.564   1.399   0.148
 7040SOL     OW22018   4.957   2.065   6.043
 7040SOL    HW122019   4.871   2.083   6.092
 7040SOL    HW222020   5.028   2.039   6.108
 7041SOL     OW22021   1.991   1.977   2.601
 7041SOL    HW122022   1.958   2.054   2.546
 7041SOL    HW222023   2.067   1.932   2.553
 7042SOL     OW22024   2.887   6.952   0.009
 7042SOL    HW122025   2.867   6.855   0.024
 7042SOL    HW222026   2.918   6.993   0.095
 7043SOL     OW22027   2.494   1.492   3.030
 7043SOL    HW122028   2.443   1.503   2.945
 7043SOL    HW222029   2.455   1.551   3.100
 7044SOL     OW22030   4.657   5.239   2.604
 7044SOL    HW122031   4.659   5.140   2.618
 7044SOL    HW222032   4.617   5.282   2.685
 7045SOL     OW22033   5.569   5.474   1.186
 7045SOL    HW122034   5.611   5.434   1.269
 7045SOL    HW222035   5.598   5.569   1.177
 7046SOL     OW22036   3.904   0.475   5.124
 7046SOL    HW122037   3.999   0.508   5.128
 7046SOL    HW222038   3.862   0.484   5.214
 7047SOL     OW22039   1.531   0.976   4.550
 7047SOL    HW122040   1.461   1.045   4.566
 7047SOL    HW222041   1.504   0.918   4.472
 7048SOL     OW22042   6.449   6.003   0.305
 7048SOL    HW122043   6.386   6.051   0.367
 7048SOL    HW222044   6.460   6.057   0.221
 7049SOL     OW22045   2.811   1.392   0.777
 7049SOL    HW122046   2.898   1.358   0.741
 7049SOL    HW222047   2.751   1.314   0.797
 7050SOL     OW22048   4.067   3.839   4.751
 7050SOL    HW122049   4.148   3.871   4.801
 7050SOL    HW222050   4.093   3.761   4.693
 7051SOL     OW22051   0.110   6.751   2.330
 7051SOL    HW122052   0.126   6.850   2.328
 7051SOL    HW222053   0.174   6.705   2.269
 7052SOL     OW22054   6.907   1.871   3.563
 7052SOL    HW122055   6.986   1.812   3.547
 7052SOL    HW222056   6.937   1.957   3.604
 7053SOL     OW22057   0.578   4.739   6.274
 7053SOL    HW122058   0.605   4.717   6.368
 7053SOL    HW222059   0.523   4.663   6.237
 7054SOL     OW22060   6.951   6.440   1.771
 7054SOL    HW122061   7.005   6.450   1.688
 7054SOL    HW222062   6.911   6.528   1.796
 7055SOL     OW22063   4.065   0.119   4.376
 7055SOL    HW122064   4.143   0.130   4.315
 7055SOL    HW222065   3.983   0.099   4.322
 7056SOL     OW22066   5.330   4.593   4.288
 7056SOL    HW122067   5.262   4.664   4.277
 7056SOL    HW222068   5.314   4.543   4.374
 7057SOL     OW22069   0.124   5.614   3.613
 7057SOL    HW122070   0.106   5.679   3.540
 7057SOL    HW222071   0.204   5.559   3.590
 7058SOL     OW22072   1.067   5.286   5.307
 7058SOL    HW122073   1.052   5.190   5.283
 7058SOL    HW222074   1.107   5.334   5.229
 7059SOL     OW22075   1.433   0.464   2.556
 7059SOL    HW122076   1.383   0.520   2.489
 7059SOL    HW222077   1.380   0.382   2.577
 7060SOL     OW22078   3.220   6.183   1.937
 7060SOL    HW122079   3.277   6.123   1.994
 7060SOL    HW222080   3.264   6.196   1.849
 7061SOL     OW22081   0.558   0.698   2.515
 7061SOL    HW122082   0.570   0.797   2.521
 7061SOL    HW222083   0.560   0.659   2.607
 7062SOL     OW22084   5.736   2.359   5.122
 7062SOL    HW122085   5.639   2.335   5.121
 7062SOL    HW222086   5.750   2.441   5.178
 7063SOL     OW22087   3.358   6.371   1.066
 7063SOL    HW122088   3.292   6.369   1.141
 7063SOL    HW222089   3.327   6.309   0.993
 7064SOL     OW22090   3.798   2.686   1.147
 7064SOL    HW122091   3.832   2.777   1.122
 7064SOL    HW222092   3.837   2.659   1.235
 7065SOL     OW22093   4.933   3.822   1.600
 7065SOL    HW122094   4.905   3.891   1.533
 7065SOL    HW222095   4.962   3.739   1.552
 7066SOL     OW22096   3.594   6.767   0.971
 7066SOL    HW122097   3.665   6.697   0.976
 7066SOL    HW222098   3.600   6.814   0.883
 7067SOL     OW22099   0.311   3.728   5.636
 7067SOL    HW122100   0.380   3.790   5.672
 7067SOL    HW222101   0.355   3.653   5.588
 7068SOL     OW22102   2.113   1.211   3.979
 7068SOL    HW122103   2.085   1.213   4.075
 7068SOL    HW222104   2.205   1.249   3.971
 7069SOL     OW22105   0.829   4.661   4.950
 7069SOL    HW122106   0.800   4.566   4.938
 7069SOL    HW222107   0.885   4.689   4.872
 7070SOL     OW22108   5.950   5.379   4.858
 7070SOL    HW122109   5.917   5.470   4.883
 7070SOL    HW222110   5.902   5.311   4.914
 7071SOL     OW22111   1.490   6.230   5.355
 7071SOL    HW122112   1.559   6.276   5.410
 7071SOL    HW222113   1.534   6.163   5.296
 7072SOL     OW22114   0.750   6.559   6.642
 7072SOL    HW122115   0.692   6.542   6.562
 7072SOL    HW222116   0.733   6.489   6.711
 7073SOL     OW22117   0.912   0.262   5.862
 7073SOL    HW122118   0.893   0.184   5.922
 7073SOL    HW222119   0.826   0.304   5.834
 7074SOL     OW22120   3.232   1.924   1.242
 7074SOL    HW122121   3.234   1.824   1.241
 7074SOL    HW222122   3.141   1.955   1.271
 7075SOL     OW22123   1.770   6.124   3.251
 7075SOL    HW122124   1.796   6.078   3.166
 7075SOL    HW222125   1.843   6.186   3.279
 7076SOL     OW22126   2.879   2.735   6.664
 7076SOL    HW122127   2.915   2.736   6.570
 7076SOL    HW222128   2.943   2.688   6.724
 7077SOL     OW22129   2.532   5.583   5.456
 7077SOL    HW122130   2.437   5.612   5.468
 7077SOL    HW222131   2.592   5.660   5.477
 7078SOL     OW22132   5.998   0.877   3.210
 7078SOL    HW122133   6.014   0.967   3.171
 7078SOL    HW222134   5.934   0.884   3.286
 7079SOL     OW22135   6.053   6.146   5.686
 7079SOL    HW122136   5.976   6.200   5.721
 7079SOL    HW222137   6.026   6.050   5.677
 7080SOL     OW22138   4.818   1.769   4.003
 7080SOL    HW122139   4.864   1.796   4.088
 7080SOL    HW222140   4.737   1.715   4.025
 7081SOL     OW22141   3.735   1.609   5.295
 7081SOL    HW122142   3.791   1.683   5.332
 7081SOL    HW222143   3.703   1.550   5.369
 7082SOL     OW22144   5.279   0.732   6.007
 7082SOL    HW122145   5.227   0.646   6.012
 7082SOL    HW222146   5.310   0.757   6.099
 7083SOL     OW22147   3.348   6.928   6.633
 7083SOL    HW122148   3.418   6.899   6.699
 7083SOL    HW222149   3.323   6.851   6.575
 7084SOL     OW22150   6.789   6.201   6.301
 7084SOL    HW122151   6.880   6.225   6.267
 7084SOL    HW222152   6.781   6.101   6.305
 7085SOL     OW22153   1.926   2.116   1.839
 7085SOL    HW122154   1.868   2.036   1.824
 7085SOL    HW222155   1.956   2.118   1.935
 7086SOL     OW22156   5.493   0.335   6.407
 7086SOL    HW122157   5.444   0.402   6.463
 7086SOL    HW222158   5.586   0.324   6.443
 7087SOL     OW22159   1.489   3.310   4.160
 7087SOL    HW122160   1.451   3.345   4.247
 7087SOL    HW222161   1.476   3.211   4.156
 7088SOL     OW22162   6.157   3.367   4.941
 7088SOL    HW122163   6.192   3.446   4.991
 7088SOL    HW222164   6.061   3.354   4.963
 7089SOL     OW22165   2.770   1.842   6.968
 7089SOL    HW122166   2.785   1.810   6.875
 7089SOL    HW222167   2.795   1.938   6.975
 7090SOL     OW22168   2.484   2.306   5.443
 7090SOL    HW122169   2.452   2.342   5.356
 7090SOL    HW222170   2.411   2.254   5.487
 7091SOL     OW22171   6.753   0.047   0.363
 7091SOL    HW122172   6.793   6.989   0.405
 7091SOL    HW222173   6.782   0.128   0.413
 7092SOL     OW22174   3.552   3.898   0.980
 7092SOL    HW122175   3.452   3.900   0.991
 7092SOL    HW222176   3.588   3.814   1.021
 7093SOL     OW22177   3.307   4.172   4.618
 7093SOL    HW122178   3.402   4.185   4.646
 7093SOL    HW222179   3.247   4.175   4.698
 7094SOL     OW22180   0.852   0.337   5.293
 7094SOL    HW122181   0.787   0.306   5.224
 7094SOL    HW222182   0.898   0.258   5.333
 7095SOL     OW22183   0.731   3.306   6.452
 7095SOL    HW122184   0.718   3.271   6.359
 7095SOL    HW222185   0.641   3.329   6.491
 7096SOL     OW22186   4.617   2.161   3.503
 7096SOL    HW122187   4.530   2.209   3.490
 7096SOL    HW222188   4.638   2.108   3.421
 7097SOL     OW22189   0.029   0.833   1.537
 7097SOL    HW122190   6.996   0.790   1.466
 7097SOL    HW222191   0.121   0.849   1.501
 7098SOL     OW22192   2.037   6.197   6.351
 7098SOL    HW122193   2.125   6.203   6.398
 7098SOL    HW222194   1.968   6.246   6.403
 7099SOL     OW22195   1.207   1.148   6.407
 7099SOL    HW122196   1.149   1.203   6.468
 7099SOL    HW222197   1.149   1.100   6.341
 7100SOL     OW22198   5.309   3.633   1.074
 7100SOL    HW122199   5.294   3.658   1.169
 7100SOL    HW222200   5.349   3.541   1.069
 7101SOL     OW22201   3.024   0.364   5.313
 7101SOL    HW122202   3.004   0.387   5.218
 7101SOL    HW222203   3.042   0.448   5.365
 7102SOL     OW22204   4.102   1.450   0.700
 7102SOL    HW122205   4.019   1.496   0.668
 7102SOL    HW222206   4.122   1.479   0.794
 7103SOL     OW22207   3.280   6.529   7.002
 7103SOL    HW122208   3.356   6.515   6.939
 7103SOL    HW222209   3.315   6.554   0.068
 7104SOL     OW22210   1.062   1.873   3.120
 7104SOL    HW122211   1.132   1.920   3.066
 7104SOL    HW222212   1.024   1.937   3.187
 7105SOL     OW22213   3.409   3.610   4.798
 7105SOL    HW122214   3.494   3.659   4.780
 7105SOL    HW222215   3.350   3.666   4.856
 7106SOL     OW22216   3.651   2.904   5.098
 7106SOL    HW122217   3.575   2.922   5.160
 7106SOL    HW222218   3.715   2.841   5.141
 7107SOL     OW22219   2.465   2.166   0.187
 7107SOL    HW122220   2.473   2.263   0.208
 7107SOL    HW222221   2.542   2.116   0.229
 7108SOL     OW22222   5.464   6.691   1.424
 7108SOL    HW122223   5.395   6.747   1.380
 7108SOL    HW222224   5.533   6.664   1.357
 7109SOL     OW22225   3.577   0.187   6.692
 7109SOL    HW122226   3.653   0.144   6.644
 7109SOL    HW222227   3.558   0.136   6.776
 7110SOL     OW22228   4.596   5.426   4.173
 7110SOL    HW122229   4.581   5.514   4.219
 7110SOL    HW222230   4.550   5.354   4.225
 7111SOL     OW22231   2.288   2.856   4.337
 7111SOL    HW122232   2.263   2.926   4.269
 7111SOL    HW222233   2.223   2.780   4.331
 7112SOL     OW22234   1.197   6.574   3.703
 7112SOL    HW122235   1.202   6.483   3.662
 7112SOL    HW222236   1.219   6.643   3.635
 7113SOL     OW22237   3.969   3.488   4.411
 7113SOL    HW122238   3.902   3.524   4.346
 7113SOL    HW222239   3.923   3.436   4.482
 7114SOL     OW22240   4.522   1.007   1.608
 7114SOL    HW122241   4.534   0.917   1.566
 7114SOL    HW222242   4.612   1.049   1.624
 7115SOL     OW22243   4.638   1.553   1.434
 7115SOL    HW122244   4.692   1.612   1.374
 7115SOL    HW222245   4.572   1.502   1.378
 7116SOL     OW22246   5.219   3.808   3.073
 7116SOL    HW122247   5.208   3.882   3.006
 7116SOL    HW222248   5.311   3.812   3.112
 7117SOL     OW22249   6.260   6.488   2.307
 7117SOL    HW122250   6.310   6.461   2.389
 7117SOL    HW222251   6.319   6.479   2.227
 7118SOL     OW22252   6.105   3.534   1.027
 7118SOL    HW122253   6.059   3.526   1.116
 7118SOL    HW222254   6.049   3.492   0.957
 7119SOL     OW22255   6.719   1.189   3.540
 7119SOL    HW122256   6.731   1.288   3.528
 7119SOL    HW222257   6.670   1.153   3.460
 7120SOL     OW22258   4.677   1.540   3.561
 7120SOL    HW122259   4.720   1.594   3.633
 7120SOL    HW222260   4.643   1.600   3.489
 7121SOL     OW22261   2.936   6.525   3.643
 7121SOL    HW122262   2.933   6.426   3.626
 7121SOL    HW222263   2.844   6.563   3.633
 7122SOL     OW22264   6.712   0.834   6.930
 7122SOL    HW122265   6.616   0.824   6.905
 7122SOL    HW222266   6.769   0.810   6.851
 7123SOL     OW22267   3.302   5.041   1.093
 7123SOL    HW122268   3.339   5.091   1.171
 7123SOL    HW222269   3.245   4.966   1.125
 7124SOL     OW22270   0.325   5.046   0.135
 7124SOL    HW122271   0.364   5.117   0.194
 7124SOL    HW222272   0.272   4.982   0.192
 7125SOL     OW22273   6.548   6.206   2.469
 7125SOL    HW122274   6.479   6.170   2.406
 7125SOL    HW222275   6.618   6.255   2.416
 7126SOL     OW22276   1.021   4.671   0.619
 7126SOL    HW122277   1.103   4.709   0.577
 7126SOL    HW222278   0.940   4.719   0.585
 7127SOL     OW22279   3.789   6.402   4.272
 7127SOL    HW122280   3.736   6.464   4.330
 7127SOL    HW222281   3.727   6.348   4.215
 7128SOL     OW22282   3.434   3.934   1.287
 7128SOL    HW122283   3.491   3.870   1.234
 7128SOL    HW222284   3.460   3.929   1.384
 7129SOL     OW22285   2.321   7.019   1.941
 7129SOL    HW122286   2.390   6.946   1.937
 7129SOL    HW222287   2.264   7.015   1.859
 7130SOL     OW22288   2.114   4.489   3.944
 7130SOL    HW122289   2.071   4.439   3.870
 7130SOL    HW222290   2.144   4.579   3.911
 7131SOL     OW22291   2.765   0.796   2.906
 7131SOL    HW122292   2.811   0.883   2.893
 7131SOL    HW222293   2.826   0.732   2.954
 7132SOL     OW22294   3.935   3.859   3.150
 7132SOL    HW122295   3.989   3.793   3.201
 7132SOL    HW222296   3.888   3.920   3.213
 7133SOL     OW22297   5.199   4.871   3.445
 7133SOL    HW122298   5.277   4.872   3.383
 7133SOL    HW222299   5.223   4.918   3.530
 7134SOL     OW22300   5.975   4.980   4.123
 7134SOL    HW122301   5.959   4.982   4.222
 7134SOL    HW222302   6.023   4.895   4.100
 7135SOL     OW22303   0.867   1.832   5.315
 7135SOL    HW122304   0.833   1.884   5.393
 7135SOL    HW222305   0.799   1.763   5.289
 7136SOL     OW22306   1.876   1.373   0.454
 7136SOL    HW122307   1.876   1.414   0.545
 7136SOL    HW222308   1.960   1.398   0.406
 7137SOL     OW22309   4.581   0.685   4.848
 7137SOL    HW122310   4.638   0.631   4.786
 7137SOL    HW222311   4.639   0.748   4.900
 7138SOL     OW22312   2.245   4.055   1.497
 7138SOL    HW122313   2.183   4.084   1.425
 7138SOL    HW222314   2.328   4.112   1.495
 7139SOL     OW22315   4.512   3.001   1.483
 7139SOL    HW122316   4.437   2.969   1.540
 7139SOL    HW222317   4.565   3.070   1.533
 7140SOL     OW22318   6.073   4.032   5.439
 7140SOL    HW122319   6.172   4.028   5.438
 7140SOL    HW222320   6.035   3.940   5.433
 7141SOL     OW22321   2.772   6.623   0.715
 7141SOL    HW122322   2.865   6.587   0.724
 7141SOL    HW222323   2.717   6.559   0.662
 7142SOL     OW22324   4.214   6.484   3.927
 7142SOL    HW122325   4.275   6.551   3.970
 7142SOL    HW222326   4.125   6.487   3.972
 7143SOL     OW22327   1.279   3.877   6.011
 7143SOL    HW122328   1.343   3.941   6.053
 7143SOL    HW222329   1.222   3.924   5.944
 7144SOL     OW22330   0.901   1.694   3.255
 7144SOL    HW122331   0.915   1.686   3.354
 7144SOL    HW222332   0.980   1.741   3.214
 7145SOL     OW22333   4.902   6.887   6.905
 7145SOL    HW122334   4.972   6.827   6.945
 7145SOL    HW222335   4.841   6.920   6.977
 7146SOL     OW22336   3.046   5.484   0.026
 7146SOL    HW122337   2.972   5.453   0.086
 7146SOL    HW222338   3.009   5.505   6.959
 7147SOL     OW22339   0.022   0.390   2.875
 7147SOL    HW122340   0.034   0.426   2.783
 7147SOL    HW222341   0.064   0.453   2.941
 7148SOL     OW22342   1.295   0.622   1.680
 7148SOL    HW122343   1.249   0.537   1.653
 7148SOL    HW222344   1.295   0.686   1.603
 7149SOL     OW22345   6.518   1.199   3.307
 7149SOL    HW122346   6.531   1.116   3.253
 7149SOL    HW222347   6.527   1.279   3.247
 7150SOL     OW22348   6.264   2.806   6.680
 7150SOL    HW122349   6.362   2.787   6.683
 7150SOL    HW222350   6.238   2.860   6.760
 7151SOL     OW22351   2.796   5.888   1.826
 7151SOL    HW122352   2.729   5.899   1.899
 7151SOL    HW222353   2.881   5.935   1.851
 7152SOL     OW22354   1.641   2.708   3.854
 7152SOL    HW122355   1.605   2.639   3.791
 7152SOL    HW222356   1.632   2.675   3.948
 7153SOL     OW22357   4.083   1.453   3.830
 7153SOL    HW122358   4.009   1.387   3.825
 7153SOL    HW222359   4.160   1.421   3.775
 7154SOL     OW22360   4.520   5.701   4.208
 7154SOL    HW122361   4.608   5.726   4.169
 7154SOL    HW222362   4.518   5.727   4.305
 7155SOL     OW22363   1.674   0.339   1.606
 7155SOL    HW122364   1.725   0.420   1.575
 7155SOL    HW222365   1.702   0.315   1.699
 7156SOL     OW22366   6.674   5.243   4.643
 7156SOL    HW122367   6.613   5.320   4.624
 7156SOL    HW222368   6.765   5.263   4.607
 7157SOL     OW22369   4.946   5.169   0.740
 7157SOL    HW122370   5.034   5.121   0.744
 7157SOL    HW222371   4.948   5.247   0.803
 7158SOL     OW22372   6.781   6.831   3.075
 7158SOL    HW122373   6.869   6.791   3.050
 7158SOL    HW222374   6.763   6.814   3.172
 7159SOL     OW22375   0.818   5.424   0.338
 7159SOL    HW122376   0.735   5.434   0.284
 7159SOL    HW222377   0.846   5.514   0.373
 7160SOL     OW22378   6.146   0.776   1.861
 7160SOL    HW122379   6.182   0.683   1.870
 7160SOL    HW222380   6.046   0.772   1.856
 7161SOL     OW22381   3.509   3.296   4.243
 7161SOL    HW122382   3.562   3.219   4.276
 7161SOL    HW222383   3.427   3.308   4.300
 7162SOL     OW22384   3.319   4.882   3.865
 7162SOL    HW122385   3.386   4.902   3.793
 7162SOL    HW222386   3.333   4.945   3.941
 7163SOL     OW22387   3.076   0.357   3.259
 7163SOL    HW122388   3.167   0.353   3.299
 7163SOL    HW222389   3.081   0.337   3.161
 7164SOL     OW22390   2.182   0.896   2.992
 7164SOL    HW122391   2.193   0.963   3.066
 7164SOL    HW222392   2.272   0.872   2.955
 7165SOL     OW22393   5.326   1.193   0.747
 7165SOL    HW122394   5.399   1.226   0.807
 7165SOL    HW222395   5.245   1.251   0.757
 7166SOL     OW22396   5.196   5.069   0.707
 7166SOL    HW122397   5.274   5.031   0.757
 7166SOL    HW222398   5.198   5.169   0.714
 7167SOL     OW22399   4.978   3.199   5.088
 7167SOL    HW122400   5.015   3.197   4.994
 7167SOL    HW222401   5.046   3.160   5.150
 7168SOL     OW22402   0.994   0.647   3.783
 7168SOL    HW122403   1.000   0.653   3.882
 7168SOL    HW222404   0.907   0.605   3.757
 7169SOL     OW22405   1.840   2.826   5.511
 7169SOL    HW122406   1.775   2.881   5.563
 7169SOL    HW222407   1.803   2.734   5.497
 7170SOL     OW22408   6.013   5.172   3.885
 7170SOL    HW122409   5.954   5.121   3.823
 7170SOL    HW222410   6.016   5.126   3.974
 7171SOL     OW22411   4.418   3.172   5.428
 7171SOL    HW122412   4.469   3.249   5.388
 7171SOL    HW222413   4.389   3.196   5.520
 7172SOL     OW22414   1.425   0.079   0.239
 7172SOL    HW122415   1.507   0.031   0.206
 7172SOL    HW222416   1.412   0.058   0.336
 7173SOL     OW22417   0.177   6.164   5.629
 7173SOL    HW122418   0.104   6.202   5.686
 7173SOL    HW222419   0.137   6.114   5.552
 7174SOL     OW22420   1.946   5.281   0.035
 7174SOL    HW122421   1.900   5.328   0.111
 7174SOL    HW222422   1.898   5.301   6.973
 7175SOL     OW22423   6.022   4.001   6.867
 7175SOL    HW122424   6.042   4.098   6.881
 7175SOL    HW222425   5.974   3.990   6.780
 7176SOL     OW22426   5.895   4.328   1.173
 7176SOL    HW122427   5.890   4.231   1.149
 7176SOL    HW222428   5.809   4.356   1.216
 7177SOL     OW22429   1.169   5.142   2.892
 7177SOL    HW122430   1.210   5.167   2.804
 7177SOL    HW222431   1.229   5.171   2.966
 7178SOL     OW22432   0.708   2.435   5.096
 7178SOL    HW122433   0.783   2.377   5.127
 7178SOL    HW222434   0.732   2.531   5.108
 7179SOL     OW22435   2.682   4.128   5.757
 7179SOL    HW122436   2.694   4.158   5.663
 7179SOL    HW222437   2.595   4.079   5.766
 7180SOL     OW22438   0.824   6.110   2.152
 7180SOL    HW122439   0.857   6.041   2.087
 7180SOL    HW222440   0.867   6.095   2.241
 7181SOL     OW22441   4.855   0.191   1.169
 7181SOL    HW122442   4.815   0.149   1.250
 7181SOL    HW222443   4.784   0.204   1.100
 7182SOL     OW22444   2.623   4.088   5.316
 7182SOL    HW122445   2.598   4.178   5.280
 7182SOL    HW222446   2.552   4.022   5.292
 7183SOL     OW22447   1.401   4.959   3.021
 7183SOL    HW122448   1.440   5.048   3.044
 7183SOL    HW222449   1.415   4.941   2.924
 7184SOL     OW22450   2.415   6.277   4.277
 7184SOL    HW122451   2.461   6.303   4.191
 7184SOL    HW222452   2.338   6.217   4.256
 7185SOL     OW22453   4.260   2.852   6.945
 7185SOL    HW122454   4.266   2.948   6.971
 7185SOL    HW222455   4.284   2.794   7.024
 7186SOL     OW22456   6.581   5.877   5.538
 7186SOL    HW122457   6.672   5.870   5.578
 7186SOL    HW222458   6.535   5.959   5.572
 7187SOL     OW22459   2.037   4.138   1.966
 7187SOL    HW122460   2.072   4.178   1.881
 7187SOL    HW222461   2.107   4.082   2.009
 7188SOL     OW22462   4.939   1.416   2.187
 7188SOL    HW122463   4.997   1.487   2.146
 7188SOL    HW222464   4.926   1.342   2.122
 7189SOL     OW22465   0.202   1.526   5.638
 7189SOL    HW122466   0.276   1.543   5.703
 7189SOL    HW222467   0.218   1.579   5.555
 7190SOL     OW22468   5.438   4.022   3.420
 7190SOL    HW122469   5.379   3.941   3.412
 7190SOL    HW222470   5.393   4.100   3.378
 7191SOL     OW22471   1.418   3.681   1.898
 7191SOL    HW122472   1.482   3.681   1.975
 7191SOL    HW222473   1.453   3.621   1.826
 7192SOL     OW22474   2.609   4.308   5.961
 7192SOL    HW122475   2.604   4.382   5.893
 7192SOL    HW222476   2.665   4.234   5.925
 7193SOL     OW22477   4.276   2.286   4.081
 7193SOL    HW122478   4.340   2.360   4.101
 7193SOL    HW222479   4.185   2.312   4.113
 7194SOL     OW22480   2.328   2.027   1.713
 7194SOL    HW122481   2.403   1.992   1.657
 7194SOL    HW222482   2.335   2.126   1.722
 7195SOL     OW22483   1.008   5.261   0.971
 7195SOL    HW122484   0.985   5.187   0.907
 7195SOL    HW222485   1.106   5.278   0.968
 7196SOL     OW22486   3.023   3.811   2.301
 7196SOL    HW122487   3.121   3.796   2.293
 7196SOL    HW222488   2.985   3.832   2.211
 7197SOL     OW22489   6.664   2.087   5.294
 7197SOL    HW122490   6.727   2.153   5.335
 7197SOL    HW222491   6.602   2.134   5.231
 7198SOL     OW22492   1.319   6.289   6.599
 7198SOL    HW122493   1.243   6.347   6.568
 7198SOL    HW222494   1.366   6.250   6.520
 7199SOL     OW22495   6.618   6.670   2.913
 7199SOL    HW122496   6.582   6.721   2.835
 7199SOL    HW222497   6.677   6.730   2.968
 7200SOL     OW22498   2.069   1.052   0.927
 7200SOL    HW122499   2.160   1.011   0.929
 7200SOL    HW222500   2.075   1.146   0.896
 7201SOL     OW22501   1.920   3.883   3.909
 7201SOL    HW122502   2.008   3.845   3.880
 7201SOL    HW222503   1.908   3.974   3.869
 7202SOL     OW22504   3.689   0.938   6.973
 7202SOL    HW122505   3.655   1.031   6.955
 7202SOL    HW222506   3.702   0.890   6.886
 7203SOL     OW22507   5.622   1.271   6.887
 7203SOL    HW122508   5.676   1.201   6.935
 7203SOL    HW222509   5.527   1.241   6.882
 7204SOL     OW22510   5.838   1.207   3.336
 7204SOL    HW122511   5.867   1.289   3.384
 7204SOL    HW222512   5.906   1.184   3.266
 7205SOL     OW22513   2.219   4.719   2.341
 7205SOL    HW122514   2.230   4.811   2.302
 7205SOL    HW222515   2.309   4.678   2.356
 7206SOL     OW22516   6.573   0.986   1.008
 7206SOL    HW122517   6.533   1.036   0.932
 7206SOL    HW222518   6.502   0.965   1.075
 7207SOL     OW22519   3.347   0.079   1.230
 7207SOL    HW122520   3.407   0.003   1.207
 7207SOL    HW222521   3.297   0.057   1.314
 7208SOL     OW22522   3.374   0.150   5.739
 7208SOL    HW122523   3.349   0.055   5.758
 7208SOL    HW222524   3.387   0.200   5.825
 7209SOL     OW22525   3.649   3.496   4.402
 7209SOL    HW122526   3.576   3.446   4.355
 7209SOL    HW222527   3.667   3.582   4.354
 7210SOL     OW22528   4.549   1.086   3.770
 7210SOL    HW122529   4.532   1.103   3.866
 7210SOL    HW222530   4.463   1.092   3.719
 7211SOL     OW22531   1.494   5.155   3.687
 7211SOL    HW122532   1.499   5.244   3.734
 7211SOL    HW222533   1.518   5.082   3.751
 7212SOL     OW22534   5.936   6.458   4.314
 7212SOL    HW122535   5.891   6.545   4.294
 7212SOL    HW222536   5.922   6.394   4.239
 7213SOL     OW22537   6.208   0.881   5.347
 7213SOL    HW122538   6.182   0.797   5.396
 7213SOL    HW222539   6.253   0.943   5.410
 7214SOL     OW22540   1.693   5.168   5.012
 7214SOL    HW122541   1.626   5.142   5.081
 7214SOL    HW222542   1.772   5.209   5.057
 7215SOL     OW22543   0.874   3.493   3.724
 7215SOL    HW122544   0.899   3.585   3.695
 7215SOL    HW222545   0.953   3.448   3.765
 7216SOL     OW22546   2.674   0.522   0.201
 7216SOL    HW122547   2.704   0.614   0.174
 7216SOL    HW222548   2.748   0.457   0.185
 7217SOL     OW22549   0.754   2.992   2.460
 7217SOL    HW122550   0.694   2.958   2.532
 7217SOL    HW222551   0.849   2.987   2.491
 7218SOL     OW22552   4.993   2.626   5.418
 7218SOL    HW122553   5.038   2.541   5.392
 7218SOL    HW222554   4.922   2.607   5.486
 7219SOL     OW22555   4.019   0.743   2.623
 7219SOL    HW122556   4.016   0.717   2.527
 7219SOL    HW222557   4.011   0.843   2.631
 7220SOL     OW22558   6.454   1.395   2.793
 7220SOL    HW122559   6.447   1.375   2.891
 7220SOL    HW222560   6.515   1.328   2.750
 7221SOL     OW22561   5.314   4.760   6.206
 7221SOL    HW122562   5.220   4.765   6.240
 7221SOL    HW222563   5.344   4.664   6.207
 7222SOL     OW22564   0.285   5.872   1.575
 7222SOL    HW122565   0.310   5.964   1.607
 7222SOL    HW222566   0.226   5.879   1.495
 7223SOL     OW22567   3.663   1.138   5.920
 7223SOL    HW122568   3.648   1.043   5.892
 7223SOL    HW222569   3.757   1.165   5.898
 7224SOL     OW22570   5.425   6.908   4.698
 7224SOL    HW122571   5.422   6.867   4.790
 7224SOL    HW222572   5.395   7.004   4.704
 7225SOL     OW22573   2.506   6.521   6.835
 7225SOL    HW122574   2.442   6.452   6.800
 7225SOL    HW222575   2.472   6.558   6.921
 7226SOL     OW22576   0.425   6.228   0.394
 7226SOL    HW122577   0.398   6.196   0.303
 7226SOL    HW222578   0.524   6.247   0.395
 7227SOL     OW22579   6.883   2.414   6.849
 7227SOL    HW122580   6.959   2.350   6.864
 7227SOL    HW222581   6.915   2.490   6.793
 7228SOL     OW22582   0.957   0.725   2.233
 7228SOL    HW122583   0.978   0.781   2.313
 7228SOL    HW222584   0.951   0.629   2.260
 7229SOL     OW22585   0.712   0.561   3.768
 7229SOL    HW122586   0.713   0.604   3.858
 7229SOL    HW222587   0.672   0.470   3.774
 7230SOL     OW22588   5.138   4.268   3.586
 7230SOL    HW122589   5.113   4.228   3.498
 7230SOL    HW222590   5.236   4.253   3.603
 7231SOL     OW22591   6.060   1.159   6.319
 7231SOL    HW122592   6.022   1.218   6.390
 7231SOL    HW222593   5.990   1.094   6.289
 7232SOL     OW22594   4.464   4.909   1.949
 7232SOL    HW122595   4.407   4.868   2.020
 7232SOL    HW222596   4.560   4.903   1.975
 7233SOL     OW22597   0.059   2.256   6.276
 7233SOL    HW122598   0.059   2.348   6.236
 7233SOL    HW222599   0.153   2.229   6.296
 7234SOL     OW22600   6.077   2.056   1.679
 7234SOL    HW122601   6.177   2.047   1.679
 7234SOL    HW222602   6.040   2.015   1.596
 7235SOL     OW22603   5.482   3.572   5.244
 7235SOL    HW122604   5.424   3.651   5.263
 7235SOL    HW222605   5.578   3.598   5.253
 7236SOL     OW22606   3.529   0.186   2.907
 7236SOL    HW122607   3.461   0.253   2.879
 7236SOL    HW222608   3.620   0.228   2.906
 7237SOL     OW22609   5.808   5.815   5.946
 7237SOL    HW122610   5.740   5.873   5.990
 7237SOL    HW222611   5.872   5.781   6.014
 7238SOL     OW22612   2.111   1.685   1.826
 7238SOL    HW122613   2.130   1.698   1.924
 7238SOL    HW222614   2.186   1.634   1.785
 7239SOL     OW22615   3.046   1.676   1.582
 7239SOL    HW122616   3.029   1.590   1.630
 7239SOL    HW222617   2.978   1.743   1.609
 7240SOL     OW22618   2.808   4.381   0.136
 7240SOL    HW122619   2.800   4.411   0.231
 7240SOL    HW222620   2.725   4.406   0.086
 7241SOL     OW22621   3.664   6.846   4.800
 7241SOL    HW122622   3.706   6.937   4.802
 7241SOL    HW222623   3.736   6.776   4.801
 7242SOL     OW22624   5.451   4.554   6.453
 7242SOL    HW122625   5.544   4.522   6.471
 7242SOL    HW222626   5.448   4.654   6.464
 7243SOL     OW22627   0.382   5.612   0.172
 7243SOL    HW122628   0.466   5.568   0.141
 7243SOL    HW222629   0.366   5.695   0.118
 7244SOL     OW22630   6.154   1.123   1.495
 7244SOL    HW122631   6.238   1.069   1.495
 7244SOL    HW222632   6.107   1.112   1.407
 7245SOL     OW22633   6.955   1.647   3.969
 7245SOL    HW122634   6.901   1.566   3.992
 7245SOL    HW222635   0.029   1.623   3.972
 7246SOL     OW22636   6.761   6.188   5.947
 7246SOL    HW122637   6.792   6.134   5.869
 7246SOL    HW222638   6.745   6.282   5.918
 7247SOL     OW22639   3.312   5.551   2.672
 7247SOL    HW122640   3.316   5.468   2.728
 7247SOL    HW222641   3.273   5.528   2.582
 7248SOL     OW22642   3.571   0.739   4.644
 7248SOL    HW122643   3.554   0.662   4.582
 7248SOL    HW222644   3.669   0.758   4.648
 7249SOL     OW22645   6.412   5.320   0.339
 7249SOL    HW122646   6.323   5.293   0.375
 7249SOL    HW222647   6.484   5.265   0.383
 7250SOL     OW22648   2.836   4.739   6.085
 7250SOL    HW122649   2.870   4.646   6.072
 7250SOL    HW222650   2.749   4.736   6.134
 7251SOL     OW22651   5.794   0.319   4.920
 7251SOL    HW122652   5.894   0.316   4.929
 7251SOL    HW222653   5.755   0.368   4.998
 7252SOL     OW22654   3.820   3.309   5.132
 7252SOL    HW122655   3.855   3.265   5.050
 7252SOL    HW222656   3.786   3.401   5.109
 7253SOL     OW22657   5.225   5.940   1.224
 7253SOL    HW122658   5.231   6.030   1.183
 7253SOL    HW222659   5.160   5.942   1.301
 7254SOL     OW22660   4.719   6.036   4.769
 7254SOL    HW122661   4.753   5.952   4.726
 7254SOL    HW222662   4.728   6.112   4.704
 7255SOL     OW22663   3.459   3.726   2.555
 7255SOL    HW122664   3.428   3.816   2.587
 7255SOL    HW222665   3.554   3.712   2.582
 7256SOL     OW22666   4.488   4.969   4.339
 7256SOL    HW122667   4.428   4.941   4.264
 7256SOL    HW222668   4.559   4.900   4.354
 7257SOL     OW22669   6.106   3.809   2.934
 7257SOL    HW122670   6.009   3.833   2.937
 7257SOL    HW222671   6.160   3.885   2.971
 7258SOL     OW22672   3.436   6.501   4.323
 7258SOL    HW122673   3.409   6.597   4.318
 7258SOL    HW222674   3.356   6.443   4.305
 7259SOL     OW22675   2.296   5.192   5.952
 7259SOL    HW122676   2.251   5.248   6.022
 7259SOL    HW222677   2.387   5.166   5.983
 7260SOL     OW22678   3.527   1.989   2.196
 7260SOL    HW122679   3.522   2.025   2.103
 7260SOL    HW222680   3.613   2.017   2.238
 7261SOL     OW22681   1.284   3.923   1.821
 7261SOL    HW122682   1.185   3.921   1.838
 7261SOL    HW222683   1.323   3.833   1.843
 7262SOL     OW22684   5.944   1.611   5.072
 7262SOL    HW122685   5.976   1.544   5.005
 7262SOL    HW222686   6.005   1.609   5.152
 7263SOL     OW22687   2.972   6.041   1.986
 7263SOL    HW122688   3.011   5.983   2.058
 7263SOL    HW222689   3.047   6.087   1.937
 7264SOL     OW22690   0.638   0.286   5.924
 7264SOL    HW122691   0.617   0.318   6.016
 7264SOL    HW222692   0.578   0.332   5.859
 7265SOL     OW22693   4.287   4.870   6.061
 7265SOL    HW122694   4.266   4.898   5.968
 7265SOL    HW222695   4.370   4.916   6.093
 7266SOL     OW22696   5.412   0.945   2.148
 7266SOL    HW122697   5.341   0.896   2.098
 7266SOL    HW222698   5.371   1.019   2.202
 7267SOL     OW22699   0.024   4.045   3.856
 7267SOL    HW122700   0.005   4.035   3.953
 7267SOL    HW222701   0.123   4.045   3.841
 7268SOL     OW22702   3.225   0.003   1.470
 7268SOL    HW122703   3.157   0.060   1.517
 7268SOL    HW222704   3.310   0.001   1.523
 7269SOL     OW22705   1.573   6.837   1.721
 7269SOL    HW122706   1.586   6.921   1.669
 7269SOL    HW222707   1.478   6.808   1.713
 7270SOL     OW22708   3.344   1.108   3.028
 7270SOL    HW122709   3.253   1.149   3.028
 7270SOL    HW222710   3.405   1.163   2.969
 7271SOL     OW22711   6.665   3.985   3.370
 7271SOL    HW122712   6.615   3.987   3.457
 7271SOL    HW222713   6.685   3.890   3.346
 7272SOL     OW22714   5.625   2.524   1.706
 7272SOL    HW122715   5.577   2.438   1.688
 7272SOL    HW222716   5.569   2.582   1.765
 7273SOL     OW22717   5.355   4.334   6.813
 7273SOL    HW122718   5.377   4.290   6.725
 7273SOL    HW222719   5.262   4.371   6.809
 7274SOL     OW22720   6.696   4.924   5.506
 7274SOL    HW122721   6.681   5.001   5.569
 7274SOL    HW222722   6.762   4.951   5.436
 7275SOL     OW22723   6.415   6.868   0.868
 7275SOL    HW122724   6.324   6.828   0.873
 7275SOL    HW222725   6.469   6.819   0.799
 7276SOL     OW22726   2.590   2.063   3.430
 7276SOL    HW122727   2.511   2.107   3.474
 7276SOL    HW222728   2.673   2.113   3.454
 7277SOL     OW22729   5.366   1.577   4.720
 7277SOL    HW122730   5.436   1.646   4.701
 7277SOL    HW222731   5.286   1.622   4.759
 7278SOL     OW22732   2.733   1.314   3.014
 7278SOL    HW122733   2.647   1.362   3.031
 7278SOL    HW222734   2.805   1.380   2.993
 7279SOL     OW22735   4.759   4.884   0.888
 7279SOL    HW122736   4.818   4.896   0.969
 7279SOL    HW222737   4.752   4.786   0.867
 7280SOL     OW22738   6.018   2.314   5.592
 7280SOL    HW122739   5.938   2.367   5.622
 7280SOL    HW222740   6.036   2.332   5.496
 7281SOL     OW22741   4.558   5.759   2.478
 7281SOL    HW122742   4.482   5.694   2.481
 7281SOL    HW222743   4.566   5.796   2.385
 7282SOL     OW22744   6.486   4.065   2.523
 7282SOL    HW122745   6.411   4.088   2.461
 7282SOL    HW222746   6.573   4.098   2.484
 7283SOL     OW22747   4.222   4.757   2.967
 7283SOL    HW122748   4.160   4.760   3.045
 7283SOL    HW222749   4.170   4.771   2.883
 7284SOL     OW22750   6.834   1.656   3.273
 7284SOL    HW122751   6.832   1.683   3.177
 7284SOL    HW222752   6.790   1.727   3.329
 7285SOL     OW22753   4.959   2.889   1.942
 7285SOL    HW122754   4.884   2.945   1.977
 7285SOL    HW222755   4.925   2.828   1.871
 7286SOL     OW22756   6.848   1.075   2.545
 7286SOL    HW122757   6.798   0.989   2.544
 7286SOL    HW222758   6.942   1.058   2.577
 7287SOL     OW22759   1.758   2.748   3.385
 7287SOL    HW122760   1.761   2.797   3.298
 7287SOL    HW222761   1.681   2.781   3.440
 7288SOL     OW22762   2.674   2.044   2.577
 7288SOL    HW122763   2.721   2.090   2.502
 7288SOL    HW222764   2.740   2.016   2.646
 7289SOL     OW22765   6.382   1.249   1.146
 7289SOL    HW122766   6.373   1.327   1.208
 7289SOL    HW222767   6.449   1.269   1.075
 7290SOL     OW22768   3.363   1.406   5.649
 7290SOL    HW122769   3.307   1.489   5.660
 7290SOL    HW222770   3.454   1.422   5.687
 7291SOL     OW22771   3.964   0.917   0.631
 7291SOL    HW122772   3.890   0.927   0.564
 7291SOL    HW222773   3.976   1.004   0.679
 7292SOL     OW22774   2.758   0.194   2.535
 7292SOL    HW122775   2.840   0.219   2.587
 7292SOL    HW222776   2.757   0.095   2.521
 7293SOL     OW22777   0.536   1.459   4.242
 7293SOL    HW122778   0.452   1.421   4.282
 7293SOL    HW222779   0.517   1.550   4.207
 7294SOL     OW22780   3.686   6.454   2.445
 7294SOL    HW122781   3.676   6.553   2.449
 7294SOL    HW222782   3.776   6.428   2.481
 7295SOL     OW22783   6.440   5.378   2.039
 7295SOL    HW122784   6.506   5.438   2.085
 7295SOL    HW222785   6.375   5.433   1.987
 7296SOL     OW22786   4.943   4.491   1.957
 7296SOL    HW122787   4.955   4.479   1.859
 7296SOL    HW222788   4.901   4.409   1.996
 7297SOL     OW22789   4.263   6.688   1.265
 7297SOL    HW122790   4.317   6.604   1.263
 7297SOL    HW222791   4.323   6.766   1.245
 7298SOL     OW22792   4.049   5.342   6.668
 7298SOL    HW122793   4.100   5.274   6.615
 7298SOL    HW222794   3.957   5.306   6.688
 7299SOL     OW22795   1.343   2.728   6.206
 7299SOL    HW122796   1.384   2.640   6.183
 7299SOL    HW222797   1.317   2.729   6.302
 7300SOL     OW22798   0.544   5.009   2.063
 7300SOL    HW122799   0.634   5.030   2.102
 7300SOL    HW222800   0.546   4.916   2.026
 7301SOL     OW22801   4.874   1.671   5.550
 7301SOL    HW122802   4.901   1.755   5.503
 7301SOL    HW222803   4.785   1.641   5.516
 7302SOL     OW22804   5.342   1.386   6.153
 7302SOL    HW122805   5.403   1.361   6.078
 7302SOL    HW222806   5.247   1.379   6.121
 7303SOL     OW22807   2.739   1.731   1.932
 7303SOL    HW122808   2.700   1.778   2.011
 7303SOL    HW222809   2.780   1.799   1.871
 7304SOL     OW22810   2.850   5.382   1.207
 7304SOL    HW122811   2.934   5.340   1.173
 7304SOL    HW222812   2.835   5.469   1.159
 7305SOL     OW22813   6.456   1.125   0.788
 7305SOL    HW122814   6.373   1.071   0.794
 7305SOL    HW222815   6.450   1.188   0.710
 7306SOL     OW22816   0.648   2.532   1.075
 7306SOL    HW122817   0.600   2.470   1.013
 7306SOL    HW222818   0.622   2.626   1.054
 7307SOL     OW22819   2.307   7.013   1.288
 7307SOL    HW122820   2.262   0.049   1.222
 7307SOL    HW222821   2.355   0.046   1.356
 7308SOL     OW22822   4.789   1.202   2.849
 7308SOL    HW122823   4.792   1.264   2.927
 7308SOL    HW222824   4.833   1.116   2.874
 7309SOL     OW22825   2.203   4.825   3.525
 7309SOL    HW122826   2.266   4.817   3.448
 7309SOL    HW222827   2.170   4.919   3.532
 7310SOL     OW22828   2.801   2.765   6.069
 7310SOL    HW122829   2.890   2.732   6.101
 7310SOL    HW222830   2.742   2.784   6.148
 7311SOL     OW22831   0.169   6.670   6.731
 7311SOL    HW122832   0.210   6.604   6.667
 7311SOL    HW222833   0.186   6.639   6.825
 7312SOL     OW22834   6.086   1.733   3.804
 7312SOL    HW122835   6.132   1.797   3.864
 7312SOL    HW222836   6.152   1.692   3.741
 7313SOL     OW22837   2.856   0.637   2.635
 7313SOL    HW122838   2.868   0.709   2.704
 7313SOL    HW222839   2.760   0.633   2.606
 7314SOL     OW22840   0.066   3.908   6.382
 7314SOL    HW122841   6.994   3.882   6.385
 7314SOL    HW222842   0.108   3.876   6.297
 7315SOL     OW22843   1.825   4.982   2.575
 7315SOL    HW122844   1.855   4.961   2.668
 7315SOL    HW222845   1.867   4.918   2.511
 7316SOL     OW22846   2.951   2.504   1.075
 7316SOL    HW122847   3.027   2.564   1.051
 7316SOL    HW222848   2.988   2.417   1.109
 7317SOL     OW22849   3.748   1.552   0.374
 7317SOL    HW122850   3.829   1.498   0.398
 7317SOL    HW222851   3.686   1.496   0.318
 7318SOL     OW22852   4.251   6.193   1.188
 7318SOL    HW122853   4.266   6.243   1.274
 7318SOL    HW222854   4.301   6.238   1.114
 7319SOL     OW22855   5.563   5.263   6.804
 7319SOL    HW122856   5.611   5.314   6.732
 7319SOL    HW222857   5.627   5.203   6.851
 7320SOL     OW22858   0.323   2.505   1.268
 7320SOL    HW122859   0.328   2.604   1.256
 7320SOL    HW222860   0.362   2.460   1.189
 7321SOL     OW22861   1.521   1.008   0.043
 7321SOL    HW122862   1.511   0.947   6.988
 7321SOL    HW222863   1.440   1.067   0.050
 7322SOL     OW22864   0.846   2.166   2.798
 7322SOL    HW122865   0.872   2.255   2.836
 7322SOL    HW222866   0.805   2.179   2.707
 7323SOL     OW22867   1.253   2.846   1.244
 7323SOL    HW122868   1.262   2.808   1.336
 7323SOL    HW222869   1.293   2.938   1.241
 7324SOL     OW22870   5.718   4.838   3.272
 7324SOL    HW122871   5.788   4.906   3.295
 7324SOL    HW222872   5.630   4.884   3.263
 7325SOL     OW22873   4.450   0.813   5.883
 7325SOL    HW122874   4.536   0.846   5.923
 7325SOL    HW222875   4.373   0.852   5.933
 7326SOL     OW22876   3.455   0.399   0.291
 7326SOL    HW122877   3.419   0.351   0.210
 7326SOL    HW222878   3.551   0.374   0.305
 7327SOL     OW22879   0.667   4.087   3.193
 7327SOL    HW122880   0.705   3.997   3.216
 7327SOL    HW222881   0.668   4.100   3.094
 7328SOL     OW22882   4.862   5.166   4.678
 7328SOL    HW122883   4.878   5.257   4.715
 7328SOL    HW222884   4.848   5.101   4.753
 7329SOL     OW22885   3.088   3.653   1.407
 7329SOL    HW122886   3.106   3.626   1.312
 7329SOL    HW222887   2.995   3.689   1.414
 7330SOL     OW22888   2.847   3.376   1.868
 7330SOL    HW122889   2.755   3.340   1.852
 7330SOL    HW222890   2.900   3.371   1.783
 7331SOL     OW22891   5.429   2.061   2.487
 7331SOL    HW122892   5.365   2.133   2.512
 7331SOL    HW222893   5.507   2.101   2.438
 7332SOL     OW22894   3.160   5.624   5.931
 7332SOL    HW122895   3.098   5.625   5.853
 7332SOL    HW222896   3.223   5.547   5.923
 7333SOL     OW22897   0.774   1.112   0.618
 7333SOL    HW122898   0.693   1.074   0.664
 7333SOL    HW222899   0.787   1.207   0.647
 7334SOL     OW22900   2.707   0.032   4.151
 7334SOL    HW122901   2.746   7.010   4.071
 7334SOL    HW222902   2.733   7.007   4.234
 7335SOL     OW22903   6.444   3.368   2.005
 7335SOL    HW122904   6.533   3.403   2.034
 7335SOL    HW222905   6.437   3.271   2.029
 7336SOL     OW22906   1.967   0.187   1.507
 7336SOL    HW122907   2.047   0.221   1.556
 7336SOL    HW222908   1.894   0.167   1.572
 7337SOL     OW22909   2.112   1.585   3.344
 7337SOL    HW122910   2.130   1.586   3.245
 7337SOL    HW222911   2.163   1.660   3.387
 7338SOL     OW22912   5.742   3.275   1.488
 7338SOL    HW122913   5.697   3.325   1.415
 7338SOL    HW222914   5.692   3.190   1.506
 7339SOL     OW22915   6.544   5.488   4.162
 7339SOL    HW122916   6.594   5.507   4.077
 7339SOL    HW222917   6.577   5.403   4.202
 7340SOL     OW22918   2.444   6.488   0.769
 7340SOL    HW122919   2.482   6.553   0.835
 7340SOL    HW222920   2.490   6.399   0.781
 7341SOL     OW22921   6.162   5.336   4.273
 7341SOL    HW122922   6.223   5.411   4.249
 7341SOL    HW222923   6.188   5.299   4.362
 7342SOL     OW22924   1.072   5.329   1.433
 7342SOL    HW122925   1.170   5.344   1.442
 7342SOL    HW222926   1.053   5.278   1.349
 7343SOL     OW22927   5.300   3.399   2.498
 7343SOL    HW122928   5.236   3.348   2.555
 7343SOL    HW222929   5.307   3.354   2.409
 7344SOL     OW22930   2.123   1.115   0.043
 7344SOL    HW122931   2.135   1.024   0.002
 7344SOL    HW222932   2.035   1.152   0.015
 7345SOL     OW22933   4.071   5.205   0.170
 7345SOL    HW122934   4.118   5.122   0.138
 7345SOL    HW222935   4.094   5.281   0.110
 7346SOL     OW22936   3.846   4.784   1.725
 7346SOL    HW122937   3.932   4.734   1.714
 7346SOL    HW222938   3.853   4.845   1.804
 7347SOL     OW22939   5.875   2.241   3.555
 7347SOL    HW122940   5.846   2.332   3.527
 7347SOL    HW222941   5.888   2.238   3.654
 7348SOL     OW22942   0.655   2.331   3.910
 7348SOL    HW122943   0.710   2.330   3.993
 7348SOL    HW222944   0.702   2.280   3.838
 7349SOL     OW22945   3.945   1.369   0.420
 7349SOL    HW122946   4.034   1.414   0.407
 7349SOL    HW222947   3.946   1.320   0.507
 7350SOL     OW22948   2.295   0.697   2.743
 7350SOL    HW122949   2.259   0.656   2.827
 7350SOL    HW222950   2.328   0.789   2.763
 7351SOL     OW22951   3.877   4.684   0.004
 7351SOL    HW122952   3.836   4.772   0.027
 7351SOL    HW222953   3.964   4.675   0.053
 7352SOL     OW22954   6.491   1.013   2.765
 7352SOL    HW122955   6.535   1.065   2.693
 7352SOL    HW222956   6.508   0.915   2.750
 7353SOL     OW22957   5.184   2.742   4.706
 7353SOL    HW122958   5.135   2.776   4.626
 7353SOL    HW222959   5.272   2.790   4.713
 7354SOL     OW22960   6.111   4.433   5.767
 7354SOL    HW122961   6.102   4.493   5.686
 7354SOL    HW222962   6.063   4.347   5.750
 7355SOL     OW22963   1.835   4.788   2.007
 7355SOL    HW122964   1.794   4.821   1.922
 7355SOL    HW222965   1.764   4.747   2.064
 7356SOL     OW22966   6.051   1.570   5.782
 7356SOL    HW122967   6.019   1.475   5.781
 7356SOL    HW222968   6.106   1.586   5.865
 7357SOL     OW22969   6.892   1.568   0.179
 7357SOL    HW122970   6.938   1.480   0.166
 7357SOL    HW222971   6.942   1.639   0.129
 7358SOL     OW22972   3.029   0.802   4.153
 7358SOL    HW122973   3.100   0.780   4.220
 7358SOL    HW222974   2.941   0.814   4.199
 7359SOL     OW22975   3.538   2.955   3.522
 7359SOL    HW122976   3.566   3.051   3.530
 7359SOL    HW222977   3.553   2.909   3.610
 7360SOL     OW22978   0.332   2.978   5.580
 7360SOL    HW122979   0.247   2.958   5.630
 7360SOL    HW222980   0.391   3.035   5.637
 7361SOL     OW22981   5.011   6.621   2.464
 7361SOL    HW122982   4.928   6.646   2.414
 7361SOL    HW222983   5.070   6.702   2.471
 7362SOL     OW22984   1.936   5.986   6.180
 7362SOL    HW122985   2.013   6.050   6.180
 7362SOL    HW222986   1.951   5.916   6.110
 7363SOL     OW22987   5.016   2.823   6.425
 7363SOL    HW122988   4.979   2.756   6.360
 7363SOL    HW222989   5.103   2.859   6.391
 7364SOL     OW22990   4.890   6.754   1.980
 7364SOL    HW122991   4.910   6.666   1.937
 7364SOL    HW222992   4.922   6.828   1.922
 7365SOL     OW22993   3.056   0.823   2.186
 7365SOL    HW122994   3.090   0.764   2.259
 7365SOL    HW222995   2.961   0.798   2.165
 7366SOL     OW22996   0.617   5.404   0.056
 7366SOL    HW122997   0.540   5.362   0.104
 7366SOL    HW222998   0.675   5.332   0.018
 7367SOL     OW22999   4.970   3.668   0.018
 7367SOL    HW123000   4.958   3.599   6.970
 7367SOL    HW223001   4.996   3.624   0.104
 7368SOL     OW23002   3.263   4.100   3.610
 7368SOL    HW123003   3.181   4.047   3.592
 7368SOL    HW223004   3.318   4.107   3.526
 7369SOL     OW23005   4.123   2.778   0.210
 7369SOL    HW123006   4.074   2.817   0.288
 7369SOL    HW223007   4.072   2.796   0.126
 7370SOL     OW23008   2.256   5.951   1.450
 7370SOL    HW123009   2.207   5.892   1.386
 7370SOL    HW223010   2.222   6.045   1.441
 7371SOL     OW23011   2.608   5.431   4.813
 7371SOL    HW123012   2.534   5.369   4.838
 7371SOL    HW223013   2.629   5.421   4.716
 7372SOL     OW23014   3.373   6.669   5.965
 7372SOL    HW123015   3.400   6.577   5.995
 7372SOL    HW223016   3.332   6.718   6.042
 7373SOL     OW23017   3.894   0.706   1.486
 7373SOL    HW123018   3.853   0.623   1.525
 7373SOL    HW223019   3.823   0.758   1.439
 7374SOL     OW23020   1.128   2.912   5.813
 7374SOL    HW123021   1.171   3.002   5.820
 7374SOL    HW223022   1.193   2.841   5.841
 7375SOL     OW23023   1.181   0.264   3.597
 7375SOL    HW123024   1.188   0.218   3.685
 7375SOL    HW223025   1.211   0.202   3.524
 7376SOL     OW23026   2.451   4.037   5.613
 7376SOL    HW123027   2.473   3.944   5.642
 7376SOL    HW223028   2.392   4.033   5.532
 7377SOL     OW23029   4.473   4.811   0.886
 7377SOL    HW123030   4.464   4.850   0.795
 7377SOL    HW223031   4.554   4.849   0.930
 7378SOL     OW23032   6.589   1.185   5.328
 7378SOL    HW123033   6.567   1.265   5.272
 7378SOL    HW223034   6.655   1.212   5.398
 7379SOL     OW23035   2.988   1.456   1.753
 7379SOL    HW123036   3.039   1.381   1.710
 7379SOL    HW223037   2.958   1.427   1.844
 7380SOL     OW23038   6.941   3.551   5.994
 7380SOL    HW123039   6.944   3.582   6.089
 7380SOL    HW223040   6.908   3.626   5.936
 7381SOL     OW23041   5.465   2.203   1.025
 7381SOL    HW123042   5.432   2.228   1.116
 7381SOL    HW223043   5.565   2.204   1.024
 7382SOL     OW23044   0.095   6.041   3.815
 7382SOL    HW123045   0.130   5.948   3.824
 7382SOL    HW223046   0.015   6.042   3.755
 7383SOL     OW23047   0.001   5.479   3.311
 7383SOL    HW123048   6.989   5.572   3.308
 7383SOL    HW223049   6.964   5.418   3.260
 7384SOL     OW23050   5.564   0.349   2.216
 7384SOL    HW123051   5.644   0.360   2.276
 7384SOL    HW223052   5.489   0.406   2.250
 7385SOL     OW23053   4.509   6.577   1.448
 7385SOL    HW123054   4.511   6.482   1.479
 7385SOL    HW223055   4.521   6.580   1.349
 7386SOL     OW23056   0.521   2.430   5.524
 7386SOL    HW123057   0.534   2.488   5.444
 7386SOL    HW223058   0.509   2.335   5.495
 7387SOL     OW23059   4.032   5.817   3.482
 7387SOL    HW123060   3.961   5.866   3.533
 7387SOL    HW223061   4.111   5.801   3.541
 7388SOL     OW23062   6.689   4.997   3.966
 7388SOL    HW123063   6.651   4.939   3.893
 7388SOL    HW223064   6.748   5.067   3.925
 7389SOL     OW23065   1.055   3.919   6.275
 7389SOL    HW123066   1.115   3.985   6.321
 7389SOL    HW223067   1.056   3.833   6.326
 7390SOL     OW23068   2.100   6.554   5.403
 7390SOL    HW123069   2.064   6.486   5.467
 7390SOL    HW223070   2.104   6.643   5.449
 7391SOL     OW23071   6.104   3.412   6.736
 7391SOL    HW123072   6.154   3.456   6.810
 7391SOL    HW223073   6.147   3.436   6.648
 7392SOL     OW23074   2.205   4.560   4.216
 7392SOL    HW123075   2.232   4.652   4.242
 7392SOL    HW223076   2.182   4.558   4.119
 7393SOL     OW23077   0.442   3.745   1.949
 7393SOL    HW123078   0.487   3.658   1.970
 7393SOL    HW223079   0.417   3.791   2.034
 7394SOL     OW23080   3.331   4.365   6.286
 7394SOL    HW123081   3.239   4.326   6.280
 7394SOL    HW223082   3.375   4.334   6.371
 7395SOL     OW23083   1.631   6.879   0.643
 7395SOL    HW123084   1.542   6.925   0.651
 7395SOL    HW223085   1.619   6.790   0.600
 7396SOL     OW23086   0.685   0.054   6.661
 7396SOL    HW123087   0.685   0.121   6.587
 7396SOL    HW223088   0.726   0.094   6.743
 7397SOL     OW23089   6.234   5.298   4.599
 7397SOL    HW123090   6.288   5.219   4.570
 7397SOL    HW223091   6.138   5.285   4.572
 7398SOL     OW23092   4.033   4.789   3.179
 7398SOL    HW123093   3.944   4.755   3.150
 7398SOL    HW223094   4.036   4.889   3.168
 7399SOL     OW23095   5.003   3.802   5.623
 7399SOL    HW123096   5.081   3.794   5.561
 7399SOL    HW223097   5.030   3.851   5.706
 7400SOL     OW23098   2.232   5.237   6.551
 7400SOL    HW123099   2.305   5.269   6.611
 7400SOL    HW223100   2.232   5.290   6.467
 7401SOL     OW23101   6.481   1.881   4.167
 7401SOL    HW123102   6.498   1.815   4.094
 7401SOL    HW223103   6.566   1.929   4.189
 7402SOL     OW23104   2.587   0.315   3.588
 7402SOL    HW123105   2.619   0.406   3.615
 7402SOL    HW223106   2.576   0.312   3.488
 7403SOL     OW23107   1.771   3.204   2.381
 7403SOL    HW123108   1.697   3.138   2.394
 7403SOL    HW223109   1.736   3.297   2.393
 7404SOL     OW23110   1.471   1.014   1.882
 7404SOL    HW123111   1.548   0.951   1.889
 7404SOL    HW223112   1.422   1.015   1.969
 7405SOL     OW23113   2.324   5.066   6.302
 7405SOL    HW123114   2.336   5.014   6.387
 7405SOL    HW223115   2.227   5.070   6.278
 7406SOL     OW23116   0.296   5.009   1.589
 7406SOL    HW123117   0.306   5.058   1.502
 7406SOL    HW223118   0.224   4.940   1.580
 7407SOL     OW23119   2.006   6.948   6.372
 7407SOL    HW123120   1.929   6.935   6.310
 7407SOL    HW223121   2.059   0.004   6.342
 7408SOL     OW23122   1.199   4.051   5.296
 7408SOL    HW123123   1.186   3.953   5.312
 7408SOL    HW223124   1.241   4.065   5.206
 7409SOL     OW23125   2.974   5.153   5.438
 7409SOL    HW123126   2.963   5.223   5.368
 7409SOL    HW223127   2.884   5.118   5.466
 7410SOL     OW23128   6.424   4.812   0.823
 7410SOL    HW123129   6.463   4.842   0.736
 7410SOL    HW223130   6.366   4.732   0.808
 7411SOL     OW23131   4.166   6.465   4.926
 7411SOL    HW123132   4.148   6.497   5.019
 7411SOL    HW223133   4.093   6.402   4.898
 7412SOL     OW23134   0.943   1.778   0.248
 7412SOL    HW123135   0.925   1.744   0.156
 7412SOL    HW223136   0.949   1.878   0.246
 7413SOL     OW23137   6.831   3.194   4.757
 7413SOL    HW123138   6.858   3.274   4.702
 7413SOL    HW223139   6.745   3.157   4.721
 7414SOL     OW23140   6.447   6.149   2.993
 7414SOL    HW123141   6.456   6.176   2.897
 7414SOL    HW223142   6.509   6.202   3.049
 7415SOL     OW23143   1.991   2.091   3.174
 7415SOL    HW123144   2.046   2.101   3.091
 7415SOL    HW223145   2.051   2.075   3.252
 7416SOL     OW23146   4.596   6.761   4.356
 7416SOL    HW123147   4.538   6.740   4.434
 7416SOL    HW223148   4.547   6.822   4.294
 7417SOL     OW23149   0.900   5.992   0.486
 7417SOL    HW123150   0.913   5.993   0.387
 7417SOL    HW223151   0.984   6.020   0.532
 7418SOL     OW23152   1.958   3.623   0.830
 7418SOL    HW123153   1.957   3.674   0.744
 7418SOL    HW223154   1.870   3.577   0.843
 7419SOL     OW23155   6.461   0.744   5.307
 7419SOL    HW123156   6.369   0.777   5.325
 7419SOL    HW223157   6.469   0.720   5.210
 7420SOL     OW23158   0.356   5.873   1.976
 7420SOL    HW123159   0.361   5.951   1.913
 7420SOL    HW223160   0.298   5.802   1.936
 7421SOL     OW23161   3.819   3.431   0.740
 7421SOL    HW123162   3.840   3.348   0.688
 7421SOL    HW223163   3.779   3.404   0.829
 7422SOL     OW23164   0.724   3.537   0.484
 7422SOL    HW123165   0.708   3.602   0.558
 7422SOL    HW223166   0.663   3.558   0.408
 7423SOL     OW23167   2.270   6.348   6.773
 7423SOL    HW123168   2.264   6.261   6.723
 7423SOL    HW223169   2.206   6.346   6.849
 7424SOL     OW23170   5.634   1.396   4.268
 7424SOL    HW123171   5.536   1.387   4.283
 7424SOL    HW223172   5.652   1.471   4.205
 7425SOL     OW23173   3.511   5.773   6.215
 7425SOL    HW123174   3.428   5.731   6.177
 7425SOL    HW223175   3.520   5.866   6.181
 7426SOL     OW23176   1.016   1.481   6.820
 7426SOL    HW123177   1.094   1.430   6.854
 7426SOL    HW223178   0.943   1.418   6.793
 7427SOL     OW23179   4.254   5.386   4.180
 7427SOL    HW123180   4.287   5.424   4.266
 7427SOL    HW223181   4.250   5.286   4.187
 7428SOL     OW23182   3.744   2.146   5.571
 7428SOL    HW123183   3.646   2.125   5.573
 7428SOL    HW223184   3.774   2.151   5.476
 7429SOL     OW23185   6.402   6.625   3.508
 7429SOL    HW123186   6.327   6.577   3.553
 7429SOL    HW223187   6.379   6.638   3.411
 7430SOL     OW23188   6.614   4.090   5.093
 7430SOL    HW123189   6.519   4.064   5.110
 7430SOL    HW223190   6.654   4.029   5.025
 7431SOL     OW23191   1.336   4.147   2.186
 7431SOL    HW123192   1.334   4.231   2.133
 7431SOL    HW223193   1.355   4.168   2.282
 7432SOL     OW23194   0.482   6.854   5.396
 7432SOL    HW123195   0.501   6.952   5.400
 7432SOL    HW223196   0.525   6.816   5.314
 7433SOL     OW23197   6.181   5.775   1.235
 7433SOL    HW123198   6.205   5.728   1.319
 7433SOL    HW223199   6.249   5.755   1.165
 7434SOL     OW23200   4.345   0.927   6.366
 7434SOL    HW123201   4.382   0.961   6.280
 7434SOL    HW223202   4.415   0.874   6.414
 7435SOL     OW23203   2.799   6.155   0.242
 7435SOL    HW123204   2.708   6.186   0.213
 7435SOL    HW223205   2.861   6.159   0.163
 7436SOL     OW23206   5.195   2.501   0.354
 7436SOL    HW123207   5.293   2.508   0.371
 7436SOL    HW223208   5.153   2.441   0.422
 7437SOL     OW23209   0.665   5.813   5.962
 7437SOL    HW123210   0.726   5.735   5.951
 7437SOL    HW223211   0.616   5.830   5.877
 7438SOL     OW23212   6.679   4.722   1.910
 7438SOL    HW123213   6.775   4.746   1.927
 7438SOL    HW223214   6.676   4.634   1.862
 7439SOL     OW23215   1.236   6.731   3.456
 7439SOL    HW123216   1.229   6.692   3.365
 7439SOL    HW223217   1.150   6.775   3.481
 7440SOL     OW23218   1.683   2.071   4.063
 7440SOL    HW123219   1.678   1.985   4.012
 7440SOL    HW223220   1.592   2.095   4.096
 7441SOL     OW23221   5.694   0.670   3.615
 7441SOL    HW123222   5.672   0.573   3.602
 7441SOL    HW223223   5.787   0.679   3.649
 7442SOL     OW23224   1.848   1.358   0.163
 7442SOL    HW123225   1.869   1.387   0.257
 7442SOL    HW223226   1.851   1.258   0.157
 7443SOL     OW23227   0.047   1.080   0.377
 7443SOL    HW123228   0.022   1.034   0.292
 7443SOL    HW223229   0.115   1.150   0.358
 7444SOL     OW23230   0.212   2.906   5.925
 7444SOL    HW123231   0.264   2.833   5.881
 7444SOL    HW223232   0.191   2.880   6.019
 7445SOL     OW23233   5.619   2.135   1.836
 7445SOL    HW123234   5.625   2.154   1.738
 7445SOL    HW223235   5.709   2.111   1.871
 7446SOL     OW23236   0.184   3.548   0.950
 7446SOL    HW123237   0.237   3.525   0.869
 7446SOL    HW223238   0.175   3.467   1.008
 7447SOL     OW23239   0.767   3.974   5.946
 7447SOL    HW123240   0.779   4.056   6.002
 7447SOL    HW223241   0.839   3.908   5.969
 7448SOL     OW23242   6.880   6.488   6.056
 7448SOL    HW123243   6.946   6.510   5.984
 7448SOL    HW223244   6.806   6.555   6.056
 7449SOL     OW23245   5.796   2.137   2.572
 7449SOL    HW123246   5.744   2.162   2.653
 7449SOL    HW223247   5.754   2.179   2.491
 7450SOL     OW23248   4.425   1.260   2.936
 7450SOL    HW123249   4.483   1.340   2.925
 7450SOL    HW223250   4.415   1.214   2.847
 7451SOL     OW23251   2.072   0.334   3.950
 7451SOL    HW123252   2.048   0.430   3.939
 7451SOL    HW223253   2.066   0.309   4.046
 7452SOL     OW23254   2.079   6.129   5.240
 7452SOL    HW123255   2.048   6.164   5.152
 7452SOL    HW223256   2.036   6.041   5.259
 7453SOL     OW23257   5.912   5.914   5.064
 7453SOL    HW123258   5.958   5.922   5.152
 7453SOL    HW223259   5.823   5.871   5.077
 7454SOL     OW23260   0.930   3.725   0.959
 7454SOL    HW123261   0.850   3.777   0.929
 7454SOL    HW223262   0.994   3.717   0.883
 7455SOL     OW23263   4.999   2.412   0.052
 7455SOL    HW123264   4.976   2.323   0.092
 7455SOL    HW223265   4.930   2.479   0.079
 7456SOL     OW23266   1.730   3.433   4.731
 7456SOL    HW123267   1.732   3.341   4.769
 7456SOL    HW223268   1.798   3.440   4.658
 7457SOL     OW23269   5.917   0.699   6.062
 7457SOL    HW123270   6.003   0.649   6.067
 7457SOL    HW223271   5.928   0.781   6.007
 7458SOL     OW23272   2.569   1.214   0.584
 7458SOL    HW123273   2.538   1.123   0.613
 7458SOL    HW223274   2.598   1.209   0.489
 7459SOL     OW23275   4.386   0.645   4.582
 7459SOL    HW123276   4.451   0.706   4.628
 7459SOL    HW223277   4.382   0.558   4.630
 7460SOL     OW23278   0.649   4.394   0.055
 7460SOL    HW123279   0.735   4.370   0.100
 7460SOL    HW223280   0.663   4.474   7.020
 7461SOL     OW23281   5.447   1.118   4.248
 7461SOL    HW123282   5.421   1.215   4.247
 7461SOL    HW223283   5.539   1.108   4.209
 7462SOL     OW23284   2.119   1.608   2.366
 7462SOL    HW123285   2.090   1.520   2.405
 7462SOL    HW223286   2.113   1.679   2.436
 7463SOL     OW23287   4.083   3.745   2.696
 7463SOL    HW123288   4.133   3.708   2.774
 7463SOL    HW223289   4.093   3.683   2.618
 7464SOL     OW23290   5.353   6.099   0.840
 7464SOL    HW123291   5.410   6.135   0.767
 7464SOL    HW223292   5.260   6.083   0.806
 7465SOL     OW23293   2.675   0.228   1.631
 7465SOL    HW123294   2.635   0.208   1.720
 7465SOL    HW223295   2.768   0.262   1.643
 7466SOL     OW23296   0.785   0.632   6.846
 7466SOL    HW123297   0.799   0.673   6.756
 7466SOL    HW223298   0.836   0.684   6.914
 7467SOL     OW23299   6.786   1.535   0.691
 7467SOL    HW123300   6.806   1.441   0.720
 7467SOL    HW223301   6.767   1.536   0.593
 7468SOL     OW23302   6.102   2.644   2.856
 7468SOL    HW123303   6.185   2.614   2.809
 7468SOL    HW223304   6.119   2.730   2.903
 7469SOL     OW23305   1.250   1.254   1.420
 7469SOL    HW123306   1.154   1.234   1.403
 7469SOL    HW223307   1.258   1.341   1.468
 7470SOL     OW23308   6.745   2.490   2.456
 7470SOL    HW123309   6.797   2.558   2.508
 7470SOL    HW223310   6.770   2.495   2.360
 7471SOL     OW23311   5.690   6.187   5.724
 7471SOL    HW123312   5.634   6.129   5.783
 7471SOL    HW223313   5.741   6.251   5.781
 7472SOL     OW23314   3.700   6.972   3.391
 7472SOL    HW123315   3.762   6.937   3.461
 7472SOL    HW223316   3.641   0.019   3.432
 7473SOL     OW23317   0.027   3.290   4.137
 7473SOL    HW123318   7.013   3.322   4.050
 7473SOL    HW223319   6.976   3.266   4.199
 7474SOL     OW23320   3.652   0.840   3.037
 7474SOL    HW123321   3.749   0.843   3.013
 7474SOL    HW223322   3.626   0.924   3.085
 7475SOL     OW23323   3.807   1.124   1.083
 7475SOL    HW123324   3.854   1.183   1.150
 7475SOL    HW223325   3.786   1.177   1.001
 7476SOL     OW23326   4.237   6.557   4.686
 7476SOL    HW123327   4.291   6.480   4.652
 7476SOL    HW223328   4.209   6.539   4.780
 7477SOL     OW23329   4.277   1.834   4.014
 7477SOL    HW123330   4.179   1.838   4.033
 7477SOL    HW223331   4.326   1.895   4.076
 7478SOL     OW23332   1.034   4.812   0.937
 7478SOL    HW123333   0.940   4.841   0.955
 7478SOL    HW223334   1.045   4.793   0.839
 7479SOL     OW23335   4.558   0.704   6.955
 7479SOL    HW123336   4.498   0.739   6.883
 7479SOL    HW223337   4.599   0.780   7.005
 7480SOL     OW23338   6.640   5.375   1.139
 7480SOL    HW123339   6.569   5.355   1.206
 7480SOL    HW223340   6.623   5.465   1.098
 7481SOL     OW23341   5.547   5.367   0.597
 7481SOL    HW123342   5.630   5.421   0.585
 7481SOL    HW223343   5.515   5.334   0.508
 7482SOL     OW23344   4.964   0.693   3.187
 7482SOL    HW123345   4.881   0.678   3.135
 7482SOL    HW223346   4.949   0.669   3.283
 7483SOL     OW23347   3.413   0.438   5.291
 7483SOL    HW123348   3.502   0.395   5.279
 7483SOL    HW223349   3.345   0.368   5.311
 7484SOL     OW23350   1.890   7.015   2.365
 7484SOL    HW123351   1.911   6.919   2.379
 7484SOL    HW223352   1.833   0.025   2.439
 7485SOL     OW23353   2.264   6.311   6.448
 7485SOL    HW123354   2.257   6.411   6.443
 7485SOL    HW223355   2.344   6.286   6.502
 7486SOL     OW23356   2.452   6.825   5.639
 7486SOL    HW123357   2.456   6.908   5.584
 7486SOL    HW223358   2.493   6.842   5.728
 7487SOL     OW23359   3.372   6.001   4.363
 7487SOL    HW123360   3.452   5.969   4.415
 7487SOL    HW223361   3.292   5.949   4.390
 7488SOL     OW23362   3.811   0.775   6.295
 7488SOL    HW123363   3.898   0.821   6.281
 7488SOL    HW223364   3.743   0.813   6.231
 7489SOL     OW23365   5.388   3.552   3.580
 7489SOL    HW123366   5.449   3.473   3.590
 7489SOL    HW223367   5.398   3.612   3.660
 7490SOL     OW23368   5.095   1.225   1.089
 7490SOL    HW123369   5.111   1.276   1.005
 7490SOL    HW223370   5.018   1.266   1.139
 7491SOL     OW23371   6.880   5.551   6.838
 7491SOL    HW123372   6.848   5.586   6.750
 7491SOL    HW223373   6.965   5.597   6.863
 7492SOL     OW23374   1.708   2.652   4.737
 7492SOL    HW123375   1.707   2.556   4.711
 7492SOL    HW223376   1.796   2.674   4.780
 7493SOL     OW23377   4.926   3.652   6.583
 7493SOL    HW123378   4.938   3.594   6.664
 7493SOL    HW223379   4.862   3.608   6.521
 7494SOL     OW23380   5.355   0.506   1.938
 7494SOL    HW123381   5.420   0.437   1.969
 7494SOL    HW223382   5.356   0.511   1.838
 7495SOL     OW23383   1.242   2.120   1.264
 7495SOL    HW123384   1.228   2.157   1.355
 7495SOL    HW223385   1.155   2.087   1.227
 7496SOL     OW23386   0.662   4.993   6.392
 7496SOL    HW123387   0.729   5.049   6.344
 7496SOL    HW223388   0.631   4.919   6.332
 7497SOL     OW23389   1.777   4.187   2.038
 7497SOL    HW123390   1.868   4.173   1.998
 7497SOL    HW223391   1.722   4.105   2.027
 7498SOL     OW23392   4.082   1.694   4.292
 7498SOL    HW123393   4.046   1.704   4.385
 7498SOL    HW223394   4.181   1.679   4.296
 7499SOL     OW23395   5.266   6.555   4.518
 7499SOL    HW123396   5.179   6.525   4.556
 7499SOL    HW223397   5.334   6.483   4.531
 7500SOL     OW23398   5.089   5.102   1.458
 7500SOL    HW123399   5.046   5.146   1.380
 7500SOL    HW223400   5.185   5.083   1.438
 7501SOL     OW23401   0.242   4.292   4.035
 7501SOL    HW123402   0.332   4.329   4.058
 7501SOL    HW223403   0.211   4.332   3.948
 7502SOL     OW23404   2.711   1.426   5.067
 7502SOL    HW123405   2.734   1.422   4.970
 7502SOL    HW223406   2.793   1.451   5.119
 7503SOL     OW23407   2.796   2.137   0.030
 7503SOL    HW123408   2.831   2.150   0.122
 7503SOL    HW223409   2.720   2.200   0.014
 7504SOL     OW23410   3.969   6.120   3.102
 7504SOL    HW123411   4.011   6.166   3.024
 7504SOL    HW223412   4.020   6.036   3.121
 7505SOL     OW23413   1.938   1.544   5.363
 7505SOL    HW123414   2.033   1.544   5.332
 7505SOL    HW223415   1.885   1.610   5.310
 7506SOL     OW23416   3.842   1.464   2.579
 7506SOL    HW123417   3.894   1.379   2.575
 7506SOL    HW223418   3.759   1.455   2.523
 7507SOL     OW23419   0.684   6.276   5.747
 7507SOL    HW123420   0.676   6.226   5.834
 7507SOL    HW223421   0.655   6.217   5.672
 7508SOL     OW23422   5.532   0.282   2.759
 7508SOL    HW123423   5.512   0.190   2.726
 7508SOL    HW223424   5.630   0.293   2.772
 7509SOL     OW23425   4.490   3.984   6.107
 7509SOL    HW123426   4.517   4.001   6.202
 7509SOL    HW223427   4.457   4.069   6.066
 7510SOL     OW23428   3.747   4.157   4.669
 7510SOL    HW123429   3.687   4.101   4.727
 7510SOL    HW223430   3.724   4.253   4.682
 7511SOL     OW23431   0.961   0.861   1.618
 7511SOL    HW123432   0.951   0.761   1.612
 7511SOL    HW223433   1.009   0.885   1.703
 7512SOL     OW23434   2.285   2.753   2.131
 7512SOL    HW123435   2.274   2.724   2.226
 7512SOL    HW223436   2.204   2.805   2.103
 7513SOL     OW23437   1.632   2.216   0.041
 7513SOL    HW123438   1.708   2.176   0.092
 7513SOL    HW223439   1.664   2.295   7.013
 7514SOL     OW23440   2.456   5.438   3.016
 7514SOL    HW123441   2.522   5.488   2.960
 7514SOL    HW223442   2.472   5.458   3.112
 7515SOL     OW23443   6.927   6.166   2.385
 7515SOL    HW123444   6.860   6.237   2.365
 7515SOL    HW223445   6.938   6.157   2.484
 7516SOL     OW23446   0.084   0.956   3.386
 7516SOL    HW123447   0.059   0.903   3.305
 7516SOL    HW223448   0.178   0.934   3.413
 7517SOL     OW23449   0.378   3.648   1.476
 7517SOL    HW123450   0.401   3.695   1.561
 7517SOL    HW223451   0.413   3.554   1.480
 7518SOL     OW23452   4.655   5.306   3.949
 7518SOL    HW123453   4.680   5.359   3.868
 7518SOL    HW223454   4.634   5.368   4.024
 7519SOL     OW23455   2.109   5.856   3.967
 7519SOL    HW123456   2.105   5.867   3.867
 7519SOL    HW223457   2.199   5.821   3.993
 7520SOL     OW23458   1.568   6.557   3.896
 7520SOL    HW123459   1.563   6.486   3.826
 7520SOL    HW223460   1.578   6.646   3.852
 7521SOL     OW23461   4.460   4.255   5.519
 7521SOL    HW123462   4.509   4.327   5.568
 7521SOL    HW223463   4.478   4.263   5.421
 7522SOL     OW23464   2.235   1.171   1.220
 7522SOL    HW123465   2.305   1.235   1.250
 7522SOL    HW223466   2.238   1.089   1.277
 7523SOL     OW23467   5.759   0.231   6.507
 7523SOL    HW123468   5.851   0.248   6.543
 7523SOL    HW223469   5.731   0.137   6.530
 7524SOL     OW23470   0.332   1.351   5.483
 7524SOL    HW123471   0.394   1.426   5.507
 7524SOL    HW223472   0.246   1.362   5.533
 7525SOL     OW23473   0.875   0.617   0.446
 7525SOL    HW123474   0.835   0.554   0.380
 7525SOL    HW223475   0.804   0.676   0.484
 7526SOL     OW23476   3.494   2.894   4.571
 7526SOL    HW123477   3.499   2.796   4.553
 7526SOL    HW223478   3.524   2.913   4.665
 7527SOL     OW23479   5.535   4.888   3.594
 7527SOL    HW123480   5.520   4.968   3.536
 7527SOL    HW223481   5.487   4.901   3.681
 7528SOL     OW23482   6.056   2.852   6.877
 7528SOL    HW123483   5.988   2.780   6.863
 7528SOL    HW223484   6.142   2.812   6.909
 7529SOL     OW23485   3.196   1.322   6.155
 7529SOL    HW123486   3.110   1.273   6.155
 7529SOL    HW223487   3.268   1.264   6.118
 7530SOL     OW23488   0.752   3.896   1.984
 7530SOL    HW123489   0.711   3.807   1.961
 7530SOL    HW223490   0.730   3.920   2.078
 7531SOL     OW23491   3.974   1.747   3.445
 7531SOL    HW123492   3.951   1.713   3.535
 7531SOL    HW223493   4.009   1.841   3.453
 7532SOL     OW23494   5.348   5.535   2.485
 7532SOL    HW123495   5.387   5.447   2.510
 7532SOL    HW223496   5.403   5.609   2.523
 7533SOL     OW23497   3.835   1.133   4.489
 7533SOL    HW123498   3.761   1.070   4.466
 7533SOL    HW223499   3.810   1.184   4.571
 7534SOL     OW23500   4.989   6.505   4.618
 7534SOL    HW123501   4.979   6.428   4.554
 7534SOL    HW223502   4.929   6.579   4.590
 7535SOL     OW23503   3.142   2.568   5.575
 7535SOL    HW123504   3.193   2.595   5.494
 7535SOL    HW223505   3.105   2.650   5.620
 7536SOL     OW23506   4.696   5.887   4.411
 7536SOL    HW123507   4.770   5.876   4.478
 7536SOL    HW223508   4.703   5.978   4.369
 7537SOL     OW23509   1.819   4.916   5.972
 7537SOL    HW123510   1.768   4.834   5.995
 7537SOL    HW223511   1.772   4.967   5.900
 7538SOL     OW23512   2.937   3.529   2.533
 7538SOL    HW123513   2.904   3.441   2.569
 7538SOL    HW223514   2.924   3.600   2.603
 7539SOL     OW23515   2.184   2.895   4.935
 7539SOL    HW123516   2.115   2.953   4.891
 7539SOL    HW223517   2.252   2.953   4.980
 7540SOL     OW23518   2.926   1.447   0.053
 7540SOL    HW123519   2.908   1.470   0.148
 7540SOL    HW223520   2.847   1.398   0.015
 7541SOL     OW23521   6.229   2.611   5.525
 7541SOL    HW123522   6.238   2.710   5.517
 7541SOL    HW223523   6.319   2.569   5.537
 7542SOL     OW23524   1.331   6.659   6.033
 7542SOL    HW123525   1.291   6.571   6.058
 7542SOL    HW223526   1.363   6.654   5.938
 7543SOL     OW23527   3.977   3.068   0.127
 7543SOL    HW123528   3.903   3.008   0.157
 7543SOL    HW223529   4.033   3.093   0.206
 7544SOL     OW23530   2.207   1.911   2.851
 7544SOL    HW123531   2.178   1.998   2.890
 7544SOL    HW223532   2.224   1.922   2.753
 7545SOL     OW23533   5.319   6.908   3.372
 7545SOL    HW123534   5.344   6.984   3.432
 7545SOL    HW223535   5.345   6.822   3.415
 7546SOL     OW23536   4.369   0.935   7.000
 7546SOL    HW123537   4.285   0.978   0.010
 7546SOL    HW223538   4.440   0.939   0.047
 7547SOL     OW23539   3.151   0.198   0.453
 7547SOL    HW123540   3.178   0.156   0.366
 7547SOL    HW223541   3.052   0.192   0.464
 7548SOL     OW23542   1.706   2.268   1.700
 7548SOL    HW123543   1.711   2.169   1.706
 7548SOL    HW223544   1.756   2.299   1.619
 7549SOL     OW23545   5.582   1.864   3.032
 7549SOL    HW123546   5.488   1.890   3.056
 7549SOL    HW223547   5.643   1.942   3.047
 7550SOL     OW23548   1.884   5.605   2.631
 7550SOL    HW123549   1.922   5.513   2.637
 7550SOL    HW223550   1.820   5.610   2.554
 7551SOL     OW23551   5.165   3.365   6.641
 7551SOL    HW123552   5.257   3.403   6.655
 7551SOL    HW223553   5.151   3.347   6.544
 7552SOL     OW23554   3.204   4.953   4.340
 7552SOL    HW123555   3.292   4.905   4.337
 7552SOL    HW223556   3.151   4.930   4.258
 7553SOL     OW23557   3.822   5.636   6.052
 7553SOL    HW123558   3.864   5.605   6.138
 7553SOL    HW223559   3.864   5.588   5.975
 7554SOL     OW23560   6.442   0.724   0.437
 7554SOL    HW123561   6.443   0.816   0.476
 7554SOL    HW223562   6.491   0.662   0.498
 7555SOL     OW23563   0.444   6.182   5.501
 7555SOL    HW123564   0.377   6.201   5.573
 7555SOL    HW223565   0.397   6.165   5.415
 7556SOL     OW23566   0.478   2.801   4.530
 7556SOL    HW123567   0.497   2.760   4.441
 7556SOL    HW223568   0.438   2.892   4.517
 7557SOL     OW23569   4.828   3.922   0.405
 7557SOL    HW123570   4.917   3.941   0.364
 7557SOL    HW223571   4.771   4.004   0.401
 7558SOL     OW23572   1.613   3.239   3.230
 7558SOL    HW123573   1.540   3.251   3.298
 7558SOL    HW223574   1.595   3.298   3.151
 7559SOL     OW23575   0.450   4.279   0.796
 7559SOL    HW123576   0.399   4.347   0.850
 7559SOL    HW223577   0.479   4.204   0.855
 7560SOL     OW23578   5.427   6.865   0.374
 7560SOL    HW123579   5.498   6.883   0.443
 7560SOL    HW223580   5.444   6.921   0.293
 7561SOL     OW23581   0.013   2.770   0.457
 7561SOL    HW123582   0.036   2.859   0.496
 7561SOL    HW223583   6.948   2.739   0.493
 7562SOL     OW23584   5.457   6.135   5.041
 7562SOL    HW123585   5.383   6.170   4.983
 7562SOL    HW223586   5.516   6.210   5.069
 7563SOL     OW23587   3.046   0.921   2.528
 7563SOL    HW123588   3.076   0.829   2.503
 7563SOL    HW223589   3.087   0.947   2.615
 7564SOL     OW23590   5.384   0.056   3.131
 7564SOL    HW123591   5.349   0.001   3.207
 7564SOL    HW223592   5.308   0.108   3.092
 7565SOL     OW23593   4.890   4.501   0.337
 7565SOL    HW123594   4.846   4.587   0.364
 7565SOL    HW223595   4.897   4.441   0.416
 7566SOL     OW23596   1.517   5.912   4.361
 7566SOL    HW123597   1.499   5.858   4.443
 7566SOL    HW223598   1.442   5.900   4.296
 7567SOL     OW23599   2.977   4.314   6.965
 7567SOL    HW123600   2.917   4.319   0.021
 7567SOL    HW223601   3.069   4.287   6.994
 7568SOL     OW23602   4.586   5.419   3.592
 7568SOL    HW123603   4.617   5.426   3.497
 7568SOL    HW223604   4.536   5.334   3.605
 7569SOL     OW23605   3.716   6.520   0.968
 7569SOL    HW123606   3.671   6.471   0.894
 7569SOL    HW223607   3.700   6.472   1.054
 7570SOL     OW23608   6.121   5.295   3.550
 7570SOL    HW123609   6.087   5.378   3.506
 7570SOL    HW223610   6.176   5.320   3.630
 7571SOL     OW23611   5.406   4.355   2.077
 7571SOL    HW123612   5.456   4.337   2.162
 7571SOL    HW223613   5.429   4.286   2.009
 7572SOL     OW23614   3.071   1.097   4.784
 7572SOL    HW123615   3.155   1.139   4.751
 7572SOL    HW223616   3.086   1.061   4.876
 7573SOL     OW23617   1.799   6.014   4.316
 7573SOL    HW123618   1.724   6.078   4.301
 7573SOL    HW223619   1.856   6.009   4.234
 7574SOL     OW23620   5.227   6.333   2.992
 7574SOL    HW123621   5.269   6.400   2.931
 7574SOL    HW223622   5.149   6.375   3.038
 7575SOL     OW23623   3.860   1.866   5.325
 7575SOL    HW123624   3.800   1.925   5.271
 7575SOL    HW223625   3.952   1.866   5.285
 7576SOL     OW23626   6.523   2.941   0.480
 7576SOL    HW123627   6.586   2.984   0.545
 7576SOL    HW223628   6.572   2.919   0.396
 7577SOL     OW23629   5.984   0.530   5.093
 7577SOL    HW123630   6.022   0.487   5.012
 7577SOL    HW223631   5.928   0.608   5.066
 7578SOL     OW23632   2.342   5.136   4.371
 7578SOL    HW123633   2.333   5.118   4.469
 7578SOL    HW223634   2.281   5.210   4.344
 7579SOL     OW23635   3.715   1.883   2.438
 7579SOL    HW123636   3.676   1.959   2.491
 7579SOL    HW223637   3.754   1.918   2.353
 7580SOL     OW23638   1.876   4.179   2.479
 7580SOL    HW123639   1.893   4.273   2.448
 7580SOL    HW223640   1.929   4.116   2.423
 7581SOL     OW23641   5.596   0.509   0.822
 7581SOL    HW123642   5.528   0.443   0.851
 7581SOL    HW223643   5.686   0.483   0.858
 7582SOL     OW23644   3.113   1.008   1.252
 7582SOL    HW123645   3.032   0.951   1.242
 7582SOL    HW223646   3.094   1.082   1.317
 7583SOL     OW23647   5.592   3.613   2.388
 7583SOL    HW123648   5.513   3.615   2.449
 7583SOL    HW223649   5.582   3.684   2.318
 7584SOL     OW23650   2.782   6.954   1.242
 7584SOL    HW123651   2.827   6.869   1.268
 7584SOL    HW223652   2.773   7.013   1.323
 7585SOL     OW23653   1.898   5.129   6.126
 7585SOL    HW123654   1.812   5.177   6.143
 7585SOL    HW223655   1.881   5.052   6.064
 7586SOL     OW23656   3.165   0.920   2.765
 7586SOL    HW123657   3.119   0.971   2.838
 7586SOL    HW223658   3.262   0.909   2.788
 7587SOL     OW23659   0.733   1.722   6.214
 7587SOL    HW123660   0.690   1.634   6.192
 7587SOL    HW223661   0.831   1.707   6.227
 7588SOL     OW23662   0.177   4.382   2.504
 7588SOL    HW123663   0.092   4.368   2.454
 7588SOL    HW223664   0.253   4.392   2.440
 7589SOL     OW23665   6.064   5.562   0.612
 7589SOL    HW123666   6.059   5.519   0.522
 7589SOL    HW223667   6.076   5.491   0.682
 7590SOL     OW23668   1.946   1.150   6.256
 7590SOL    HW123669   1.903   1.064   6.282
 7590SOL    HW223670   1.911   1.224   6.314
 7591SOL     OW23671   6.915   4.809   0.275
 7591SOL    HW123672   6.930   4.761   0.189
 7591SOL    HW223673   6.842   4.876   0.264
 7592SOL     OW23674   5.353   5.450   6.809
 7592SOL    HW123675   5.413   5.372   6.825
 7592SOL    HW223676   5.263   5.418   6.780
 7593SOL     OW23677   5.370   2.057   6.796
 7593SOL    HW123678   5.283   2.106   6.803
 7593SOL    HW223679   5.404   2.037   6.888
 7594SOL     OW23680   1.326   5.906   3.740
 7594SOL    HW123681   1.387   5.843   3.788
 7594SOL    HW223682   1.243   5.859   3.713
 7595SOL     OW23683   6.782   3.024   6.596
 7595SOL    HW123684   6.685   3.039   6.581
 7595SOL    HW223685   6.826   3.109   6.626
 7596SOL     OW23686   5.098   4.697   1.547
 7596SOL    HW123687   5.185   4.726   1.588
 7596SOL    HW223688   5.042   4.778   1.529
 7597SOL     OW23689   3.532   5.380   1.669
 7597SOL    HW123690   3.605   5.448   1.662
 7597SOL    HW223691   3.558   5.311   1.736
 7598SOL     OW23692   6.960   1.234   3.727
 7598SOL    HW123693   6.970   1.139   3.698
 7598SOL    HW223694   0.024   1.281   3.717
 7599SOL     OW23695   6.352   1.958   3.069
 7599SOL    HW123696   6.314   1.867   3.084
 7599SOL    HW223697   6.376   1.968   2.972
 7600SOL     OW23698   2.322   1.165   1.517
 7600SOL    HW123699   2.310   1.072   1.483
 7600SOL    HW223700   2.365   1.221   1.446
 7601SOL     OW23701   2.067   6.307   4.316
 7601SOL    HW123702   2.106   6.223   4.280
 7601SOL    HW223703   2.107   6.327   4.406
 7602SOL     OW23704   0.544   3.794   4.352
 7602SOL    HW123705   0.617   3.767   4.415
 7602SOL    HW223706   0.535   3.893   4.352
 7603SOL     OW23707   1.331   6.692   1.369
 7603SOL    HW123708   1.234   6.677   1.348
 7603SOL    HW223709   1.376   6.604   1.385
 7604SOL     OW23710   4.390   5.842   5.096
 7604SOL    HW123711   4.351   5.825   5.005
 7604SOL    HW223712   4.489   5.846   5.089
 7605SOL     OW23713   6.583   4.436   0.229
 7605SOL    HW123714   6.614   4.429   0.324
 7605SOL    HW223715   6.517   4.511   0.220
 7606SOL     OW23716   6.057   2.459   2.612
 7606SOL    HW123717   6.101   2.542   2.647
 7606SOL    HW223718   6.120   2.412   2.550
 7607SOL     OW23719   4.919   0.141   6.848
 7607SOL    HW123720   4.906   0.173   6.754
 7607SOL    HW223721   4.920   0.041   6.849
 7608SOL     OW23722   2.998   3.651   3.599
 7608SOL    HW123723   3.027   3.655   3.694
 7608SOL    HW223724   3.077   3.665   3.539
 7609SOL     OW23725   0.949   3.304   4.177
 7609SOL    HW123726   0.877   3.369   4.200
 7609SOL    HW223727   0.908   3.220   4.143
 7610SOL     OW23728   5.458   0.057   0.950
 7610SOL    HW123729   5.416   0.148   0.944
 7610SOL    HW223730   5.544   0.063   0.999
 7611SOL     OW23731   1.357   2.190   0.064
 7611SOL    HW123732   1.319   2.132   7.015
 7611SOL    HW223733   1.452   2.213   0.041
 7612SOL     OW23734   3.744   2.041   3.208
 7612SOL    HW123735   3.697   1.960   3.241
 7612SOL    HW223736   3.798   2.081   3.282
 7613SOL     OW23737   5.076   1.037   1.979
 7613SOL    HW123738   5.141   1.113   1.972
 7613SOL    HW223739   5.069   0.992   1.890
 7614SOL     OW23740   4.224   2.521   0.921
 7614SOL    HW123741   4.267   2.431   0.925
 7614SOL    HW223742   4.128   2.513   0.950
 7615SOL     OW23743   3.945   4.810   6.356
 7615SOL    HW123744   3.899   4.837   6.271
 7615SOL    HW223745   4.029   4.760   6.334
 7616SOL     OW23746   6.628   3.432   3.172
 7616SOL    HW123747   6.582   3.357   3.125
 7616SOL    HW223748   6.561   3.486   3.223
 7617SOL     OW23749   3.382   4.990   3.256
 7617SOL    HW123750   3.291   4.963   3.223
 7617SOL    HW223751   3.393   5.089   3.247
 7618SOL     OW23752   2.192   2.605   6.780
 7618SOL    HW123753   2.232   2.514   6.794
 7618SOL    HW223754   2.129   2.603   6.703
 7619SOL     OW23755   6.057   3.567   5.321
 7619SOL    HW123756   6.106   3.554   5.236
 7619SOL    HW223757   6.038   3.478   5.363
 7620SOL     OW23758   3.458   6.971   1.606
 7620SOL    HW123759   3.469   6.958   1.704
 7620SOL    HW223760   3.531   0.007   1.571
 7621SOL     OW23761   2.254   0.540   1.437
 7621SOL    HW123762   2.183   0.492   1.386
 7621SOL    HW223763   2.329   0.565   1.374
 7622SOL     OW23764   4.172   2.955   0.591
 7622SOL    HW123765   4.201   2.868   0.630
 7622SOL    HW223766   4.111   2.939   0.514
 7623SOL     OW23767   4.812   0.357   5.435
 7623SOL    HW123768   4.836   0.273   5.387
 7623SOL    HW223769   4.886   0.382   5.498
 7624SOL     OW23770   0.674   0.899   3.298
 7624SOL    HW123771   0.690   0.801   3.313
 7624SOL    HW223772   0.747   0.936   3.240
 7625SOL     OW23773   4.879   1.003   0.945
 7625SOL    HW123774   4.820   0.941   0.893
 7625SOL    HW223775   4.866   0.987   1.043
 7626SOL     OW23776   1.801   6.454   4.586
 7626SOL    HW123777   1.777   6.389   4.658
 7626SOL    HW223778   1.894   6.488   4.600
 7627SOL     OW23779   6.626   2.529   0.841
 7627SOL    HW123780   6.553   2.595   0.821
 7627SOL    HW223781   6.712   2.578   0.857
 7628SOL     OW23782   3.366   1.706   0.704
 7628SOL    HW123783   3.425   1.730   0.627
 7628SOL    HW223784   3.326   1.789   0.742
 7629SOL     OW23785   0.081   5.427   2.799
 7629SOL    HW123786   0.033   5.436   2.712
 7629SOL    HW223787   0.134   5.510   2.817
 7630SOL     OW23788   6.353   0.466   2.661
 7630SOL    HW123789   6.338   0.383   2.607
 7630SOL    HW223790   6.419   0.447   2.734
 7631SOL     OW23791   0.390   2.439   3.675
 7631SOL    HW123792   0.360   2.382   3.751
 7631SOL    HW223793   0.399   2.534   3.705
 7632SOL     OW23794   4.890   2.302   0.422
 7632SOL    HW123795   4.953   2.362   0.471
 7632SOL    HW223796   4.796   2.335   0.436
 7633SOL     OW23797   5.465   4.019   6.860
 7633SOL    HW123798   5.516   4.094   6.818
 7633SOL    HW223799   5.368   4.029   6.838
 7634SOL     OW23800   2.204   1.081   2.087
 7634SOL    HW123801   2.161   1.139   2.018
 7634SOL    HW223802   2.299   1.109   2.100
 7635SOL     OW23803   2.732   5.034   5.527
 7635SOL    HW123804   2.739   5.018   5.429
 7635SOL    HW223805   2.734   4.946   5.575
 7636SOL     OW23806   0.841   0.558   4.222
 7636SOL    HW123807   0.889   0.586   4.306
 7636SOL    HW223808   0.854   0.461   4.207
 7637SOL     OW23809   1.493   6.085   3.994
 7637SOL    HW123810   1.515   6.145   4.071
 7637SOL    HW223811   1.565   6.091   3.925
 7638SOL     OW23812   5.165   5.119   1.769
 7638SOL    HW123813   5.072   5.096   1.799
 7638SOL    HW223814   5.165   5.134   1.671
 7639SOL     OW23815   0.600   1.499   5.453
 7639SOL    HW123816   0.648   1.440   5.388
 7639SOL    HW223817   0.579   1.587   5.411
 7640SOL     OW23818   2.458   1.840   0.581
 7640SOL    HW123819   2.482   1.854   0.485
 7640SOL    HW223820   2.511   1.764   0.617
 7641SOL     OW23821   5.971   4.039   2.270
 7641SOL    HW123822   5.919   4.011   2.351
 7641SOL    HW223823   5.995   4.136   2.277
 7642SOL     OW23824   2.388   1.924   2.285
 7642SOL    HW123825   2.378   1.919   2.185
 7642SOL    HW223826   2.452   1.853   2.315
 7643SOL     OW23827   4.936   2.862   3.162
 7643SOL    HW123828   5.031   2.844   3.139
 7643SOL    HW223829   4.892   2.911   3.087
 7644SOL     OW23830   6.980   3.080   2.644
 7644SOL    HW123831   6.917   3.140   2.694
 7644SOL    HW223832   6.930   3.032   2.572
 7645SOL     OW23833   4.214   4.150   0.254
 7645SOL    HW123834   4.306   4.189   0.249
 7645SOL    HW223835   4.179   4.158   0.347
 7646SOL     OW23836   2.307   1.944   2.005
 7646SOL    HW123837   2.393   1.994   2.007
 7646SOL    HW223838   2.277   1.932   1.911
 7647SOL     OW23839   2.756   4.052   1.659
 7647SOL    HW123840   2.715   4.134   1.697
 7647SOL    HW223841   2.712   3.971   1.698
 7648SOL     OW23842   4.307   1.138   3.625
 7648SOL    HW123843   4.243   1.123   3.700
 7648SOL    HW223844   4.324   1.236   3.613
 7649SOL     OW23845   2.777   0.763   2.098
 7649SOL    HW123846   2.728   0.822   2.162
 7649SOL    HW223847   2.782   0.808   2.008
 7650SOL     OW23848   6.198   3.943   2.117
 7650SOL    HW123849   6.183   3.869   2.051
 7650SOL    HW223850   6.113   3.962   2.165
 7651SOL     OW23851   3.372   1.172   6.686
 7651SOL    HW123852   3.336   1.239   6.621
 7651SOL    HW223853   3.325   1.085   6.672
 7652SOL     OW23854   0.224   3.584   2.686
 7652SOL    HW123855   0.280   3.667   2.682
 7652SOL    HW223856   0.282   3.504   2.697
 7653SOL     OW23857   2.539   2.280   1.786
 7653SOL    HW123858   2.619   2.221   1.798
 7653SOL    HW223859   2.567   2.368   1.747
 7654SOL     OW23860   4.891   3.751   3.423
 7654SOL    HW123861   4.826   3.825   3.410
 7654SOL    HW223862   4.892   3.693   3.342
 7655SOL     OW23863   3.603   6.310   5.229
 7655SOL    HW123864   3.621   6.216   5.199
 7655SOL    HW223865   3.548   6.357   5.160
 7656SOL     OW23866   0.087   6.012   5.388
 7656SOL    HW123867   0.173   5.974   5.356
 7656SOL    HW223868   0.026   5.939   5.417
 7657SOL     OW23869   3.357   1.496   3.926
 7657SOL    HW123870   3.336   1.591   3.946
 7657SOL    HW223871   3.378   1.485   3.829
 7658SOL     OW23872   4.225   0.959   5.978
 7658SOL    HW123873   4.240   1.037   6.038
 7658SOL    HW223874   4.131   0.959   5.946
 7659SOL     OW23875   5.894   6.829   0.721
 7659SOL    HW123876   5.860   6.895   0.654
 7659SOL    HW223877   5.886   6.737   0.684
 7660SOL     OW23878   5.754   5.628   3.203
 7660SOL    HW123879   5.787   5.540   3.168
 7660SOL    HW223880   5.715   5.614   3.294
 7661SOL     OW23881   6.657   3.031   3.279
 7661SOL    HW123882   6.602   3.078   3.210
 7661SOL    HW223883   6.612   2.947   3.307
 7662SOL     OW23884   1.187   4.960   2.029
 7662SOL    HW123885   1.273   4.910   2.017
 7662SOL    HW223886   1.136   4.958   1.943
 7663SOL     OW23887   0.201   4.555   6.123
 7663SOL    HW123888   0.152   4.564   6.036
 7663SOL    HW223889   0.244   4.643   6.146
 7664SOL     OW23890   2.344   5.291   3.396
 7664SOL    HW123891   2.295   5.350   3.332
 7664SOL    HW223892   2.280   5.227   3.438
 7665SOL     OW23893   2.678   6.837   4.505
 7665SOL    HW123894   2.648   6.779   4.582
 7665SOL    HW223895   2.605   6.901   4.482
 7666SOL     OW23896   1.561   1.093   1.044
 7666SOL    HW123897   1.574   1.184   1.007
 7666SOL    HW223898   1.555   1.098   1.144
 7667SOL     OW23899   4.632   7.006   0.095
 7667SOL    HW123900   4.538   0.011   0.072
 7667SOL    HW223901   4.673   0.051   0.155
 7668SOL     OW23902   3.789   4.329   1.219
 7668SOL    HW123903   3.698   4.369   1.231
 7668SOL    HW223904   3.801   4.253   1.282
 7669SOL     OW23905   5.012   0.263   4.200
 7669SOL    HW123906   4.987   0.325   4.125
 7669SOL    HW223907   5.056   0.316   4.273
 7670SOL     OW23908   1.541   5.303   0.340
 7670SOL    HW123909   1.484   5.308   0.423
 7670SOL    HW223910   1.485   5.323   0.260
 7671SOL     OW23911   6.217   3.016   4.087
 7671SOL    HW123912   6.310   2.980   4.084
 7671SOL    HW223913   6.164   2.978   4.011
 7672SOL     OW23914   5.559   0.716   3.091
 7672SOL    HW123915   5.538   0.636   3.147
 7672SOL    HW223916   5.605   0.687   3.007
 7673SOL     OW23917   0.848   4.329   0.910
 7673SOL    HW123918   0.783   4.349   0.984
 7673SOL    HW223919   0.904   4.251   0.936
 7674SOL     OW23920   6.066   1.334   5.454
 7674SOL    HW123921   6.145   1.300   5.505
 7674SOL    HW223922   6.084   1.427   5.422
 7675SOL     OW23923   4.207   6.778   2.839
 7675SOL    HW123924   4.273   6.826   2.897
 7675SOL    HW223925   4.162   6.706   2.892
 7676SOL     OW23926   1.238   0.862   0.595
 7676SOL    HW123927   1.206   0.896   0.684
 7676SOL    HW223928   1.259   0.764   0.602
 7677SOL     OW23929   1.334   2.946   2.543
 7677SOL    HW123930   1.335   2.861   2.596
 7677SOL    HW223931   1.370   3.021   2.599
 7678SOL     OW23932   6.494   6.745   0.563
 7678SOL    HW123933   6.558   6.790   0.625
 7678SOL    HW223934   6.500   6.646   0.576
 7679SOL     OW23935   0.850   5.173   4.921
 7679SOL    HW123936   0.795   5.223   4.988
 7679SOL    HW223937   0.832   5.075   4.930
 7680SOL     OW23938   3.551   3.074   0.265
 7680SOL    HW123939   3.519   3.131   0.341
 7680SOL    HW223940   3.574   2.983   0.300
 7681SOL     OW23941   2.779   1.729   0.188
 7681SOL    HW123942   2.797   1.775   0.101
 7681SOL    HW223943   2.862   1.684   0.219
 7682SOL     OW23944   2.795   0.020   2.144
 7682SOL    HW123945   2.767   0.076   2.066
 7682SOL    HW223946   2.722   0.018   2.212
 7683SOL     OW23947   5.440   2.210   2.998
 7683SOL    HW123948   5.399   2.278   2.936
 7683SOL    HW223949   5.381   2.129   3.002
 7684SOL     OW23950   4.251   2.199   5.950
 7684SOL    HW123951   4.155   2.224   5.950
 7684SOL    HW223952   4.290   2.211   5.859
 7685SOL     OW23953   3.518   3.144   0.546
 7685SOL    HW123954   3.419   3.132   0.542
 7685SOL    HW223955   3.539   3.240   0.564
 7686SOL     OW23956   4.737   6.553   4.257
 7686SOL    HW123957   4.767   6.599   4.173
 7686SOL    HW223958   4.689   6.618   4.315
 7687SOL     OW23959   5.172   5.405   5.232
 7687SOL    HW123960   5.237   5.329   5.228
 7687SOL    HW223961   5.105   5.389   5.304
 7688SOL     OW23962   0.197   6.472   4.585
 7688SOL    HW123963   0.112   6.495   4.538
 7688SOL    HW223964   0.275   6.509   4.535
 7689SOL     OW23965   4.886   6.879   4.869
 7689SOL    HW123966   4.982   6.853   4.854
 7689SOL    HW223967   4.841   6.809   4.924
 7690SOL     OW23968   6.448   4.982   3.433
 7690SOL    HW123969   6.392   4.988   3.350
 7690SOL    HW223970   6.511   4.905   3.425
 7691SOL     OW23971   5.143   3.255   4.415
 7691SOL    HW123972   5.047   3.257   4.385
 7691SOL    HW223973   5.203   3.256   4.335
 7692SOL     OW23974   1.984   6.708   1.838
 7692SOL    HW123975   2.014   6.786   1.783
 7692SOL    HW223976   1.906   6.664   1.795
 7693SOL     OW23977   4.346   1.239   6.412
 7693SOL    HW123978   4.445   1.251   6.402
 7693SOL    HW223979   4.318   1.265   6.504
 7694SOL     OW23980   6.941   5.272   4.592
 7694SOL    HW123981   6.976   5.291   4.500
 7694SOL    HW223982   7.002   5.312   4.660
 7695SOL     OW23983   4.463   6.816   1.080
 7695SOL    HW123984   4.407   6.810   0.997
 7695SOL    HW223985   4.466   6.912   1.111
 7696SOL     OW23986   6.898   3.659   5.334
 7696SOL    HW123987   6.966   3.690   5.400
 7696SOL    HW223988   6.934   3.579   5.285
 7697SOL     OW23989   3.105   1.320   2.919
 7697SOL    HW123990   3.160   1.351   2.842
 7697SOL    HW223991   3.079   1.224   2.905
 7698SOL     OW23992   6.457   2.671   5.917
 7698SOL    HW123993   6.393   2.637   5.985
 7698SOL    HW223994   6.538   2.708   5.963
 7699SOL     OW23995   2.865   5.424   6.503
 7699SOL    HW123996   2.766   5.438   6.501
 7699SOL    HW223997   2.898   5.404   6.411
 7700SOL     OW23998   5.270   6.723   5.118
 7700SOL    HW123999   5.316   6.651   5.169
 7700SOL    HW224000   5.181   6.742   5.159
 7701SOL     OW24001   0.016   1.807   4.241
 7701SOL    HW124002   0.068   1.817   4.326
 7701SOL    HW224003   0.079   1.797   4.164
 7702SOL     OW24004   3.302   6.102   5.843
 7702SOL    HW124005   3.228   6.075   5.781
 7702SOL    HW224006   3.390   6.080   5.802
 7703SOL     OW24007   0.681   1.089   6.055
 7703SOL    HW124008   0.753   1.123   5.994
 7703SOL    HW224009   0.716   1.085   6.148
 7704SOL     OW24010   4.255   4.253   6.847
 7704SOL    HW124011   4.287   4.348   6.844
 7704SOL    HW224012   4.205   4.237   6.932
 7705SOL     OW24013   3.302   5.106   5.188
 7705SOL    HW124014   3.288   5.185   5.129
 7705SOL    HW224015   3.381   5.053   5.156
 7706SOL     OW24016   6.655   0.949   5.211
 7706SOL    HW124017   6.621   1.042   5.225
 7706SOL    HW224018   6.591   0.883   5.251
 7707SOL     OW24019   6.840   5.411   6.346
 7707SOL    HW124020   6.762   5.350   6.362
 7707SOL    HW224021   6.915   5.360   6.304
 7708SOL     OW24022   4.757   0.004   4.701
 7708SOL    HW124023   4.833   0.051   4.655
 7708SOL    HW224024   4.795   6.957   4.762
 7709SOL     OW24025   4.111   2.114   2.213
 7709SOL    HW124026   4.142   2.135   2.120
 7709SOL    HW224027   4.011   2.113   2.215
 7710SOL     OW24028   2.125   0.840   6.983
 7710SOL    HW124029   2.144   0.807   0.051
 7710SOL    HW224030   2.094   0.765   6.925
 7711SOL     OW24031   5.188   6.568   5.395
 7711SOL    HW124032   5.272   6.533   5.353
 7711SOL    HW224033   5.121   6.494   5.402
 7712SOL     OW24034   5.874   5.443   0.883
 7712SOL    HW124035   5.960   5.392   0.874
 7712SOL    HW224036   5.800   5.389   0.844
 7713SOL     OW24037   1.633   4.164   6.132
 7713SOL    HW124038   1.671   4.126   6.048
 7713SOL    HW224039   1.695   4.145   6.208
 7714SOL     OW24040   6.436   4.441   3.983
 7714SOL    HW124041   6.482   4.483   4.061
 7714SOL    HW224042   6.499   4.434   3.906
 7715SOL     OW24043   4.783   0.162   1.432
 7715SOL    HW124044   4.697   0.189   1.474
 7715SOL    HW224045   4.859   0.205   1.482
 7716SOL     OW24046   4.337   1.753   3.546
 7716SOL    HW124047   4.251   1.786   3.508
 7716SOL    HW224048   4.368   1.815   3.617
 7717SOL     OW24049   2.916   1.338   5.753
 7717SOL    HW124050   2.969   1.334   5.668
 7717SOL    HW224051   2.978   1.327   5.831
 7718SOL     OW24052   2.788   0.394   3.824
 7718SOL    HW124053   2.871   0.446   3.841
 7718SOL    HW224054   2.806   0.324   3.754
 7719SOL     OW24055   6.803   1.913   4.388
 7719SOL    HW124056   6.811   1.837   4.324
 7719SOL    HW224057   6.758   1.990   4.343
 7720SOL     OW24058   5.654   5.970   1.766
 7720SOL    HW124059   5.737   6.012   1.801
 7720SOL    HW224060   5.676   5.912   1.688
 7721SOL     OW24061   2.131   4.235   2.761
 7721SOL    HW124062   2.097   4.148   2.727
 7721SOL    HW224063   2.192   4.276   2.693
 7722SOL     OW24064   6.698   4.673   3.882
 7722SOL    HW124065   6.607   4.716   3.884
 7722SOL    HW224066   6.744   4.688   3.970
 7723SOL     OW24067   6.724   3.344   0.741
 7723SOL    HW124068   6.635   3.359   0.785
 7723SOL    HW224069   6.739   3.414   0.672
 7724SOL     OW24070   1.197   4.275   1.191
 7724SOL    HW124071   1.139   4.353   1.169
 7724SOL    HW224072   1.293   4.298   1.171
 7725SOL     OW24073   5.541   3.226   4.221
 7725SOL    HW124074   5.555   3.300   4.156
 7725SOL    HW224075   5.555   3.260   4.314
 7726SOL     OW24076   0.571   4.694   3.162
 7726SOL    HW124077   0.485   4.666   3.121
 7726SOL    HW224078   0.647   4.648   3.115
 7727SOL     OW24079   6.621   2.384   2.890
 7727SOL    HW124080   6.664   2.351   2.806
 7727SOL    HW224081   6.579   2.308   2.939
 7728SOL     OW24082   1.986   3.011   3.072
 7728SOL    HW124083   2.015   3.105   3.059
 7728SOL    HW224084   2.064   2.950   3.060
 7729SOL     OW24085   5.283   2.396   0.931
 7729SOL    HW124086   5.279   2.463   1.004
 7729SOL    HW224087   5.342   2.320   0.958
 7730SOL     OW24088   5.382   0.543   2.901
 7730SOL    HW124089   5.409   0.447   2.904
 7730SOL    HW224090   5.318   0.562   2.976
 7731SOL     OW24091   6.118   1.035   0.019
 7731SOL    HW124092   6.139   1.087   6.960
 7731SOL    HW224093   6.196   1.039   0.081
 7732SOL     OW24094   4.007   5.796   0.425
 7732SOL    HW124095   4.037   5.810   0.520
 7732SOL    HW224096   3.980   5.700   0.413
 7733SOL     OW24097   3.743   0.327   1.958
 7733SOL    HW124098   3.655   0.299   1.920
 7733SOL    HW224099   3.766   0.418   1.924
 7734SOL     OW24100   1.604   2.197   3.094
 7734SOL    HW124101   1.575   2.119   3.149
 7734SOL    HW224102   1.616   2.168   2.999
 7735SOL     OW24103   5.207   4.265   6.571
 7735SOL    HW124104   5.264   4.347   6.559
 7735SOL    HW224105   5.257   4.185   6.538
 7736SOL     OW24106   6.016   4.867   0.115
 7736SOL    HW124107   5.931   4.851   0.166
 7736SOL    HW224108   6.094   4.845   0.173
 7737SOL     OW24109   4.781   1.680   0.599
 7737SOL    HW124110   4.756   1.774   0.577
 7737SOL    HW224111   4.794   1.628   0.515
 7738SOL     OW24112   2.801   5.466   0.376
 7738SOL    HW124113   2.883   5.442   0.428
 7738SOL    HW224114   2.817   5.446   0.279
 7739SOL     OW24115   6.894   2.093   1.204
 7739SOL    HW124116   6.867   2.009   1.156
 7739SOL    HW224117   6.833   2.108   1.281
 7740SOL     OW24118   6.939   0.145   3.122
 7740SOL    HW124119   7.013   0.131   3.056
 7740SOL    HW224120   6.943   0.073   3.191
 7741SOL     OW24121   1.543   5.799   4.639
 7741SOL    HW124122   1.532   5.745   4.723
 7741SOL    HW224123   1.640   5.807   4.617
 7742SOL     OW24124   6.549   1.690   3.987
 7742SOL    HW124125   6.572   1.596   4.011
 7742SOL    HW224126   6.624   1.730   3.934
 7743SOL     OW24127   4.689   2.806   4.402
 7743SOL    HW124128   4.610   2.750   4.375
 7743SOL    HW224129   4.770   2.775   4.352
 7744SOL     OW24130   6.617   0.121   4.076
 7744SOL    HW124131   6.631   0.215   4.107
 7744SOL    HW224132   6.639   0.114   3.978
 7745SOL     OW24133   4.176   2.816   6.308
 7745SOL    HW124134   4.137   2.891   6.254
 7745SOL    HW224135   4.135   2.817   6.399
 7746SOL     OW24136   1.304   1.010   0.359
 7746SOL    HW124137   1.288   0.953   0.439
 7746SOL    HW224138   1.392   1.057   0.368
 7747SOL     OW24139   5.231   6.179   1.110
 7747SOL    HW124140   5.282   6.160   1.027
 7747SOL    HW224141   5.156   6.241   1.090
 7748SOL     OW24142   3.073   4.506   6.037
 7748SOL    HW124143   3.169   4.481   6.025
 7748SOL    HW224144   3.015   4.427   6.021
 7749SOL     OW24145   5.189   2.780   5.646
 7749SOL    HW124146   5.145   2.694   5.622
 7749SOL    HW224147   5.258   2.803   5.576
 7750SOL     OW24148   0.209   5.485   2.141
 7750SOL    HW124149   0.132   5.549   2.131
 7750SOL    HW224150   0.288   5.534   2.178
 7751SOL     OW24151   0.686   2.782   2.281
 7751SOL    HW124152   0.734   2.841   2.345
 7751SOL    HW224153   0.697   2.817   2.188
 7752SOL     OW24154   4.353   1.671   4.304
 7752SOL    HW124155   4.402   1.589   4.276
 7752SOL    HW224156   4.379   1.696   4.397
 7753SOL     OW24157   3.126   1.435   5.029
 7753SOL    HW124158   3.205   1.376   5.043
 7753SOL    HW224159   3.057   1.416   5.098
 7754SOL     OW24160   4.698   6.055   1.793
 7754SOL    HW124161   4.728   6.131   1.736
 7754SOL    HW224162   4.638   6.089   1.865
 7755SOL     OW24163   0.359   4.038   5.876
 7755SOL    HW124164   0.395   4.068   5.964
 7755SOL    HW224165   0.394   3.947   5.855
 7756SOL     OW24166   2.835   5.515   1.494
 7756SOL    HW124167   2.805   5.534   1.400
 7756SOL    HW224168   2.935   5.511   1.497
 7757SOL     OW24169   0.262   4.396   2.121
 7757SOL    HW124170   0.276   4.307   2.163
 7757SOL    HW224171   0.314   4.466   2.171
 7758SOL     OW24172   1.659   1.212   5.049
 7758SOL    HW124173   1.635   1.154   4.971
 7758SOL    HW224174   1.716   1.288   5.019
 7759SOL     OW24175   2.664   2.550   6.634
 7759SOL    HW124176   2.740   2.609   6.660
 7759SOL    HW224177   2.616   2.519   6.717
 7760SOL     OW24178   4.108   3.106   0.857
 7760SOL    HW124179   4.142   3.139   0.945
 7760SOL    HW224180   4.185   3.078   0.800
 7761SOL     OW24181   4.802   5.303   4.445
 7761SOL    HW124182   4.829   5.240   4.516
 7761SOL    HW224183   4.702   5.300   4.433
 7762SOL     OW24184   6.089   1.410   2.920
 7762SOL    HW124185   6.029   1.430   2.842
 7762SOL    HW224186   6.045   1.443   3.004
 7763SOL     OW24187   2.409   7.017   4.035
 7763SOL    HW124188   2.433   0.040   3.950
 7763SOL    HW224189   2.367   6.928   4.013
 7764SOL     OW24190   2.845   3.776   5.783
 7764SOL    HW124191   2.761   3.806   5.739
 7764SOL    HW224192   2.840   3.795   5.882
 7765SOL     OW24193   6.674   3.495   5.158
 7765SOL    HW124194   6.700   3.477   5.253
 7765SOL    HW224195   6.652   3.592   5.146
 7766SOL     OW24196   6.234   3.965   6.251
 7766SOL    HW124197   6.206   3.912   6.332
 7766SOL    HW224198   6.219   4.062   6.268
 7767SOL     OW24199   3.074   0.551   3.748
 7767SOL    HW124200   3.008   0.593   3.687
 7767SOL    HW224201   3.086   0.454   3.723
 7768SOL     OW24202   4.276   4.937   3.319
 7768SOL    HW124203   4.274   5.009   3.388
 7768SOL    HW224204   4.220   4.860   3.349
 7769SOL     OW24205   3.696   2.713   5.346
 7769SOL    HW124206   3.642   2.628   5.351
 7769SOL    HW224207   3.680   2.766   5.429
 7770SOL     OW24208   2.142   3.435   4.779
 7770SOL    HW124209   2.108   3.528   4.791
 7770SOL    HW224210   2.234   3.428   4.818
 7771SOL     OW24211   2.578   2.706   6.344
 7771SOL    HW124212   2.606   2.798   6.319
 7771SOL    HW224213   2.553   2.704   6.441
 7772SOL     OW24214   4.987   6.281   1.971
 7772SOL    HW124215   4.916   6.306   2.038
 7772SOL    HW224216   4.989   6.349   1.898
 7773SOL     OW24217   3.188   6.274   6.936
 7773SOL    HW124218   3.228   6.282   6.844
 7773SOL    HW224219   3.186   6.365   6.978
 7774SOL     OW24220   4.076   1.496   2.343
 7774SOL    HW124221   3.977   1.485   2.355
 7774SOL    HW224222   4.104   1.585   2.379
 7775SOL     OW24223   2.860   1.142   0.093
 7775SOL    HW124224   2.916   1.205   0.040
 7775SOL    HW224225   2.877   1.048   0.062
 7776SOL     OW24226   1.768   1.504   4.679
 7776SOL    HW124227   1.704   1.488   4.754
 7776SOL    HW224228   1.845   1.558   4.712
 7777SOL     OW24229   6.172   4.996   3.602
 7777SOL    HW124230   6.256   5.013   3.550
 7777SOL    HW224231   6.116   5.079   3.602
 7778SOL     OW24232   6.930   4.938   2.620
 7778SOL    HW124233   6.879   5.015   2.659
 7778SOL    HW224234   0.004   4.962   2.617
 7779SOL     OW24235   3.819   5.977   2.227
 7779SOL    HW124236   3.736   5.984   2.173
 7779SOL    HW224237   3.871   6.062   2.220
 7780SOL     OW24238   6.250   6.364   4.702
 7780SOL    HW124239   6.192   6.284   4.717
 7780SOL    HW224240   6.234   6.399   4.609
 7781SOL     OW24241   1.143   2.467   0.614
 7781SOL    HW124242   1.232   2.457   0.658
 7781SOL    HW224243   1.081   2.516   0.675
 7782SOL     OW24244   5.635   2.900   4.355
 7782SOL    HW124245   5.683   2.948   4.281
 7782SOL    HW224246   5.537   2.914   4.345
 7783SOL     OW24247   1.592   6.912   5.089
 7783SOL    HW124248   1.608   6.888   5.185
 7783SOL    HW224249   1.579   6.829   5.035
 7784SOL     OW24250   1.667   2.177   2.116
 7784SOL    HW124251   1.672   2.102   2.051
 7784SOL    HW224252   1.591   2.237   2.092
 7785SOL     OW24253   0.714   0.271   2.693
 7785SOL    HW124254   0.628   0.226   2.667
 7785SOL    HW224255   0.791   0.216   2.661
 7786SOL     OW24256   4.267   0.694   6.113
 7786SOL    HW124257   4.223   0.777   6.079
 7786SOL    HW224258   4.245   0.682   6.210
 7787SOL     OW24259   1.937   2.594   1.639
 7787SOL    HW124260   1.893   2.564   1.555
 7787SOL    HW224261   1.916   2.529   1.713
 7788SOL     OW24262   6.946   4.523   1.552
 7788SOL    HW124263   6.988   4.575   1.627
 7788SOL    HW224264   6.972   4.427   1.560
 7789SOL     OW24265   2.928   1.866   5.533
 7789SOL    HW124266   2.918   1.816   5.448
 7789SOL    HW224267   2.981   1.949   5.518
 7790SOL     OW24268   4.299   4.518   1.824
 7790SOL    HW124269   4.284   4.458   1.902
 7790SOL    HW224270   4.396   4.541   1.819
 7791SOL     OW24271   2.500   4.863   2.282
 7791SOL    HW124272   2.560   4.788   2.254
 7791SOL    HW224273   2.553   4.948   2.286
 7792SOL     OW24274   0.481   1.679   2.915
 7792SOL    HW124275   0.562   1.716   2.959
 7792SOL    HW224276   0.508   1.628   2.833
 7793SOL     OW24277   4.628   0.794   6.146
 7793SOL    HW124278   4.725   0.819   6.152
 7793SOL    HW224279   4.572   0.876   6.149
 7794SOL     OW24280   0.545   6.793   3.407
 7794SOL    HW124281   0.557   6.869   3.344
 7794SOL    HW224282   0.524   6.828   3.498
 7795SOL     OW24283   3.364   5.486   6.565
 7795SOL    HW124284   3.394   5.469   6.659
 7795SOL    HW224285   3.367   5.401   6.513
 7796SOL     OW24286   3.965   3.431   7.008
 7796SOL    HW124287   3.986   3.356   6.945
 7796SOL    HW224288   3.867   3.433   0.002
 7797SOL     OW24289   1.071   6.027   2.856
 7797SOL    HW124290   1.033   5.994   2.942
 7797SOL    HW224291   1.013   5.996   2.780
 7798SOL     OW24292   1.376   3.703   1.167
 7798SOL    HW124293   1.333   3.739   1.084
 7798SOL    HW224294   1.336   3.614   1.190
 7799SOL     OW24295   2.217   5.482   3.596
 7799SOL    HW124296   2.266   5.417   3.538
 7799SOL    HW224297   2.224   5.453   3.692
 7800SOL     OW24298   0.805   6.407   2.144
 7800SOL    HW124299   0.734   6.425   2.212
 7800SOL    HW224300   0.830   6.310   2.147
 7801SOL     OW24301   1.392   2.191   2.052
 7801SOL    HW124302   1.303   2.187   2.098
 7801SOL    HW224303   1.380   2.222   1.958
 7802SOL     OW24304   0.113   3.866   4.285
 7802SOL    HW124305   0.038   3.897   4.227
 7802SOL    HW224306   0.196   3.858   4.230
 7803SOL     OW24307   4.091   2.982   5.888
 7803SOL    HW124308   4.017   3.041   5.855
 7803SOL    HW224309   4.172   2.995   5.831
 7804SOL     OW24310   3.461   1.778   5.227
 7804SOL    HW124311   3.464   1.771   5.128
 7804SOL    HW224312   3.498   1.694   5.268
 7805SOL     OW24313   5.498   3.104   0.767
 7805SOL    HW124314   5.507   3.028   0.831
 7805SOL    HW224315   5.507   3.070   0.674
 7806SOL     OW24316   6.552   1.781   5.744
 7806SOL    HW124317   6.617   1.722   5.792
 7806SOL    HW224318   6.542   1.750   5.650
 7807SOL     OW24319   2.152   4.519   5.886
 7807SOL    HW124320   2.236   4.477   5.921
 7807SOL    HW224321   2.108   4.572   5.959
 7808SOL     OW24322   5.571   3.770   2.762
 7808SOL    HW124323   5.502   3.726   2.705
 7808SOL    HW224324   5.559   3.741   2.857
 7809SOL     OW24325   4.911   4.895   3.072
 7809SOL    HW124326   4.828   4.854   3.034
 7809SOL    HW224327   4.970   4.927   2.998
 7810SOL     OW24328   3.509   6.568   5.273
 7810SOL    HW124329   3.547   6.619   5.196
 7810SOL    HW224330   3.570   6.492   5.296
 7811SOL     OW24331   1.677   6.433   3.099
 7811SOL    HW124332   1.628   6.360   3.052
 7811SOL    HW224333   1.752   6.394   3.154
 7812SOL     OW24334   3.005   2.126   6.076
 7812SOL    HW124335   3.010   2.169   6.166
 7812SOL    HW224336   3.095   2.129   6.032
 7813SOL     OW24337   5.738   0.630   0.342
 7813SOL    HW124338   5.715   0.643   0.439
 7813SOL    HW224339   5.831   0.595   0.334
 7814SOL     OW24340   6.562   3.002   1.876
 7814SOL    HW124341   6.550   2.929   1.809
 7814SOL    HW224342   6.526   3.088   1.838
 7815SOL     OW24343   5.810   3.767   5.691
 7815SOL    HW124344   5.840   3.842   5.749
 7815SOL    HW224345   5.792   3.686   5.747
 7816SOL     OW24346   0.745   0.425   5.550
 7816SOL    HW124347   0.790   0.515   5.549
 7816SOL    HW224348   0.757   0.381   5.461
 7817SOL     OW24349   3.019   3.225   6.624
 7817SOL    HW124350   2.970   3.293   6.678
 7817SOL    HW224351   2.989   3.133   6.651
 7818SOL     OW24352   5.896   0.941   3.444
 7818SOL    HW124353   5.842   1.018   3.409
 7818SOL    HW224354   5.858   0.911   3.531
 7819SOL     OW24355   1.830   3.601   3.846
 7819SOL    HW124356   1.757   3.563   3.902
 7819SOL    HW224357   1.858   3.689   3.883
 7820SOL     OW24358   1.736   6.925   6.313
 7820SOL    HW124359   1.750   7.017   6.276
 7820SOL    HW224360   1.665   6.878   6.260
 7821SOL     OW24361   4.827   5.877   6.455
 7821SOL    HW124362   4.800   5.871   6.358
 7821SOL    HW224363   4.792   5.961   6.494
 7822SOL     OW24364   0.290   0.638   4.756
 7822SOL    HW124365   0.264   0.689   4.674
 7822SOL    HW224366   0.333   0.700   4.822
 7823SOL     OW24367   2.126   3.476   5.672
 7823SOL    HW124368   2.177   3.411   5.615
 7823SOL    HW224369   2.103   3.557   5.617
 7824SOL     OW24370   5.672   2.777   3.390
 7824SOL    HW124371   5.626   2.711   3.331
 7824SOL    HW224372   5.735   2.832   3.335
 7825SOL     OW24373   3.484   3.596   2.186
 7825SOL    HW124374   3.553   3.538   2.143
 7825SOL    HW224375   3.524   3.684   2.209
 7826SOL     OW24376   6.475   0.061   1.290
 7826SOL    HW124377   6.375   0.053   1.288
 7826SOL    HW224378   6.509   0.068   1.196
 7827SOL     OW24379   5.019   3.934   1.032
 7827SOL    HW124380   4.970   3.954   0.947
 7827SOL    HW224381   5.025   3.835   1.045
 7828SOL     OW24382   1.008   5.649   0.882
 7828SOL    HW124383   0.940   5.716   0.853
 7828SOL    HW224384   1.061   5.618   0.803
 7829SOL     OW24385   3.966   3.012   2.540
 7829SOL    HW124386   3.873   2.979   2.522
 7829SOL    HW224387   4.003   2.962   2.618
 7830SOL     OW24388   5.786   2.978   6.801
 7830SOL    HW124389   5.877   2.970   6.761
 7830SOL    HW224390   5.786   3.050   6.870
 7831SOL     OW24391   1.838   2.616   6.720
 7831SOL    HW124392   1.772   2.673   6.670
 7831SOL    HW224393   1.789   2.543   6.768
 7832SOL     OW24394   2.792   2.377   5.137
 7832SOL    HW124395   2.857   2.313   5.095
 7832SOL    HW224396   2.841   2.444   5.192
 7833SOL     OW24397   1.256   0.032   0.828
 7833SOL    HW124398   1.226   6.962   0.844
 7833SOL    HW224399   1.302   0.037   0.739
 7834SOL     OW24400   0.363   0.368   1.203
 7834SOL    HW124401   0.318   0.282   1.178
 7834SOL    HW224402   0.462   0.359   1.187
 7835SOL     OW24403   1.916   2.837   5.208
 7835SOL    HW124404   1.917   2.868   5.304
 7835SOL    HW224405   1.838   2.878   5.161
 7836SOL     OW24406   2.237   0.196   0.389
 7836SOL    HW124407   2.317   0.191   0.329
 7836SOL    HW224408   2.183   0.113   0.379
 7837SOL     OW24409   6.266   0.165   3.554
 7837SOL    HW124410   6.351   0.157   3.502
 7837SOL    HW224411   6.218   0.077   3.552
 7838SOL     OW24412   4.099   6.803   3.586
 7838SOL    HW124413   4.071   6.835   3.495
 7838SOL    HW224414   4.113   6.882   3.646
 7839SOL     OW24415   6.143   4.827   4.354
 7839SOL    HW124416   6.216   4.886   4.319
 7839SOL    HW224417   6.073   4.884   4.398
 7840SOL     OW24418   5.329   2.733   5.390
 7840SOL    HW124419   5.273   2.673   5.333
 7840SOL    HW224420   5.359   2.812   5.337
 7841SOL     OW24421   1.468   2.013   6.384
 7841SOL    HW124422   1.519   1.964   6.313
 7841SOL    HW224423   1.518   2.011   6.470
 7842SOL     OW24424   3.061   1.045   2.972
 7842SOL    HW124425   3.101   0.976   3.032
 7842SOL    HW224426   2.964   1.056   2.994
 7843SOL     OW24427   5.280   3.321   1.345
 7843SOL    HW124428   5.251   3.343   1.252
 7843SOL    HW224429   5.202   3.331   1.407
 7844SOL     OW24430   4.482   1.077   4.029
 7844SOL    HW124431   4.422   1.153   4.054
 7844SOL    HW224432   4.472   1.003   4.094
 7845SOL     OW24433   0.354   0.930   4.152
 7845SOL    HW124434   0.385   0.842   4.117
 7845SOL    HW224435   0.423   0.969   4.212
 7846SOL     OW24436   3.519   6.775   2.072
 7846SOL    HW124437   3.431   6.750   2.113
 7846SOL    HW224438   3.566   6.691   2.044
 7847SOL     OW24439   0.097   0.258   0.202
 7847SOL    HW124440   0.113   0.326   0.273
 7847SOL    HW224441   0.182   0.242   0.151
 7848SOL     OW24442   4.850   4.305   0.809
 7848SOL    HW124443   4.787   4.304   0.887
 7848SOL    HW224444   4.943   4.288   0.842
 7849SOL     OW24445   5.752   3.608   5.255
 7849SOL    HW124446   5.800   3.521   5.245
 7849SOL    HW224447   5.793   3.661   5.329
 7850SOL     OW24448   0.574   0.539   4.315
 7850SOL    HW124449   0.660   0.554   4.267
 7850SOL    HW224450   0.533   0.453   4.284
 7851SOL     OW24451   5.551   0.062   6.783
 7851SOL    HW124452   5.520   0.155   6.764
 7851SOL    HW224453   5.612   0.063   6.863
 7852SOL     OW24454   2.122   6.070   6.856
 7852SOL    HW124455   2.181   6.096   6.932
 7852SOL    HW224456   2.164   5.994   6.806
 7853SOL     OW24457   2.294   3.314   0.751
 7853SOL    HW124458   2.290   3.256   0.670
 7853SOL    HW224459   2.205   3.357   0.766
 7854SOL     OW24460   3.475   4.032   2.708
 7854SOL    HW124461   3.562   4.057   2.665
 7854SOL    HW224462   3.493   3.996   2.800
 7855SOL     OW24463   3.719   6.745   5.713
 7855SOL    HW124464   3.759   6.653   5.705
 7855SOL    HW224465   3.693   6.762   5.808
 7856SOL     OW24466   4.832   2.908   6.153
 7856SOL    HW124467   4.861   2.972   6.224
 7856SOL    HW224468   4.775   2.836   6.193
 7857SOL     OW24469   0.345   1.543   5.189
 7857SOL    HW124470   0.394   1.494   5.261
 7857SOL    HW224471   0.283   1.610   5.230
 7858SOL     OW24472   6.185   4.222   3.511
 7858SOL    HW124473   6.105   4.196   3.456
 7858SOL    HW224474   6.156   4.240   3.605
 7859SOL     OW24475   1.277   5.635   6.648
 7859SOL    HW124476   1.236   5.687   6.573
 7859SOL    HW224477   1.217   5.559   6.673
 7860SOL     OW24478   3.480   0.220   1.894
 7860SOL    HW124479   3.454   0.235   1.798
 7860SOL    HW224480   3.437   0.291   1.950
 7861SOL     OW24481   5.598   4.353   0.786
 7861SOL    HW124482   5.628   4.295   0.862
 7861SOL    HW224483   5.498   4.358   0.786
 7862SOL     OW24484   2.881   4.713   1.675
 7862SOL    HW124485   2.809   4.759   1.727
 7862SOL    HW224486   2.932   4.652   1.735
 7863SOL     OW24487   0.136   5.762   1.877
 7863SOL    HW124488   0.128   5.698   1.800
 7863SOL    HW224489   0.060   5.826   1.875
 7864SOL     OW24490   0.845   5.286   4.664
 7864SOL    HW124491   0.848   5.213   4.731
 7864SOL    HW224492   0.762   5.341   4.678
 7865SOL     OW24493   3.290   6.953   2.637
 7865SOL    HW124494   3.333   7.017   2.575
 7865SOL    HW224495   3.273   6.866   2.590
 7866SOL     OW24496   2.764   2.375   4.154
 7866SOL    HW124497   2.730   2.460   4.114
 7866SOL    HW224498   2.841   2.341   4.098
 7867SOL     OW24499   5.258   4.513   2.264
 7867SOL    HW124500   5.312   4.431   2.243
 7867SOL    HW224501   5.214   4.546   2.181
 7868SOL     OW24502   5.095   6.848   0.708
 7868SOL    HW124503   5.005   6.810   0.727
 7868SOL    HW224504   5.107   6.859   0.609
 7869SOL     OW24505   0.290   3.286   2.191
 7869SOL    HW124506   0.285   3.375   2.147
 7869SOL    HW224507   0.201   3.261   2.229
 7870SOL     OW24508   7.015   6.160   4.083
 7870SOL    HW124509   0.071   6.201   4.127
 7870SOL    HW224510   0.019   6.117   3.997
 7871SOL     OW24511   5.499   2.798   3.121
 7871SOL    HW124512   5.515   2.885   3.167
 7871SOL    HW224513   5.500   2.724   3.189
 7872SOL     OW24514   6.676   3.230   3.477
 7872SOL    HW124515   6.665   3.173   3.559
 7872SOL    HW224516   6.654   3.175   3.396
 7873SOL     OW24517   0.329   5.027   5.190
 7873SOL    HW124518   0.301   4.996   5.099
 7873SOL    HW224519   0.269   4.987   5.259
 7874SOL     OW24520   5.535   1.043   0.297
 7874SOL    HW124521   5.618   1.000   0.262
 7874SOL    HW224522   5.543   1.057   0.395
 7875SOL     OW24523   4.688   2.778   6.838
 7875SOL    HW124524   4.724   2.806   6.749
 7875SOL    HW224525   4.632   2.852   6.877
 7876SOL     OW24526   6.486   0.416   3.861
 7876SOL    HW124527   6.415   0.364   3.908
 7876SOL    HW224528   6.508   0.498   3.914
 7877SOL     OW24529   6.915   2.195   2.400
 7877SOL    HW124530   6.946   2.193   2.495
 7877SOL    HW224531   6.933   2.285   2.361
 7878SOL     OW24532   4.782   3.718   1.804
 7878SOL    HW124533   4.725   3.671   1.736
 7878SOL    HW224534   4.848   3.778   1.757
 7879SOL     OW24535   5.252   0.590   4.342
 7879SOL    HW124536   5.222   0.592   4.246
 7879SOL    HW224537   5.351   0.599   4.346
 7880SOL     OW24538   0.613   6.839   6.549
 7880SOL    HW124539   0.652   6.922   6.589
 7880SOL    HW224540   0.676   6.763   6.562
 7881SOL     OW24541   6.998   4.845   3.694
 7881SOL    HW124542   0.005   4.840   3.789
 7881SOL    HW224543   0.038   4.901   3.641
 7882SOL     OW24544   0.296   3.994   2.388
 7882SOL    HW124545   0.287   4.016   2.485
 7882SOL    HW224546   0.226   3.927   2.362
 7883SOL     OW24547   3.616   1.616   4.148
 7883SOL    HW124548   3.564   1.540   4.187
 7883SOL    HW224549   3.714   1.598   4.160
 7884SOL     OW24550   0.436   3.664   3.975
 7884SOL    HW124551   0.351   3.637   3.930
 7884SOL    HW224552   0.510   3.602   3.948
 7885SOL     OW24553   6.289   5.293   3.257
 7885SOL    HW124554   6.270   5.277   3.354
 7885SOL    HW224555   6.380   5.334   3.247
 7886SOL     OW24556   4.802   3.059   3.006
 7886SOL    HW124557   4.833   3.153   2.994
 7886SOL    HW224558   4.815   3.008   2.921
 7887SOL     OW24559   2.450   3.543   0.831
 7887SOL    HW124560   2.544   3.508   0.829
 7887SOL    HW224561   2.386   3.467   0.822
 7888SOL     OW24562   5.824   2.285   4.654
 7888SOL    HW124563   5.830   2.365   4.714
 7888SOL    HW224564   5.866   2.307   4.566
 7889SOL     OW24565   5.236   5.330   0.223
 7889SOL    HW124566   5.232   5.406   0.158
 7889SOL    HW224567   5.177   5.350   0.301
 7890SOL     OW24568   1.395   3.654   4.296
 7890SOL    HW124569   1.327   3.661   4.222
 7890SOL    HW224570   1.380   3.729   4.361
 7891SOL     OW24571   6.938   1.523   4.252
 7891SOL    HW124572   6.998   1.602   4.243
 7891SOL    HW224573   6.984   1.442   4.215
 7892SOL     OW24574   0.418   2.063   5.880
 7892SOL    HW124575   0.507   2.018   5.865
 7892SOL    HW224576   0.347   2.014   5.830
 7893SOL     OW24577   6.206   0.296   0.380
 7893SOL    HW124578   6.173   0.369   0.440
 7893SOL    HW224579   6.305   0.286   0.392
 7894SOL     OW24580   3.099   1.784   5.879
 7894SOL    HW124581   3.018   1.808   5.824
 7894SOL    HW224582   3.071   1.727   5.956
 7895SOL     OW24583   4.521   6.551   3.753
 7895SOL    HW124584   4.586   6.479   3.730
 7895SOL    HW224585   4.429   6.522   3.726
 7896SOL     OW24586   3.135   2.168   0.957
 7896SOL    HW124587   3.150   2.178   0.858
 7896SOL    HW224588   3.170   2.249   1.004
 7897SOL     OW24589   3.358   3.607   0.687
 7897SOL    HW124590   3.274   3.618   0.634
 7897SOL    HW224591   3.339   3.551   0.768
 7898SOL     OW24592   5.061   6.885   3.580
 7898SOL    HW124593   5.015   6.965   3.619
 7898SOL    HW224594   5.107   6.911   3.496
 7899SOL     OW24595   6.158   4.801   2.987
 7899SOL    HW124596   6.101   4.779   3.066
 7899SOL    HW224597   6.111   4.866   2.928
 7900SOL     OW24598   0.705   4.292   1.728
 7900SOL    HW124599   0.785   4.322   1.675
 7900SOL    HW224600   0.688   4.357   1.802
 7901SOL     OW24601   6.390   1.411   6.383
 7901SOL    HW124602   6.380   1.311   6.382
 7901SOL    HW224603   6.392   1.445   6.289
 7902SOL     OW24604   0.948   6.826   3.431
 7902SOL    HW124605   0.894   6.762   3.376
 7902SOL    HW224606   0.887   6.894   3.472
 7903SOL     OW24607   2.926   2.117   5.009
 7903SOL    HW124608   3.018   2.156   5.009
 7903SOL    HW224609   2.867   2.172   4.949
 7904SOL     OW24610   4.722   1.651   2.298
 7904SOL    HW124611   4.779   1.572   2.274
 7904SOL    HW224612   4.630   1.638   2.263
 7905SOL     OW24613   5.591   1.067   0.890
 7905SOL    HW124614   5.642   1.107   0.814
 7905SOL    HW224615   5.568   0.972   0.869
 7906SOL     OW24616   2.136   5.522   0.277
 7906SOL    HW124617   2.101   5.577   0.201
 7906SOL    HW224618   2.065   5.458   0.307
 7907SOL     OW24619   6.459   0.222   2.988
 7907SOL    HW124620   6.466   0.126   2.959
 7907SOL    HW224621   6.367   0.239   3.022
 7908SOL     OW24622   0.977   0.365   6.895
 7908SOL    HW124623   1.013   0.403   6.810
 7908SOL    HW224624   1.030   0.400   6.973
 7909SOL     OW24625   5.633   4.901   1.938
 7909SOL    HW124626   5.712   4.843   1.958
 7909SOL    HW224627   5.663   4.995   1.924
 7910SOL     OW24628   1.676   3.856   0.503
 7910SOL    HW124629   1.606   3.925   0.488
 7910SOL    HW224630   1.754   3.897   0.550
 7911SOL     OW24631   1.204   4.154   0.352
 7911SOL    HW124632   1.229   4.172   0.257
 7911SOL    HW224633   1.134   4.220   0.380
 7912SOL     OW24634   6.089   6.092   0.765
 7912SOL    HW124635   6.026   6.015   0.765
 7912SOL    HW224636   6.047   6.169   0.716
 7913SOL     OW24637   0.816   3.981   0.865
 7913SOL    HW124638   0.886   4.034   0.912
 7913SOL    HW224639   0.859   3.919   0.800
 7914SOL     OW24640   6.343   5.832   4.791
 7914SOL    HW124641   6.389   5.826   4.880
 7914SOL    HW224642   6.250   5.796   4.798
 7915SOL     OW24643   3.725   6.059   2.477
 7915SOL    HW124644   3.749   6.011   2.392
 7915SOL    HW224645   3.661   6.132   2.456
 7916SOL     OW24646   1.664   0.705   4.498
 7916SOL    HW124647   1.613   0.642   4.439
 7916SOL    HW224648   1.620   0.795   4.497
 7917SOL     OW24649   4.514   3.764   1.016
 7917SOL    HW124650   4.489   3.859   1.036
 7917SOL    HW224651   4.591   3.737   1.074
 7918SOL     OW24652   2.197   1.696   4.501
 7918SOL    HW124653   2.109   1.690   4.454
 7918SOL    HW224654   2.233   1.789   4.492
 7919SOL     OW24655   1.859   6.097   3.663
 7919SOL    HW124656   1.836   6.100   3.761
 7919SOL    HW224657   1.870   6.190   3.629
 7920SOL     OW24658   5.049   0.314   0.931
 7920SOL    HW124659   5.029   0.374   1.008
 7920SOL    HW224660   5.121   0.354   0.875
 7921SOL     OW24661   4.818   1.781   2.045
 7921SOL    HW124662   4.911   1.792   2.080
 7921SOL    HW224663   4.760   1.853   2.084
 7922SOL     OW24664   1.496   5.492   1.236
 7922SOL    HW124665   1.436   5.451   1.305
 7922SOL    HW224666   1.457   5.578   1.204
 7923SOL     OW24667   4.816   1.552   0.357
 7923SOL    HW124668   4.747   1.599   0.304
 7923SOL    HW224669   4.905   1.595   0.343
 7924SOL     OW24670   6.294   6.600   1.173
 7924SOL    HW124671   6.200   6.626   1.151
 7924SOL    HW224672   6.334   6.669   1.234
 7925SOL     OW24673   1.544   6.672   0.479
 7925SOL    HW124674   1.562   6.579   0.509
 7925SOL    HW224675   1.455   6.702   0.515
 7926SOL     OW24676   4.513   5.663   6.806
 7926SOL    HW124677   4.456   5.716   6.744
 7926SOL    HW224678   4.465   5.580   6.834
 7927SOL     OW24679   4.641   0.487   2.262
 7927SOL    HW124680   4.655   0.458   2.356
 7927SOL    HW224681   4.623   0.585   2.259
 7928SOL     OW24682   6.983   1.507   3.495
 7928SOL    HW124683   6.975   1.565   3.414
 7928SOL    HW224684   6.984   1.411   3.467
 7929SOL     OW24685   3.952   4.716   5.709
 7929SOL    HW124686   4.003   4.776   5.648
 7929SOL    HW224687   4.009   4.637   5.733
 7930SOL     OW24688   4.280   6.211   5.521
 7930SOL    HW124689   4.265   6.134   5.459
 7930SOL    HW224690   4.198   6.268   5.523
 7931SOL     OW24691   3.628   2.395   0.673
 7931SOL    HW124692   3.671   2.470   0.624
 7931SOL    HW224693   3.632   2.412   0.772
 7932SOL     OW24694   1.577   5.238   2.681
 7932SOL    HW124695   1.604   5.237   2.584
 7932SOL    HW224696   1.624   5.312   2.728
 7933SOL     OW24697   0.317   1.011   6.564
 7933SOL    HW124698   0.335   1.097   6.517
 7933SOL    HW224699   0.396   0.986   6.620
 7934SOL     OW24700   0.863   4.742   1.202
 7934SOL    HW124701   0.854   4.720   1.299
 7934SOL    HW224702   0.938   4.688   1.163
 7935SOL     OW24703   4.860   2.897   3.441
 7935SOL    HW124704   4.796   2.851   3.504
 7935SOL    HW224705   4.884   2.834   3.367
 7936SOL     OW24706   3.297   6.359   4.045
 7936SOL    HW124707   3.283   6.260   4.042
 7936SOL    HW224708   3.251   6.401   3.968
 7937SOL     OW24709   3.747   0.341   0.224
 7937SOL    HW124710   3.758   0.295   0.312
 7937SOL    HW224711   3.801   0.292   0.155
 7938SOL     OW24712   3.827   6.774   4.392
 7938SOL    HW124713   3.844   6.796   4.296
 7938SOL    HW224714   3.914   6.763   4.439
 7939SOL     OW24715   0.564   1.698   3.322
 7939SOL    HW124716   0.528   1.624   3.266
 7939SOL    HW224717   0.646   1.667   3.371
 7940SOL     OW24718   5.157   1.160   2.806
 7940SOL    HW124719   5.229   1.104   2.767
 7940SOL    HW224720   5.073   1.106   2.815
 7941SOL     OW24721   3.775   6.726   1.742
 7941SOL    HW124722   3.835   6.705   1.819
 7941SOL    HW224723   3.681   6.731   1.775
 7942SOL     OW24724   1.106   4.542   1.425
 7942SOL    HW124725   1.125   4.470   1.492
 7942SOL    HW224726   1.191   4.590   1.402
 7943SOL     OW24727   1.219   5.778   6.406
 7943SOL    HW124728   1.178   5.701   6.357
 7943SOL    HW224729   1.215   5.860   6.349
 7944SOL     OW24730   1.710   2.759   0.800
 7944SOL    HW124731   1.790   2.718   0.842
 7944SOL    HW224732   1.683   2.705   0.720
 7945SOL     OW24733   5.712   4.560   3.208
 7945SOL    HW124734   5.629   4.517   3.245
 7945SOL    HW224735   5.716   4.655   3.239
 7946SOL     OW24736   3.956   0.992   5.932
 7946SOL    HW124737   3.977   1.065   5.867
 7946SOL    HW224738   3.887   0.932   5.892
 7947SOL     OW24739   0.544   3.280   5.993
 7947SOL    HW124740   0.537   3.348   5.920
 7947SOL    HW224741   0.626   3.297   6.048
 7948SOL     OW24742   1.341   4.364   2.016
 7948SOL    HW124743   1.441   4.368   2.010
 7948SOL    HW224744   1.303   4.454   1.996
 7949SOL     OW24745   3.647   5.586   6.737
 7949SOL    HW124746   3.570   5.541   6.782
 7949SOL    HW224747   3.622   5.609   6.643
 7950SOL     OW24748   5.253   4.974   5.123
 7950SOL    HW124749   5.327   4.954   5.059
 7950SOL    HW224750   5.182   5.027   5.076
 7951SOL     OW24751   2.865   5.705   3.107
 7951SOL    HW124752   2.949   5.751   3.080
 7951SOL    HW224753   2.800   5.771   3.143
 7952SOL     OW24754   5.417   3.739   6.804
 7952SOL    HW124755   5.338   3.738   6.865
 7952SOL    HW224756   5.469   3.823   6.818
 7953SOL     OW24757   2.413   0.829   0.973
 7953SOL    HW124758   2.330   0.796   0.928
 7953SOL    HW224759   2.425   0.927   0.953
 7954SOL     OW24760   3.637   3.271   6.649
 7954SOL    HW124761   3.678   3.182   6.671
 7954SOL    HW224762   3.590   3.306   6.731
 7955SOL     OW24763   1.658   1.488   6.995
 7955SOL    HW124764   1.711   1.435   0.037
 7955SOL    HW224765   1.617   1.426   6.928
 7956SOL     OW24766   5.965   6.273   0.621
 7956SOL    HW124767   5.987   6.269   0.523
 7956SOL    HW224768   5.996   6.360   0.659
 7957SOL     OW24769   4.778   0.901   5.367
 7957SOL    HW124770   4.795   0.974   5.301
 7957SOL    HW224771   4.681   0.875   5.364
 7958SOL     OW24772   5.848   2.620   0.106
 7958SOL    HW124773   5.934   2.598   0.151
 7958SOL    HW224774   5.865   2.687   0.033
 7959SOL     OW24775   5.793   1.554   6.362
 7959SOL    HW124776   5.836   1.564   6.272
 7959SOL    HW224777   5.693   1.552   6.351
 7960SOL     OW24778   0.988   0.530   5.961
 7960SOL    HW124779   0.973   0.557   5.865
 7960SOL    HW224780   0.983   0.431   5.968
 7961SOL     OW24781   6.357   6.408   0.357
 7961SOL    HW124782   6.378   6.374   0.266
 7961SOL    HW224783   6.399   6.347   0.425
 7962SOL     OW24784   5.500   6.662   5.498
 7962SOL    HW124785   5.489   6.732   5.569
 7962SOL    HW224786   5.424   6.597   5.503
 7963SOL     OW24787   0.281   5.118   4.627
 7963SOL    HW124788   0.262   5.152   4.535
 7963SOL    HW224789   0.377   5.091   4.633
 7964SOL     OW24790   6.585   4.554   2.471
 7964SOL    HW124791   6.673   4.506   2.475
 7964SOL    HW224792   6.573   4.593   2.380
 7965SOL     OW24793   3.477   2.532   6.594
 7965SOL    HW124794   3.379   2.537   6.577
 7965SOL    HW224795   3.499   2.579   6.680
 7966SOL     OW24796   4.908   3.883   5.129
 7966SOL    HW124797   4.892   3.887   5.228
 7966SOL    HW224798   4.877   3.795   5.093
 7967SOL     OW24799   1.422   4.427   2.361
 7967SOL    HW124800   1.522   4.422   2.357
 7967SOL    HW224801   1.392   4.517   2.331
 7968SOL     OW24802   0.087   2.356   4.519
 7968SOL    HW124803   0.101   2.428   4.587
 7968SOL    HW224804   0.174   2.310   4.500
 7969SOL     OW24805   4.896   4.779   0.065
 7969SOL    HW124806   4.920   4.728   7.006
 7969SOL    HW224807   4.944   4.867   0.064
 7970SOL     OW24808   5.744   2.903   2.299
 7970SOL    HW124809   5.790   2.862   2.219
 7970SOL    HW224810   5.651   2.867   2.306
 7971SOL     OW24811   3.142   1.053   0.323
 7971SOL    HW124812   3.051   1.052   0.365
 7971SOL    HW224813   3.148   1.131   0.261
 7972SOL     OW24814   3.732   3.764   2.742
 7972SOL    HW124815   3.645   3.785   2.788
 7972SOL    HW224816   3.804   3.824   2.777
 7973SOL     OW24817   6.231   3.802   2.532
 7973SOL    HW124818   6.323   3.838   2.516
 7973SOL    HW224819   6.171   3.877   2.561
 7974SOL     OW24820   6.598   2.319   6.092
 7974SOL    HW124821   6.698   2.322   6.095
 7974SOL    HW224822   6.565   2.229   6.121
 7975SOL     OW24823   5.017   0.528   1.113
 7975SOL    HW124824   5.078   0.607   1.123
 7975SOL    HW224825   4.926   0.551   1.146
 7976SOL     OW24826   0.823   0.157   6.869
 7976SOL    HW124827   0.889   0.231   6.885
 7976SOL    HW224828   0.825   0.094   6.947
 7977SOL     OW24829   6.031   5.851   2.769
 7977SOL    HW124830   6.083   5.826   2.851
 7977SOL    HW224831   5.981   5.771   2.736
 7978SOL     OW24832   0.528   4.579   1.552
 7978SOL    HW124833   0.589   4.499   1.549
 7978SOL    HW224834   0.446   4.556   1.606
 7979SOL     OW24835   1.641   2.923   4.576
 7979SOL    HW124836   1.673   2.830   4.592
 7979SOL    HW224837   1.672   2.955   4.487
 7980SOL     OW24838   4.125   5.716   6.903
 7980SOL    HW124839   4.191   5.644   6.880
 7980SOL    HW224840   4.034   5.689   6.872
 7981SOL     OW24841   1.194   4.521   2.549
 7981SOL    HW124842   1.111   4.467   2.538
 7981SOL    HW224843   1.237   4.534   2.460
 7982SOL     OW24844   6.991   2.033   5.044
 7982SOL    HW124845   0.062   2.060   5.028
 7982SOL    HW224846   6.985   1.978   5.127
 7983SOL     OW24847   4.948   1.457   1.778
 7983SOL    HW124848   4.891   1.531   1.813
 7983SOL    HW224849   4.930   1.374   1.831
 7984SOL     OW24850   0.556   2.089   2.574
 7984SOL    HW124851   0.618   2.013   2.556
 7984SOL    HW224852   0.607   2.175   2.575
 7985SOL     OW24853   2.679   2.029   5.308
 7985SOL    HW124854   2.603   1.990   5.360
 7985SOL    HW224855   2.724   2.100   5.362
 7986SOL     OW24856   2.975   0.961   3.932
 7986SOL    HW124857   3.039   0.940   3.858
 7986SOL    HW224858   3.002   0.912   4.015
 7987SOL     OW24859   1.346   3.130   0.267
 7987SOL    HW124860   1.355   3.218   0.313
 7987SOL    HW224861   1.386   3.136   0.176
 7988SOL     OW24862   0.154   1.578   0.682
 7988SOL    HW124863   0.084   1.596   0.750
 7988SOL    HW224864   0.229   1.644   0.692
 7989SOL     OW24865   0.459   4.590   0.214
 7989SOL    HW124866   0.390   4.579   0.285
 7989SOL    HW224867   0.549   4.569   0.250
 7990SOL     OW24868   3.911   5.431   5.559
 7990SOL    HW124869   3.966   5.514   5.564
 7990SOL    HW224870   3.841   5.441   5.488
 7991SOL     OW24871   6.116   1.352   5.146
 7991SOL    HW124872   6.105   1.347   5.047
 7991SOL    HW224873   6.166   1.271   5.178
 7992SOL     OW24874   2.584   0.311   0.540
 7992SOL    HW124875   2.552   0.282   0.449
 7992SOL    HW224876   2.533   0.392   0.568
 7993SOL     OW24877   6.608   5.977   1.349
 7993SOL    HW124878   6.610   5.901   1.413
 7993SOL    HW224879   6.514   5.992   1.318
 7994SOL     OW24880   5.782   0.522   2.986
 7994SOL    HW124881   5.785   0.461   3.065
 7994SOL    HW224882   5.781   0.467   2.902
 7995SOL     OW24883   0.315   4.585   1.246
 7995SOL    HW124884   0.284   4.652   1.179
 7995SOL    HW224885   0.283   4.611   1.337
 7996SOL     OW24886   3.410   0.437   2.845
 7996SOL    HW124887   3.332   0.499   2.844
 7996SOL    HW224888   3.464   0.454   2.928
 7997SOL     OW24889   0.931   2.266   0.135
 7997SOL    HW124890   0.954   2.339   0.200
 7997SOL    HW224891   0.962   2.178   0.171
 7998SOL     OW24892   2.404   1.336   0.765
 7998SOL    HW124893   2.474   1.293   0.708
 7998SOL    HW224894   2.361   1.410   0.713
 7999SOL     OW24895   0.693   0.801   4.843
 7999SOL    HW124896   0.598   0.795   4.873
 7999SOL    HW224897   0.722   0.897   4.843
 8000SOL     OW24898   4.778   5.641   6.639
 8000SOL    HW124899   4.783   5.698   6.557
 8000SOL    HW224900   4.692   5.658   6.687
 8001SOL     OW24901   4.487   6.528   1.189
 8001SOL    HW124902   4.522   6.597   1.126
 8001SOL    HW224903   4.462   6.446   1.138
 8002SOL     OW24904   1.000   6.837   5.029
 8002SOL    HW124905   0.925   6.822   4.965
 8002SOL    HW224906   1.013   6.935   5.044
 8003SOL     OW24907   2.521   6.484   2.446
 8003SOL    HW124908   2.561   6.428   2.374
 8003SOL    HW224909   2.557   6.577   2.441
 8004SOL     OW24910   1.206   3.253   3.577
 8004SOL    HW124911   1.133   3.236   3.512
 8004SOL    HW224912   1.178   3.326   3.640
 8005SOL     OW24913   2.883   0.701   3.614
 8005SOL    HW124914   2.811   0.756   3.656
 8005SOL    HW224915   2.843   0.642   3.544
 8006SOL     OW24916   3.469   4.716   5.231
 8006SOL    HW124917   3.555   4.735   5.280
 8006SOL    HW224918   3.422   4.640   5.275
 8007SOL     OW24919   6.013   0.548   6.366
 8007SOL    HW124920   6.027   0.625   6.304
 8007SOL    HW224921   6.101   0.513   6.398
 8008SOL     OW24922   5.390   6.636   6.099
 8008SOL    HW124923   5.396   6.630   5.999
 8008SOL    HW224924   5.345   6.554   6.134
 8009SOL     OW24925   4.924   1.289   6.260
 8009SOL    HW124926   4.977   1.271   6.343
 8009SOL    HW224927   4.985   1.320   6.187
 8010SOL     OW24928   2.359   2.024   5.563
 8010SOL    HW124929   2.419   2.033   5.642
 8010SOL    HW224930   2.289   2.095   5.566
 8011SOL     OW24931   3.892   1.579   1.876
 8011SOL    HW124932   3.877   1.674   1.851
 8011SOL    HW224933   3.980   1.569   1.923
 8012SOL     OW24934   6.983   2.031   5.503
 8012SOL    HW124935   6.968   2.128   5.482
 8012SOL    HW224936   6.921   2.002   5.575
 8013SOL     OW24937   2.724   2.348   2.873
 8013SOL    HW124938   2.793   2.281   2.901
 8013SOL    HW224939   2.737   2.371   2.777
 8014SOL     OW24940   1.997   0.949   2.817
 8014SOL    HW124941   2.031   0.933   2.725
 8014SOL    HW224942   2.071   0.936   2.883
 8015SOL     OW24943   2.474   0.051   5.433
 8015SOL    HW124944   2.475   0.146   5.464
 8015SOL    HW224945   2.515   0.045   5.342
 8016SOL     OW24946   4.364   1.478   4.926
 8016SOL    HW124947   4.463   1.486   4.933
 8016SOL    HW224948   4.337   1.478   4.830
 8017SOL     OW24949   6.424   6.353   1.350
 8017SOL    HW124950   6.384   6.398   1.269
 8017SOL    HW224951   6.500   6.296   1.322
 8018SOL     OW24952   3.966   2.071   7.019
 8018SOL    HW124953   4.060   2.074   6.986
 8018SOL    HW224954   3.943   1.978   0.023
 8019SOL     OW24955   2.426   3.609   1.514
 8019SOL    HW124956   2.378   3.599   1.427
 8019SOL    HW224957   2.518   3.570   1.506
 8020SOL     OW24958   0.201   0.332   5.411
 8020SOL    HW124959   0.215   0.291   5.501
 8020SOL    HW224960   0.177   0.261   5.345
 8021SOL     OW24961   1.353   2.179   1.754
 8021SOL    HW124962   1.429   2.238   1.728
 8021SOL    HW224963   1.277   2.191   1.689
 8022SOL     OW24964   4.697   1.301   1.738
 8022SOL    HW124965   4.687   1.400   1.747
 8022SOL    HW224966   4.608   1.258   1.745
 8023SOL     OW24967   4.737   5.533   2.847
 8023SOL    HW124968   4.667   5.464   2.830
 8023SOL    HW224969   4.756   5.583   2.763
 8024SOL     OW24970   2.206   0.819   6.557
 8024SOL    HW124971   2.164   0.901   6.518
 8024SOL    HW224972   2.250   0.842   6.644
 8025SOL     OW24973   1.624   5.358   1.055
 8025SOL    HW124974   1.678   5.277   1.078
 8025SOL    HW224975   1.570   5.386   1.135
 8026SOL     OW24976   1.092   5.554   6.281
 8026SOL    HW124977   1.123   5.476   6.228
 8026SOL    HW224978   1.016   5.527   6.340
 8027SOL     OW24979   3.224   0.077   0.204
 8027SOL    HW124980   3.148   0.014   0.220
 8027SOL    HW224981   3.248   0.076   0.107
 8028SOL     OW24982   3.225   5.467   5.185
 8028SOL    HW124983   3.322   5.450   5.169
 8028SOL    HW224984   3.215   5.537   5.256
 8029SOL     OW24985   6.597   6.627   0.208
 8029SOL    HW124986   6.560   6.697   0.147
 8029SOL    HW224987   6.522   6.570   0.242
 8030SOL     OW24988   1.053   3.728   0.699
 8030SOL    HW124989   1.135   3.783   0.711
 8030SOL    HW224990   1.053   3.688   0.607
 8031SOL     OW24991   6.769   1.490   2.838
 8031SOL    HW124992   6.781   1.401   2.883
 8031SOL    HW224993   6.686   1.489   2.783
 8032SOL     OW24994   5.422   2.995   1.160
 8032SOL    HW124995   5.484   3.067   1.129
 8032SOL    HW224996   5.472   2.930   1.217
 8033SOL     OW24997   4.680   3.752   0.781
 8033SOL    HW124998   4.621   3.812   0.725
 8033SOL    HW224999   4.629   3.721   0.861
 8034SOL     OW25000   5.934   0.574   5.523
 8034SOL    HW125001   5.935   0.541   5.617
 8034SOL    HW225002   6.027   0.574   5.487
 8035SOL     OW25003   5.813   1.768   3.147
 8035SOL    HW125004   5.876   1.837   3.110
 8035SOL    HW225005   5.723   1.780   3.106
 8036SOL     OW25006   6.083   2.679   3.896
 8036SOL    HW125007   6.156   2.630   3.849
 8036SOL    HW225008   6.048   2.752   3.837
 8037SOL     OW25009   0.931   2.630   5.939
 8037SOL    HW125010   0.995   2.700   5.971
 8037SOL    HW225011   0.917   2.640   5.841
 8038SOL     OW25012   0.472   5.207   2.880
 8038SOL    HW125013   0.547   5.143   2.865
 8038SOL    HW225014   0.459   5.221   2.978
 8039SOL     OW25015   1.171   2.748   5.397
 8039SOL    HW125016   1.093   2.687   5.384
 8039SOL    HW225017   1.149   2.839   5.361
 8040SOL     OW25018   2.338   5.788   5.787
 8040SOL    HW125019   2.302   5.882   5.788
 8040SOL    HW225020   2.368   5.765   5.695
 8041SOL     OW25021   3.965   1.092   3.245
 8041SOL    HW125022   3.949   1.181   3.203
 8041SOL    HW225023   4.062   1.081   3.264
 8042SOL     OW25024   4.024   4.235   5.562
 8042SOL    HW125025   3.993   4.224   5.467
 8042SOL    HW225026   3.955   4.197   5.624
 8043SOL     OW25027   5.368   5.044   6.798
 8043SOL    HW125028   5.451   5.099   6.792
 8043SOL    HW225029   5.328   5.054   6.889
 8044SOL     OW25030   2.944   3.711   1.757
 8044SOL    HW125031   3.030   3.662   1.746
 8044SOL    HW225032   2.919   3.755   1.671
 8045SOL     OW25033   0.463   1.365   2.900
 8045SOL    HW125034   0.516   1.303   2.842
 8045SOL    HW225035   0.405   1.311   2.961
 8046SOL     OW25036   0.428   5.167   2.294
 8046SOL    HW125037   0.451   5.110   2.373
 8046SOL    HW225038   0.485   5.140   2.216
 8047SOL     OW25039   3.638   6.802   6.698
 8047SOL    HW125040   3.704   6.846   6.637
 8047SOL    HW225041   3.652   6.703   6.695
 8048SOL     OW25042   3.987   2.763   6.995
 8048SOL    HW125043   4.068   2.787   6.942
 8048SOL    HW225044   3.909   2.749   6.934
 8049SOL     OW25045   1.441   1.660   0.555
 8049SOL    HW125046   1.490   1.743   0.527
 8049SOL    HW225047   1.411   1.610   0.474
 8050SOL     OW25048   0.608   4.534   5.942
 8050SOL    HW125049   0.605   4.605   5.872
 8050SOL    HW225050   0.682   4.470   5.921
 8051SOL     OW25051   3.847   5.811   3.811
 8051SOL    HW125052   3.755   5.850   3.819
 8051SOL    HW225053   3.900   5.832   3.893
 8052SOL     OW25054   2.261   2.559   2.364
 8052SOL    HW125055   2.205   2.478   2.382
 8052SOL    HW225056   2.333   2.535   2.299
 8053SOL     OW25057   2.406   2.652   6.570
 8053SOL    HW125058   2.499   2.618   6.587
 8053SOL    HW225059   2.345   2.620   6.642
 8054SOL     OW25060   5.074   3.402   5.253
 8054SOL    HW125061   5.096   3.472   5.184
 8054SOL    HW225062   5.021   3.329   5.210
 8055SOL     OW25063   6.506   0.333   6.312
 8055SOL    HW125064   6.489   0.418   6.362
 8055SOL    HW225065   6.597   0.298   6.336
 8056SOL     OW25066   2.447   1.329   4.377
 8056SOL    HW125067   2.535   1.325   4.425
 8056SOL    HW225068   2.374   1.346   4.443
 8057SOL     OW25069   2.708   2.348   2.246
 8057SOL    HW125070   2.741   2.300   2.328
 8057SOL    HW225071   2.779   2.344   2.175
 8058SOL     OW25072   3.466   5.944   2.803
 8058SOL    HW125073   3.525   6.022   2.781
 8058SOL    HW225074   3.512   5.887   2.871
 8059SOL     OW25075   2.712   3.205   6.421
 8059SOL    HW125076   2.688   3.301   6.402
 8059SOL    HW225077   2.650   3.168   6.490
 8060SOL     OW25078   6.487   0.092   5.638
 8060SOL    HW125079   6.474   0.181   5.594
 8060SOL    HW225080   6.538   0.104   5.723
 8061SOL     OW25081   6.718   0.702   1.919
 8061SOL    HW125082   6.773   0.772   1.964
 8061SOL    HW225083   6.778   0.634   1.878
 8062SOL     OW25084   4.266   5.604   5.762
 8062SOL    HW125085   4.304   5.672   5.825
 8062SOL    HW225086   4.293   5.512   5.791
 8063SOL     OW25087   3.811   5.811   3.265
 8063SOL    HW125088   3.907   5.825   3.241
 8063SOL    HW225089   3.801   5.728   3.320
 8064SOL     OW25090   6.045   1.545   0.853
 8064SOL    HW125091   6.042   1.556   0.753
 8064SOL    HW225092   6.041   1.448   0.876
 8065SOL     OW25093   3.097   5.261   5.702
 8065SOL    HW125094   3.043   5.231   5.623
 8065SOL    HW225095   3.184   5.213   5.703
 8066SOL     OW25096   0.405   6.671   4.953
 8066SOL    HW125097   0.429   6.699   4.860
 8066SOL    HW225098   0.367   6.578   4.951
 8067SOL     OW25099   5.095   3.078   3.645
 8067SOL    HW125100   5.182   3.062   3.600
 8067SOL    HW225101   5.021   3.038   3.592
 8068SOL     OW25102   6.341   4.330   1.199
 8068SOL    HW125103   6.317   4.243   1.155
 8068SOL    HW225104   6.438   4.329   1.224
 8069SOL     OW25105   2.388   4.873   2.574
 8069SOL    HW125106   2.481   4.870   2.612
 8069SOL    HW225107   2.393   4.874   2.475
 8070SOL     OW25108   5.492   4.809   0.095
 8070SOL    HW125109   5.523   4.878   0.160
 8070SOL    HW225110   5.412   4.762   0.132
 8071SOL     OW25111   2.767   0.001   5.619
 8071SOL    HW125112   2.763   0.068   5.544
 8071SOL    HW225113   2.862   7.015   5.649
 8072SOL     OW25114   1.867   2.697   6.099
 8072SOL    HW125115   1.955   2.651   6.087
 8072SOL    HW225116   1.872   2.790   6.063
 8073SOL     OW25117   3.893   0.546   6.449
 8073SOL    HW125118   3.846   0.618   6.398
 8073SOL    HW225119   3.926   0.583   6.536
 8074SOL     OW25120   1.611   1.465   6.612
 8074SOL    HW125121   1.561   1.549   6.632
 8074SOL    HW225122   1.644   1.468   6.518
 8075SOL     OW25123   0.961   6.522   0.806
 8075SOL    HW125124   1.043   6.551   0.757
 8075SOL    HW225125   0.943   6.585   0.881
 8076SOL     OW25126   6.893   6.225   0.586
 8076SOL    HW125127   6.835   6.149   0.614
 8076SOL    HW225128   6.906   6.287   0.664
 8077SOL     OW25129   4.030   5.034   0.575
 8077SOL    HW125130   4.033   4.965   0.503
 8077SOL    HW225131   3.942   5.028   0.624
 8078SOL     OW25132   0.157   0.361   1.941
 8078SOL    HW125133   0.070   0.373   1.988
 8078SOL    HW225134   0.202   0.450   1.929
 8079SOL     OW25135   1.560   2.395   5.179
 8079SOL    HW125136   1.511   2.477   5.209
 8079SOL    HW225137   1.653   2.420   5.152
 8080SOL     OW25138   1.109   2.915   2.902
 8080SOL    HW125139   1.199   2.883   2.873
 8080SOL    HW225140   1.060   2.840   2.946
 8081SOL     OW25141   6.472   5.910   4.325
 8081SOL    HW125142   6.551   5.947   4.276
 8081SOL    HW225143   6.503   5.840   4.389
 8082SOL     OW25144   3.893   2.033   1.946
 8082SOL    HW125145   3.839   2.110   1.979
 8082SOL    HW225146   3.909   2.044   1.847
 8083SOL     OW25147   5.971   2.740   4.699
 8083SOL    HW125148   5.919   2.825   4.705
 8083SOL    HW225149   5.942   2.689   4.618
 8084SOL     OW25150   2.901   0.978   6.359
 8084SOL    HW125151   2.843   0.924   6.298
 8084SOL    HW225152   2.898   0.938   6.451
 8085SOL     OW25153   0.931   6.182   4.580
 8085SOL    HW125154   0.854   6.221   4.631
 8085SOL    HW225155   0.897   6.114   4.516
 8086SOL     OW25156   0.029   1.234   1.911
 8086SOL    HW125157   6.999   1.188   1.841
 8086SOL    HW225158   0.102   1.172   1.943
 8087SOL     OW25159   0.920   0.891   0.886
 8087SOL    HW125160   0.987   0.818   0.897
 8087SOL    HW225161   0.943   0.946   0.805
 8088SOL     OW25162   5.616   6.962   5.208
 8088SOL    HW125163   5.653   0.029   5.227
 8088SOL    HW225164   5.541   6.969   5.143
 8089SOL     OW25165   5.062   2.813   5.979
 8089SOL    HW125166   5.042   2.846   5.887
 8089SOL    HW225167   5.019   2.873   6.046
 8090SOL     OW25168   3.788   1.684   5.818
 8090SOL    HW125169   3.743   1.719   5.736
 8090SOL    HW225170   3.762   1.740   5.897
 8091SOL     OW25171   1.746   4.664   4.677
 8091SOL    HW125172   1.812   4.737   4.660
 8091SOL    HW225173   1.770   4.584   4.622
 8092SOL     OW25174   5.084   2.371   5.371
 8092SOL    HW125175   5.098   2.309   5.294
 8092SOL    HW225176   5.065   2.317   5.454
 8093SOL     OW25177   4.297   6.690   2.245
 8093SOL    HW125178   4.377   6.709   2.302
 8093SOL    HW225179   4.214   6.708   2.298
 8094SOL     OW25180   1.450   3.874   3.611
 8094SOL    HW125181   1.472   3.779   3.634
 8094SOL    HW225182   1.403   3.877   3.522
 8095SOL     OW25183   1.172   4.627   5.932
 8095SOL    HW125184   1.140   4.650   5.840
 8095SOL    HW225185   1.185   4.528   5.938
 8096SOL     OW25186   1.141   6.204   2.019
 8096SOL    HW125187   1.157   6.128   2.082
 8096SOL    HW225188   1.119   6.286   2.071
 8097SOL     OW25189   3.975   5.253   5.244
 8097SOL    HW125190   3.897   5.310   5.268
 8097SOL    HW225191   3.955   5.204   5.158
 8098SOL     OW25192   1.221   5.482   5.199
 8098SOL    HW125193   1.207   5.581   5.207
 8098SOL    HW225194   1.244   5.459   5.105
 8099SOL     OW25195   2.517   5.622   3.810
 8099SOL    HW125196   2.593   5.558   3.807
 8099SOL    HW225197   2.431   5.572   3.820
 8100SOL     OW25198   7.022   0.260   6.396
 8100SOL    HW125199   0.018   0.235   6.491
 8100SOL    HW225200   0.048   0.343   6.372
 8101SOL     OW25201   2.593   5.891   2.012
 8101SOL    HW125202   2.560   5.803   1.978
 8101SOL    HW225203   2.517   5.956   2.015
 8102SOL     OW25204   1.436   2.919   4.732
 8102SOL    HW125205   1.433   2.827   4.770
 8102SOL    HW225206   1.516   2.928   4.672
 8103SOL     OW25207   3.440   1.694   2.388
 8103SOL    HW125208   3.380   1.642   2.326
 8103SOL    HW225209   3.470   1.778   2.342
 8104SOL     OW25210   2.232   6.732   0.434
 8104SOL    HW125211   2.158   6.666   0.422
 8104SOL    HW225212   2.237   6.792   0.354
 8105SOL     OW25213   6.541   1.222   2.378
 8105SOL    HW125214   6.619   1.160   2.364
 8105SOL    HW225215   6.490   1.231   2.293
 8106SOL     OW25216   2.573   6.201   5.179
 8106SOL    HW125217   2.565   6.181   5.081
 8106SOL    HW225218   2.484   6.191   5.222
 8107SOL     OW25219   1.602   5.763   5.465
 8107SOL    HW125220   1.552   5.782   5.381
 8107SOL    HW225221   1.654   5.678   5.455
 8108SOL     OW25222   0.194   1.328   6.956
 8108SOL    HW125223   0.261   1.268   6.911
 8108SOL    HW225224   0.197   1.312   0.032
 8109SOL     OW25225   6.492   3.089   0.219
 8109SOL    HW125226   6.540   3.001   0.225
 8109SOL    HW225227   6.513   3.143   0.301
 8110SOL     OW25228   4.188   5.268   0.662
 8110SOL    HW125229   4.163   5.345   0.604
 8110SOL    HW225230   4.141   5.186   0.631
 8111SOL     OW25231   5.986   1.536   3.147
 8111SOL    HW125232   5.906   1.584   3.109
 8111SOL    HW225233   5.963   1.502   3.238
 8112SOL     OW25234   0.524   2.752   5.523
 8112SOL    HW125235   0.452   2.782   5.585
 8112SOL    HW225236   0.558   2.662   5.552
 8113SOL     OW25237   6.152   2.828   0.679
 8113SOL    HW125238   6.237   2.848   0.727
 8113SOL    HW225239   6.148   2.731   0.656
 8114SOL     OW25240   1.811   4.289   1.616
 8114SOL    HW125241   1.864   4.204   1.612
 8114SOL    HW225242   1.849   4.348   1.686
 8115SOL     OW25243   2.421   0.730   0.006
 8115SOL    HW125244   2.450   0.649   6.978
 8115SOL    HW225245   2.327   0.718   0.038
 8116SOL     OW25246   2.947   4.602   1.451
 8116SOL    HW125247   2.965   4.512   1.490
 8116SOL    HW225248   2.909   4.662   1.522
 8117SOL     OW25249   3.063   6.773   2.787
 8117SOL    HW125250   3.071   6.868   2.758
 8117SOL    HW225251   3.140   6.749   2.846
 8118SOL     OW25252   6.332   3.101   7.005
 8118SOL    HW125253   6.381   3.107   0.068
 8118SOL    HW225254   6.238   3.070   7.021
 8119SOL     OW25255   5.932   5.892   6.393
 8119SOL    HW125256   6.005   5.887   6.461
 8119SOL    HW225257   5.891   5.801   6.382
 8120SOL     OW25258   1.843   6.147   0.907
 8120SOL    HW125259   1.911   6.082   0.871
 8120SOL    HW225260   1.878   6.186   0.992
 8121SOL     OW25261   1.306   3.113   2.311
 8121SOL    HW125262   1.376   3.130   2.381
 8121SOL    HW225263   1.248   3.037   2.339
 8122SOL     OW25264   1.093   4.399   2.196
 8122SOL    HW125265   1.187   4.365   2.191
 8122SOL    HW225266   1.086   4.486   2.147
 8123SOL     OW25267   0.386   1.622   5.839
 8123SOL    HW125268   0.336   1.639   5.924
 8123SOL    HW225269   0.474   1.669   5.843
 8124SOL     OW25270   5.659   4.926   4.401
 8124SOL    HW125271   5.621   4.883   4.319
 8124SOL    HW225272   5.621   4.882   4.483
 8125SOL     OW25273   0.726   0.067   2.358
 8125SOL    HW125274   0.746   0.048   2.454
 8125SOL    HW225275   0.810   0.091   2.311
 8126SOL     OW25276   3.880   4.868   4.573
 8126SOL    HW125277   3.791   4.913   4.573
 8126SOL    HW225278   3.904   4.841   4.666
 8127SOL     OW25279   3.161   2.950   0.279
 8127SOL    HW125280   3.078   2.905   0.246
 8127SOL    HW225281   3.193   3.015   0.210
 8128SOL     OW25282   3.308   2.762   1.944
 8128SOL    HW125283   3.355   2.836   1.991
 8128SOL    HW225284   3.240   2.721   2.005
 8129SOL     OW25285   1.473   2.841   0.419
 8129SOL    HW125286   1.502   2.831   0.323
 8129SOL    HW225287   1.438   2.754   0.453
 8130SOL     OW25288   1.642   5.061   6.494
 8130SOL    HW125289   1.644   5.160   6.479
 8130SOL    HW225290   1.603   5.042   6.585
 8131SOL     OW25291   2.284   3.718   1.242
 8131SOL    HW125292   2.251   3.635   1.196
 8131SOL    HW225293   2.382   3.729   1.224
 8132SOL     OW25294   6.929   6.842   4.748
 8132SOL    HW125295   7.001   6.807   4.808
 8132SOL    HW225296   6.965   6.920   4.696
 8133SOL     OW25297   3.501   5.051   0.828
 8133SOL    HW125298   3.501   4.958   0.789
 8133SOL    HW225299   3.420   5.062   0.885
 8134SOL     OW25300   5.995   1.003   5.219
 8134SOL    HW125301   6.008   1.039   5.127
 8134SOL    HW225302   6.082   0.969   5.254
 8135SOL     OW25303   2.552   6.961   1.570
 8135SOL    HW125304   2.617   6.946   1.645
 8135SOL    HW225305   2.603   6.968   1.484
 8136SOL     OW25306   4.354   5.223   2.467
 8136SOL    HW125307   4.290   5.272   2.525
 8136SOL    HW225308   4.447   5.237   2.500
 8137SOL     OW25309   4.004   1.751   4.605
 8137SOL    HW125310   4.023   1.710   4.695
 8137SOL    HW225311   4.005   1.850   4.614
 8138SOL     OW25312   5.308   1.045   1.233
 8138SOL    HW125313   5.383   1.083   1.179
 8138SOL    HW225314   5.221   1.082   1.199
 8139SOL     OW25315   0.937   1.573   2.561
 8139SOL    HW125316   0.856   1.592   2.618
 8139SOL    HW225317   0.920   1.604   2.468
 8140SOL     OW25318   3.716   1.484   3.476
 8140SOL    HW125319   3.795   1.427   3.501
 8140SOL    HW225320   3.741   1.543   3.400
 8141SOL     OW25321   4.143   5.577   4.808
 8141SOL    HW125322   4.191   5.496   4.841
 8141SOL    HW225323   4.130   5.570   4.709
 8142SOL     OW25324   6.187   5.219   0.492
 8142SOL    HW125325   6.164   5.125   0.465
 8142SOL    HW225326   6.125   5.282   0.447
 8143SOL     OW25327   5.993   4.198   5.670
 8143SOL    HW125328   6.026   4.137   5.599
 8143SOL    HW225329   5.929   4.264   5.629
 8144SOL     OW25330   5.323   6.511   6.944
 8144SOL    HW125331   5.260   6.508   6.867
 8144SOL    HW225332   5.280   6.561   7.019
 8145SOL     OW25333   6.186   5.947   2.415
 8145SOL    HW125334   6.140   6.019   2.364
 8145SOL    HW225335   6.193   5.865   2.358
 8146SOL     OW25336   3.344   1.125   5.413
 8146SOL    HW125337   3.336   1.045   5.354
 8146SOL    HW225338   3.314   1.102   5.506
 8147SOL     OW25339   5.191   2.082   3.989
 8147SOL    HW125340   5.218   1.995   4.030
 8147SOL    HW225341   5.115   2.067   3.925
 8148SOL     OW25342   5.747   3.260   2.918
 8148SOL    HW125343   5.792   3.278   2.831
 8148SOL    HW225344   5.665   3.205   2.902
 8149SOL     OW25345   4.164   4.868   3.615
 8149SOL    HW125346   4.152   4.802   3.541
 8149SOL    HW225347   4.127   4.956   3.587
 8150SOL     OW25348   0.954   5.158   6.544
 8150SOL    HW125349   0.876   5.197   6.592
 8150SOL    HW225350   0.933   5.150   6.447
 8151SOL     OW25351   1.153   2.193   5.623
 8151SOL    HW125352   1.066   2.214   5.578
 8151SOL    HW225353   1.161   2.095   5.637
 8152SOL     OW25354   1.834   0.693   3.311
 8152SOL    HW125355   1.832   0.766   3.242
 8152SOL    HW225356   1.747   0.693   3.361
 8153SOL     OW25357   2.668   6.289   0.686
 8153SOL    HW125358   2.588   6.229   0.677
 8153SOL    HW225359   2.677   6.316   0.782
 8154SOL     OW25360   1.998   6.583   3.674
 8154SOL    HW125361   1.968   6.492   3.646
 8154SOL    HW225362   1.948   6.652   3.623
 8155SOL     OW25363   3.268   3.390   2.980
 8155SOL    HW125364   3.311   3.412   3.067
 8155SOL    HW225365   3.307   3.447   2.908
 8156SOL     OW25366   5.757   0.823   5.493
 8156SOL    HW125367   5.811   0.746   5.526
 8156SOL    HW225368   5.729   0.880   5.571
 8157SOL     OW25369   5.723   4.320   6.928
 8157SOL    HW125370   5.738   4.250   6.859
 8157SOL    HW225371   5.806   4.333   6.982
 8158SOL     OW25372   1.823   5.342   2.274
 8158SOL    HW125373   1.737   5.305   2.309
 8158SOL    HW225374   1.809   5.436   2.243
 8159SOL     OW25375   2.008   6.192   2.340
 8159SOL    HW125376   2.062   6.121   2.294
 8159SOL    HW225377   2.028   6.281   2.300
 8160SOL     OW25378   4.084   2.245   1.764
 8160SOL    HW125379   4.102   2.343   1.756
 8160SOL    HW225380   3.988   2.227   1.742
 8161SOL     OW25381   4.837   1.276   6.853
 8161SOL    HW125382   4.845   1.375   6.858
 8161SOL    HW225383   4.915   1.233   6.898
 8162SOL     OW25384   5.385   0.332   1.186
 8162SOL    HW125385   5.441   0.269   1.241
 8162SOL    HW225386   5.288   0.316   1.207
 8163SOL     OW25387   2.307   3.945   5.400
 8163SOL    HW125388   2.352   3.959   5.312
 8163SOL    HW225389   2.292   3.847   5.414
 8164SOL     OW25390   4.279   2.160   1.988
 8164SOL    HW125391   4.375   2.168   1.961
 8164SOL    HW225392   4.221   2.176   1.908
 8165SOL     OW25393   2.256   4.579   1.703
 8165SOL    HW125394   2.321   4.560   1.777
 8165SOL    HW225395   2.197   4.656   1.730
 8166SOL     OW25396   2.948   6.932   1.632
 8166SOL    HW125397   3.041   6.921   1.669
 8166SOL    HW225398   2.882   6.895   1.698
 8167SOL     OW25399   6.227   2.569   4.114
 8167SOL    HW125400   6.168   2.608   4.043
 8167SOL    HW225401   6.246   2.473   4.092
 8168SOL     OW25402   3.447   0.895   2.817
 8168SOL    HW125403   3.493   0.818   2.862
 8168SOL    HW225404   3.448   0.974   2.877
 8169SOL     OW25405   4.325   3.579   6.269
 8169SOL    HW125406   4.415   3.539   6.285
 8169SOL    HW225407   4.330   3.679   6.281
 8170SOL     OW25408   0.836   5.665   4.054
 8170SOL    HW125409   0.916   5.724   4.041
 8170SOL    HW225410   0.756   5.710   4.014
 8171SOL     OW25411   0.535   2.363   5.784
 8171SOL    HW125412   0.623   2.315   5.784
 8171SOL    HW225413   0.513   2.393   5.691
 8172SOL     OW25414   0.633   6.439   1.245
 8172SOL    HW125415   0.662   6.477   1.332
 8172SOL    HW225416   0.618   6.341   1.255
 8173SOL     OW25417   4.191   2.083   6.813
 8173SOL    HW125418   4.130   2.157   6.783
 8173SOL    HW225419   4.179   2.003   6.755
 8174SOL     OW25420   5.935   1.216   2.074
 8174SOL    HW125421   5.875   1.149   2.117
 8174SOL    HW225422   5.903   1.236   1.981
 8175SOL     OW25423   0.637   2.863   6.123
 8175SOL    HW125424   0.581   2.802   6.180
 8175SOL    HW225425   0.734   2.845   6.140
 8176SOL     OW25426   2.629   5.567   2.720
 8176SOL    HW125427   2.611   5.632   2.794
 8176SOL    HW225428   2.546   5.551   2.668
 8177SOL     OW25429   0.050   6.263   5.312
 8177SOL    HW125430   0.059   6.170   5.347
 8177SOL    HW225431   0.086   6.266   5.219
 8178SOL     OW25432   2.428   6.587   6.199
 8178SOL    HW125433   2.520   6.591   6.161
 8178SOL    HW225434   2.424   6.641   6.283
 8179SOL     OW25435   3.242   2.400   0.356
 8179SOL    HW125436   3.191   2.316   0.378
 8179SOL    HW225437   3.262   2.402   0.258
 8180SOL     OW25438   6.199   6.002   4.987
 8180SOL    HW125439   6.179   6.095   4.956
 8180SOL    HW225440   6.119   5.945   4.974
 8181SOL     OW25441   2.659   2.391   3.160
 8181SOL    HW125442   2.751   2.427   3.167
 8181SOL    HW225443   2.622   2.413   3.069
 8182SOL     OW25444   3.891   2.243   5.276
 8182SOL    HW125445   3.840   2.324   5.305
 8182SOL    HW225446   3.987   2.254   5.300
 8183SOL     OW25447   1.293   3.721   4.661
 8183SOL    HW125448   1.350   3.803   4.656
 8183SOL    HW225449   1.343   3.642   4.626
 8184SOL     OW25450   6.775   6.234   5.516
 8184SOL    HW125451   6.759   6.273   5.425
 8184SOL    HW225452   6.688   6.212   5.558
 8185SOL     OW25453   2.723   1.174   2.767
 8185SOL    HW125454   2.716   1.200   2.863
 8185SOL    HW225455   2.730   1.256   2.710
 8186SOL     OW25456   3.458   5.456   5.821
 8186SOL    HW125457   3.465   5.463   5.921
 8186SOL    HW225458   3.549   5.445   5.782
 8187SOL     OW25459   1.785   1.823   4.924
 8187SOL    HW125460   1.694   1.864   4.920
 8187SOL    HW225461   1.837   1.850   4.843
 8188SOL     OW25462   5.546   3.077   3.167
 8188SOL    HW125463   5.609   3.113   3.235
 8188SOL    HW225464   5.476   3.146   3.147
 8189SOL     OW25465   6.078   4.082   2.710
 8189SOL    HW125466   6.177   4.065   2.709
 8189SOL    HW225467   6.057   4.155   2.774
 8190SOL     OW25468   4.984   3.538   3.206
 8190SOL    HW125469   5.081   3.555   3.225
 8190SOL    HW225470   4.943   3.617   3.162
 8191SOL     OW25471   0.848   4.794   4.027
 8191SOL    HW125472   0.834   4.695   4.023
 8191SOL    HW225473   0.851   4.824   4.122
 8192SOL     OW25474   1.837   4.493   1.396
 8192SOL    HW125475   1.838   4.425   1.469
 8192SOL    HW225476   1.874   4.452   1.312
 8193SOL     OW25477   3.733   0.235   5.878
 8193SOL    HW125478   3.819   0.264   5.920
 8193SOL    HW225479   3.752   0.169   5.806
 8194SOL     OW25480   0.423   0.677   0.497
 8194SOL    HW125481   0.463   0.725   0.419
 8194SOL    HW225482   0.481   0.599   0.522
 8195SOL     OW25483   6.671   6.334   0.393
 8195SOL    HW125484   6.741   6.275   0.434
 8195SOL    HW225485   6.710   6.380   0.312
 8196SOL     OW25486   2.669   6.874   6.296
 8196SOL    HW125487   2.655   6.779   6.324
 8196SOL    HW225488   2.655   6.883   6.198
 8197SOL     OW25489   0.615   0.054   6.374
 8197SOL    HW125490   0.566   6.998   6.408
 8197SOL    HW225491   0.554   0.109   6.317
 8198SOL     OW25492   3.523   6.228   3.172
 8198SOL    HW125493   3.444   6.174   3.143
 8198SOL    HW225494   3.607   6.179   3.151
 8199SOL     OW25495   6.759   3.877   0.224
 8199SOL    HW125496   6.769   3.976   0.233
 8199SOL    HW225497   6.719   3.839   0.307
 8200SOL     OW25498   5.079   4.355   0.939
 8200SOL    HW125499   5.046   4.435   0.990
 8200SOL    HW225500   5.130   4.295   1.001
 8201SOL     OW25501   5.967   0.732   3.730
 8201SOL    HW125502   6.023   0.793   3.785
 8201SOL    HW225503   6.016   0.707   3.647
 8202SOL     OW25504   1.566   3.998   3.229
 8202SOL    HW125505   1.518   3.991   3.316
 8202SOL    HW225506   1.539   3.922   3.170
 8203SOL     OW25507   5.800   2.967   1.092
 8203SOL    HW125508   5.708   3.001   1.068
 8203SOL    HW225509   5.851   2.947   1.009
 8204SOL     OW25510   2.960   0.063   1.912
 8204SOL    HW125511   3.000   0.120   1.984
 8204SOL    HW225512   2.863   0.086   1.900
 8205SOL     OW25513   5.874   5.142   2.428
 8205SOL    HW125514   5.778   5.162   2.412
 8205SOL    HW225515   5.888   5.043   2.430
 8206SOL     OW25516   4.625   2.161   4.064
 8206SOL    HW125517   4.634   2.090   3.993
 8206SOL    HW225518   4.558   2.131   4.132
 8207SOL     OW25519   2.562   6.260   0.190
 8207SOL    HW125520   2.588   6.346   0.234
 8207SOL    HW225521   2.463   6.250   0.193
 8208SOL     OW25522   1.636   4.531   6.663
 8208SOL    HW125523   1.702   4.573   6.725
 8208SOL    HW225524   1.577   4.602   6.623
 8209SOL     OW25525   0.526   0.096   5.185
 8209SOL    HW125526   0.435   0.124   5.218
 8209SOL    HW225527   0.578   0.177   5.160
 8210SOL     OW25528   2.908   1.875   6.688
 8210SOL    HW125529   2.812   1.866   6.659
 8210SOL    HW225530   2.924   1.968   6.720
 8211SOL     OW25531   2.914   3.419   4.191
 8211SOL    HW125532   2.880   3.426   4.097
 8211SOL    HW225533   3.013   3.411   4.190
 8212SOL     OW25534   2.887   0.203   1.023
 8212SOL    HW125535   2.959   0.232   0.961
 8212SOL    HW225536   2.800   0.199   0.974
 8213SOL     OW25537   4.540   4.000   1.631
 8213SOL    HW125538   4.504   3.906   1.635
 8213SOL    HW225539   4.480   4.061   1.683
 8214SOL     OW25540   4.478   5.706   4.495
 8214SOL    HW125541   4.555   5.771   4.498
 8214SOL    HW225542   4.396   5.752   4.529
 8215SOL     OW25543   4.064   6.823   0.445
 8215SOL    HW125544   4.050   6.725   0.430
 8215SOL    HW225545   4.117   6.861   0.369
 8216SOL     OW25546   5.768   4.720   1.416
 8216SOL    HW125547   5.709   4.640   1.408
 8216SOL    HW225548   5.727   4.787   1.478
 8217SOL     OW25549   3.110   6.422   3.849
 8217SOL    HW125550   3.064   6.333   3.847
 8217SOL    HW225551   3.069   6.482   3.781
 8218SOL     OW25552   2.942   6.912   4.481
 8218SOL    HW125553   2.944   7.001   4.527
 8218SOL    HW225554   2.848   6.877   4.481
 8219SOL     OW25555   3.832   3.458   1.397
 8219SOL    HW125556   3.792   3.439   1.486
 8219SOL    HW225557   3.760   3.465   1.328
 8220SOL     OW25558   3.873   3.534   4.100
 8220SOL    HW125559   3.857   3.582   4.014
 8220SOL    HW225560   3.962   3.489   4.096
 8221SOL     OW25561   5.722   3.992   3.497
 8221SOL    HW125562   5.794   4.045   3.452
 8221SOL    HW225563   5.634   4.012   3.453
 8222SOL     OW25564   6.515   3.568   0.197
 8222SOL    HW125565   6.531   3.520   0.111
 8222SOL    HW225566   6.518   3.503   0.273
 8223SOL     OW25567   1.100   5.953   5.500
 8223SOL    HW125568   1.166   6.027   5.511
 8223SOL    HW225569   1.146   5.865   5.512
 8224SOL     OW25570   5.391   1.862   0.596
 8224SOL    HW125571   5.380   1.762   0.600
 8224SOL    HW225572   5.330   1.904   0.664
 8225SOL     OW25573   5.463   2.028   0.034
 8225SOL    HW125574   5.472   1.929   0.040
 8225SOL    HW225575   5.524   2.071   0.100
 8226SOL     OW25576   4.234   6.985   0.287
 8226SOL    HW125577   4.236   6.987   0.187
 8226SOL    HW225578   4.244   0.054   0.322
 8227SOL     OW25579   4.911   2.576   2.678
 8227SOL    HW125580   4.978   2.612   2.613
 8227SOL    HW225581   4.853   2.508   2.632
 8228SOL     OW25582   2.410   0.023   4.477
 8228SOL    HW125583   2.470   0.074   4.414
 8228SOL    HW225584   2.315   0.039   4.452
 8229SOL     OW25585   4.607   4.105   0.917
 8229SOL    HW125586   4.602   4.205   0.922
 8229SOL    HW225587   4.638   4.068   1.004
 8230SOL     OW25588   5.761   0.583   6.464
 8230SOL    HW125589   5.853   0.552   6.442
 8230SOL    HW225590   5.710   0.507   6.505
 8231SOL     OW25591   2.372   1.808   3.054
 8231SOL    HW125592   2.464   1.837   3.030
 8231SOL    HW225593   2.306   1.850   2.991
 8232SOL     OW25594   3.697   5.400   3.316
 8232SOL    HW125595   3.746   5.487   3.321
 8232SOL    HW225596   3.691   5.359   3.406
 8233SOL     OW25597   0.044   1.157   6.372
 8233SOL    HW125598   0.038   1.222   6.449
 8233SOL    HW225599   0.131   1.170   6.324
 8234SOL     OW25600   1.044   2.212   0.772
 8234SOL    HW125601   0.995   2.291   0.737
 8234SOL    HW225602   1.123   2.242   0.825
 8235SOL     OW25603   1.081   6.562   1.286
 8235SOL    HW125604   1.122   6.552   1.196
 8235SOL    HW225605   0.991   6.604   1.277
 8236SOL     OW25606   1.014   6.227   1.620
 8236SOL    HW125607   0.939   6.164   1.603
 8236SOL    HW225608   1.086   6.180   1.672
 8237SOL     OW25609   4.444   5.115   6.865
 8237SOL    HW125610   4.354   5.081   6.838
 8237SOL    HW225611   4.480   5.061   6.941
 8238SOL     OW25612   1.074   4.787   0.158
 8238SOL    HW125613   0.985   4.787   0.113
 8238SOL    HW225614   1.074   4.854   0.232
 8239SOL     OW25615   1.746   1.705   5.178
 8239SOL    HW125616   1.767   1.714   5.081
 8239SOL    HW225617   1.661   1.653   5.189
 8240SOL     OW25618   3.184   3.353   4.829
 8240SOL    HW125619   3.232   3.307   4.755
 8240SOL    HW225620   3.106   3.297   4.858
 8241SOL     OW25621   1.976   4.417   5.719
 8241SOL    HW125622   2.050   4.435   5.784
 8241SOL    HW225623   1.986   4.324   5.683
 8242SOL     OW25624   0.772   2.747   2.859
 8242SOL    HW125625   0.718   2.806   2.800
 8242SOL    HW225626   0.794   2.797   2.943
 8243SOL     OW25627   1.320   5.919   4.143
 8243SOL    HW125628   1.380   5.980   4.092
 8243SOL    HW225629   1.248   5.885   4.083
 8244SOL     OW25630   0.675   1.308   4.480
 8244SOL    HW125631   0.750   1.283   4.418
 8244SOL    HW225632   0.626   1.387   4.443
 8245SOL     OW25633   5.398   1.896   3.409
 8245SOL    HW125634   5.423   1.807   3.447
 8245SOL    HW225635   5.472   1.930   3.351
 8246SOL     OW25636   1.862   4.891   6.541
 8246SOL    HW125637   1.917   4.959   6.589
 8246SOL    HW225638   1.782   4.935   6.500
 8247SOL     OW25639   2.802   5.358   3.207
 8247SOL    HW125640   2.741   5.281   3.224
 8247SOL    HW225641   2.764   5.440   3.250
 8248SOL     OW25642   6.707   5.217   2.878
 8248SOL    HW125643   6.807   5.226   2.876
 8248SOL    HW225644   6.682   5.127   2.843
 8249SOL     OW25645   3.272   1.798   6.219
 8249SOL    HW125646   3.325   1.883   6.230
 8249SOL    HW225647   3.175   1.821   6.215
 8250SOL     OW25648   1.376   1.666   0.067
 8250SOL    HW125649   1.459   1.688   0.118
 8250SOL    HW225650   1.367   1.727   7.012
 8251SOL     OW25651   0.972   2.293   4.757
 8251SOL    HW125652   0.887   2.281   4.808
 8251SOL    HW225653   1.008   2.204   4.732
 8252SOL     OW25654   1.056   2.434   6.474
 8252SOL    HW125655   1.101   2.453   6.387
 8252SOL    HW225656   0.963   2.470   6.471
 8253SOL     OW25657   4.485   6.078   0.288
 8253SOL    HW125658   4.407   6.138   0.267
 8253SOL    HW225659   4.486   6.002   0.224
 8254SOL     OW25660   5.478   4.801   6.569
 8254SOL    HW125661   5.522   4.820   6.656
 8254SOL    HW225662   5.391   4.851   6.563
 8255SOL     OW25663   1.762   0.380   5.959
 8255SOL    HW125664   1.732   0.458   6.014
 8255SOL    HW225665   1.687   0.313   5.953
 8256SOL     OW25666   1.427   5.380   5.369
 8256SOL    HW125667   1.397   5.385   5.465
 8256SOL    HW225668   1.371   5.441   5.313
 8257SOL     OW25669   5.455   3.775   3.185
 8257SOL    HW125670   5.525   3.839   3.152
 8257SOL    HW225671   5.500   3.694   3.223
 8258SOL     OW25672   6.688   3.349   1.715
 8258SOL    HW125673   6.702   3.398   1.630
 8258SOL    HW225674   6.747   3.268   1.717
 8259SOL     OW25675   5.281   1.792   4.405
 8259SOL    HW125676   5.353   1.764   4.469
 8259SOL    HW225677   5.192   1.774   4.446
 8260SOL     OW25678   4.126   1.571   0.952
 8260SOL    HW125679   4.181   1.654   0.942
 8260SOL    HW225680   4.129   1.542   1.048
 8261SOL     OW25681   5.787   0.655   2.645
 8261SOL    HW125682   5.762   0.748   2.620
 8261SOL    HW225683   5.707   0.595   2.634
 8262SOL     OW25684   5.736   4.062   1.877
 8262SOL    HW125685   5.737   3.965   1.899
 8262SOL    HW225686   5.807   4.082   1.809
 8263SOL     OW25687   6.769   2.204   5.859
 8263SOL    HW125688   6.799   2.286   5.810
 8263SOL    HW225689   6.823   2.193   5.942
 8264SOL     OW25690   3.094   0.053   2.821
 8264SOL    HW125691   3.133   0.086   2.907
 8264SOL    HW225692   3.165   0.054   2.750
 8265SOL     OW25693   5.169   6.865   0.447
 8265SOL    HW125694   5.141   6.779   0.404
 8265SOL    HW225695   5.266   6.879   0.433
 8266SOL     OW25696   2.631   0.835   3.698
 8266SOL    HW125697   2.586   0.767   3.756
 8266SOL    HW225698   2.566   0.870   3.631
 8267SOL     OW25699   1.798   3.600   2.465
 8267SOL    HW125700   1.830   3.509   2.438
 8267SOL    HW225701   1.777   3.653   2.383
 8268SOL     OW25702   3.626   5.032   6.253
 8268SOL    HW125703   3.558   4.967   6.288
 8268SOL    HW225704   3.648   5.099   6.323
 8269SOL     OW25705   6.375   3.171   4.244
 8269SOL    HW125706   6.315   3.135   4.172
 8269SOL    HW225707   6.470   3.168   4.213
 8270SOL     OW25708   3.705   6.981   0.097
 8270SOL    HW125709   3.723   6.889   0.133
 8270SOL    HW225710   3.783   0.017   0.119
 8271SOL     OW25711   3.531   6.021   6.112
 8271SOL    HW125712   3.594   6.096   6.092
 8271SOL    HW225713   3.443   6.058   6.142
 8272SOL     OW25714   0.450   0.438   2.158
 8272SOL    HW125715   0.452   0.531   2.195
 8272SOL    HW225716   0.495   0.436   2.069
 8273SOL     OW25717   4.117   0.526   6.659
 8273SOL    HW125718   4.054   0.468   6.710
 8273SOL    HW225719   4.173   0.580   6.722
 8274SOL     OW25720   5.429   6.292   5.627
 8274SOL    HW125721   5.424   6.261   5.531
 8274SOL    HW225722   5.502   6.242   5.674
 8275SOL     OW25723   5.478   0.734   3.454
 8275SOL    HW125724   5.562   0.713   3.504
 8275SOL    HW225725   5.435   0.814   3.494
 8276SOL     OW25726   6.561   1.891   6.875
 8276SOL    HW125727   6.578   1.825   6.948
 8276SOL    HW225728   6.642   1.949   6.863
 8277SOL     OW25729   1.430   6.663   0.020
 8277SOL    HW125730   1.436   6.679   6.945
 8277SOL    HW225731   1.429   6.751   0.068
 8278SOL     OW25732   3.041   1.339   0.651
 8278SOL    HW125733   3.057   1.330   0.553
 8278SOL    HW225734   3.125   1.371   0.696
 8279SOL     OW25735   4.013   5.864   4.651
 8279SOL    HW125736   3.925   5.901   4.620
 8279SOL    HW225737   4.041   5.912   4.734
 8280SOL     OW25738   5.470   3.564   0.371
 8280SOL    HW125739   5.424   3.602   0.291
 8280SOL    HW225740   5.552   3.618   0.391
 8281SOL     OW25741   2.660   5.196   0.396
 8281SOL    HW125742   2.567   5.165   0.373
 8281SOL    HW225743   2.666   5.295   0.381
 8282SOL     OW25744   3.007   2.915   1.328
 8282SOL    HW125745   3.044   2.940   1.238
 8282SOL    HW225746   3.079   2.871   1.382
 8283SOL     OW25747   0.371   5.844   3.395
 8283SOL    HW125748   0.298   5.889   3.344
 8283SOL    HW225749   0.354   5.746   3.396
 8284SOL     OW25750   3.201   1.586   1.978
 8284SOL    HW125751   3.253   1.555   2.057
 8284SOL    HW225752   3.234   1.540   1.895
 8285SOL     OW25753   2.983   4.608   6.936
 8285SOL    HW125754   2.978   4.508   6.938
 8285SOL    HW225755   3.056   4.636   6.874
 8286SOL     OW25756   5.626   2.170   5.554
 8286SOL    HW125757   5.556   2.127   5.611
 8286SOL    HW225758   5.654   2.106   5.482
 8287SOL     OW25759   1.937   6.851   3.826
 8287SOL    HW125760   1.962   6.758   3.799
 8287SOL    HW225761   2.016   6.912   3.812
 8288SOL     OW25762   2.423   6.912   3.166
 8288SOL    HW125763   2.357   6.946   3.098
 8288SOL    HW225764   2.515   6.918   3.129
 8289SOL     OW25765   6.484   1.099   6.100
 8289SOL    HW125766   6.495   1.174   6.035
 8289SOL    HW225767   6.573   1.072   6.135
 8290SOL     OW25768   4.763   2.801   1.756
 8290SOL    HW125769   4.711   2.792   1.671
 8290SOL    HW225770   4.720   2.871   1.814
 8291SOL     OW25771   3.905   5.940   6.614
 8291SOL    HW125772   3.926   6.036   6.628
 8291SOL    HW225773   3.856   5.904   6.694
 8292SOL     OW25774   0.788   3.182   4.610
 8292SOL    HW125775   0.876   3.144   4.582
 8292SOL    HW225776   0.739   3.217   4.530
 8293SOL     OW25777   2.861   4.826   3.667
 8293SOL    HW125778   2.813   4.895   3.721
 8293SOL    HW225779   2.958   4.826   3.692
 8294SOL     OW25780   4.562   3.425   6.151
 8294SOL    HW125781   4.521   3.482   6.080
 8294SOL    HW225782   4.497   3.354   6.179
 8295SOL     OW25783   4.900   4.399   2.306
 8295SOL    HW125784   4.979   4.374   2.362
 8295SOL    HW225785   4.910   4.493   2.274
 8296SOL     OW25786   4.234   6.451   1.770
 8296SOL    HW125787   4.221   6.485   1.677
 8296SOL    HW225788   4.279   6.522   1.825
 8297SOL     OW25789   5.451   4.538   3.752
 8297SOL    HW125790   5.430   4.633   3.729
 8297SOL    HW225791   5.426   4.479   3.676
 8298SOL     OW25792   6.964   6.729   6.573
 8298SOL    HW125793   6.888   6.666   6.588
 8298SOL    HW225794   0.012   6.711   6.641
 8299SOL     OW25795   0.931   3.368   0.947
 8299SOL    HW125796   0.887   3.354   0.858
 8299SOL    HW225797   0.921   3.464   0.974
 8300SOL     OW25798   5.805   5.385   3.058
 8300SOL    HW125799   5.844   5.324   3.127
 8300SOL    HW225800   5.718   5.348   3.025
 8301SOL     OW25801   5.093   6.612   0.361
 8301SOL    HW125802   5.130   6.591   0.451
 8301SOL    HW225803   5.036   6.535   0.330
 8302SOL     OW25804   3.550   6.832   5.432
 8302SOL    HW125805   3.579   6.893   5.506
 8302SOL    HW225806   3.627   6.775   5.404
 8303SOL     OW25807   0.660   5.393   3.052
 8303SOL    HW125808   0.747   5.406   3.099
 8303SOL    HW225809   0.663   5.308   2.999
 8304SOL     OW25810   6.018   4.463   3.228
 8304SOL    HW125811   5.935   4.447   3.174
 8304SOL    HW225812   6.087   4.395   3.204
 8305SOL     OW25813   5.273   6.610   4.878
 8305SOL    HW125814   5.255   6.644   4.971
 8305SOL    HW225815   5.371   6.598   4.865
 8306SOL     OW25816   6.286   1.491   2.586
 8306SOL    HW125817   6.335   1.446   2.662
 8306SOL    HW225818   6.255   1.581   2.615
 8307SOL     OW25819   1.493   3.182   2.610
 8307SOL    HW125820   1.498   3.247   2.535
 8307SOL    HW225821   1.432   3.217   2.681
 8308SOL     OW25822   1.605   5.083   0.656
 8308SOL    HW125823   1.512   5.048   0.653
 8308SOL    HW225824   1.621   5.128   0.744
 8309SOL     OW25825   6.540   4.886   4.569
 8309SOL    HW125826   6.620   4.930   4.528
 8309SOL    HW225827   6.566   4.847   4.657
 8310SOL     OW25828   1.815   0.434   0.359
 8310SOL    HW125829   1.789   0.529   0.374
 8310SOL    HW225830   1.756   0.373   0.413
 8311SOL     OW25831   5.448   6.223   3.390
 8311SOL    HW125832   5.500   6.283   3.329
 8311SOL    HW225833   5.350   6.233   3.370
 8312SOL     OW25834   5.788   1.608   0.316
 8312SOL    HW125835   5.748   1.665   0.244
 8312SOL    HW225836   5.888   1.617   0.313
 8313SOL     OW25837   5.852   2.481   5.747
 8313SOL    HW125838   5.776   2.458   5.808
 8313SOL    HW225839   5.939   2.461   5.792
 8314SOL     OW25840   4.881   6.397   3.993
 8314SOL    HW125841   4.871   6.478   3.936
 8314SOL    HW225842   4.927   6.422   4.079
 8315SOL     OW25843   3.475   3.882   4.609
 8315SOL    HW125844   3.376   3.887   4.595
 8315SOL    HW225845   3.521   3.883   4.520
 8316SOL     OW25846   1.796   2.158   5.843
 8316SOL    HW125847   1.824   2.218   5.917
 8316SOL    HW225848   1.877   2.122   5.796
 8317SOL     OW25849   1.388   1.775   3.700
 8317SOL    HW125850   1.379   1.868   3.665
 8317SOL    HW225851   1.484   1.747   3.697
 8318SOL     OW25852   4.642   6.954   6.630
 8318SOL    HW125853   4.621   0.000   6.698
 8318SOL    HW225854   4.619   6.989   6.539
 8319SOL     OW25855   1.876   5.826   6.739
 8319SOL    HW125856   1.935   5.896   6.699
 8319SOL    HW225857   1.804   5.802   6.673
 8320SOL     OW25858   3.114   3.328   5.204
 8320SOL    HW125859   3.125   3.423   5.234
 8320SOL    HW225860   3.018   3.312   5.180
 8321SOL     OW25861   0.456   6.679   1.362
 8321SOL    HW125862   0.470   6.617   1.286
 8321SOL    HW225863   0.531   6.670   1.428
 8322SOL     OW25864   0.682   6.252   0.413
 8322SOL    HW125865   0.738   6.252   0.495
 8322SOL    HW225866   0.730   6.203   0.340
 8323SOL     OW25867   5.253   4.772   0.820
 8323SOL    HW125868   5.241   4.818   0.908
 8323SOL    HW225869   5.326   4.817   0.769
 8324SOL     OW25870   4.690   5.565   6.054
 8324SOL    HW125871   4.613   5.568   5.990
 8324SOL    HW225872   4.658   5.589   6.146
 8325SOL     OW25873   1.498   5.662   6.384
 8325SOL    HW125874   1.406   5.681   6.420
 8325SOL    HW225875   1.503   5.567   6.353
 8326SOL     OW25876   1.253   2.940   0.029
 8326SOL    HW125877   1.231   2.916   6.958
 8326SOL    HW225878   1.171   2.971   0.076
 8327SOL     OW25879   0.835   6.512   4.776
 8327SOL    HW125880   0.907   6.487   4.840
 8327SOL    HW225881   0.777   6.583   4.815
 8328SOL     OW25882   1.012   6.785   0.366
 8328SOL    HW125883   0.991   6.691   0.395
 8328SOL    HW225884   0.989   6.849   0.439
 8329SOL     OW25885   2.003   2.676   4.891
 8329SOL    HW125886   2.046   2.606   4.835
 8329SOL    HW225887   2.069   2.749   4.909
 8330SOL     OW25888   3.146   1.436   0.377
 8330SOL    HW125889   3.218   1.403   0.437
 8330SOL    HW225890   3.156   1.394   0.287
 8331SOL     OW25891   1.898   2.511   5.784
 8331SOL    HW125892   1.931   2.426   5.744
 8331SOL    HW225893   1.818   2.543   5.733
 8332SOL     OW25894   6.203   5.390   1.456
 8332SOL    HW125895   6.284   5.335   1.473
 8332SOL    HW225896   6.181   5.388   1.359
 8333SOL     OW25897   2.117   4.384   0.450
 8333SOL    HW125898   2.191   4.424   0.504
 8333SOL    HW225899   2.072   4.313   0.504
 8334SOL     OW25900   3.515   2.263   6.610
 8334SOL    HW125901   3.534   2.361   6.605
 8334SOL    HW225902   3.590   2.212   6.569
 8335SOL     OW25903   5.339   4.465   6.212
 8335SOL    HW125904   5.377   4.390   6.157
 8335SOL    HW225905   5.392   4.473   6.297
 8336SOL     OW25906   0.926   3.705   3.557
 8336SOL    HW125907   1.006   3.745   3.604
 8336SOL    HW225908   0.953   3.676   3.465
 8337SOL     OW25909   0.492   1.258   4.670
 8337SOL    HW125910   0.546   1.258   4.585
 8337SOL    HW225911   0.504   1.345   4.718
 8338SOL     OW25912   3.713   5.611   1.347
 8338SOL    HW125913   3.633   5.554   1.367
 8338SOL    HW225914   3.709   5.642   1.252
 8339SOL     OW25915   5.754   0.019   1.433
 8339SOL    HW125916   5.789   0.102   1.388
 8339SOL    HW225917   5.780   6.963   1.379
 8340SOL     OW25918   6.020   2.168   6.644
 8340SOL    HW125919   5.939   2.203   6.598
 8340SOL    HW225920   6.018   2.068   6.644
 8341SOL     OW25921   3.818   0.489   0.822
 8341SOL    HW125922   3.895   0.536   0.865
 8341SOL    HW225923   3.733   0.512   0.870
 8342SOL     OW25924   4.544   0.392   0.142
 8342SOL    HW125925   4.577   0.348   0.059
 8342SOL    HW225926   4.453   0.432   0.125
 8343SOL     OW25927   5.836   3.950   4.212
 8343SOL    HW125928   5.882   4.001   4.139
 8343SOL    HW225929   5.756   3.903   4.174
 8344SOL     OW25930   0.803   5.385   5.115
 8344SOL    HW125931   0.822   5.448   5.040
 8344SOL    HW225932   0.829   5.428   5.202
 8345SOL     OW25933   4.832   0.666   3.450
 8345SOL    HW125934   4.834   0.675   3.550
 8345SOL    HW225935   4.827   0.757   3.409
 8346SOL     OW25936   5.734   3.725   5.004
 8346SOL    HW125937   5.734   3.673   5.089
 8346SOL    HW225938   5.826   3.724   4.964
 8347SOL     OW25939   2.288   1.401   6.854
 8347SOL    HW125940   2.228   1.345   6.798
 8347SOL    HW225941   2.270   1.498   6.835
 8348SOL     OW25942   3.256   5.785   1.896
 8348SOL    HW125943   3.253   5.731   1.980
 8348SOL    HW225944   3.173   5.768   1.843
 8349SOL     OW25945   0.011   6.417   2.613
 8349SOL    HW125946   6.959   6.479   2.595
 8349SOL    HW225947   0.074   6.418   2.535
 8350SOL     OW25948   1.906   0.848   0.222
 8350SOL    HW125949   1.887   0.794   0.304
 8350SOL    HW225950   1.897   0.790   0.141
 8351SOL     OW25951   6.954   3.444   3.018
 8351SOL    HW125952   6.892   3.365   3.015
 8351SOL    HW225953   7.013   3.438   3.098
 8352SOL     OW25954   2.674   6.043   1.336
 8352SOL    HW125955   2.671   5.943   1.332
 8352SOL    HW225956   2.768   6.073   1.346
 8353SOL     OW25957   1.637   4.995   2.132
 8353SOL    HW125958   1.609   5.052   2.055
 8353SOL    HW225959   1.728   4.958   2.115
 8354SOL     OW25960   3.766   0.348   2.921
 8354SOL    HW125961   3.755   0.379   2.827
 8354SOL    HW225962   3.795   0.425   2.978
 8355SOL     OW25963   2.815   6.486   6.486
 8355SOL    HW125964   2.731   6.503   6.536
 8355SOL    HW225965   2.890   6.538   6.527
 8356SOL     OW25966   1.876   5.314   0.833
 8356SOL    HW125967   1.846   5.291   0.740
 8356SOL    HW225968   1.874   5.414   0.844
 8357SOL     OW25969   4.561   6.523   5.395
 8357SOL    HW125970   4.590   6.495   5.304
 8357SOL    HW225971   4.548   6.622   5.397
 8358SOL     OW25972   0.498   1.189   5.046
 8358SOL    HW125973   0.555   1.261   5.004
 8358SOL    HW225974   0.438   1.150   4.976
 8359SOL     OW25975   4.008   2.150   5.627
 8359SOL    HW125976   4.024   2.211   5.705
 8359SOL    HW225977   3.909   2.138   5.614
 8360SOL     OW25978   4.790   0.758   0.759
 8360SOL    HW125979   4.723   0.775   0.688
 8360SOL    HW225980   4.782   0.664   0.792
 8361SOL     OW25981   3.929   1.084   6.956
 8361SOL    HW125982   3.952   1.103   6.861
 8361SOL    HW225983   3.840   1.038   6.961
 8362SOL     OW25984   6.572   4.319   1.656
 8362SOL    HW125985   6.475   4.316   1.628
 8362SOL    HW225986   6.626   4.264   1.593
 8363SOL     OW25987   2.342   3.090   0.353
 8363SOL    HW125988   2.419   3.036   0.387
 8363SOL    HW225989   2.312   3.053   0.265
 8364SOL     OW25990   0.465   3.537   4.290
 8364SOL    HW125991   0.388   3.522   4.229
 8364SOL    HW225992   0.507   3.626   4.269
 8365SOL     OW25993   1.045   2.092   1.903
 8365SOL    HW125994   1.042   2.172   1.842
 8365SOL    HW225995   1.085   2.118   1.990
 8366SOL     OW25996   5.356   5.255   2.071
 8366SOL    HW125997   5.387   5.348   2.094
 8366SOL    HW225998   5.403   5.225   1.988
 8367SOL     OW25999   3.489   5.297   4.153
 8367SOL    HW126000   3.482   5.300   4.252
 8367SOL    HW226001   3.526   5.383   4.119
 8368SOL     OW26002   6.046   6.340   6.120
 8368SOL    HW126003   6.057   6.242   6.137
 8368SOL    HW226004   6.135   6.380   6.100
 8369SOL     OW26005   2.640   6.528   1.193
 8369SOL    HW126006   2.611   6.490   1.105
 8369SOL    HW226007   2.596   6.478   1.267
 8370SOL     OW26008   2.516   3.736   6.565
 8370SOL    HW126009   2.454   3.660   6.546
 8370SOL    HW226010   2.539   3.737   6.662
 8371SOL     OW26011   1.915   4.596   5.528
 8371SOL    HW126012   1.936   4.523   5.592
 8371SOL    HW226013   2.000   4.643   5.502
 8372SOL     OW26014   2.167   6.599   2.422
 8372SOL    HW126015   2.237   6.577   2.354
 8372SOL    HW226016   2.207   6.593   2.514
 8373SOL     OW26017   6.686   1.662   4.266
 8373SOL    HW126018   6.774   1.614   4.268
 8373SOL    HW226019   6.659   1.678   4.172
 8374SOL     OW26020   0.885   1.235   4.330
 8374SOL    HW126021   0.875   1.163   4.262
 8374SOL    HW226022   0.944   1.307   4.294
 8375SOL     OW26023   3.201   0.785   4.833
 8375SOL    HW126024   3.153   0.718   4.776
 8375SOL    HW226025   3.261   0.840   4.775
 8376SOL     OW26026   2.086   0.550   3.020
 8376SOL    HW126027   2.178   0.536   3.057
 8376SOL    HW226028   2.057   0.644   3.040
 8377SOL     OW26029   4.614   5.589   0.244
 8377SOL    HW126030   4.632   5.491   0.239
 8377SOL    HW226031   4.691   5.639   0.204
 8378SOL     OW26032   5.255   5.590   3.815
 8378SOL    HW126033   5.255   5.601   3.715
 8378SOL    HW226034   5.299   5.504   3.839
 8379SOL     OW26035   6.000   1.304   1.636
 8379SOL    HW126036   5.974   1.256   1.720
 8379SOL    HW226037   6.053   1.242   1.578
 8380SOL     OW26038   0.015   5.612   0.490
 8380SOL    HW126039   6.941   5.607   0.508
 8380SOL    HW226040   0.032   5.681   0.419
 8381SOL     OW26041   0.234   1.598   2.345
 8381SOL    HW126042   0.240   1.639   2.254
 8381SOL    HW226043   0.139   1.593   2.373
 8382SOL     OW26044   1.858   0.943   0.788
 8382SOL    HW126045   1.823   0.999   0.714
 8382SOL    HW226046   1.935   0.989   0.832
 8383SOL     OW26047   2.891   6.884   6.506
 8383SOL    HW126048   2.878   6.945   6.584
 8383SOL    HW226049   2.820   6.901   6.438
 8384SOL     OW26050   0.495   2.979   2.903
 8384SOL    HW126051   0.444   2.904   2.944
 8384SOL    HW226052   0.457   3.066   2.935
 8385SOL     OW26053   4.125   3.483   1.276
 8385SOL    HW126054   4.042   3.491   1.331
 8385SOL    HW226055   4.183   3.563   1.292
 8386SOL     OW26056   2.540   6.264   2.259
 8386SOL    HW126057   2.598   6.182   2.266
 8386SOL    HW226058   2.548   6.302   2.167
 8387SOL     OW26059   1.697   1.039   2.589
 8387SOL    HW126060   1.724   0.952   2.630
 8387SOL    HW226061   1.626   1.022   2.520
 8388SOL     OW26062   3.914   6.239   1.390
 8388SOL    HW126063   3.952   6.326   1.358
 8388SOL    HW226064   3.933   6.229   1.488
 8389SOL     OW26065   0.157   2.317   4.115
 8389SOL    HW126066   0.081   2.283   4.170
 8389SOL    HW226067   0.182   2.409   4.147
 8390SOL     OW26068   2.988   0.137   5.900
 8390SOL    HW126069   2.934   0.070   5.951
 8390SOL    HW226070   3.057   0.177   5.960
 8391SOL     OW26071   5.283   5.581   0.889
 8391SOL    HW126072   5.264   5.661   0.946
 8391SOL    HW226073   5.381   5.560   0.894
 8392SOL     OW26074   5.767   6.537   5.623
 8392SOL    HW126075   5.744   6.615   5.565
 8392SOL    HW226076   5.797   6.461   5.566
 8393SOL     OW26077   6.812   6.089   3.287
 8393SOL    HW126078   6.903   6.087   3.327
 8393SOL    HW226079   6.743   6.082   3.360
 8394SOL     OW26080   0.694   1.858   2.530
 8394SOL    HW126081   0.742   1.823   2.611
 8394SOL    HW226082   0.616   1.799   2.510
 8395SOL     OW26083   0.481   5.900   5.769
 8395SOL    HW126084   0.519   5.942   5.687
 8395SOL    HW226085   0.422   5.966   5.816
 8396SOL     OW26086   4.555   3.336   1.405
 8396SOL    HW126087   4.568   3.244   1.443
 8396SOL    HW226088   4.482   3.333   1.336
 8397SOL     OW26089   2.231   5.463   3.238
 8397SOL    HW126090   2.191   5.552   3.219
 8397SOL    HW226091   2.242   5.412   3.152
 8398SOL     OW26092   5.014   2.017   0.498
 8398SOL    HW126093   5.001   2.089   0.430
 8398SOL    HW226094   5.096   2.036   0.552
 8399SOL     OW26095   5.427   5.932   0.575
 8399SOL    HW126096   5.458   5.860   0.638
 8399SOL    HW226097   5.455   5.909   0.482
 8400SOL     OW26098   6.146   0.900   3.854
 8400SOL    HW126099   6.106   0.974   3.799
 8400SOL    HW226100   6.241   0.922   3.875
 8401SOL     OW26101   3.449   4.235   6.557
 8401SOL    HW126102   3.381   4.301   6.590
 8401SOL    HW226103   3.486   4.185   6.635
 8402SOL     OW26104   4.062   2.098   0.286
 8402SOL    HW126105   4.142   2.039   0.273
 8402SOL    HW226106   4.016   2.110   0.198
 8403SOL     OW26107   1.716   1.423   4.143
 8403SOL    HW126108   1.768   1.368   4.077
 8403SOL    HW226109   1.619   1.400   4.137
 8404SOL     OW26110   4.572   4.868   5.701
 8404SOL    HW126111   4.644   4.910   5.757
 8404SOL    HW226112   4.567   4.915   5.613
 8405SOL     OW26113   0.621   2.929   4.998
 8405SOL    HW126114   0.529   2.889   4.991
 8405SOL    HW226115   0.613   3.027   5.017
 8406SOL     OW26116   5.390   3.416   1.851
 8406SOL    HW126117   5.420   3.490   1.912
 8406SOL    HW226118   5.413   3.328   1.892
 8407SOL     OW26119   5.166   3.871   2.600
 8407SOL    HW126120   5.160   3.916   2.511
 8407SOL    HW226121   5.084   3.815   2.614
 8408SOL     OW26122   4.500   2.578   4.381
 8408SOL    HW126123   4.444   2.540   4.455
 8408SOL    HW226124   4.473   2.536   4.295
 8409SOL     OW26125   0.477   2.659   3.781
 8409SOL    HW126126   0.453   2.673   3.878
 8409SOL    HW226127   0.565   2.612   3.775
 8410SOL     OW26128   4.299   6.903   2.007
 8410SOL    HW126129   4.207   6.940   2.014
 8410SOL    HW226130   4.295   6.809   1.974
 8411SOL     OW26131   1.863   3.055   3.956
 8411SOL    HW126132   1.894   3.136   4.005
 8411SOL    HW226133   1.776   3.024   3.993
 8412SOL     OW26134   6.196   2.335   3.962
 8412SOL    HW126135   6.257   2.256   3.969
 8412SOL    HW226136   6.191   2.365   3.867
 8413SOL     OW26137   3.019   4.426   0.473
 8413SOL    HW126138   3.028   4.341   0.420
 8413SOL    HW226139   3.079   4.421   0.553
 8414SOL     OW26140   3.956   6.076   2.685
 8414SOL    HW126141   3.865   6.083   2.645
 8414SOL    HW226142   4.023   6.062   2.612
 8415SOL     OW26143   6.506   3.738   2.224
 8415SOL    HW126144   6.523   3.747   2.322
 8415SOL    HW226145   6.424   3.683   2.209
 8416SOL     OW26146   5.220   3.970   2.843
 8416SOL    HW126147   5.153   4.044   2.838
 8416SOL    HW226148   5.226   3.924   2.754
 8417SOL     OW26149   2.839   5.911   5.899
 8417SOL    HW126150   2.742   5.932   5.904
 8417SOL    HW226151   2.891   5.984   5.943
 8418SOL     OW26152   6.103   5.525   2.553
 8418SOL    HW126153   6.189   5.542   2.599
 8418SOL    HW226154   6.027   5.553   2.611
 8419SOL     OW26155   4.542   0.495   4.200
 8419SOL    HW126156   4.577   0.572   4.147
 8419SOL    HW226157   4.617   0.431   4.220
 8420SOL     OW26158   3.991   1.453   6.514
 8420SOL    HW126159   3.900   1.414   6.524
 8420SOL    HW226160   4.018   1.452   6.418
 8421SOL     OW26161   2.542   6.483   2.047
 8421SOL    HW126162   2.630   6.521   2.017
 8421SOL    HW226163   2.493   6.445   1.968
 8422SOL     OW26164   3.506   6.823   1.221
 8422SOL    HW126165   3.537   6.741   1.270
 8422SOL    HW226166   3.524   6.811   1.123
 8423SOL     OW26167   3.219   4.304   1.363
 8423SOL    HW126168   3.142   4.310   1.427
 8423SOL    HW226169   3.268   4.391   1.361
 8424SOL     OW26170   3.430   1.729   2.661
 8424SOL    HW126171   3.421   1.699   2.566
 8424SOL    HW226172   3.526   1.741   2.684
 8425SOL     OW26173   5.590   4.759   6.828
 8425SOL    HW126174   5.549   4.754   6.919
 8425SOL    HW226175   5.583   4.670   6.784
 8426SOL     OW26176   3.974   3.137   3.228
 8426SOL    HW126177   3.999   3.098   3.139
 8426SOL    HW226178   4.040   3.207   3.252
 8427SOL     OW26179   2.478   3.929   6.366
 8427SOL    HW126180   2.433   3.877   6.293
 8427SOL    HW226181   2.466   3.882   6.453
 8428SOL     OW26182   5.938   4.430   2.097
 8428SOL    HW126183   6.017   4.480   2.063
 8428SOL    HW226184   5.967   4.370   2.172
 8429SOL     OW26185   2.161   6.751   2.722
 8429SOL    HW126186   2.257   6.777   2.731
 8429SOL    HW226187   2.111   6.779   2.803
 8430SOL     OW26188   4.631   5.043   3.340
 8430SOL    HW126189   4.565   5.038   3.265
 8430SOL    HW226190   4.645   4.952   3.378
 8431SOL     OW26191   3.881   3.948   0.906
 8431SOL    HW126192   3.891   3.978   0.811
 8431SOL    HW226193   3.786   3.921   0.923
 8432SOL     OW26194   3.797   6.725   0.115
 8432SOL    HW126195   3.736   6.731   0.194
 8432SOL    HW226196   3.868   6.657   0.133
 8433SOL     OW26197   1.211   1.322   5.805
 8433SOL    HW126198   1.159   1.408   5.807
 8433SOL    HW226199   1.289   1.333   5.743
 8434SOL     OW26200   5.381   6.455   5.221
 8434SOL    HW126201   5.473   6.435   5.188
 8434SOL    HW226202   5.322   6.376   5.207
 8435SOL     OW26203   4.490   1.847   1.251
 8435SOL    HW126204   4.477   1.932   1.303
 8435SOL    HW226205   4.460   1.769   1.306
 8436SOL     OW26206   3.728   4.485   1.664
 8436SOL    HW126207   3.762   4.552   1.599
 8436SOL    HW226208   3.665   4.529   1.729
 8437SOL     OW26209   0.294   0.807   1.446
 8437SOL    HW126210   0.300   0.708   1.463
 8437SOL    HW226211   0.366   0.835   1.383
 8438SOL     OW26212   1.447   0.202   1.481
 8438SOL    HW126213   1.467   0.210   1.383
 8438SOL    HW226214   1.522   0.241   1.534
 8439SOL     OW26215   0.251   5.854   2.220
 8439SOL    HW126216   0.158   5.860   2.257
 8439SOL    HW226217   0.253   5.892   2.128
 8440SOL     OW26218   0.491   1.217   3.511
 8440SOL    HW126219   0.497   1.313   3.540
 8440SOL    HW226220   0.400   1.182   3.529
 8441SOL     OW26221   4.652   6.079   6.584
 8441SOL    HW126222   4.558   6.103   6.558
 8441SOL    HW226223   4.654   6.051   6.680
 8442SOL     OW26224   2.075   4.353   6.779
 8442SOL    HW126225   2.105   4.366   6.684
 8442SOL    HW226226   2.145   4.387   6.841
 8443SOL     OW26227   1.756   0.821   2.746
 8443SOL    HW126228   1.704   0.760   2.805
 8443SOL    HW226229   1.835   0.858   2.796
 8444SOL     OW26230   3.856   6.450   3.127
 8444SOL    HW126231   3.800   6.518   3.174
 8444SOL    HW226232   3.798   6.396   3.066
 8445SOL     OW26233   3.874   4.922   1.963
 8445SOL    HW126234   3.951   4.932   2.025
 8445SOL    HW226235   3.815   4.847   1.993
 8446SOL     OW26236   6.039   4.734   3.197
 8446SOL    HW126237   6.012   4.638   3.201
 8446SOL    HW226238   6.059   4.766   3.290
 8447SOL     OW26239   4.802   2.489   1.766
 8447SOL    HW126240   4.732   2.431   1.724
 8447SOL    HW226241   4.787   2.584   1.739
 8448SOL     OW26242   0.874   2.901   6.828
 8448SOL    HW126243   0.789   2.953   6.838
 8448SOL    HW226244   0.895   2.890   6.731
 8449SOL     OW26245   2.107   2.687   4.561
 8449SOL    HW126246   2.189   2.738   4.588
 8449SOL    HW226247   2.132   2.593   4.538
 8450SOL     OW26248   1.930   4.817   2.382
 8450SOL    HW126249   1.939   4.895   2.320
 8450SOL    HW226250   2.013   4.761   2.377
 8451SOL     OW26251   3.529   2.872   0.898
 8451SOL    HW126252   3.509   2.970   0.892
 8451SOL    HW226253   3.550   2.848   0.993
 8452SOL     OW26254   6.805   5.944   1.144
 8452SOL    HW126255   6.754   5.964   1.228
 8452SOL    HW226256   6.765   5.995   1.068
 8453SOL     OW26257   6.975   4.621   6.274
 8453SOL    HW126258   0.022   4.575   6.220
 8453SOL    HW226259   6.953   4.565   6.355
 8454SOL     OW26260   1.519   0.446   4.686
 8454SOL    HW126261   1.528   0.432   4.588
 8454SOL    HW226262   1.506   0.543   4.705
 8455SOL     OW26263   5.125   1.283   1.420
 8455SOL    HW126264   5.151   1.254   1.512
 8455SOL    HW226265   5.027   1.300   1.417
 8456SOL     OW26266   5.697   5.746   2.883
 8456SOL    HW126267   5.739   5.709   2.800
 8456SOL    HW226268   5.768   5.766   2.951
 8457SOL     OW26269   0.569   6.238   6.598
 8457SOL    HW126270   0.514   6.220   6.516
 8457SOL    HW226271   0.651   6.181   6.597
 8458SOL     OW26272   1.172   1.382   1.116
 8458SOL    HW126273   1.178   1.385   1.216
 8458SOL    HW226274   1.091   1.432   1.086
 8459SOL     OW26275   2.893   5.336   2.356
 8459SOL    HW126276   2.979   5.387   2.346
 8459SOL    HW226277   2.912   5.248   2.399
 8460SOL     OW26278   4.521   1.270   0.343
 8460SOL    HW126279   4.530   1.339   0.415
 8460SOL    HW226280   4.499   1.182   0.384
 8461SOL     OW26281   5.966   4.243   1.447
 8461SOL    HW126282   6.009   4.268   1.534
 8461SOL    HW226283   5.976   4.319   1.383
 8462SOL     OW26284   2.587   4.812   6.992
 8462SOL    HW126285   2.684   4.830   6.976
 8462SOL    HW226286   2.564   4.833   0.064
 8463SOL     OW26287   6.173   1.235   0.315
 8463SOL    HW126288   6.205   1.141   0.329
 8463SOL    HW226289   6.075   1.239   0.333
 8464SOL     OW26290   0.384   3.283   6.842
 8464SOL    HW126291   0.379   3.193   6.798
 8464SOL    HW226292   0.477   3.319   6.834
 8465SOL     OW26293   3.941   3.184   1.145
 8465SOL    HW126294   4.016   3.241   1.110
 8465SOL    HW226295   3.958   3.163   1.242
 8466SOL     OW26296   6.147   0.691   5.735
 8466SOL    HW126297   6.169   0.703   5.638
 8466SOL    HW226298   6.057   0.730   5.754
 8467SOL     OW26299   3.360   0.989   1.105
 8467SOL    HW126300   3.341   1.003   1.008
 8467SOL    HW226301   3.274   0.997   1.157
 8468SOL     OW26302   6.229   3.003   0.467
 8468SOL    HW126303   6.193   2.945   0.541
 8468SOL    HW226304   6.326   2.983   0.454
 8469SOL     OW26305   4.089   3.011   6.152
 8469SOL    HW126306   4.096   3.101   6.196
 8469SOL    HW226307   4.099   3.022   6.053
 8470SOL     OW26308   1.741   5.038   1.685
 8470SOL    HW126309   1.827   4.991   1.667
 8470SOL    HW226310   1.674   4.974   1.722
 8471SOL     OW26311   3.525   2.059   4.873
 8471SOL    HW126312   3.482   2.072   4.962
 8471SOL    HW226313   3.526   1.962   4.850
 8472SOL     OW26314   5.776   1.401   5.961
 8472SOL    HW126315   5.818   1.481   6.004
 8472SOL    HW226316   5.696   1.429   5.909
 8473SOL     OW26317   4.729   4.624   6.668
 8473SOL    HW126318   4.738   4.544   6.728
 8473SOL    HW226319   4.729   4.594   6.573
 8474SOL     OW26320   3.768   3.562   2.569
 8474SOL    HW126321   3.851   3.518   2.603
 8474SOL    HW226322   3.722   3.609   2.644
 8475SOL     OW26323   6.793   2.501   2.180
 8475SOL    HW126324   6.847   2.563   2.122
 8475SOL    HW226325   6.814   2.407   2.156
 8476SOL     OW26326   6.329   0.247   2.129
 8476SOL    HW126327   6.269   0.314   2.085
 8476SOL    HW226328   6.355   0.177   2.062
 8477SOL     OW26329   5.804   6.483   1.981
 8477SOL    HW126330   5.716   6.522   2.006
 8477SOL    HW226331   5.858   6.550   1.930
 8478SOL     OW26332   6.441   0.516   5.865
 8478SOL    HW126333   6.386   0.461   5.802
 8478SOL    HW226334   6.532   0.531   5.826
 8479SOL     OW26335   1.279   2.724   1.475
 8479SOL    HW126336   1.240   2.733   1.567
 8479SOL    HW226337   1.283   2.627   1.450
 8480SOL     OW26338   4.703   4.184   0.413
 8480SOL    HW126339   4.683   4.121   0.488
 8480SOL    HW226340   4.774   4.248   0.442
 8481SOL     OW26341   4.307   2.360   3.446
 8481SOL    HW126342   4.247   2.318   3.515
 8481SOL    HW226343   4.364   2.429   3.490
 8482SOL     OW26344   4.201   1.204   0.314
 8482SOL    HW126345   4.243   1.136   0.374
 8482SOL    HW226346   4.236   1.295   0.338
 8483SOL     OW26347   3.002   5.175   3.631
 8483SOL    HW126348   3.038   5.094   3.677
 8483SOL    HW226349   2.965   5.148   3.542
 8484SOL     OW26350   5.332   5.923   3.979
 8484SOL    HW126351   5.325   5.868   3.896
 8484SOL    HW226352   5.333   5.863   4.059
 8485SOL     OW26353   2.910   3.112   0.297
 8485SOL    HW126354   2.956   3.201   0.297
 8485SOL    HW226355   2.908   3.075   0.389
 8486SOL     OW26356   0.646   1.216   2.755
 8486SOL    HW126357   0.694   1.238   2.670
 8486SOL    HW226358   0.630   1.117   2.760
 8487SOL     OW26359   6.470   1.439   5.620
 8487SOL    HW126360   6.391   1.378   5.610
 8487SOL    HW226361   6.449   1.528   5.578
 8488SOL     OW26362   4.667   4.760   1.673
 8488SOL    HW126363   4.583   4.721   1.711
 8488SOL    HW226364   4.735   4.771   1.745
 8489SOL     OW26365   5.253   1.257   1.682
 8489SOL    HW126366   5.258   1.160   1.657
 8489SOL    HW226367   5.324   1.277   1.750
 8490SOL     OW26368   2.449   0.368   6.602
 8490SOL    HW126369   2.375   0.425   6.566
 8490SOL    HW226370   2.446   0.368   6.702
 8491SOL     OW26371   3.251   5.164   2.314
 8491SOL    HW126372   3.188   5.174   2.237
 8491SOL    HW226373   3.326   5.230   2.305
 8492SOL     OW26374   7.010   6.262   4.377
 8492SOL    HW126375   6.918   6.223   4.373
 8492SOL    HW226376   7.005   6.357   4.408
 8493SOL     OW26377   4.158   0.588   6.359
 8493SOL    HW126378   4.061   0.580   6.384
 8493SOL    HW226379   4.207   0.637   6.430
 8494SOL     OW26380   6.770   5.075   2.228
 8494SOL    HW126381   6.718   5.079   2.313
 8494SOL    HW226382   6.758   4.984   2.186
 8495SOL     OW26383   6.747   5.545   0.476
 8495SOL    HW126384   6.792   5.456   0.471
 8495SOL    HW226385   6.697   5.562   0.391
 8496SOL     OW26386   5.361   2.609   2.084
 8496SOL    HW126387   5.272   2.587   2.124
 8496SOL    HW226388   5.423   2.531   2.094
 8497SOL     OW26389   6.395   0.983   3.928
 8497SOL    HW126390   6.439   0.973   3.839
 8497SOL    HW226391   6.387   1.080   3.949
 8498SOL     OW26392   4.808   0.757   4.527
 8498SOL    HW126393   4.794   0.667   4.568
 8498SOL    HW226394   4.877   0.751   4.456
 8499SOL     OW26395   6.563   6.600   6.104
 8499SOL    HW126396   6.541   6.689   6.064
 8499SOL    HW226397   6.503   6.584   6.183
 8500SOL     OW26398   1.551   0.982   4.860
 8500SOL    HW126399   1.523   0.908   4.922
 8500SOL    HW226400   1.551   0.948   4.766
 8501SOL     OW26401   1.035   2.472   6.136
 8501SOL    HW126402   1.113   2.418   6.105
 8501SOL    HW226403   1.014   2.542   6.068
 8502SOL     OW26404   0.499   2.826   6.682
 8502SOL    HW126405   0.561   2.848   6.607
 8502SOL    HW226406   0.519   2.884   6.761
 8503SOL     OW26407   5.520   0.592   4.399
 8503SOL    HW126408   5.598   0.652   4.416
 8503SOL    HW226409   5.548   0.518   4.338
 8504SOL     OW26410   1.578   6.379   2.200
 8504SOL    HW126411   1.541   6.303   2.147
 8504SOL    HW226412   1.605   6.453   2.139
 8505SOL     OW26413   5.132   3.237   2.664
 8505SOL    HW126414   5.159   3.220   2.759
 8505SOL    HW226415   5.034   3.252   2.660
 8506SOL     OW26416   2.082   0.195   6.854
 8506SOL    HW126417   2.011   0.138   6.894
 8506SOL    HW226418   2.128   0.247   6.926
 8507SOL     OW26419   4.028   6.212   5.202
 8507SOL    HW126420   3.965   6.147   5.245
 8507SOL    HW226421   4.113   6.164   5.177
 8508SOL     OW26422   3.471   1.697   6.987
 8508SOL    HW126423   3.480   1.686   6.888
 8508SOL    HW226424   3.504   1.615   0.009
 8509SOL     OW26425   5.976   1.355   3.819
 8509SOL    HW126426   5.886   1.315   3.836
 8509SOL    HW226427   6.026   1.300   3.752
 8510SOL     OW26428   6.552   1.919   4.583
 8510SOL    HW126429   6.471   1.922   4.524
 8510SOL    HW226430   6.633   1.903   4.526
 8511SOL     OW26431   5.469   2.683   1.848
 8511SOL    HW126432   5.437   2.657   1.939
 8511SOL    HW226433   5.390   2.693   1.787
 8512SOL     OW26434   1.664   0.073   4.894
 8512SOL    HW126435   1.628   0.163   4.919
 8512SOL    HW226436   1.639   0.006   4.964
 8513SOL     OW26437   4.866   6.056   6.126
 8513SOL    HW126438   4.907   5.965   6.129
 8513SOL    HW226439   4.933   6.124   6.156
 8514SOL     OW26440   2.317   6.047   3.804
 8514SOL    HW126441   2.266   6.125   3.840
 8514SOL    HW226442   2.258   5.994   3.743
 8515SOL     OW26443   5.434   1.912   0.996
 8515SOL    HW126444   5.463   1.969   1.072
 8515SOL    HW226445   5.512   1.861   0.961
 8516SOL     OW26446   6.872   1.882   1.990
 8516SOL    HW126447   6.944   1.830   2.035
 8516SOL    HW226448   6.898   1.902   1.896
 8517SOL     OW26449   2.061   3.240   6.423
 8517SOL    HW126450   2.157   3.220   6.447
 8517SOL    HW226451   2.001   3.179   6.475
 8518SOL     OW26452   3.337   5.370   0.490
 8518SOL    HW126453   3.435   5.351   0.493
 8518SOL    HW226454   3.291   5.303   0.433
 8519SOL     OW26455   1.271   4.953   2.600
 8519SOL    HW126456   1.356   4.962   2.652
 8519SOL    HW226457   1.211   5.031   2.621
 8520SOL     OW26458   3.413   0.662   0.201
 8520SOL    HW126459   3.436   0.565   0.211
 8520SOL    HW226460   3.315   0.675   0.216
 8521SOL     OW26461   1.083   6.666   6.394
 8521SOL    HW126462   1.082   6.577   6.439
 8521SOL    HW226463   0.996   6.680   6.346
 8522SOL     OW26464   1.759   5.752   5.004
 8522SOL    HW126465   1.675   5.723   4.957
 8522SOL    HW226466   1.748   5.846   5.037
 8523SOL     OW26467   1.712   0.228   6.902
 8523SOL    HW126468   1.643   0.175   6.853
 8523SOL    HW226469   1.669   0.307   6.946
 8524SOL     OW26470   1.364   2.441   6.328
 8524SOL    HW126471   1.433   2.408   6.263
 8524SOL    HW226472   1.306   2.365   6.356
 8525SOL     OW26473   5.532   2.904   2.865
 8525SOL    HW126474   5.560   2.999   2.877
 8525SOL    HW226475   5.526   2.861   2.955
 8526SOL     OW26476   1.987   2.825   2.450
 8526SOL    HW126477   2.073   2.873   2.466
 8526SOL    HW226478   2.002   2.748   2.387
 8527SOL     OW26479   4.197   0.165   4.128
 8527SOL    HW126480   4.141   0.130   4.053
 8527SOL    HW226481   4.157   0.249   4.164
 8528SOL     OW26482   4.986   2.610   6.602
 8528SOL    HW126483   5.011   2.607   6.699
 8528SOL    HW226484   4.968   2.704   6.575
 8529SOL     OW26485   0.265   4.619   0.429
 8529SOL    HW126486   0.329   4.666   0.489
 8529SOL    HW226487   0.199   4.567   0.484
 8530SOL     OW26488   1.675   3.479   5.376
 8530SOL    HW126489   1.666   3.579   5.380
 8530SOL    HW226490   1.655   3.441   5.466
 8531SOL     OW26491   4.431   4.924   2.890
 8531SOL    HW126492   4.386   4.994   2.836
 8531SOL    HW226493   4.367   4.850   2.910
 8532SOL     OW26494   1.510   3.956   5.773
 8532SOL    HW126495   1.415   3.957   5.802
 8532SOL    HW226496   1.514   3.947   5.673
 8533SOL     OW26497   3.623   0.279   5.295
 8533SOL    HW126498   3.611   0.183   5.267
 8533SOL    HW226499   3.691   0.284   5.368
 8534SOL     OW26500   1.707   2.771   3.106
 8534SOL    HW126501   1.712   2.836   3.030
 8534SOL    HW226502   1.643   2.697   3.083
 8535SOL     OW26503   6.977   2.264   4.311
 8535SOL    HW126504   0.012   2.272   4.392
 8535SOL    HW226505   6.918   2.344   4.305
 8536SOL     OW26506   0.547   1.411   5.707
 8536SOL    HW126507   0.585   1.436   5.618
 8536SOL    HW226508   0.498   1.489   5.746
 8537SOL     OW26509   5.548   0.687   1.772
 8537SOL    HW126510   5.637   0.644   1.753
 8537SOL    HW226511   5.509   0.648   1.855
 8538SOL     OW26512   5.749   1.319   4.507
 8538SOL    HW126513   5.716   1.374   4.430
 8538SOL    HW226514   5.672   1.295   4.566
 8539SOL     OW26515   6.730   3.019   2.265
 8539SOL    HW126516   6.819   3.022   2.311
 8539SOL    HW226517   6.657   3.012   2.333
 8540SOL     OW26518   4.548   0.291   0.398
 8540SOL    HW126519   4.549   0.336   0.487
 8540SOL    HW226520   4.544   0.361   0.326
 8541SOL     OW26521   3.164   6.963   5.181
 8541SOL    HW126522   3.114   6.981   5.097
 8541SOL    HW226523   3.117   7.006   5.258
 8542SOL     OW26524   1.250   4.658   6.509
 8542SOL    HW126525   1.296   4.608   6.435
 8542SOL    HW226526   1.152   4.644   6.502
 8543SOL     OW26527   2.418   2.051   6.207
 8543SOL    HW126528   2.409   2.000   6.122
 8543SOL    HW226529   2.513   2.081   6.218
 8544SOL     OW26530   5.824   4.387   5.592
 8544SOL    HW126531   5.731   4.423   5.600
 8544SOL    HW226532   5.860   4.410   5.502
 8545SOL     OW26533   3.133   0.727   6.323
 8545SOL    HW126534   3.128   0.689   6.416
 8545SOL    HW226535   3.140   0.826   6.328
 8546SOL     OW26536   5.178   0.477   1.482
 8546SOL    HW126537   5.252   0.452   1.544
 8546SOL    HW226538   5.095   0.428   1.508
 8547SOL     OW26539   6.037   5.811   5.312
 8547SOL    HW126540   6.018   5.908   5.329
 8547SOL    HW226541   5.987   5.756   5.380
 8548SOL     OW26542   0.680   3.026   5.450
 8548SOL    HW126543   0.613   2.955   5.472
 8548SOL    HW226544   0.749   2.989   5.389
 8549SOL     OW26545   2.144   0.016   3.773
 8549SOL    HW126546   2.215   6.980   3.736
 8549SOL    HW226547   2.187   0.096   3.816
 8550SOL     OW26548   6.786   4.136   6.415
 8550SOL    HW126549   6.882   4.162   6.409
 8550SOL    HW226550   6.744   4.143   6.324
 8551SOL     OW26551   1.562   1.043   6.516
 8551SOL    HW126552   1.582   1.124   6.461
 8551SOL    HW226553   1.496   0.985   6.468
 8552SOL     OW26554   3.433   1.800   3.572
 8552SOL    HW126555   3.340   1.787   3.606
 8552SOL    HW226556   3.450   1.897   3.557
 8553SOL     OW26557   4.934   4.108   0.151
 8553SOL    HW126558   4.988   4.105   0.235
 8553SOL    HW226559   4.905   4.016   0.127
 8554SOL     OW26560   2.085   1.505   0.871
 8554SOL    HW126561   2.135   1.592   0.877
 8554SOL    HW226562   2.016   1.511   0.798
 8555SOL     OW26563   3.922   1.289   3.488
 8555SOL    HW126564   3.900   1.205   3.538
 8555SOL    HW226565   3.951   1.265   3.395
 8556SOL     OW26566   1.556   6.393   0.552
 8556SOL    HW126567   1.576   6.333   0.475
 8556SOL    HW226568   1.465   6.374   0.588
 8557SOL     OW26569   0.277   0.571   6.655
 8557SOL    HW126570   0.309   0.483   6.620
 8557SOL    HW226571   0.252   0.561   6.752
 8558SOL     OW26572   3.092   5.864   4.369
 8558SOL    HW126573   3.141   5.811   4.439
 8558SOL    HW226574   3.103   5.820   4.280
 8559SOL     OW26575   1.241   4.563   2.908
 8559SOL    HW126576   1.299   4.572   2.827
 8559SOL    HW226577   1.292   4.517   2.980
 8560SOL     OW26578   2.922   4.614   1.134
 8560SOL    HW126579   2.980   4.536   1.157
 8560SOL    HW226580   2.859   4.632   1.209
 8561SOL     OW26581   4.949   0.939   2.479
 8561SOL    HW126582   5.002   0.933   2.394
 8561SOL    HW226583   4.958   0.854   2.530
 8562SOL     OW26584   5.188   1.569   6.349
 8562SOL    HW126585   5.162   1.505   6.277
 8562SOL    HW226586   5.124   1.562   6.425
 8563SOL     OW26587   2.228   5.196   2.182
 8563SOL    HW126588   2.284   5.248   2.118
 8563SOL    HW226589   2.192   5.257   2.252
 8564SOL     OW26590   4.386   0.170   6.998
 8564SOL    HW126591   4.364   0.266   7.016
 8564SOL    HW226592   4.466   0.165   6.938
 8565SOL     OW26593   1.658   4.868   0.896
 8565SOL    HW126594   1.693   4.953   0.933
 8565SOL    HW226595   1.710   4.843   0.814
 8566SOL     OW26596   3.441   1.266   2.851
 8566SOL    HW126597   3.535   1.296   2.834
 8566SOL    HW226598   3.377   1.339   2.824
 8567SOL     OW26599   2.157   3.020   2.126
 8567SOL    HW126600   2.076   3.004   2.183
 8567SOL    HW226601   2.239   3.004   2.182
 8568SOL     OW26602   5.840   0.079   6.281
 8568SOL    HW126603   5.775   0.128   6.223
 8568SOL    HW226604   5.814   0.089   6.377
 8569SOL     OW26605   4.325   2.374   6.427
 8569SOL    HW126606   4.324   2.473   6.412
 8569SOL    HW226607   4.418   2.344   6.446
 8570SOL     OW26608   1.834   2.560   2.588
 8570SOL    HW126609   1.793   2.651   2.595
 8570SOL    HW226610   1.896   2.546   2.666
 8571SOL     OW26611   1.537   0.896   3.313
 8571SOL    HW126612   1.510   0.875   3.219
 8571SOL    HW226613   1.598   0.975   3.314
 8572SOL     OW26614   2.990   4.810   5.715
 8572SOL    HW126615   3.013   4.827   5.811
 8572SOL    HW226616   3.073   4.813   5.660
 8573SOL     OW26617   3.844   6.222   0.486
 8573SOL    HW126618   3.750   6.255   0.493
 8573SOL    HW226619   3.850   6.151   0.416
 8574SOL     OW26620   5.534   0.772   4.759
 8574SOL    HW126621   5.468   0.823   4.814
 8574SOL    HW226622   5.557   0.824   4.677
 8575SOL     OW26623   3.394   5.823   3.551
 8575SOL    HW126624   3.388   5.914   3.510
 8575SOL    HW226625   3.301   5.788   3.567
 8576SOL     OW26626   1.710   4.665   3.333
 8576SOL    HW126627   1.702   4.566   3.330
 8576SOL    HW226628   1.644   4.706   3.269
 8577SOL     OW26629   1.616   1.989   0.676
 8577SOL    HW126630   1.628   1.936   0.592
 8577SOL    HW226631   1.702   2.035   0.699
 8578SOL     OW26632   0.112   6.363   6.432
 8578SOL    HW126633   0.153   6.301   6.366
 8578SOL    HW226634   0.042   6.419   6.386
 8579SOL     OW26635   3.268   6.243   2.560
 8579SOL    HW126636   3.231   6.260   2.469
 8579SOL    HW226637   3.368   6.251   2.558
 8580SOL     OW26638   1.763   0.818   0.999
 8580SOL    HW126639   1.802   0.863   1.078
 8580SOL    HW226640   1.786   0.869   0.916
 8581SOL     OW26641   3.390   4.783   1.289
 8581SOL    HW126642   3.410   4.881   1.296
 8581SOL    HW226643   3.394   4.756   1.193
 8582SOL     OW26644   3.791   4.875   6.109
 8582SOL    HW126645   3.725   4.935   6.155
 8582SOL    HW226646   3.749   4.834   6.028
 8583SOL     OW26647   4.263   0.595   2.666
 8583SOL    HW126648   4.262   0.534   2.586
 8583SOL    HW226649   4.195   0.667   2.653
 8584SOL     OW26650   6.574   1.504   4.866
 8584SOL    HW126651   6.654   1.454   4.899
 8584SOL    HW226652   6.538   1.561   4.939
 8585SOL     OW26653   5.050   2.359   2.391
 8585SOL    HW126654   4.957   2.328   2.410
 8585SOL    HW226655   5.046   2.449   2.348
 8586SOL     OW26656   6.655   5.929   0.480
 8586SOL    HW126657   6.662   5.995   0.555
 8586SOL    HW226658   6.578   5.954   0.421
 8587SOL     OW26659   0.909   1.718   7.002
 8587SOL    HW126660   0.810   1.728   6.997
 8587SOL    HW226661   0.944   1.683   6.915
 8588SOL     OW26662   2.192   1.772   6.558
 8588SOL    HW126663   2.112   1.831   6.544
 8588SOL    HW226664   2.161   1.679   6.578
 8589SOL     OW26665   6.533   2.510   6.581
 8589SOL    HW126666   6.540   2.524   6.679
 8589SOL    HW226667   6.493   2.420   6.563
 8590SOL     OW26668   1.340   1.318   4.772
 8590SOL    HW126669   1.312   1.249   4.839
 8590SOL    HW226670   1.324   1.283   4.679
 8591SOL     OW26671   6.642   4.135   6.634
 8591SOL    HW126672   6.719   4.137   6.571
 8591SOL    HW226673   6.584   4.216   6.620
 8592SOL     OW26674   0.770   1.511   5.828
 8592SOL    HW126675   0.681   1.471   5.807
 8592SOL    HW226676   0.834   1.490   5.754
 8593SOL     OW26677   3.860   1.360   0.048
 8593SOL    HW126678   3.776   1.396   0.088
 8593SOL    HW226679   3.854   1.366   6.972
 8594SOL     OW26680   6.288   2.902   5.515
 8594SOL    HW126681   6.360   2.967   5.488
 8594SOL    HW226682   6.287   2.892   5.614
 8595SOL     OW26683   6.013   6.890   3.095
 8595SOL    HW126684   5.983   6.867   3.003
 8595SOL    HW226685   6.042   6.807   3.143
 8596SOL     OW26686   1.040   1.544   3.897
 8596SOL    HW126687   1.083   1.632   3.874
 8596SOL    HW226688   0.981   1.515   3.822
 8597SOL     OW26689   5.771   3.181   6.973
 8597SOL    HW126690   5.785   3.135   0.037
 8597SOL    HW226691   5.676   3.212   6.966
 8598SOL     OW26692   5.887   6.510   4.652
 8598SOL    HW126693   5.815   6.577   4.637
 8598SOL    HW226694   5.908   6.464   4.565
 8599SOL     OW26695   0.434   3.590   3.640
 8599SOL    HW126696   0.426   3.522   3.567
 8599SOL    HW226697   0.358   3.579   3.703
 8600SOL     OW26698   4.724   1.957   0.945
 8600SOL    HW126699   4.798   1.922   1.003
 8600SOL    HW226700   4.763   1.993   0.860
 8601SOL     OW26701   0.733   6.598   3.374
 8601SOL    HW126702   0.666   6.665   3.406
 8601SOL    HW226703   0.730   6.592   3.274
 8602SOL     OW26704   3.025   6.329   5.040
 8602SOL    HW126705   3.049   6.305   4.946
 8602SOL    HW226706   3.102   6.378   5.083
 8603SOL     OW26707   0.139   0.021   7.006
 8603SOL    HW126708   0.209   6.999   0.038
 8603SOL    HW226709   0.057   0.035   0.037
 8604SOL     OW26710   0.097   4.292   6.083
 8604SOL    HW126711   0.153   4.213   6.110
 8604SOL    HW226712   0.140   4.375   6.117
 8605SOL     OW26713   6.311   5.001   4.249
 8605SOL    HW126714   6.291   5.067   4.176
 8605SOL    HW226715   6.400   4.960   4.232
 8606SOL     OW26716   1.512   2.400   0.323
 8606SOL    HW126717   1.515   2.479   0.262
 8606SOL    HW226718   1.421   2.359   0.321
 8607SOL     OW26719   2.821   4.021   1.407
 8607SOL    HW126720   2.860   3.929   1.401
 8607SOL    HW226721   2.782   4.035   1.498
 8608SOL     OW26722   1.857   5.356   2.852
 8608SOL    HW126723   1.859   5.443   2.900
 8608SOL    HW226724   1.905   5.287   2.907
 8609SOL     OW26725   4.696   1.523   4.349
 8609SOL    HW126726   4.672   1.532   4.252
 8609SOL    HW226727   4.732   1.431   4.366
 8610SOL     OW26728   0.025   5.804   3.424
 8610SOL    HW126729   0.007   5.857   3.507
 8610SOL    HW226730   0.066   5.865   3.355
 8611SOL     OW26731   3.535   1.543   4.907
 8611SOL    HW126732   3.626   1.580   4.923
 8611SOL    HW226733   3.529   1.509   4.813
 8612SOL     OW26734   3.809   4.068   4.101
 8612SOL    HW126735   3.896   4.026   4.076
 8612SOL    HW226736   3.805   4.080   4.200
 8613SOL     OW26737   3.999   2.758   1.686
 8613SOL    HW126738   4.023   2.835   1.745
 8613SOL    HW226739   3.899   2.747   1.684
 8614SOL     OW26740   1.552   1.759   2.936
 8614SOL    HW126741   1.503   1.672   2.941
 8614SOL    HW226742   1.610   1.759   2.854
 8615SOL     OW26743   3.884   1.549   4.189
 8615SOL    HW126744   3.929   1.461   4.178
 8615SOL    HW226745   3.952   1.618   4.214
 8616SOL     OW26746   5.077   4.241   2.866
 8616SOL    HW126747   4.978   4.239   2.854
 8616SOL    HW226748   5.116   4.317   2.814
 8617SOL     OW26749   3.004   0.309   3.646
 8617SOL    HW126750   3.038   0.252   3.721
 8617SOL    HW226751   3.016   0.261   3.560
 8618SOL     OW26752   5.460   4.933   0.714
 8618SOL    HW126753   5.424   4.946   0.621
 8618SOL    HW226754   5.552   4.973   0.720
 8619SOL     OW26755   4.707   5.506   0.801
 8619SOL    HW126756   4.664   5.557   0.876
 8619SOL    HW226757   4.687   5.408   0.812
 8620SOL     OW26758   2.177   0.669   4.797
 8620SOL    HW126759   2.140   0.576   4.787
 8620SOL    HW226760   2.131   0.715   4.873
 8621SOL     OW26761   6.039   2.912   1.592
 8621SOL    HW126762   6.121   2.962   1.620
 8621SOL    HW226763   6.063   2.817   1.572
 8622SOL     OW26764   6.637   4.987   2.763
 8622SOL    HW126765   6.631   4.908   2.824
 8622SOL    HW226766   6.560   4.986   2.700
 8623SOL     OW26767   0.831   3.189   3.683
 8623SOL    HW126768   0.916   3.154   3.642
 8623SOL    HW226769   0.816   3.283   3.651
 8624SOL     OW26770   2.970   3.939   4.948
 8624SOL    HW126771   2.933   3.965   5.037
 8624SOL    HW226772   2.906   3.880   4.900
 8625SOL     OW26773   3.823   2.803   5.605
 8625SOL    HW126774   3.898   2.737   5.599
 8625SOL    HW226775   3.816   2.838   5.698
 8626SOL     OW26776   4.141   4.162   0.901
 8626SOL    HW126777   4.117   4.179   0.997
 8626SOL    HW226778   4.194   4.078   0.894
 8627SOL     OW26779   2.004   0.575   1.839
 8627SOL    HW126780   2.009   0.604   1.935
 8627SOL    HW226781   2.081   0.614   1.789
 8628SOL     OW26782   0.681   6.474   0.812
 8628SOL    HW126783   0.778   6.499   0.810
 8628SOL    HW226784   0.629   6.547   0.857
 8629SOL     OW26785   0.074   6.508   5.876
 8629SOL    HW126786   0.111   6.438   5.938
 8629SOL    HW226787   0.150   6.555   5.831
 8630SOL     OW26788   5.381   2.920   2.437
 8630SOL    HW126789   5.294   2.916   2.486
 8630SOL    HW226790   5.370   2.883   2.345
 8631SOL     OW26791   2.522   0.223   7.001
 8631SOL    HW126792   2.458   0.152   0.007
 8631SOL    HW226793   2.599   0.181   6.954
 8632SOL     OW26794   5.334   5.097   5.737
 8632SOL    HW126795   5.295   5.013   5.774
 8632SOL    HW226796   5.424   5.078   5.698
 8633SOL     OW26797   5.650   4.281   5.952
 8633SOL    HW126798   5.635   4.290   6.051
 8633SOL    HW226799   5.737   4.324   5.928
 8634SOL     OW26800   4.221   3.393   0.421
 8634SOL    HW126801   4.156   3.435   0.484
 8634SOL    HW226802   4.268   3.464   0.368
 8635SOL     OW26803   5.696   2.347   5.927
 8635SOL    HW126804   5.689   2.298   5.840
 8635SOL    HW226805   5.666   2.288   6.001
 8636SOL     OW26806   4.996   0.703   1.488
 8636SOL    HW126807   4.967   0.708   1.584
 8636SOL    HW226808   5.088   0.665   1.483
 8637SOL     OW26809   1.502   2.099   0.291
 8637SOL    HW126810   1.449   2.156   0.229
 8637SOL    HW226811   1.598   2.126   0.287
 8638SOL     OW26812   4.843   2.263   4.199
 8638SOL    HW126813   4.798   2.308   4.276
 8638SOL    HW226814   4.776   2.209   4.148
 8639SOL     OW26815   3.619   3.870   6.938
 8639SOL    HW126816   3.703   3.815   6.942
 8639SOL    HW226817   3.542   3.810   6.920
 8640SOL     OW26818   2.923   3.453   1.043
 8640SOL    HW126819   2.875   3.439   0.957
 8640SOL    HW226820   2.963   3.367   1.074
 8641SOL     OW26821   4.258   6.206   2.158
 8641SOL    HW126822   4.223   6.300   2.151
 8641SOL    HW226823   4.185   6.141   2.137
 8642SOL     OW26824   1.083   5.800   3.682
 8642SOL    HW126825   1.006   5.737   3.686
 8642SOL    HW226826   1.081   5.850   3.595
 8643SOL     OW26827   3.840   5.882   1.038
 8643SOL    HW126828   3.840   5.926   1.128
 8643SOL    HW226829   3.787   5.937   0.974
 8644SOL     OW26830   6.327   1.768   6.536
 8644SOL    HW126831   6.389   1.693   6.560
 8644SOL    HW226832   6.259   1.734   6.470
 8645SOL     OW26833   5.767   4.457   2.952
 8645SOL    HW126834   5.718   4.507   2.881
 8645SOL    HW226835   5.757   4.505   3.039
 8646SOL     OW26836   0.220   2.330   5.367
 8646SOL    HW126837   0.307   2.297   5.332
 8646SOL    HW226838   0.203   2.291   5.458
 8647SOL     OW26839   2.363   5.751   1.935
 8647SOL    HW126840   2.372   5.797   1.847
 8647SOL    HW226841   2.276   5.703   1.939
 8648SOL     OW26842   4.953   5.144   0.347
 8648SOL    HW126843   4.976   5.237   0.376
 8648SOL    HW226844   4.988   5.079   0.414
 8649SOL     OW26845   5.013   6.967   1.137
 8649SOL    HW126846   4.975   0.034   1.117
 8649SOL    HW226847   5.091   6.949   1.077
 8650SOL     OW26848   2.361   6.354   4.751
 8650SOL    HW126849   2.307   6.349   4.835
 8650SOL    HW226850   2.305   6.326   4.673
 8651SOL     OW26851   3.491   1.939   1.107
 8651SOL    HW126852   3.503   1.858   1.050
 8651SOL    HW226853   3.402   1.934   1.152
 8652SOL     OW26854   0.979   2.916   3.746
 8652SOL    HW126855   1.051   2.884   3.685
 8652SOL    HW226856   0.890   2.891   3.708
 8653SOL     OW26857   6.622   1.626   6.351
 8653SOL    HW126858   6.568   1.619   6.435
 8653SOL    HW226859   6.714   1.659   6.373
 8654SOL     OW26860   0.538   4.734   1.999
 8654SOL    HW126861   0.440   4.748   2.003
 8654SOL    HW226862   0.558   4.645   1.959
 8655SOL     OW26863   0.634   0.510   4.874
 8655SOL    HW126864   0.640   0.607   4.898
 8655SOL    HW226865   0.634   0.501   4.775
 8656SOL     OW26866   5.152   0.069   1.406
 8656SOL    HW126867   5.145   0.150   1.349
 8656SOL    HW226868   5.087   7.023   1.374
 8657SOL     OW26869   4.499   1.262   3.209
 8657SOL    HW126870   4.515   1.187   3.273
 8657SOL    HW226871   4.455   1.227   3.126
 8658SOL     OW26872   6.171   4.323   0.852
 8658SOL    HW126873   6.077   4.332   0.818
 8658SOL    HW226874   6.175   4.249   0.919
 8659SOL     OW26875   4.213   1.051   2.742
 8659SOL    HW126876   4.114   1.058   2.731
 8659SOL    HW226877   4.256   1.136   2.713
 8660SOL     OW26878   6.491   3.982   1.617
 8660SOL    HW126879   6.404   4.031   1.629
 8660SOL    HW226880   6.514   3.934   1.702
 8661SOL     OW26881   6.347   4.066   2.763
 8661SOL    HW126882   6.392   4.077   2.674
 8661SOL    HW226883   6.398   4.116   2.833
 8662SOL     OW26884   2.216   4.234   3.349
 8662SOL    HW126885   2.199   4.186   3.435
 8662SOL    HW226886   2.172   4.324   3.351
 8663SOL     OW26887   4.048   5.690   2.491
 8663SOL    HW126888   4.125   5.630   2.469
 8663SOL    HW226889   4.038   5.760   2.420
 8664SOL     OW26890   3.556   5.886   3.788
 8664SOL    HW126891   3.523   5.825   3.860
 8664SOL    HW226892   3.495   5.881   3.709
 8665SOL     OW26893   5.844   3.053   6.497
 8665SOL    HW126894   5.760   3.014   6.460
 8665SOL    HW226895   5.823   3.134   6.552
 8666SOL     OW26896   4.524   6.726   2.412
 8666SOL    HW126897   4.590   6.690   2.478
 8666SOL    HW226898   4.455   6.780   2.460
 8667SOL     OW26899   5.530   2.143   3.673
 8667SOL    HW126900   5.518   2.049   3.641
 8667SOL    HW226901   5.607   2.147   3.736
 8668SOL     OW26902   5.173   2.463   4.638
 8668SOL    HW126903   5.074   2.452   4.645
 8668SOL    HW226904   5.197   2.559   4.651
 8669SOL     OW26905   5.901   5.904   5.648
 8669SOL    HW126906   5.883   5.824   5.591
 8669SOL    HW226907   5.848   5.896   5.733
 8670SOL     OW26908   6.175   4.242   6.217
 8670SOL    HW126909   6.170   4.302   6.298
 8670SOL    HW226910   6.236   4.284   6.149
 8671SOL     OW26911   0.039   2.242   2.924
 8671SOL    HW126912   6.971   2.213   2.949
 8671SOL    HW226913   0.106   2.204   2.988
 8672SOL     OW26914   0.412   0.777   3.164
 8672SOL    HW126915   0.335   0.840   3.162
 8672SOL    HW226916   0.496   0.828   3.185
 8673SOL     OW26917   0.629   1.550   1.411
 8673SOL    HW126918   0.592   1.519   1.324
 8673SOL    HW226919   0.589   1.639   1.434
 8674SOL     OW26920   6.621   4.324   3.621
 8674SOL    HW126921   6.655   4.247   3.566
 8674SOL    HW226922   6.521   4.321   3.624
 8675SOL     OW26923   3.512   2.241   5.264
 8675SOL    HW126924   3.484   2.189   5.183
 8675SOL    HW226925   3.433   2.256   5.323
 8676SOL     OW26926   5.483   1.448   0.660
 8676SOL    HW126927   5.479   1.351   0.635
 8676SOL    HW226928   5.566   1.489   0.621
 8677SOL     OW26929   2.339   6.423   6.011
 8677SOL    HW126930   2.321   6.499   5.949
 8677SOL    HW226931   2.369   6.458   6.099
 8678SOL     OW26932   1.633   2.122   1.006
 8678SOL    HW126933   1.576   2.135   1.088
 8678SOL    HW226934   1.614   2.194   0.940
 8679SOL     OW26935   1.359   1.795   5.246
 8679SOL    HW126936   1.354   1.872   5.181
 8679SOL    HW226937   1.359   1.831   5.339
 8680SOL     OW26938   6.322   0.996   0.187
 8680SOL    HW126939   6.340   0.903   0.219
 8680SOL    HW226940   6.396   1.026   0.126
 8681SOL     OW26941   5.537   6.104   1.542
 8681SOL    HW126942   5.496   6.193   1.563
 8681SOL    HW226943   5.530   6.045   1.622
 8682SOL     OW26944   1.814   0.934   1.234
 8682SOL    HW126945   1.729   0.907   1.279
 8682SOL    HW226946   1.809   1.032   1.211
 8683SOL     OW26947   2.030   4.380   4.623
 8683SOL    HW126948   2.070   4.468   4.595
 8683SOL    HW226949   2.070   4.352   4.709
 8684SOL     OW26950   1.218   3.681   4.069
 8684SOL    HW126951   1.132   3.722   4.100
 8684SOL    HW226952   1.220   3.584   4.094
 8685SOL     OW26953   5.468   2.288   5.055
 8685SOL    HW126954   5.434   2.334   5.136
 8685SOL    HW226955   5.433   2.194   5.053
 8686SOL     OW26956   1.002   5.414   2.867
 8686SOL    HW126957   1.090   5.368   2.862
 8686SOL    HW226958   0.952   5.381   2.947
 8687SOL     OW26959   5.215   4.082   5.625
 8687SOL    HW126960   5.138   4.114   5.570
 8687SOL    HW226961   5.216   4.130   5.713
 8688SOL     OW26962   0.578   3.848   5.792
 8688SOL    HW126963   0.607   3.752   5.789
 8688SOL    HW226964   0.656   3.905   5.819
 8689SOL     OW26965   4.200   3.542   0.064
 8689SOL    HW126966   4.109   3.503   0.048
 8689SOL    HW226967   4.192   3.641   0.076
 8690SOL     OW26968   1.597   2.549   3.005
 8690SOL    HW126969   1.525   2.482   3.022
 8690SOL    HW226970   1.668   2.508   2.948
 8691SOL     OW26971   3.271   2.628   5.309
 8691SOL    HW126972   3.217   2.558   5.262
 8691SOL    HW226973   3.367   2.599   5.314
 8692SOL     OW26974   4.572   1.997   5.035
 8692SOL    HW126975   4.494   1.934   5.031
 8692SOL    HW226976   4.656   1.946   5.051
 8693SOL     OW26977   6.364   6.548   6.257
 8693SOL    HW126978   6.276   6.595   6.264
 8693SOL    HW226979   6.375   6.486   6.335
 8694SOL     OW26980   6.310   3.426   4.331
 8694SOL    HW126981   6.371   3.354   4.298
 8694SOL    HW226982   6.270   3.400   4.418
 8695SOL     OW26983   3.709   4.210   5.895
 8695SOL    HW126984   3.696   4.113   5.914
 8695SOL    HW226985   3.727   4.258   5.981
 8696SOL     OW26986   2.894   5.080   5.865
 8696SOL    HW126987   2.879   5.101   5.768
 8696SOL    HW226988   2.888   5.164   5.919
 8697SOL     OW26989   1.426   3.632   5.646
 8697SOL    HW126990   1.346   3.690   5.631
 8697SOL    HW226991   1.509   3.687   5.636
 8698SOL     OW26992   5.567   5.547   5.240
 8698SOL    HW126993   5.561   5.478   5.168
 8698SOL    HW226994   5.475   5.566   5.275
 8699SOL     OW26995   1.200   2.876   6.748
 8699SOL    HW126996   1.157   2.792   6.714
 8699SOL    HW226997   1.144   2.955   6.724
 8700SOL     OW26998   1.226   6.936   4.783
 8700SOL    HW126999   1.297   6.872   4.752
 8700SOL    HW227000   1.190   6.905   4.871
 8701SOL     OW27001   0.441   2.406   0.544
 8701SOL    HW127002   0.447   2.480   0.477
 8701SOL    HW227003   0.533   2.369   0.562
 8702SOL     OW27004   5.443   5.174   1.800
 8702SOL    HW127005   5.352   5.143   1.827
 8702SOL    HW227006   5.434   5.247   1.732
 8703SOL     OW27007   2.526   5.285   1.417
 8703SOL    HW127008   2.598   5.332   1.366
 8703SOL    HW227009   2.457   5.351   1.447
 8704SOL     OW27010   1.235   0.433   4.807
 8704SOL    HW127011   1.138   0.454   4.822
 8704SOL    HW227012   1.244   0.343   4.764
 8705SOL     OW27013   4.469   2.363   6.928
 8705SOL    HW127014   4.558   2.379   6.885
 8705SOL    HW227015   4.398   2.403   6.871
 8706SOL     OW27016   4.603   2.740   6.198
 8706SOL    HW127017   4.601   2.819   6.137
 8706SOL    HW227018   4.509   2.710   6.217
 8707SOL     OW27019   1.842   2.240   5.118
 8707SOL    HW127020   1.889   2.153   5.106
 8707SOL    HW227021   1.845   2.292   5.033
 8708SOL     OW27022   5.967   2.346   1.086
 8708SOL    HW127023   6.029   2.318   1.013
 8708SOL    HW227024   5.967   2.445   1.093
 8709SOL     OW27025   6.537   0.101   6.168
 8709SOL    HW127026   6.457   0.054   6.132
 8709SOL    HW227027   6.514   0.196   6.189
 8710SOL     OW27028   2.514   1.069   3.176
 8710SOL    HW127029   2.441   1.086   3.109
 8710SOL    HW227030   2.502   1.128   3.255
 8711SOL     OW27031   1.600   0.904   1.470
 8711SOL    HW127032   1.579   0.994   1.430
 8711SOL    HW227033   1.607   0.913   1.569
 8712SOL     OW27034   1.575   3.714   5.908
 8712SOL    HW127035   1.527   3.791   5.866
 8712SOL    HW227036   1.526   3.685   5.990
 8713SOL     OW27037   0.122   4.913   1.824
 8713SOL    HW127038   0.192   4.975   1.860
 8713SOL    HW227039   0.072   4.960   1.751
 8714SOL     OW27040   0.365   5.451   6.954
 8714SOL    HW127041   0.305   5.459   0.010
 8714SOL    HW227042   0.316   5.406   6.880
 8715SOL     OW27043   2.440   3.203   1.481
 8715SOL    HW127044   2.456   3.110   1.512
 8715SOL    HW227045   2.414   3.260   1.560
 8716SOL     OW27046   6.667   6.740   1.684
 8716SOL    HW127047   6.727   6.770   1.610
 8716SOL    HW227048   6.634   6.647   1.665
 8717SOL     OW27049   3.041   4.108   0.706
 8717SOL    HW127050   3.027   4.124   0.804
 8717SOL    HW227051   2.953   4.109   0.659
 8718SOL     OW27052   2.278   4.662   6.482
 8718SOL    HW127053   2.259   4.670   6.384
 8718SOL    HW227054   2.250   4.746   6.528
 8719SOL     OW27055   3.857   0.526   5.407
 8719SOL    HW127056   3.944   0.479   5.400
 8719SOL    HW227057   3.790   0.466   5.451
 8720SOL     OW27058   6.620   5.102   5.103
 8720SOL    HW127059   6.547   5.054   5.152
 8720SOL    HW227060   6.590   5.120   5.009
 8721SOL     OW27061   0.362   0.307   6.549
 8721SOL    HW127062   0.305   0.231   6.518
 8721SOL    HW227063   0.434   0.273   6.609
 8722SOL     OW27064   3.465   1.341   1.295
 8722SOL    HW127065   3.491   1.246   1.279
 8722SOL    HW227066   3.366   1.350   1.290
 8723SOL     OW27067   3.987   0.483   2.147
 8723SOL    HW127068   4.019   0.401   2.195
 8723SOL    HW227069   4.054   0.556   2.157
 8724SOL     OW27070   4.100   1.192   4.570
 8724SOL    HW127071   4.006   1.170   4.543
 8724SOL    HW227072   4.154   1.108   4.577
 8725SOL     OW27073   0.076   6.629   3.830
 8725SOL    HW127074   0.141   6.636   3.754
 8725SOL    HW227075   7.007   6.621   3.794
 8726SOL     OW27076   0.366   0.628   1.127
 8726SOL    HW127077   0.370   0.535   1.163
 8726SOL    HW227078   0.377   0.625   1.027
 8727SOL     OW27079   4.400   5.898   6.325
 8727SOL    HW127080   4.440   5.968   6.266
 8727SOL    HW227081   4.311   5.870   6.289
 8728SOL     OW27082   6.840   0.228   3.505
 8728SOL    HW127083   6.888   0.293   3.446
 8728SOL    HW227084   6.800   0.276   3.583
 8729SOL     OW27085   3.994   6.655   6.373
 8729SOL    HW127086   4.004   6.576   6.312
 8729SOL    HW227087   4.078   6.710   6.370
 8730SOL     OW27088   4.509   5.444   1.692
 8730SOL    HW127089   4.526   5.506   1.768
 8730SOL    HW227090   4.592   5.391   1.672
 8731SOL     OW27091   0.147   1.729   3.580
 8731SOL    HW127092   0.110   1.640   3.606
 8731SOL    HW227093   0.246   1.721   3.566
 8732SOL     OW27094   5.489   6.906   0.743
 8732SOL    HW127095   5.587   6.897   0.725
 8732SOL    HW227096   5.475   6.969   0.819
 8733SOL     OW27097   6.269   5.481   1.785
 8733SOL    HW127098   6.215   5.556   1.746
 8733SOL    HW227099   6.213   5.399   1.791
 8734SOL     OW27100   6.937   3.606   2.548
 8734SOL    HW127101   6.980   3.542   2.612
 8734SOL    HW227102   6.964   3.582   2.455
 8735SOL     OW27103   0.690   3.728   5.377
 8735SOL    HW127104   0.600   3.691   5.354
 8735SOL    HW227105   0.759   3.684   5.320
 8736SOL     OW27106   1.509   6.077   3.619
 8736SOL    HW127107   1.471   6.001   3.673
 8736SOL    HW227108   1.569   6.040   3.548
 8737SOL     OW27109   2.047   6.461   6.931
 8737SOL    HW127110   1.989   6.515   6.871
 8737SOL    HW227111   2.065   6.512   7.015
 8738SOL     OW27112   1.213   2.781   3.688
 8738SOL    HW127113   1.242   2.738   3.602
 8738SOL    HW227114   1.268   2.863   3.703
 8739SOL     OW27115   4.989   4.012   5.852
 8739SOL    HW127116   5.056   3.943   5.880
 8739SOL    HW227117   5.010   4.098   5.898
 8740SOL     OW27118   2.590   0.590   5.098
 8740SOL    HW127119   2.648   0.569   5.019
 8740SOL    HW227120   2.637   0.565   5.182
 8741SOL     OW27121   0.950   0.476   2.302
 8741SOL    HW127122   0.897   0.432   2.230
 8741SOL    HW227123   0.894   0.482   2.385
 8742SOL     OW27124   2.692   1.440   2.676
 8742SOL    HW127125   2.612   1.498   2.690
 8742SOL    HW227126   2.751   1.480   2.605
 8743SOL     OW27127   0.286   1.849   1.640
 8743SOL    HW127128   0.360   1.882   1.699
 8743SOL    HW227129   0.209   1.820   1.696
 8744SOL     OW27130   3.331   4.413   6.013
 8744SOL    HW127131   3.356   4.324   5.975
 8744SOL    HW227132   3.331   4.407   6.113
 8745SOL     OW27133   5.486   1.047   5.828
 8745SOL    HW127134   5.511   1.094   5.743
 8745SOL    HW227135   5.403   0.994   5.813
 8746SOL     OW27136   4.515   5.385   4.705
 8746SOL    HW127137   4.460   5.310   4.744
 8746SOL    HW227138   4.520   5.375   4.606
 8747SOL     OW27139   6.887   0.451   1.817
 8747SOL    HW127140   6.917   0.412   1.904
 8747SOL    HW227141   6.821   0.390   1.774
 8748SOL     OW27142   6.769   1.827   3.868
 8748SOL    HW127143   6.852   1.791   3.911
 8748SOL    HW227144   6.772   1.810   3.769
 8749SOL     OW27145   2.785   1.226   4.008
 8749SOL    HW127146   2.731   1.200   4.088
 8749SOL    HW227147   2.768   1.161   3.933
 8750SOL     OW27148   4.392   3.538   6.692
 8750SOL    HW127149   4.383   3.636   6.711
 8750SOL    HW227150   4.302   3.495   6.694
 8751SOL     OW27151   1.341   6.225   1.208
 8751SOL    HW127152   1.286   6.265   1.282
 8751SOL    HW227153   1.296   6.143   1.173
 8752SOL     OW27154   5.852   3.620   6.383
 8752SOL    HW127155   5.780   3.626   6.313
 8752SOL    HW227156   5.812   3.587   6.469
 8753SOL     OW27157   2.534   2.777   0.594
 8753SOL    HW127158   2.460   2.770   0.528
 8753SOL    HW227159   2.497   2.804   0.683
 8754SOL     OW27160   2.022   5.110   6.656
 8754SOL    HW127161   2.092   5.174   6.626
 8754SOL    HW227162   1.977   5.146   6.739
 8755SOL     OW27163   6.970   2.865   1.744
 8755SOL    HW127164   0.022   2.870   1.808
 8755SOL    HW227165   6.998   2.812   1.663
 8756SOL     OW27166   1.732   1.731   1.917
 8756SOL    HW127167   1.764   1.701   2.007
 8756SOL    HW227168   1.655   1.673   1.888
 8757SOL     OW27169   5.670   5.889   5.356
 8757SOL    HW127170   5.572   5.873   5.345
 8757SOL    HW227171   5.685   5.958   5.427
 8758SOL     OW27172   3.207   5.281   4.991
 8758SOL    HW127173   3.128   5.266   4.931
 8758SOL    HW227174   3.199   5.370   5.035
 8759SOL     OW27175   6.036   0.651   0.488
 8759SOL    HW127176   6.025   0.668   0.390
 8759SOL    HW227177   5.954   0.605   0.522
 8760SOL     OW27178   2.455   2.368   4.000
 8760SOL    HW127179   2.426   2.460   3.977
 8760SOL    HW227180   2.429   2.347   4.094
 8761SOL     OW27181   5.579   1.322   2.805
 8761SOL    HW127182   5.522   1.402   2.784
 8761SOL    HW227183   5.520   1.243   2.824
 8762SOL     OW27184   2.030   4.694   3.162
 8762SOL    HW127185   1.975   4.618   3.126
 8762SOL    HW227186   2.124   4.662   3.177
 8763SOL     OW27187   0.964   0.988   6.481
 8763SOL    HW127188   0.867   1.005   6.464
 8763SOL    HW227189   1.008   0.956   6.397
 8764SOL     OW27190   2.725   4.955   5.272
 8764SOL    HW127191   2.791   4.993   5.207
 8764SOL    HW227192   2.768   4.882   5.325
 8765SOL     OW27193   5.227   0.732   4.609
 8765SOL    HW127194   5.195   0.673   4.536
 8765SOL    HW227195   5.243   0.824   4.573
 8766SOL     OW27196   4.621   5.902   5.640
 8766SOL    HW127197   4.711   5.907   5.683
 8766SOL    HW227198   4.605   5.984   5.586
 8767SOL     OW27199   2.415   1.174   4.171
 8767SOL    HW127200   2.401   1.217   4.081
 8767SOL    HW227201   2.406   1.243   4.243
 8768SOL     OW27202   6.053   1.510   6.801
 8768SOL    HW127203   6.012   1.535   6.713
 8768SOL    HW227204   6.148   1.541   6.803
 8769SOL     OW27205   6.495   0.118   0.508
 8769SOL    HW127206   6.583   0.070   0.507
 8769SOL    HW227207   6.435   0.080   0.439
 8770SOL     OW27208   5.070   3.480   0.202
 8770SOL    HW127209   5.009   3.402   0.217
 8770SOL    HW227210   5.065   3.543   0.280
 8771SOL     OW27211   0.440   3.478   0.174
 8771SOL    HW127212   0.371   3.526   0.120
 8771SOL    HW227213   0.425   3.379   0.168
 8772SOL     OW27214   6.030   0.223   4.556
 8772SOL    HW127215   6.014   0.284   4.479
 8772SOL    HW227216   5.950   0.225   4.617
 8773SOL     OW27217   0.208   1.144   4.078
 8773SOL    HW127218   0.275   1.077   4.109
 8773SOL    HW227219   0.182   1.203   4.155
 8774SOL     OW27220   2.079   2.213   0.762
 8774SOL    HW127221   2.006   2.196   0.696
 8774SOL    HW227222   2.042   2.215   0.854
 8775SOL     OW27223   5.844   2.468   4.193
 8775SOL    HW127224   5.835   2.568   4.197
 8775SOL    HW227225   5.753   2.427   4.191
 8776SOL     OW27226   4.182   3.134   0.322
 8776SOL    HW127227   4.180   3.233   0.337
 8776SOL    HW227228   4.213   3.088   0.405
 8777SOL     OW27229   0.436   1.992   3.710
 8777SOL    HW127230   0.409   2.059   3.640
 8777SOL    HW227231   0.452   2.039   3.796
 8778SOL     OW27232   2.961   5.001   6.842
 8778SOL    HW127233   2.890   5.041   6.783
 8778SOL    HW227234   2.920   4.931   6.900
 8779SOL     OW27235   4.342   4.962   3.793
 8779SOL    HW127236   4.314   4.985   3.886
 8779SOL    HW227237   4.266   4.918   3.745
 8780SOL     OW27238   5.975   4.745   3.833
 8780SOL    HW127239   5.892   4.690   3.827
 8780SOL    HW227240   5.959   4.836   3.797
 8781SOL     OW27241   3.105   0.297   1.570
 8781SOL    HW127242   3.037   0.291   1.643
 8781SOL    HW227243   3.063   0.335   1.487
 8782SOL     OW27244   5.394   2.278   1.282
 8782SOL    HW127245   5.372   2.191   1.326
 8782SOL    HW227246   5.344   2.352   1.328
 8783SOL     OW27247   5.186   3.659   4.702
 8783SOL    HW127248   5.107   3.683   4.758
 8783SOL    HW227249   5.156   3.602   4.625
 8784SOL     OW27250   5.464   0.857   1.335
 8784SOL    HW127251   5.404   0.935   1.317
 8784SOL    HW227252   5.417   0.772   1.311
 8785SOL     OW27253   0.373   4.917   5.812
 8785SOL    HW127254   0.273   4.920   5.818
 8785SOL    HW227255   0.411   4.899   5.902
 8786SOL     OW27256   4.449   1.757   2.590
 8786SOL    HW127257   4.462   1.854   2.572
 8786SOL    HW227258   4.383   1.720   2.525
 8787SOL     OW27259   3.577   6.033   0.879
 8787SOL    HW127260   3.494   6.078   0.845
 8787SOL    HW227261   3.630   6.098   0.934
 8788SOL     OW27262   0.760   6.874   4.060
 8788SOL    HW127263   0.764   6.832   3.968
 8788SOL    HW227264   0.792   6.807   4.127
 8789SOL     OW27265   6.680   2.996   5.881
 8789SOL    HW127266   6.672   2.920   5.946
 8789SOL    HW227267   6.631   3.075   5.916
 8790SOL     OW27268   5.193   3.245   5.784
 8790SOL    HW127269   5.238   3.199   5.707
 8790SOL    HW227270   5.184   3.180   5.861
 8791SOL     OW27271   3.960   5.609   5.045
 8791SOL    HW127272   4.028   5.571   4.983
 8791SOL    HW227273   3.992   5.698   5.079
 8792SOL     OW27274   4.981   4.594   1.337
 8792SOL    HW127275   4.912   4.664   1.357
 8792SOL    HW227276   5.059   4.607   1.397
 8793SOL     OW27277   6.750   5.020   4.452
 8793SOL    HW127278   6.732   5.096   4.515
 8793SOL    HW227279   6.821   5.047   4.387
 8794SOL     OW27280   0.256   0.747   2.307
 8794SOL    HW127281   0.223   0.839   2.284
 8794SOL    HW227282   0.348   0.734   2.270
 8795SOL     OW27283   1.441   6.210   6.373
 8795SOL    HW127284   1.479   6.303   6.364
 8795SOL    HW227285   1.427   6.171   6.282
 8796SOL     OW27286   6.683   3.725   3.279
 8796SOL    HW127287   6.727   3.651   3.228
 8796SOL    HW227288   6.591   3.741   3.243
 8797SOL     OW27289   4.884   0.520   3.867
 8797SOL    HW127290   4.844   0.436   3.830
 8797SOL    HW227291   4.872   0.522   3.966
 8798SOL     OW27292   3.057   6.407   5.650
 8798SOL    HW127293   3.008   6.379   5.568
 8798SOL    HW227294   3.012   6.487   5.690
 8799SOL     OW27295   0.897   5.206   2.379
 8799SOL    HW127296   0.864   5.294   2.346
 8799SOL    HW227297   0.978   5.179   2.328
 8800SOL     OW27298   6.988   5.439   5.952
 8800SOL    HW127299   0.061   5.465   5.953
 8800SOL    HW227300   6.979   5.348   5.910
 8801SOL     OW27301   5.807   2.910   5.562
 8801SOL    HW127302   5.713   2.943   5.560
 8801SOL    HW227303   5.854   2.937   5.478
 8802SOL     OW27304   1.510   6.816   6.204
 8802SOL    HW127305   1.454   6.757   6.146
 8802SOL    HW227306   1.471   6.909   6.205
 8803SOL     OW27307   6.389   6.764   6.793
 8803SOL    HW127308   6.323   6.724   6.729
 8803SOL    HW227309   6.459   6.697   6.815
 8804SOL     OW27310   1.618   6.546   2.700
 8804SOL    HW127311   1.521   6.570   2.711
 8804SOL    HW227312   1.627   6.446   2.697
 8805SOL     OW27313   5.593   5.202   3.482
 8805SOL    HW127314   5.513   5.217   3.540
 8805SOL    HW227315   5.676   5.209   3.539
 8806SOL     OW27316   2.194   0.709   0.848
 8806SOL    HW127317   2.140   0.746   0.772
 8806SOL    HW227318   2.202   0.610   0.837
 8807SOL     OW27319   4.942   2.709   1.439
 8807SOL    HW127320   4.844   2.717   1.459
 8807SOL    HW227321   4.958   2.729   1.343
 8808SOL     OW27322   2.151   2.818   0.256
 8808SOL    HW127323   2.066   2.870   0.268
 8808SOL    HW227324   2.151   2.776   0.165
 8809SOL     OW27325   6.927   4.009   2.307
 8809SOL    HW127326   6.976   3.956   2.238
 8809SOL    HW227327   6.952   3.976   2.398
 8810SOL     OW27328   0.964   1.394   6.208
 8810SOL    HW127329   1.001   1.486   6.205
 8810SOL    HW227330   0.997   1.342   6.129
 8811SOL     OW27331   3.886   5.455   2.636
 8811SOL    HW127332   3.826   5.390   2.589
 8811SOL    HW227333   3.945   5.500   2.568
 8812SOL     OW27334   4.429   1.394   6.129
 8812SOL    HW127335   4.500   1.386   6.060
 8812SOL    HW227336   4.471   1.406   6.219
 8813SOL     OW27337   1.955   4.161   3.164
 8813SOL    HW127338   1.926   4.118   3.250
 8813SOL    HW227339   2.053   4.146   3.150
 8814SOL     OW27340   5.142   0.303   5.791
 8814SOL    HW127341   5.237   0.321   5.818
 8814SOL    HW227342   5.080   0.349   5.855
 8815SOL     OW27343   5.884   1.765   6.933
 8815SOL    HW127344   5.878   1.665   6.936
 8815SOL    HW227345   5.843   1.798   6.849
 8816SOL     OW27346   1.288   6.443   4.548
 8816SOL    HW127347   1.218   6.428   4.479
 8816SOL    HW227348   1.279   6.375   4.621
 8817SOL     OW27349   1.556   2.888   3.487
 8817SOL    HW127350   1.570   2.982   3.519
 8817SOL    HW227351   1.459   2.865   3.490
 8818SOL     OW27352   1.210   0.750   5.005
 8818SOL    HW127353   1.217   0.790   5.097
 8818SOL    HW227354   1.114   0.726   4.987
 8819SOL     OW27355   5.259   4.104   6.180
 8819SOL    HW127356   5.308   4.057   6.106
 8819SOL    HW227357   5.198   4.173   6.141
 8820SOL     OW27358   3.088   0.338   4.658
 8820SOL    HW127359   3.181   0.369   4.674
 8820SOL    HW227360   3.054   0.291   4.740
 8821SOL     OW27361   6.926   4.442   6.466
 8821SOL    HW127362   6.871   4.440   6.549
 8821SOL    HW227363   6.951   4.348   6.441
 8822SOL     OW27364   6.757   6.838   4.396
 8822SOL    HW127365   6.703   6.817   4.477
 8822SOL    HW227366   6.854   6.820   4.414
 8823SOL     OW27367   4.307   1.307   2.691
 8823SOL    HW127368   4.303   1.321   2.592
 8823SOL    HW227369   4.330   1.394   2.735
 8824SOL     OW27370   1.689   0.857   1.970
 8824SOL    HW127371   1.781   0.897   1.970
 8824SOL    HW227372   1.681   0.791   1.896
 8825SOL     OW27373   6.752   5.934   0.207
 8825SOL    HW127374   6.789   5.931   0.300
 8825SOL    HW227375   6.652   5.938   0.210
 8826SOL     OW27376   1.530   4.042   0.776
 8826SOL    HW127377   1.484   4.058   0.689
 8826SOL    HW227378   1.497   4.107   0.844
 8827SOL     OW27379   4.411   0.400   2.100
 8827SOL    HW127380   4.383   0.345   2.178
 8827SOL    HW227381   4.422   0.495   2.128
 8828SOL     OW27382   3.256   3.054   6.019
 8828SOL    HW127383   3.233   3.148   5.996
 8828SOL    HW227384   3.349   3.051   6.057
 8829SOL     OW27385   6.453   1.313   1.804
 8829SOL    HW127386   6.357   1.338   1.811
 8829SOL    HW227387   6.503   1.349   1.882
 8830SOL     OW27388   3.110   0.842   3.186
 8830SOL    HW127389   3.033   0.807   3.238
 8830SOL    HW227390   3.142   0.772   3.122
 8831SOL     OW27391   0.180   2.671   2.292
 8831SOL    HW127392   0.154   2.742   2.226
 8831SOL    HW227393   0.278   2.677   2.310
 8832SOL     OW27394   5.769   0.722   4.529
 8832SOL    HW127395   5.758   0.666   4.612
 8832SOL    HW227396   5.842   0.683   4.472
 8833SOL     OW27397   4.327   2.669   1.456
 8833SOL    HW127398   4.378   2.633   1.378
 8833SOL    HW227399   4.391   2.696   1.528
 8834SOL     OW27400   5.580   4.245   5.363
 8834SOL    HW127401   5.593   4.335   5.405
 8834SOL    HW227402   5.669   4.205   5.342
 8835SOL     OW27403   6.993   0.620   6.136
 8835SOL    HW127404   0.003   0.714   6.130
 8835SOL    HW227405   6.987   0.593   6.232
 8836SOL     OW27406   4.741   1.750   1.267
 8836SOL    HW127407   4.801   1.806   1.210
 8836SOL    HW227408   4.647   1.786   1.261
 8837SOL     OW27409   4.764   0.044   0.628
 8837SOL    HW127410   4.666   0.028   0.638
 8837SOL    HW227411   4.798   0.091   0.710
 8838SOL     OW27412   1.128   3.708   2.495
 8838SOL    HW127413   1.049   3.661   2.456
 8838SOL    HW227414   1.117   3.717   2.594
 8839SOL     OW27415   4.948   5.312   3.372
 8839SOL    HW127416   4.979   5.330   3.278
 8839SOL    HW227417   5.028   5.298   3.431
 8840SOL     OW27418   6.935   0.665   1.343
 8840SOL    HW127419   6.843   0.648   1.308
 8840SOL    HW227420   6.964   0.588   1.400
 8841SOL     OW27421   3.618   0.497   1.035
 8841SOL    HW127422   3.546   0.566   1.047
 8841SOL    HW227423   3.593   0.414   1.084
 8842SOL     OW27424   3.335   3.339   4.447
 8842SOL    HW127425   3.338   3.421   4.504
 8842SOL    HW227426   3.248   3.337   4.397
 8843SOL     OW27427   2.591   5.602   6.814
 8843SOL    HW127428   2.522   5.564   6.876
 8843SOL    HW227429   2.681   5.567   6.838
 8844SOL     OW27430   3.984   2.269   5.883
 8844SOL    HW127431   3.899   2.232   5.921
 8844SOL    HW227432   3.966   2.359   5.844
 8845SOL     OW27433   6.793   4.833   1.671
 8845SOL    HW127434   6.704   4.787   1.679
 8845SOL    HW227435   6.865   4.774   1.707
 8846SOL     OW27436   5.950   4.445   4.926
 8846SOL    HW127437   5.898   4.368   4.963
 8846SOL    HW227438   5.920   4.464   4.833
 8847SOL     OW27439   2.512   1.501   3.557
 8847SOL    HW127440   2.446   1.475   3.487
 8847SOL    HW227441   2.561   1.583   3.528
 8848SOL     OW27442   3.724   1.273   0.884
 8848SOL    HW127443   3.717   1.372   0.892
 8848SOL    HW227444   3.783   1.250   0.808
 8849SOL     OW27445   2.599   4.922   4.607
 8849SOL    HW127446   2.663   4.991   4.643
 8849SOL    HW227447   2.645   4.834   4.604
 8850SOL     OW27448   2.923   0.904   1.610
 8850SOL    HW127449   2.840   0.856   1.582
 8850SOL    HW227450   2.942   0.978   1.547
 8851SOL     OW27451   0.139   4.808   2.330
 8851SOL    HW127452   0.063   4.753   2.365
 8851SOL    HW227453   0.218   4.798   2.391
 8852SOL     OW27454   4.548   2.549   4.756
 8852SOL    HW127455   4.516   2.554   4.850
 8852SOL    HW227456   4.592   2.635   4.731
 8853SOL     OW27457   4.143   1.528   5.755
 8853SOL    HW127458   4.181   1.445   5.715
 8853SOL    HW227459   4.136   1.517   5.855
 8854SOL     OW27460   0.832   2.071   6.924
 8854SOL    HW127461   0.911   2.090   6.983
 8854SOL    HW227462   0.848   1.987   6.872
 8855SOL     OW27463   6.250   5.309   0.058
 8855SOL    HW127464   6.275   5.382   0.122
 8855SOL    HW227465   6.227   5.349   6.993
 8856SOL     OW27466   5.712   1.089   4.182
 8856SOL    HW127467   5.737   1.090   4.278
 8856SOL    HW227468   5.795   1.090   4.126
 8857SOL     OW27469   0.333   2.953   4.093
 8857SOL    HW127470   0.277   2.991   4.166
 8857SOL    HW227471   0.368   3.027   4.036
 8858SOL     OW27472   0.273   3.701   6.447
 8858SOL    HW127473   0.232   3.788   6.419
 8858SOL    HW227474   0.361   3.719   6.492
 8859SOL     OW27475   2.653   5.394   5.314
 8859SOL    HW127476   2.746   5.399   5.353
 8859SOL    HW227477   2.593   5.457   5.364
 8860SOL     OW27478   1.030   2.328   1.809
 8860SOL    HW127479   1.107   2.375   1.852
 8860SOL    HW227480   0.952   2.391   1.802
 8861SOL     OW27481   3.252   3.711   0.410
 8861SOL    HW127482   3.351   3.711   0.422
 8861SOL    HW227483   3.223   3.800   0.374
 8862SOL     OW27484   6.480   2.667   4.189
 8862SOL    HW127485   6.398   2.623   4.152
 8862SOL    HW227486   6.482   2.763   4.161
 8863SOL     OW27487   2.234   5.307   5.224
 8863SOL    HW127488   2.280   5.282   5.309
 8863SOL    HW227489   2.226   5.227   5.165
 8864SOL     OW27490   0.868   2.499   6.735
 8864SOL    HW127491   0.779   2.458   6.756
 8864SOL    HW227492   0.911   2.530   6.820
 8865SOL     OW27493   3.377   2.439   5.983
 8865SOL    HW127494   3.413   2.529   5.958
 8865SOL    HW227495   3.303   2.415   5.920
 8866SOL     OW27496   3.667   6.553   4.465
 8866SOL    HW127497   3.726   6.633   4.452
 8866SOL    HW227498   3.582   6.565   4.414
 8867SOL     OW27499   0.497   2.883   3.506
 8867SOL    HW127500   0.487   2.973   3.548
 8867SOL    HW227501   0.411   2.833   3.512
 8868SOL     OW27502   3.720   3.703   0.158
 8868SOL    HW127503   3.780   3.661   0.226
 8868SOL    HW227504   3.775   3.744   0.085
 8869SOL     OW27505   5.681   3.029   4.088
 8869SOL    HW127506   5.755   3.066   4.031
 8869SOL    HW227507   5.646   3.101   4.148
 8870SOL     OW27508   4.568   1.352   0.699
 8870SOL    HW127509   4.664   1.323   0.701
 8870SOL    HW227510   4.560   1.433   0.641
 8871SOL     OW27511   2.127   2.032   4.491
 8871SOL    HW127512   2.039   2.070   4.519
 8871SOL    HW227513   2.149   1.954   4.548
 8872SOL     OW27514   2.034   3.085   4.460
 8872SOL    HW127515   2.004   3.177   4.484
 8872SOL    HW227516   2.126   3.069   4.496
 8873SOL     OW27517   0.152   5.736   4.659
 8873SOL    HW127518   0.097   5.803   4.609
 8873SOL    HW227519   0.172   5.658   4.599
 8874SOL     OW27520   2.615   0.943   0.685
 8874SOL    HW127521   2.561   0.917   0.604
 8874SOL    HW227522   2.654   0.860   0.726
 8875SOL     OW27523   1.834   2.441   4.418
 8875SOL    HW127524   1.827   2.539   4.397
 8875SOL    HW227525   1.834   2.389   4.333
 8876SOL     OW27526   1.691   0.188   4.471
 8876SOL    HW127527   1.657   0.282   4.481
 8876SOL    HW227528   1.743   0.163   4.552
 8877SOL     OW27529   2.907   6.629   5.136
 8877SOL    HW127530   2.889   6.532   5.151
 8877SOL    HW227531   2.973   6.640   5.062
 8878SOL     OW27532   6.396   4.551   6.789
 8878SOL    HW127533   6.309   4.504   6.772
 8878SOL    HW227534   6.450   4.498   6.855
 8879SOL     OW27535   4.984   6.448   4.896
 8879SOL    HW127536   5.020   6.538   4.921
 8879SOL    HW227537   4.966   6.446   4.798
 8880SOL     OW27538   0.006   4.986   5.596
 8880SOL    HW127539   6.992   4.922   5.663
 8880SOL    HW227540   0.025   5.074   5.640
 8881SOL     OW27541   6.261   0.315   1.152
 8881SOL    HW127542   6.233   0.220   1.167
 8881SOL    HW227543   6.336   0.317   1.087
 8882SOL     OW27544   5.617   1.878   6.154
 8882SOL    HW127545   5.527   1.833   6.154
 8882SOL    HW227546   5.659   1.867   6.244
 8883SOL     OW27547   6.546   1.270   5.916
 8883SOL    HW127548   6.509   1.277   5.823
 8883SOL    HW227549   6.638   1.309   5.918
 8884SOL     OW27550   6.948   6.511   6.312
 8884SOL    HW127551   6.868   6.561   6.346
 8884SOL    HW227552   6.934   6.485   6.217
 8885SOL     OW27553   5.025   3.972   1.950
 8885SOL    HW127554   5.080   4.017   1.879
 8885SOL    HW227555   5.072   3.889   1.981
 8886SOL     OW27556   3.309   0.059   6.966
 8886SOL    HW127557   3.377   7.010   6.968
 8886SOL    HW227558   3.259   0.056   6.879
 8887SOL     OW27559   2.836   1.263   1.083
 8887SOL    HW127560   2.807   1.223   0.996
 8887SOL    HW227561   2.928   1.300   1.073
 8888SOL     OW27562   2.899   1.675   2.521
 8888SOL    HW127563   2.920   1.711   2.430
 8888SOL    HW227564   2.956   1.595   2.540
 8889SOL     OW27565   3.463   0.098   4.831
 8889SOL    HW127566   3.466   0.078   4.733
 8889SOL    HW227567   3.538   0.159   4.855
 8890SOL     OW27568   0.736   5.242   4.220
 8890SOL    HW127569   0.702   5.159   4.264
 8890SOL    HW227570   0.798   5.290   4.282
 8891SOL     OW27571   3.888   2.621   6.684
 8891SOL    HW127572   3.890   2.587   6.778
 8891SOL    HW227573   3.855   2.549   6.623
 8892SOL     OW27574   1.446   6.173   2.390
 8892SOL    HW127575   1.542   6.197   2.378
 8892SOL    HW227576   1.391   6.221   2.321
 8893SOL     OW27577   0.801   1.211   0.950
 8893SOL    HW127578   0.803   1.310   0.937
 8893SOL    HW227579   0.878   1.169   0.902
 8894SOL     OW27580   3.804   2.474   6.192
 8894SOL    HW127581   3.767   2.520   6.274
 8894SOL    HW227582   3.903   2.489   6.188
 8895SOL     OW27583   0.835   6.592   2.752
 8895SOL    HW127584   0.862   6.528   2.679
 8895SOL    HW227585   0.738   6.615   2.742
 8896SOL     OW27586   1.191   3.412   4.723
 8896SOL    HW127587   1.143   3.359   4.653
 8896SOL    HW227588   1.127   3.475   4.767
 8897SOL     OW27589   1.575   2.499   1.448
 8897SOL    HW127590   1.571   2.585   1.499
 8897SOL    HW227591   1.670   2.478   1.426
 8898SOL     OW27592   5.324   4.233   4.235
 8898SOL    HW127593   5.323   4.148   4.182
 8898SOL    HW227594   5.266   4.300   4.189
 8899SOL     OW27595   1.859   4.192   6.794
 8899SOL    HW127596   1.929   4.263   6.789
 8899SOL    HW227597   1.834   4.177   6.890
 8900SOL     OW27598   5.734   1.950   4.068
 8900SOL    HW127599   5.825   1.935   4.107
 8900SOL    HW227600   5.741   2.013   3.991
 8901SOL     OW27601   2.005   6.864   2.926
 8901SOL    HW127602   1.960   6.780   2.954
 8901SOL    HW227603   1.944   6.942   2.942
 8902SOL     OW27604   1.731   5.686   6.104
 8902SOL    HW127605   1.761   5.592   6.121
 8902SOL    HW227606   1.763   5.746   6.177
 8903SOL     OW27607   2.132   1.272   2.914
 8903SOL    HW127608   2.034   1.288   2.906
 8903SOL    HW227609   2.165   1.225   2.831
 8904SOL     OW27610   1.458   6.274   3.002
 8904SOL    HW127611   1.373   6.301   3.049
 8904SOL    HW227612   1.446   6.183   2.962
 8905SOL     OW27613   2.717   3.816   5.457
 8905SOL    HW127614   2.695   3.907   5.422
 8905SOL    HW227615   2.640   3.755   5.441
 8906SOL     OW27616   0.240   5.771   5.799
 8906SOL    HW127617   0.197   5.825   5.871
 8906SOL    HW227618   0.336   5.797   5.790
 8907SOL     OW27619   3.348   2.831   5.665
 8907SOL    HW127620   3.274   2.899   5.671
 8907SOL    HW227621   3.407   2.853   5.588
 8908SOL     OW27622   0.550   2.769   0.963
 8908SOL    HW127623   0.608   2.850   0.975
 8908SOL    HW227624   0.586   2.712   0.889
 8909SOL     OW27625   2.616   0.579   6.402
 8909SOL    HW127626   2.530   0.560   6.449
 8909SOL    HW227627   2.600   0.642   6.326
 8910SOL     OW27628   3.416   3.625   6.668
 8910SOL    HW127629   3.344   3.595   6.604
 8910SOL    HW227630   3.475   3.692   6.622
 8911SOL     OW27631   3.954   2.073   3.980
 8911SOL    HW127632   3.855   2.084   3.970
 8911SOL    HW227633   3.974   1.980   4.011
 8912SOL     OW27634   4.973   2.930   5.713
 8912SOL    HW127635   5.062   2.892   5.688
 8912SOL    HW227636   4.900   2.879   5.667
 8913SOL     OW27637   5.546   3.859   1.088
 8913SOL    HW127638   5.596   3.773   1.101
 8913SOL    HW227639   5.460   3.855   1.139
 8914SOL     OW27640   4.176   2.013   4.819
 8914SOL    HW127641   4.098   2.001   4.757
 8914SOL    HW227642   4.143   2.049   4.906
 8915SOL     OW27643   1.616   5.070   2.405
 8915SOL    HW127644   1.637   5.057   2.308
 8915SOL    HW227645   1.698   5.051   2.459
 8916SOL     OW27646   6.437   3.141   2.152
 8916SOL    HW127647   6.519   3.084   2.149
 8916SOL    HW227648   6.358   3.084   2.175
 8917SOL     OW27649   6.095   5.368   6.722
 8917SOL    HW127650   6.184   5.330   6.748
 8917SOL    HW227651   6.106   5.464   6.699
 8918SOL     OW27652   4.549   5.269   6.195
 8918SOL    HW127653   4.623   5.265   6.262
 8918SOL    HW227654   4.566   5.344   6.131
 8919SOL     OW27655   2.429   4.922   1.047
 8919SOL    HW127656   2.511   4.865   1.033
 8919SOL    HW227657   2.441   4.978   1.128
 8920SOL     OW27658   6.285   5.669   5.573
 8920SOL    HW127659   6.306   5.703   5.481
 8920SOL    HW227660   6.322   5.577   5.584
 8921SOL     OW27661   1.804   0.223   4.011
 8921SOL    HW127662   1.715   0.199   3.971
 8921SOL    HW227663   1.875   0.212   3.941
 8922SOL     OW27664   0.118   4.232   6.680
 8922SOL    HW127665   0.172   4.316   6.694
 8922SOL    HW227666   0.144   4.164   6.749
 8923SOL     OW27667   2.069   4.026   6.006
 8923SOL    HW127668   2.062   3.995   5.912
 8923SOL    HW227669   2.131   3.966   6.057
 8924SOL     OW27670   2.572   5.348   5.664
 8924SOL    HW127671   2.523   5.268   5.631
 8924SOL    HW227672   2.552   5.427   5.606
 8925SOL     OW27673   6.979   6.448   2.245
 8925SOL    HW127674   0.033   6.417   2.300
 8925SOL    HW227675   7.009   6.465   2.151
 8926SOL     OW27676   5.694   1.793   0.975
 8926SOL    HW127677   5.750   1.764   1.052
 8926SOL    HW227678   5.742   1.774   0.889
 8927SOL     OW27679   2.401   1.812   4.963
 8927SOL    HW127680   2.474   1.866   4.922
 8927SOL    HW227681   2.435   1.721   4.985
 8928SOL     OW27682   0.497   0.097   5.507
 8928SOL    HW127683   0.548   0.172   5.463
 8928SOL    HW227684   0.418   0.134   5.555
 8929SOL     OW27685   5.769   3.459   3.838
 8929SOL    HW127686   5.836   3.417   3.775
 8929SOL    HW227687   5.781   3.558   3.838
 8930SOL     OW27688   0.761   4.933   4.995
 8930SOL    HW127689   0.799   4.845   4.967
 8930SOL    HW227690   0.748   4.934   5.094
 8931SOL     OW27691   4.806   1.296   0.281
 8931SOL    HW127692   4.810   1.386   0.324
 8931SOL    HW227693   4.719   1.253   0.302
 8932SOL     OW27694   6.776   6.889   0.032
 8932SOL    HW127695   6.797   6.884   6.958
 8932SOL    HW227696   6.829   6.963   0.074
 8933SOL     OW27697   1.283   0.184   5.381
 8933SOL    HW127698   1.380   0.208   5.369
 8933SOL    HW227699   1.246   0.235   5.459
 8934SOL     OW27700   3.645   5.773   2.925
 8934SOL    HW127701   3.640   5.676   2.951
 8934SOL    HW227702   3.701   5.782   2.842
 8935SOL     OW27703   5.740   2.056   3.130
 8935SOL    HW127704   5.695   2.085   3.215
 8935SOL    HW227705   5.838   2.074   3.137
 8936SOL     OW27706   1.032   4.975   2.262
 8936SOL    HW127707   1.079   4.971   2.174
 8936SOL    HW227708   1.075   4.911   2.326
 8937SOL     OW27709   4.957   0.158   4.532
 8937SOL    HW127710   4.966   0.257   4.525
 8937SOL    HW227711   5.047   0.116   4.519
 8938SOL     OW27712   6.157   0.440   1.605
 8938SOL    HW127713   6.203   0.467   1.690
 8938SOL    HW227714   6.207   0.364   1.563
 8939SOL     OW27715   0.226   3.276   3.294
 8939SOL    HW127716   0.142   3.223   3.302
 8939SOL    HW227717   0.262   3.267   3.201
 8940SOL     OW27718   6.489   2.691   0.645
 8940SOL    HW127719   6.489   2.778   0.596
 8940SOL    HW227720   6.423   2.629   0.603
 8941SOL     OW27721   4.413   2.649   1.744
 8941SOL    HW127722   4.470   2.602   1.811
 8941SOL    HW227723   4.330   2.596   1.727
 8942SOL     OW27724   5.619   4.715   4.587
 8942SOL    HW127725   5.639   4.706   4.685
 8942SOL    HW227726   5.656   4.636   4.538
 8943SOL     OW27727   4.837   4.042   6.816
 8943SOL    HW127728   4.891   3.987   6.752
 8943SOL    HW227729   4.834   3.996   6.905
 8944SOL     OW27730   5.813   5.626   4.863
 8944SOL    HW127731   5.822   5.670   4.774
 8944SOL    HW227732   5.718   5.631   4.894
 8945SOL     OW27733   5.661   4.474   4.452
 8945SOL    HW127734   5.618   4.384   4.459
 8945SOL    HW227735   5.692   4.489   4.358
 8946SOL     OW27736   4.833   1.347   5.429
 8946SOL    HW127737   4.904   1.382   5.369
 8946SOL    HW227738   4.782   1.424   5.468
 8947SOL     OW27739   2.166   5.562   6.849
 8947SOL    HW127740   2.216   5.629   6.795
 8947SOL    HW227741   2.230   5.507   6.903
 8948SOL     OW27742   6.226   0.951   2.876
 8948SOL    HW127743   6.258   0.879   2.938
 8948SOL    HW227744   6.303   0.983   2.820
 8949SOL     OW27745   3.739   6.621   0.579
 8949SOL    HW127746   3.652   6.648   0.537
 8949SOL    HW227747   3.723   6.597   0.675
 8950SOL     OW27748   3.873   3.620   0.388
 8950SOL    HW127749   3.813   3.661   0.457
 8950SOL    HW227750   3.875   3.521   0.402
 8951SOL     OW27751   2.259   1.415   4.561
 8951SOL    HW127752   2.255   1.514   4.556
 8951SOL    HW227753   2.246   1.385   4.655
 8952SOL     OW27754   1.621   3.904   4.356
 8952SOL    HW127755   1.712   3.912   4.397
 8952SOL    HW227756   1.629   3.874   4.262
 8953SOL     OW27757   1.046   4.508   1.177
 8953SOL    HW127758   0.954   4.474   1.156
 8953SOL    HW227759   1.058   4.512   1.277
 8954SOL     OW27760   1.890   5.115   5.354
 8954SOL    HW127761   1.798   5.084   5.335
 8954SOL    HW227762   1.916   5.185   5.287
 8955SOL     OW27763   5.483   2.180   4.358
 8955SOL    HW127764   5.453   2.272   4.333
 8955SOL    HW227765   5.453   2.159   4.451
 8956SOL     OW27766   0.718   5.320   6.596
 8956SOL    HW127767   0.666   5.327   6.682
 8956SOL    HW227768   0.656   5.335   6.519
 8957SOL     OW27769   0.198   5.981   3.225
 8957SOL    HW127770   0.243   6.070   3.239
 8957SOL    HW227771   0.218   5.948   3.133
 8958SOL     OW27772   1.743   3.028   5.053
 8958SOL    HW127773   1.670   3.082   5.094
 8958SOL    HW227774   1.826   3.083   5.048
 8959SOL     OW27775   6.701   2.564   3.091
 8959SOL    HW127776   6.638   2.641   3.092
 8959SOL    HW227777   6.664   2.492   3.032
 8960SOL     OW27778   5.428   4.577   3.050
 8960SOL    HW127779   5.403   4.596   2.955
 8960SOL    HW227780   5.487   4.651   3.084
 8961SOL     OW27781   1.869   0.569   5.405
 8961SOL    HW127782   1.936   0.625   5.356
 8961SOL    HW227783   1.870   0.593   5.502
 8962SOL     OW27784   0.005   5.885   2.347
 8962SOL    HW127785   7.003   5.976   2.315
 8962SOL    HW227786   0.034   5.890   2.443
 8963SOL     OW27787   5.144   0.067   4.842
 8963SOL    HW127788   5.128   0.000   4.769
 8963SOL    HW227789   5.140   0.020   4.931
 8964SOL     OW27790   1.617   3.505   3.984
 8964SOL    HW127791   1.573   3.427   4.030
 8964SOL    HW227792   1.552   3.581   3.979
 8965SOL     OW27793   3.772   6.271   6.285
 8965SOL    HW127794   3.756   6.314   6.374
 8965SOL    HW227795   3.713   6.191   6.276
 8966SOL     OW27796   4.360   5.529   5.201
 8966SOL    HW127797   4.326   5.442   5.165
 8966SOL    HW227798   4.282   5.583   5.236
 8967SOL     OW27799   3.343   0.005   4.051
 8967SOL    HW127800   3.302   6.941   4.026
 8967SOL    HW227801   3.290   0.047   4.125
 8968SOL     OW27802   3.934   5.482   2.220
 8968SOL    HW127803   3.897   5.390   2.210
 8968SOL    HW227804   3.869   5.539   2.270
 8969SOL     OW27805   1.298   0.780   2.446
 8969SOL    HW127806   1.200   0.800   2.445
 8969SOL    HW227807   1.313   0.689   2.407
 8970SOL     OW27808   2.147   0.725   4.076
 8970SOL    HW127809   2.225   0.754   4.131
 8970SOL    HW227810   2.077   0.796   4.077
 8971SOL     OW27811   3.715   4.822   0.491
 8971SOL    HW127812   3.709   4.761   0.570
 8971SOL    HW227813   3.679   4.775   0.410
 8972SOL     OW27814   5.797   3.837   0.883
 8972SOL    HW127815   5.741   3.763   0.919
 8972SOL    HW227816   5.762   3.865   0.794
 8973SOL     OW27817   1.276   2.665   3.451
 8973SOL    HW127818   1.267   2.697   3.357
 8973SOL    HW227819   1.338   2.586   3.454
 8974SOL     OW27820   2.336   4.272   4.672
 8974SOL    HW127821   2.420   4.235   4.711
 8974SOL    HW227822   2.270   4.290   4.745
 8975SOL     OW27823   6.745   5.589   5.986
 8975SOL    HW127824   6.815   5.520   5.972
 8975SOL    HW227825   6.660   5.545   6.017
 8976SOL     OW27826   6.447   6.354   2.121
 8976SOL    HW127827   6.522   6.354   2.055
 8976SOL    HW227828   6.359   6.353   2.072
 8977SOL     OW27829   6.936   4.891   6.217
 8977SOL    HW127830   6.931   4.883   6.118
 8977SOL    HW227831   6.951   4.800   6.257
 8978SOL     OW27832   5.672   6.126   6.605
 8978SOL    HW127833   5.611   6.053   6.634
 8978SOL    HW227834   5.748   6.134   6.670
 8979SOL     OW27835   1.256   4.823   5.623
 8979SOL    HW127836   1.322   4.789   5.556
 8979SOL    HW227837   1.302   4.883   5.689
 8980SOL     OW27838   3.384   0.349   6.455
 8980SOL    HW127839   3.437   0.395   6.526
 8980SOL    HW227840   3.410   0.253   6.451
 8981SOL     OW27841   4.557   3.434   6.895
 8981SOL    HW127842   4.502   3.418   6.977
 8981SOL    HW227843   4.497   3.448   6.817
 8982SOL     OW27844   0.412   1.757   1.434
 8982SOL    HW127845   0.449   1.829   1.375
 8982SOL    HW227846   0.386   1.797   1.522
 8983SOL     OW27847   1.196   6.935   2.073
 8983SOL    HW127848   1.228   6.979   1.989
 8983SOL    HW227849   1.109   6.974   2.101
 8984SOL     OW27850   6.611   0.374   4.176
 8984SOL    HW127851   6.540   0.360   4.245
 8984SOL    HW227852   6.617   0.472   4.154
 8985SOL     OW27853   4.924   1.904   1.120
 8985SOL    HW127854   4.998   1.838   1.105
 8985SOL    HW227855   4.960   1.985   1.165
 8986SOL     OW27856   7.010   5.064   0.463
 8986SOL    HW127857   0.053   5.006   0.417
 8986SOL    HW227858   7.004   5.037   0.560
 8987SOL     OW27859   2.175   0.181   2.064
 8987SOL    HW127860   2.088   0.134   2.072
 8987SOL    HW227861   2.239   0.125   2.012
 8988SOL     OW27862   1.914   5.866   2.099
 8988SOL    HW127863   1.863   5.878   2.185
 8988SOL    HW227864   1.901   5.947   2.042
 8989SOL     OW27865   5.401   1.534   2.826
 8989SOL    HW127866   5.345   1.488   2.757
 8989SOL    HW227867   5.341   1.574   2.896
 8990SOL     OW27868   3.483   0.787   1.590
 8990SOL    HW127869   3.550   0.859   1.607
 8990SOL    HW227870   3.430   0.808   1.508
 8991SOL     OW27871   2.034   2.183   1.230
 8991SOL    HW127872   1.978   2.224   1.157
 8991SOL    HW227873   2.104   2.125   1.189
 8992SOL     OW27874   1.039   4.076   0.030
 8992SOL    HW127875   0.985   4.113   6.978
 8992SOL    HW227876   1.134   4.107   0.022
 8993SOL     OW27877   6.206   3.953   4.074
 8993SOL    HW127878   6.126   4.012   4.088
 8993SOL    HW227879   6.181   3.858   4.095
 8994SOL     OW27880   1.171   4.819   3.004
 8994SOL    HW127881   1.257   4.869   3.007
 8994SOL    HW227882   1.184   4.734   2.951
 8995SOL     OW27883   2.119   3.967   4.844
 8995SOL    HW127884   2.197   3.957   4.906
 8995SOL    HW227885   2.034   3.954   4.895
 8996SOL     OW27886   0.615   3.520   2.304
 8996SOL    HW127887   0.570   3.441   2.345
 8996SOL    HW227888   0.694   3.490   2.250
 8997SOL     OW27889   4.080   1.838   5.787
 8997SOL    HW127890   4.051   1.894   5.709
 8997SOL    HW227891   4.003   1.785   5.821
 8998SOL     OW27892   0.837   2.098   6.281
 8998SOL    HW127893   0.791   2.171   6.229
 8998SOL    HW227894   0.812   2.106   6.377
 8999SOL     OW27895   5.825   0.976   4.755
 8999SOL    HW127896   5.796   0.942   4.666
 8999SOL    HW227897   5.899   0.918   4.790
 9000SOL     OW27898   3.236   4.082   0.512
 9000SOL    HW127899   3.175   4.015   0.472
 9000SOL    HW227900   3.185   4.140   0.576
 9001SOL     OW27901   1.531   4.300   3.481
 9001SOL    HW127902   1.501   4.226   3.541
 9001SOL    HW227903   1.465   4.374   3.483
 9002SOL     OW27904   5.335   4.792   5.630
 9002SOL    HW127905   5.252   4.770   5.681
 9002SOL    HW227906   5.312   4.805   5.534
 9003SOL     OW27907   5.502   2.557   6.004
 9003SOL    HW127908   5.544   2.473   5.968
 9003SOL    HW227909   5.403   2.551   5.994
 9004SOL     OW27910   4.290   5.918   1.284
 9004SOL    HW127911   4.228   5.849   1.322
 9004SOL    HW227912   4.238   5.998   1.254
 9005SOL     OW27913   4.838   2.029   3.339
 9005SOL    HW127914   4.861   1.985   3.252
 9005SOL    HW227915   4.823   1.958   3.409
 9006SOL     OW27916   1.437   6.238   0.936
 9006SOL    HW127917   1.510   6.175   0.908
 9006SOL    HW227918   1.429   6.237   1.036
 9007SOL     OW27919   2.832   6.455   4.564
 9007SOL    HW127920   2.817   6.415   4.655
 9007SOL    HW227921   2.756   6.428   4.504
 9008SOL     OW27922   6.425   4.926   2.610
 9008SOL    HW127923   6.428   4.914   2.511
 9008SOL    HW227924   6.376   4.850   2.652
 9009SOL     OW27925   3.590   6.326   1.175
 9009SOL    HW127926   3.579   6.266   1.255
 9009SOL    HW227927   3.501   6.362   1.148
 9010SOL     OW27928   1.010   6.052   4.810
 9010SOL    HW127929   1.085   6.106   4.849
 9010SOL    HW227930   0.938   6.113   4.778
 9011SOL     OW27931   4.348   1.776   0.972
 9011SOL    HW127932   4.414   1.780   0.898
 9011SOL    HW227933   4.369   1.846   1.040
 9012SOL     OW27934   6.917   5.607   1.397
 9012SOL    HW127935   6.908   5.507   1.402
 9012SOL    HW227936   6.893   5.638   1.306
 9013SOL     OW27937   5.173   6.414   3.778
 9013SOL    HW127938   5.144   6.508   3.799
 9013SOL    HW227939   5.094   6.353   3.784
 9014SOL     OW27940   2.724   1.135   0.878
 9014SOL    HW127941   2.661   1.111   0.952
 9014SOL    HW227942   2.715   1.070   0.803
 9015SOL     OW27943   7.014   1.265   5.668
 9015SOL    HW127944   0.026   1.198   5.733
 9015SOL    HW227945   0.042   1.350   5.676
 9016SOL     OW27946   6.717   6.290   6.536
 9016SOL    HW127947   6.708   6.216   6.603
 9016SOL    HW227948   6.737   6.252   6.446
 9017SOL     OW27949   0.081   3.513   3.337
 9017SOL    HW127950   0.153   3.447   3.359
 9017SOL    HW227951   7.022   3.465   3.310
 9018SOL     OW27952   3.521   2.513   5.387
 9018SOL    HW127953   3.542   2.511   5.485
 9018SOL    HW227954   3.533   2.421   5.348
 9019SOL     OW27955   1.765   0.543   0.903
 9019SOL    HW127956   1.792   0.630   0.944
 9019SOL    HW227957   1.798   0.467   0.960
 9020SOL     OW27958   0.557   4.929   3.631
 9020SOL    HW127959   0.642   4.922   3.682
 9020SOL    HW227960   0.577   4.937   3.534
 9021SOL     OW27961   6.904   5.582   4.606
 9021SOL    HW127962   6.837   5.650   4.634
 9021SOL    HW227963   6.927   5.523   4.683
 9022SOL     OW27964   3.269   0.592   6.850
 9022SOL    HW127965   3.354   0.554   6.886
 9022SOL    HW227966   3.250   0.678   6.896
 9023SOL     OW27967   3.119   3.185   3.308
 9023SOL    HW127968   3.080   3.161   3.219
 9023SOL    HW227969   3.200   3.128   3.325
 9024SOL     OW27970   1.693   6.810   0.295
 9024SOL    HW127971   1.709   6.900   0.336
 9024SOL    HW227972   1.640   6.754   0.359
 9025SOL     OW27973   5.999   4.706   0.965
 9025SOL    HW127974   5.971   4.774   1.033
 9025SOL    HW227975   5.930   4.635   0.959
 9026SOL     OW27976   3.429   2.981   5.252
 9026SOL    HW127977   3.472   2.970   5.342
 9026SOL    HW227978   3.330   2.978   5.263
 9027SOL     OW27979   2.066   2.624   2.844
 9027SOL    HW127980   2.007   2.632   2.924
 9027SOL    HW227981   2.119   2.709   2.833
 9028SOL     OW27982   2.699   4.671   4.584
 9028SOL    HW127983   2.622   4.609   4.571
 9028SOL    HW227984   2.761   4.663   4.506
 9029SOL     OW27985   5.185   5.364   3.026
 9029SOL    HW127986   5.143   5.449   3.057
 9029SOL    HW227987   5.228   5.318   3.103
 9030SOL     OW27988   2.716   1.605   1.653
 9030SOL    HW127989   2.759   1.634   1.739
 9030SOL    HW227990   2.618   1.623   1.657
 9031SOL     OW27991   2.148   0.149   6.590
 9031SOL    HW127992   2.238   0.106   6.602
 9031SOL    HW227993   2.087   0.117   6.663
 9032SOL     OW27994   2.049   1.161   1.622
 9032SOL    HW127995   2.042   1.191   1.717
 9032SOL    HW227996   2.132   1.199   1.582
 9033SOL     OW27997   0.778   3.207   2.262
 9033SOL    HW127998   0.683   3.239   2.272
 9033SOL    HW227999   0.801   3.148   2.339
 9034SOL     OW28000   2.893   6.645   5.754
 9034SOL    HW128001   2.796   6.621   5.745
 9034SOL    HW228002   2.906   6.696   5.839
 9035SOL     OW28003   6.785   1.408   4.465
 9035SOL    HW128004   6.790   1.498   4.507
 9035SOL    HW228005   6.813   1.414   4.369
 9036SOL     OW28006   1.484   2.123   5.192
 9036SOL    HW128007   1.519   2.216   5.199
 9036SOL    HW228008   1.546   2.060   5.240
 9037SOL     OW28009   2.051   3.662   6.140
 9037SOL    HW128010   2.088   3.638   6.051
 9037SOL    HW228011   1.961   3.705   6.129
 9038SOL     OW28012   5.997   6.495   5.390
 9038SOL    HW128013   5.946   6.580   5.375
 9038SOL    HW228014   5.933   6.418   5.397
 9039SOL     OW28015   2.274   5.372   5.747
 9039SOL    HW128016   2.292   5.461   5.789
 9039SOL    HW228017   2.287   5.300   5.815
 9040SOL     OW28018   1.908   1.159   2.443
 9040SOL    HW128019   1.977   1.087   2.429
 9040SOL    HW228020   1.829   1.121   2.491
 9041SOL     OW28021   1.705   3.126   0.032
 9041SOL    HW128022   1.659   3.145   6.969
 9041SOL    HW228023   1.663   3.181   0.105
 9042SOL     OW28024   2.898   5.177   4.008
 9042SOL    HW128025   2.992   5.145   3.995
 9042SOL    HW228026   2.896   5.251   4.074
 9043SOL     OW28027   6.755   1.958   6.264
 9043SOL    HW128028   6.808   1.968   6.348
 9043SOL    HW228029   6.664   1.996   6.277
 9044SOL     OW28030   6.348   5.695   0.552
 9044SOL    HW128031   6.272   5.643   0.591
 9044SOL    HW228032   6.419   5.632   0.520
 9045SOL     OW28033   3.603   6.317   4.084
 9045SOL    HW128034   3.528   6.382   4.102
 9045SOL    HW228035   3.619   6.313   3.985
 9046SOL     OW28036   3.240   3.797   4.917
 9046SOL    HW128037   3.228   3.896   4.923
 9046SOL    HW228038   3.151   3.753   4.916
 9047SOL     OW28039   0.913   4.637   4.501
 9047SOL    HW128040   0.831   4.596   4.541
 9047SOL    HW228041   0.938   4.588   4.418
 9048SOL     OW28042   1.111   3.317   4.392
 9048SOL    HW128043   1.054   3.310   4.311
 9048SOL    HW228044   1.201   3.354   4.367
 9049SOL     OW28045   4.819   5.821   5.868
 9049SOL    HW128046   4.891   5.770   5.914
 9049SOL    HW228047   4.730   5.797   5.908
 9050SOL     OW28048   0.357   5.304   5.940
 9050SOL    HW128049   0.452   5.333   5.953
 9050SOL    HW228050   0.324   5.261   6.024
 9051SOL     OW28051   5.108   6.296   5.968
 9051SOL    HW128052   5.173   6.347   5.912
 9051SOL    HW228053   5.018   6.338   5.961
 9052SOL     OW28054   2.421   5.266   4.938
 9052SOL    HW128055   2.341   5.210   4.916
 9052SOL    HW228056   2.453   5.243   5.030
 9053SOL     OW28057   2.981   1.540   3.643
 9053SOL    HW128058   3.067   1.580   3.612
 9053SOL    HW228059   2.952   1.585   3.727
 9054SOL     OW28060   3.190   0.436   1.059
 9054SOL    HW128061   3.128   0.515   1.063
 9054SOL    HW228062   3.242   0.439   0.974
 9055SOL     OW28063   1.514   1.838   3.961
 9055SOL    HW128064   1.499   1.765   3.894
 9055SOL    HW228065   1.426   1.872   3.994
 9056SOL     OW28066   5.231   1.650   3.054
 9056SOL    HW128067   5.234   1.739   3.098
 9056SOL    HW228068   5.140   1.635   3.015
 9057SOL     OW28069   4.448   6.255   6.442
 9057SOL    HW128070   4.456   6.326   6.372
 9057SOL    HW228071   4.495   6.285   6.525
 9058SOL     OW28072   1.434   3.349   4.854
 9058SOL    HW128073   1.364   3.370   4.786
 9058SOL    HW228074   1.510   3.300   4.811
 9059SOL     OW28075   0.283   1.407   2.540
 9059SOL    HW128076   0.202   1.454   2.576
 9059SOL    HW228077   0.297   1.433   2.444
 9060SOL     OW28078   0.637   5.140   1.205
 9060SOL    HW128079   0.631   5.094   1.294
 9060SOL    HW228080   0.639   5.239   1.218
 9061SOL     OW28081   5.739   4.542   2.259
 9061SOL    HW128082   5.650   4.528   2.214
 9061SOL    HW228083   5.808   4.485   2.214
 9062SOL     OW28084   0.559   5.512   3.456
 9062SOL    HW128085   0.475   5.531   3.405
 9062SOL    HW228086   0.537   5.493   3.551
 9063SOL     OW28087   3.804   1.541   1.596
 9063SOL    HW128088   3.894   1.500   1.585
 9063SOL    HW228089   3.795   1.576   1.690
 9064SOL     OW28090   1.056   5.279   3.701
 9064SOL    HW128091   1.074   5.224   3.620
 9064SOL    HW228092   1.030   5.219   3.777
 9065SOL     OW28093   2.443   4.323   5.241
 9065SOL    HW128094   2.438   4.408   5.189
 9065SOL    HW228095   2.432   4.343   5.339
 9066SOL     OW28096   4.986   4.725   5.558
 9066SOL    HW128097   4.898   4.721   5.510
 9066SOL    HW228098   5.039   4.643   5.538
 9067SOL     OW28099   0.842   6.684   4.225
 9067SOL    HW128100   0.859   6.678   4.323
 9067SOL    HW228101   0.898   6.616   4.177
 9068SOL     OW28102   5.045   6.821   5.225
 9068SOL    HW128103   5.097   6.848   5.306
 9068SOL    HW228104   4.955   6.788   5.253
 9069SOL     OW28105   5.227   1.729   1.451
 9069SOL    HW128106   5.136   1.752   1.483
 9069SOL    HW228107   5.223   1.647   1.393
 9070SOL     OW28108   1.381   2.495   5.975
 9070SOL    HW128109   1.358   2.456   5.886
 9070SOL    HW228110   1.479   2.517   5.977
 9071SOL     OW28111   5.162   1.685   5.455
 9071SOL    HW128112   5.183   1.763   5.396
 9071SOL    HW228113   5.244   1.659   5.506
 9072SOL     OW28114   5.103   0.957   2.233
 9072SOL    HW128115   5.158   1.035   2.262
 9072SOL    HW228116   5.072   0.970   2.139
 9073SOL     OW28117   4.707   1.179   6.103
 9073SOL    HW128118   4.702   1.271   6.065
 9073SOL    HW228119   4.764   1.179   6.186
 9074SOL     OW28120   1.539   0.074   1.847
 9074SOL    HW128121   1.439   0.072   1.847
 9074SOL    HW228122   1.574   7.016   1.894
 9075SOL     OW28123   6.237   6.170   1.455
 9075SOL    HW128124   6.266   6.121   1.537
 9075SOL    HW228125   6.303   6.242   1.434
 9076SOL     OW28126   6.484   0.767   2.409
 9076SOL    HW128127   6.571   0.799   2.447
 9076SOL    HW228128   6.488   0.771   2.310
 9077SOL     OW28129   6.171   1.669   6.019
 9077SOL    HW128130   6.202   1.587   6.066
 9077SOL    HW228131   6.240   1.699   5.953
 9078SOL     OW28132   5.016   5.889   6.691
 9078SOL    HW128133   5.116   5.889   6.680
 9078SOL    HW228134   4.973   5.870   6.603
 9079SOL     OW28135   1.405   1.094   6.730
 9079SOL    HW128136   1.467   1.056   6.662
 9079SOL    HW228137   1.311   1.066   6.709
 9080SOL     OW28138   5.534   3.619   1.400
 9080SOL    HW128139   5.463   3.587   1.463
 9080SOL    HW228140   5.606   3.666   1.452
 9081SOL     OW28141   4.630   2.047   0.255
 9081SOL    HW128142   4.671   1.985   0.188
 9081SOL    HW228143   4.616   2.137   0.213
 9082SOL     OW28144   3.146   5.674   5.547
 9082SOL    HW128145   3.077   5.655   5.617
 9082SOL    HW228146   3.229   5.623   5.568
 9083SOL     OW28147   3.885   5.437   6.328
 9083SOL    HW128148   3.871   5.527   6.367
 9083SOL    HW228149   3.851   5.367   6.392
 9084SOL     OW28150   0.064   2.347   5.882
 9084SOL    HW128151   7.003   2.373   5.836
 9084SOL    HW228152   0.104   2.268   5.835
 9085SOL     OW28153   2.433   5.091   6.919
 9085SOL    HW128154   2.351   5.048   6.959
 9085SOL    HW228155   2.509   5.026   6.924
 9086SOL     OW28156   6.663   4.418   0.897
 9086SOL    HW128157   6.575   4.414   0.849
 9086SOL    HW228158   6.705   4.507   0.881
 9087SOL     OW28159   5.874   0.652   1.436
 9087SOL    HW128160   5.838   0.647   1.529
 9087SOL    HW228161   5.970   0.680   1.439
 9088SOL     OW28162   6.560   6.478   0.616
 9088SOL    HW128163   6.524   6.404   0.673
 9088SOL    HW228164   6.601   6.439   0.533
 9089SOL     OW28165   5.352   5.927   3.680
 9089SOL    HW128166   5.421   5.929   3.608
 9089SOL    HW228167   5.275   5.987   3.655
 9090SOL     OW28168   5.908   5.925   4.778
 9090SOL    HW128169   5.815   5.924   4.742
 9090SOL    HW228170   5.906   5.928   4.878
 9091SOL     OW28171   2.051   2.040   1.607
 9091SOL    HW128172   2.134   1.990   1.631
 9091SOL    HW228173   2.018   2.090   1.686
 9092SOL     OW28174   1.576   6.595   5.440
 9092SOL    HW128175   1.545   6.568   5.349
 9092SOL    HW228176   1.497   6.619   5.496
 9093SOL     OW28177   2.336   5.019   0.637
 9093SOL    HW128178   2.255   5.076   0.654
 9093SOL    HW228179   2.311   4.941   0.580
 9094SOL     OW28180   0.312   5.088   1.923
 9094SOL    HW128181   0.384   5.049   1.980
 9094SOL    HW228182   0.302   5.185   1.943
 9095SOL     OW28183   3.449   3.390   6.817
 9095SOL    HW128184   3.467   3.474   6.765
 9095SOL    HW228185   3.358   3.395   6.859
 9096SOL     OW28186   5.621   2.601   2.864
 9096SOL    HW128187   5.616   2.687   2.813
 9096SOL    HW228188   5.554   2.536   2.826
 9097SOL     OW28189   1.146   4.190   6.758
 9097SOL    HW128190   1.162   4.283   6.725
 9097SOL    HW228191   1.049   4.176   6.772
 9098SOL     OW28192   4.072   3.603   2.291
 9098SOL    HW128193   4.097   3.557   2.376
 9098SOL    HW228194   3.978   3.578   2.266
 9099SOL     OW28195   2.389   3.838   0.926
 9099SOL    HW128196   2.297   3.860   0.895
 9099SOL    HW228197   2.415   3.747   0.892
 9100SOL     OW28198   1.089   3.016   0.741
 9100SOL    HW128199   1.117   3.102   0.783
 9100SOL    HW228200   1.056   2.954   0.811
 9101SOL     OW28201   1.888   2.449   1.865
 9101SOL    HW128202   1.816   2.512   1.896
 9101SOL    HW228203   1.850   2.358   1.852
 9102SOL     OW28204   3.450   5.373   2.311
 9102SOL    HW128205   3.517   5.447   2.298
 9102SOL    HW228206   3.471   5.324   2.395
 9103SOL     OW28207   0.072   4.086   0.757
 9103SOL    HW128208   0.037   4.180   0.761
 9103SOL    HW228209   0.114   4.062   0.844
 9104SOL     OW28210   4.335   6.978   1.398
 9104SOL    HW128211   4.384   6.944   1.479
 9104SOL    HW228212   4.392   0.021   1.350
 9105SOL     OW28213   1.626   1.945   6.616
 9105SOL    HW128214   1.595   1.990   6.699
 9105SOL    HW228215   1.672   1.859   6.640
 9106SOL     OW28216   5.551   5.205   0.154
 9106SOL    HW128217   5.472   5.186   0.097
 9106SOL    HW228218   5.523   5.208   0.250
 9107SOL     OW28219   3.861   6.988   0.891
 9107SOL    HW128220   3.775   6.978   0.841
 9107SOL    HW228221   3.845   6.974   0.989
 9108SOL     OW28222   4.243   5.298   5.138
 9108SOL    HW128223   4.232   5.330   5.044
 9108SOL    HW228224   4.154   5.275   5.176
 9109SOL     OW28225   3.455   2.108   3.798
 9109SOL    HW128226   3.427   2.140   3.708
 9109SOL    HW228227   3.375   2.108   3.860
 9110SOL     OW28228   2.193   4.092   3.844
 9110SOL    HW128229   2.256   4.159   3.884
 9110SOL    HW228230   2.101   4.131   3.839
 9111SOL     OW28231   3.602   4.244   1.670
 9111SOL    HW128232   3.509   4.263   1.701
 9111SOL    HW228233   3.652   4.330   1.658
 9112SOL     OW28234   0.042   4.540   2.007
 9112SOL    HW128235   7.005   4.466   2.036
 9112SOL    HW228236   0.134   4.524   2.042
 9113SOL     OW28237   5.457   0.017   0.154
 9113SOL    HW128238   5.517   0.097   0.158
 9113SOL    HW228239   5.383   0.034   0.090
 9114SOL     OW28240   2.273   4.925   2.144
 9114SOL    HW128241   2.371   4.911   2.160
 9114SOL    HW228242   2.255   5.022   2.132
 9115SOL     OW28243   1.015   4.696   4.741
 9115SOL    HW128244   0.975   4.663   4.656
 9115SOL    HW228245   1.105   4.736   4.723
 9116SOL     OW28246   6.713   1.275   6.880
 9116SOL    HW128247   6.685   1.340   6.951
 9116SOL    HW228248   6.742   1.326   6.799
 9117SOL     OW28249   6.489   3.085   6.635
 9117SOL    HW128250   6.434   3.107   6.555
 9117SOL    HW228251   6.439   3.112   6.718
 9118SOL     OW28252   0.019   6.413   1.352
 9118SOL    HW128253   6.956   6.464   1.348
 9118SOL    HW228254   0.095   6.478   1.349
 9119SOL     OW28255   6.066   0.319   1.957
 9119SOL    HW128256   6.002   0.304   1.881
 9119SOL    HW228257   6.137   0.383   1.928
 9120SOL     OW28258   5.685   1.128   6.002
 9120SOL    HW128259   5.711   1.224   5.985
 9120SOL    HW228260   5.629   1.095   5.927
 9121SOL     OW28261   0.687   1.980   5.975
 9121SOL    HW128262   0.781   2.011   5.990
 9121SOL    HW228263   0.664   1.910   6.043
 9122SOL     OW28264   1.765   2.388   2.864
 9122SOL    HW128265   1.707   2.361   2.787
 9122SOL    HW228266   1.861   2.380   2.838
 9123SOL     OW28267   2.646   6.295   6.197
 9123SOL    HW128268   2.653   6.303   6.297
 9123SOL    HW228269   2.560   6.250   6.173
 9124SOL     OW28270   6.694   5.633   5.509
 9124SOL    HW128271   6.791   5.654   5.499
 9124SOL    HW228272   6.641   5.718   5.507
 9125SOL     OW28273   5.249   3.940   3.752
 9125SOL    HW128274   5.171   3.935   3.689
 9125SOL    HW228275   5.289   3.849   3.762
 9126SOL     OW28276   5.863   0.883   1.861
 9126SOL    HW128277   5.828   0.821   1.790
 9126SOL    HW228278   5.788   0.938   1.897
 9127SOL     OW28279   5.371   0.099   6.398
 9127SOL    HW128280   5.448   0.162   6.390
 9127SOL    HW228281   5.370   0.059   6.490
 9128SOL     OW28282   3.448   2.015   5.370
 9128SOL    HW128283   3.459   1.933   5.314
 9128SOL    HW228284   3.476   2.095   5.318
 9129SOL     OW28285   2.019   2.472   6.625
 9129SOL    HW128286   1.948   2.530   6.666
 9129SOL    HW228287   2.047   2.511   6.537
 9130SOL     OW28288   6.394   5.085   0.644
 9130SOL    HW128289   6.471   5.086   0.580
 9130SOL    HW228290   6.320   5.142   0.608
 9131SOL     OW28291   0.540   4.132   4.150
 9131SOL    HW128292   0.501   4.220   4.122
 9131SOL    HW228293   0.515   4.112   4.244
 9132SOL     OW28294   0.024   3.465   3.617
 9132SOL    HW128295   0.062   3.468   3.525
 9132SOL    HW228296   7.008   3.375   3.634
 9133SOL     OW28297   2.146   4.425   1.507
 9133SOL    HW128298   2.120   4.484   1.431
 9133SOL    HW228299   2.191   4.479   1.578
 9134SOL     OW28300   3.383   6.664   0.233
 9134SOL    HW128301   3.475   6.628   0.218
 9134SOL    HW228302   3.389   6.754   0.276
 9135SOL     OW28303   6.411   6.484   2.925
 9135SOL    HW128304   6.418   6.389   2.893
 9135SOL    HW228305   6.498   6.531   2.910
 9136SOL     OW28306   4.801   5.303   5.875
 9136SOL    HW128307   4.751   5.363   5.813
 9136SOL    HW228308   4.834   5.356   5.953
 9137SOL     OW28309   4.879   1.348   1.203
 9137SOL    HW128310   4.788   1.312   1.227
 9137SOL    HW228311   4.923   1.383   1.286
 9138SOL     OW28312   6.068   4.766   6.441
 9138SOL    HW128313   6.167   4.750   6.445
 9138SOL    HW228314   6.046   4.850   6.490
 9139SOL     OW28315   3.462   0.727   6.052
 9139SOL    HW128316   3.435   0.650   6.111
 9139SOL    HW228317   3.393   0.799   6.059
 9140SOL     OW28318   6.280   2.615   3.103
 9140SOL    HW128319   6.283   2.518   3.078
 9140SOL    HW228320   6.186   2.642   3.125
 9141SOL     OW28321   5.318   0.124   6.118
 9141SOL    HW128322   5.353   0.217   6.113
 9141SOL    HW228323   5.325   0.091   6.212
 9142SOL     OW28324   0.322   2.918   5.318
 9142SOL    HW128325   0.335   2.947   5.412
 9142SOL    HW228326   0.355   2.824   5.306
 9143SOL     OW28327   4.688   3.492   0.206
 9143SOL    HW128328   4.627   3.493   0.127
 9143SOL    HW228329   4.666   3.570   0.265
 9144SOL     OW28330   2.181   5.626   5.925
 9144SOL    HW128331   2.220   5.687   5.855
 9144SOL    HW228332   2.254   5.595   5.986
 9145SOL     OW28333   0.635   4.521   0.501
 9145SOL    HW128334   0.556   4.460   0.505
 9145SOL    HW228335   0.688   4.514   0.585
 9146SOL     OW28336   5.457   2.523   1.456
 9146SOL    HW128337   5.531   2.473   1.500
 9146SOL    HW228338   5.487   2.558   1.368
 9147SOL     OW28339   4.663   6.213   3.993
 9147SOL    HW128340   4.637   6.203   3.897
 9147SOL    HW228341   4.726   6.290   4.003
 9148SOL     OW28342   5.470   6.296   3.106
 9148SOL    HW128343   5.515   6.212   3.075
 9148SOL    HW228344   5.377   6.299   3.071
 9149SOL     OW28345   4.805   3.079   4.131
 9149SOL    HW128346   4.801   3.128   4.218
 9149SOL    HW228347   4.834   3.141   4.058
 9150SOL     OW28348   4.588   6.626   2.965
 9150SOL    HW128349   4.652   6.563   3.009
 9150SOL    HW228350   4.626   6.718   2.967
 9151SOL     OW28351   1.239   4.220   1.837
 9151SOL    HW128352   1.270   4.274   1.916
 9151SOL    HW228353   1.250   4.123   1.857
 9152SOL     OW28354   2.553   5.864   3.680
 9152SOL    HW128355   2.546   5.786   3.742
 9152SOL    HW228356   2.542   5.949   3.731
 9153SOL     OW28357   1.533   2.570   6.971
 9153SOL    HW128358   1.500   2.638   6.906
 9153SOL    HW228359   1.476   2.570   0.029
 9154SOL     OW28360   2.854   5.788   7.010
 9154SOL    HW128361   2.936   5.806   0.040
 9154SOL    HW228362   2.879   5.765   6.916
 9155SOL     OW28363   2.098   3.899   6.794
 9155SOL    HW128364   2.074   3.955   6.716
 9155SOL    HW228365   2.065   3.806   6.780
 9156SOL     OW28366   3.488   2.412   1.341
 9156SOL    HW128367   3.570   2.380   1.294
 9156SOL    HW228368   3.420   2.338   1.343
 9157SOL     OW28369   5.843   4.157   5.309
 9157SOL    HW128370   5.938   4.130   5.329
 9157SOL    HW228371   5.794   4.079   5.269
 9158SOL     OW28372   0.112   3.634   4.496
 9158SOL    HW128373   0.161   3.702   4.441
 9158SOL    HW228374   0.047   3.681   4.555
 9159SOL     OW28375   0.321   5.584   3.325
 9159SOL    HW128376   0.329   5.544   3.234
 9159SOL    HW228377   0.276   5.519   3.386
 9160SOL     OW28378   0.408   6.919   5.924
 9160SOL    HW128379   0.496   6.959   5.948
 9160SOL    HW228380   0.410   6.890   5.828
 9161SOL     OW28381   4.758   4.054   4.965
 9161SOL    HW128382   4.804   3.996   5.031
 9161SOL    HW228383   4.743   4.145   5.005
 9162SOL     OW28384   5.322   2.626   2.889
 9162SOL    HW128385   5.392   2.678   2.937
 9162SOL    HW228386   5.231   2.661   2.913
 9163SOL     OW28387   2.430   2.664   3.976
 9163SOL    HW128388   2.520   2.706   3.962
 9163SOL    HW228389   2.363   2.736   3.998
 9164SOL     OW28390   2.698   0.784   6.775
 9164SOL    HW128391   2.612   0.796   6.824
 9164SOL    HW228392   2.701   0.692   6.735
 9165SOL     OW28393   6.118   0.540   6.059
 9165SOL    HW128394   6.152   0.448   6.078
 9165SOL    HW228395   6.188   0.592   6.010
 9166SOL     OW28396   4.538   6.112   1.293
 9166SOL    HW128397   4.455   6.059   1.281
 9166SOL    HW228398   4.605   6.087   1.224
 9167SOL     OW28399   1.430   3.286   6.083
 9167SOL    HW128400   1.503   3.352   6.066
 9167SOL    HW228401   1.366   3.324   6.150
 9168SOL     OW28402   2.432   0.286   5.878
 9168SOL    HW128403   2.434   0.302   5.977
 9168SOL    HW228404   2.337   0.275   5.848
 9169SOL     OW28405   7.000   0.715   4.975
 9169SOL    HW128406   6.980   0.813   4.983
 9169SOL    HW228407   6.979   0.685   4.881
 9170SOL     OW28408   0.085   4.919   6.895
 9170SOL    HW128409   0.081   4.820   6.906
 9170SOL    HW228410   0.180   4.948   6.887
 9171SOL     OW28411   3.147   5.593   6.752
 9171SOL    HW128412   3.208   5.520   6.720
 9171SOL    HW228413   3.088   5.622   6.677
 9172SOL     OW28414   3.484   1.421   4.677
 9172SOL    HW128415   3.440   1.496   4.628
 9172SOL    HW228416   3.423   1.341   4.679
 9173SOL     OW28417   5.594   4.469   4.865
 9173SOL    HW128418   5.658   4.405   4.906
 9173SOL    HW228419   5.502   4.429   4.867
 9174SOL     OW28420   6.275   4.045   0.494
 9174SOL    HW128421   6.312   3.975   0.555
 9174SOL    HW228422   6.177   4.029   0.481
 9175SOL     OW28423   2.598   6.314   5.544
 9175SOL    HW128424   2.680   6.258   5.553
 9175SOL    HW228425   2.614   6.389   5.480
 9176SOL     OW28426   1.534   0.974   5.531
 9176SOL    HW128427   1.634   0.977   5.540
 9176SOL    HW228428   1.502   0.882   5.556
 9177SOL     OW28429   1.089   4.145   4.158
 9177SOL    HW128430   1.070   4.047   4.145
 9177SOL    HW228431   1.144   4.179   4.082
 9178SOL     OW28432   2.100   5.049   0.863
 9178SOL    HW128433   2.058   5.066   0.952
 9178SOL    HW228434   2.144   4.959   0.863
 9179SOL     OW28435   2.382   5.299   4.057
 9179SOL    HW128436   2.400   5.201   4.067
 9179SOL    HW228437   2.317   5.314   3.982
 9180SOL     OW28438   6.196   2.483   3.721
 9180SOL    HW128439   6.281   2.498   3.671
 9180SOL    HW228440   6.119   2.485   3.657
 9181SOL     OW28441   4.577   2.615   3.056
 9181SOL    HW128442   4.483   2.644   3.074
 9181SOL    HW228443   4.610   2.558   3.131
 9182SOL     OW28444   2.524   6.743   2.335
 9182SOL    HW128445   2.456   6.756   2.263
 9182SOL    HW228446   2.589   6.820   2.334
 9183SOL     OW28447   5.283   6.278   0.402
 9183SOL    HW128448   5.334   6.285   0.488
 9183SOL    HW228449   5.228   6.194   0.402
 9184SOL     OW28450   5.046   0.703   0.651
 9184SOL    HW128451   5.002   0.667   0.569
 9184SOL    HW228452   4.976   0.731   0.717
 9185SOL     OW28453   4.308   0.148   5.486
 9185SOL    HW128454   4.208   0.151   5.481
 9185SOL    HW228455   4.339   0.202   5.564
 9186SOL     OW28456   6.440   0.755   4.616
 9186SOL    HW128457   6.442   0.695   4.695
 9186SOL    HW228458   6.452   0.850   4.645
 9187SOL     OW28459   2.033   6.947   1.695
 9187SOL    HW128460   1.959   7.014   1.698
 9187SOL    HW228461   2.118   6.991   1.665
 9188SOL     OW28462   2.224   6.062   1.106
 9188SOL    HW128463   2.287   6.039   1.032
 9188SOL    HW228464   2.250   6.151   1.145
 9189SOL     OW28465   5.569   6.040   3.040
 9189SOL    HW128466   5.595   5.997   2.953
 9189SOL    HW228467   5.650   6.049   3.098
 9190SOL     OW28468   2.010   5.700   0.122
 9190SOL    HW128469   1.960   5.646   0.054
 9190SOL    HW228470   1.993   5.797   0.106
 9191SOL     OW28471   6.420   0.697   5.044
 9191SOL    HW128472   6.350   0.659   5.104
 9191SOL    HW228473   6.384   0.779   4.999
 9192SOL     OW28474   0.341   4.266   4.622
 9192SOL    HW128475   0.297   4.185   4.661
 9192SOL    HW228476   0.307   4.348   4.669
 9193SOL     OW28477   4.155   3.828   0.084
 9193SOL    HW128478   4.249   3.831   0.051
 9193SOL    HW228479   4.103   3.904   0.045
 9194SOL     OW28480   3.613   0.668   3.718
 9194SOL    HW128481   3.521   0.701   3.738
 9194SOL    HW228482   3.631   0.676   3.620
 9195SOL     OW28483   1.788   2.321   4.162
 9195SOL    HW128484   1.761   2.240   4.110
 9195SOL    HW228485   1.876   2.356   4.127
 9196SOL     OW28486   4.255   1.233   4.982
 9196SOL    HW128487   4.294   1.313   4.937
 9196SOL    HW228488   4.292   1.227   5.075
 9197SOL     OW28489   1.956   4.058   1.646
 9197SOL    HW128490   1.974   3.977   1.702
 9197SOL    HW228491   2.010   4.135   1.681
 9198SOL     OW28492   6.508   5.256   5.375
 9198SOL    HW128493   6.451   5.220   5.449
 9198SOL    HW228494   6.515   5.189   5.302
 9199SOL     OW28495   0.486   3.397   6.567
 9199SOL    HW128496   0.395   3.415   6.531
 9199SOL    HW228497   0.530   3.484   6.589
 9200SOL     OW28498   1.946   7.020   1.106
 9200SOL    HW128499   1.948   0.089   1.143
 9200SOL    HW228500   1.892   7.019   1.022
 9201SOL     OW28501   0.700   3.323   0.226
 9201SOL    HW128502   0.639   3.275   0.162
 9201SOL    HW228503   0.697   3.421   0.208
 9202SOL     OW28504   2.248   6.290   3.465
 9202SOL    HW128505   2.313   6.245   3.527
 9202SOL    HW228506   2.291   6.370   3.424
 9203SOL     OW28507   6.900   5.054   0.060
 9203SOL    HW128508   6.966   4.993   0.016
 9203SOL    HW228509   6.866   5.120   7.017
 9204SOL     OW28510   4.948   1.947   6.841
 9204SOL    HW128511   5.034   1.896   6.841
 9204SOL    HW228512   4.966   2.042   6.815
 9205SOL     OW28513   6.682   4.244   2.709
 9205SOL    HW128514   6.723   4.312   2.648
 9205SOL    HW228515   6.733   4.158   2.702
 9206SOL     OW28516   3.463   5.468   0.954
 9206SOL    HW128517   3.502   5.380   0.926
 9206SOL    HW228518   3.402   5.502   0.883
 9207SOL     OW28519   4.487   5.076   0.180
 9207SOL    HW128520   4.572   5.118   0.211
 9207SOL    HW228521   4.410   5.114   0.231
 9208SOL     OW28522   5.939   4.049   4.583
 9208SOL    HW128523   6.027   4.043   4.629
 9208SOL    HW228524   5.901   4.141   4.595
 9209SOL     OW28525   2.676   1.254   0.307
 9209SOL    HW128526   2.686   1.352   0.292
 9209SOL    HW228527   2.751   1.206   0.263
 9210SOL     OW28528   6.276   1.603   3.148
 9210SOL    HW128529   6.176   1.604   3.149
 9210SOL    HW228530   6.308   1.593   3.053
 9211SOL     OW28531   0.099   3.047   3.786
 9211SOL    HW128532   0.085   2.956   3.746
 9211SOL    HW228533   0.181   3.089   3.746
 9212SOL     OW28534   3.784   5.200   4.404
 9212SOL    HW128535   3.723   5.133   4.446
 9212SOL    HW228536   3.733   5.282   4.380
 9213SOL     OW28537   5.961   2.972   5.323
 9213SOL    HW128538   5.984   3.063   5.359
 9213SOL    HW228539   6.045   2.925   5.294
 9214SOL     OW28540   6.601   5.402   6.152
 9214SOL    HW128541   6.522   5.463   6.159
 9214SOL    HW228542   6.619   5.360   6.240
 9215SOL     OW28543   0.655   1.710   0.607
 9215SOL    HW128544   0.651   1.615   0.639
 9215SOL    HW228545   0.745   1.728   0.568
 9216SOL     OW28546   2.827   0.207   3.304
 9216SOL    HW128547   2.737   0.250   3.315
 9216SOL    HW228548   2.899   0.275   3.321
 9217SOL     OW28549   0.437   0.915   6.148
 9217SOL    HW128550   0.455   0.822   6.116
 9217SOL    HW228551   0.517   0.973   6.129
 9218SOL     OW28552   3.569   6.311   0.512
 9218SOL    HW128553   3.501   6.384   0.506
 9218SOL    HW228554   3.556   6.247   0.436
 9219SOL     OW28555   0.811   2.885   0.282
 9219SOL    HW128556   0.722   2.853   0.316
 9219SOL    HW228557   0.865   2.921   0.358
 9220SOL     OW28558   3.254   6.762   1.287
 9220SOL    HW128559   3.199   6.840   1.316
 9220SOL    HW228560   3.346   6.793   1.265
 9221SOL     OW28561   3.460   0.466   3.942
 9221SOL    HW128562   3.516   0.442   4.022
 9221SOL    HW228563   3.512   0.526   3.882
 9222SOL     OW28564   2.365   0.868   6.784
 9222SOL    HW128565   2.330   0.881   6.877
 9222SOL    HW228566   2.423   0.945   6.759
 9223SOL     OW28567   1.893   2.341   4.858
 9223SOL    HW128568   1.812   2.391   4.826
 9223SOL    HW228569   1.973   2.401   4.853
 9224SOL     OW28570   2.577   5.642   4.106
 9224SOL    HW128571   2.509   5.633   4.179
 9224SOL    HW228572   2.601   5.552   4.071
 9225SOL     OW28573   3.309   6.639   6.582
 9225SOL    HW128574   3.371   6.583   6.637
 9225SOL    HW228575   3.328   6.624   6.485
 9226SOL     OW28576   5.008   6.238   1.496
 9226SOL    HW128577   4.988   6.150   1.455
 9226SOL    HW228578   5.062   6.225   1.579
 9227SOL     OW28579   1.070   5.100   3.491
 9227SOL    HW128580   1.022   5.134   3.409
 9227SOL    HW228581   1.166   5.128   3.487
 9228SOL     OW28582   1.487   0.945   5.883
 9228SOL    HW128583   1.570   0.988   5.918
 9228SOL    HW228584   1.469   0.860   5.932
 9229SOL     OW28585   1.799   5.320   4.394
 9229SOL    HW128586   1.701   5.301   4.381
 9229SOL    HW228587   1.848   5.235   4.411
 9230SOL     OW28588   5.809   0.399   2.756
 9230SOL    HW128589   5.851   0.325   2.704
 9230SOL    HW228590   5.843   0.487   2.721
 9231SOL     OW28591   1.774   3.035   4.344
 9231SOL    HW128592   1.825   2.955   4.376
 9231SOL    HW228593   1.831   3.117   4.354
 9232SOL     OW28594   3.795   5.001   0.698
 9232SOL    HW128595   3.720   4.994   0.764
 9232SOL    HW228596   3.772   4.950   0.615
 9233SOL     OW28597   5.743   5.378   1.399
 9233SOL    HW128598   5.813   5.418   1.457
 9233SOL    HW228599   5.781   5.358   1.308
 9234SOL     OW28600   2.913   5.557   3.922
 9234SOL    HW128601   2.840   5.550   3.854
 9234SOL    HW228602   2.895   5.634   3.983
 9235SOL     OW28603   1.823   1.681   3.187
 9235SOL    HW128604   1.748   1.637   3.136
 9235SOL    HW228605   1.902   1.693   3.126
 9236SOL     OW28606   3.575   4.182   5.448
 9236SOL    HW128607   3.563   4.217   5.541
 9236SOL    HW228608   3.530   4.093   5.440
 9237SOL     OW28609   1.326   4.365   4.451
 9237SOL    HW128610   1.396   4.312   4.499
 9237SOL    HW228611   1.236   4.340   4.485
 9238SOL     OW28612   4.361   2.620   6.232
 9238SOL    HW128613   4.359   2.609   6.132
 9238SOL    HW228614   4.294   2.689   6.259
 9239SOL     OW28615   0.214   4.029   1.014
 9239SOL    HW128616   0.207   4.123   1.046
 9239SOL    HW228617   0.216   3.967   1.093
 9240SOL     OW28618   5.687   1.843   0.683
 9240SOL    HW128619   5.598   1.883   0.662
 9240SOL    HW228620   5.698   1.757   0.635
 9241SOL     OW28621   6.801   5.272   6.655
 9241SOL    HW128622   6.855   5.187   6.654
 9241SOL    HW228623   6.811   5.316   6.745
 9242SOL     OW28624   0.065   5.931   1.114
 9242SOL    HW128625   0.094   5.893   1.202
 9242SOL    HW228626   6.997   5.970   1.124
 9243SOL     OW28627   6.870   5.540   3.627
 9243SOL    HW128628   6.966   5.566   3.617
 9243SOL    HW228629   6.858   5.444   3.601
 9244SOL     OW28630   4.413   5.833   6.599
 9244SOL    HW128631   4.336   5.889   6.631
 9244SOL    HW228632   4.438   5.861   6.506
 9245SOL     OW28633   1.474   5.542   2.331
 9245SOL    HW128634   1.516   5.575   2.415
 9245SOL    HW228635   1.408   5.469   2.353
 9246SOL     OW28636   6.453   4.768   3.881
 9246SOL    HW128637   6.378   4.834   3.878
 9246SOL    HW228638   6.435   4.695   3.816
 9247SOL     OW28639   1.115   0.719   2.807
 9247SOL    HW128640   1.083   0.786   2.874
 9247SOL    HW228641   1.214   0.727   2.797
 9248SOL     OW28642   2.967   2.626   5.852
 9248SOL    HW128643   3.000   2.656   5.763
 9248SOL    HW228644   2.894   2.688   5.883
 9249SOL     OW28645   5.479   1.770   5.258
 9249SOL    HW128646   5.523   1.722   5.182
 9249SOL    HW228647   5.384   1.790   5.235
 9250SOL     OW28648   4.846   3.915   4.455
 9250SOL    HW128649   4.833   3.912   4.554
 9250SOL    HW228650   4.849   3.822   4.419
 9251SOL     OW28651   3.976   1.358   3.187
 9251SOL    HW128652   3.953   1.452   3.211
 9251SOL    HW228653   4.052   1.358   3.122
 9252SOL     OW28654   7.016   0.036   4.605
 9252SOL    HW128655   0.060   0.086   4.659
 9252SOL    HW228656   0.038   7.009   4.533
 9253SOL     OW28657   3.052   6.105   6.321
 9253SOL    HW128658   3.087   6.012   6.330
 9253SOL    HW228659   2.980   6.121   6.388
 9254SOL     OW28660   5.667   3.584   1.080
 9254SOL    HW128661   5.682   3.486   1.065
 9254SOL    HW228662   5.720   3.615   1.158
 9255SOL     OW28663   5.077   2.931   0.138
 9255SOL    HW128664   5.058   2.912   0.042
 9255SOL    HW228665   5.158   2.879   0.167
 9256SOL     OW28666   4.065   4.825   2.747
 9256SOL    HW128667   4.126   4.887   2.697
 9256SOL    HW228668   3.976   4.868   2.760
 9257SOL     OW28669   0.916   3.971   2.383
 9257SOL    HW128670   0.824   3.984   2.344
 9257SOL    HW228671   0.983   3.967   2.309
 9258SOL     OW28672   3.651   3.398   3.994
 9258SOL    HW128673   3.697   3.465   4.053
 9258SOL    HW228674   3.575   3.358   4.044
 9259SOL     OW28675   0.940   2.549   1.173
 9259SOL    HW128676   0.961   2.456   1.203
 9259SOL    HW228677   0.843   2.555   1.148
 9260SOL     OW28678   4.781   2.315   5.338
 9260SOL    HW128679   4.870   2.336   5.381
 9260SOL    HW228680   4.711   2.376   5.376
 9261SOL     OW28681   4.251   0.290   6.553
 9261SOL    HW128682   4.211   0.380   6.572
 9261SOL    HW228683   4.230   0.264   6.459
 9262SOL     OW28684   5.824   1.879   5.985
 9262SOL    HW128685   5.747   1.882   6.049
 9262SOL    HW228686   5.794   1.843   5.897
 9263SOL     OW28687   5.684   4.260   1.469
 9263SOL    HW128688   5.782   4.260   1.486
 9263SOL    HW228689   5.656   4.171   1.434
 9264SOL     OW28690   6.427   3.682   0.575
 9264SOL    HW128691   6.381   3.665   0.488
 9264SOL    HW228692   6.377   3.752   0.627
 9265SOL     OW28693   2.962   1.928   0.767
 9265SOL    HW128694   2.883   1.938   0.827
 9265SOL    HW228695   2.967   2.006   0.705
 9266SOL     OW28696   2.646   6.162   3.050
 9266SOL    HW128697   2.731   6.213   3.033
 9266SOL    HW228698   2.662   6.096   3.123
 9267SOL     OW28699   0.354   3.857   4.156
 9267SOL    HW128700   0.430   3.854   4.222
 9267SOL    HW228701   0.364   3.782   4.091
 9268SOL     OW28702   0.699   6.545   3.106
 9268SOL    HW128703   0.796   6.539   3.084
 9268SOL    HW228704   0.652   6.464   3.070
 9269SOL     OW28705   2.662   2.651   0.066
 9269SOL    HW128706   2.742   2.631   0.009
 9269SOL    HW228707   2.691   2.702   0.147
 9270SOL     OW28708   6.177   6.895   5.349
 9270SOL    HW128709   6.216   6.815   5.395
 9270SOL    HW228710   6.250   6.958   5.324
 9271SOL     OW28711   1.731   6.432   1.295
 9271SOL    HW128712   1.683   6.347   1.319
 9271SOL    HW228713   1.699   6.465   1.206
 9272SOL     OW28714   2.885   4.287   5.990
 9272SOL    HW128715   2.802   4.278   6.044
 9272SOL    HW228716   2.865   4.334   5.905
 9273SOL     OW28717   4.474   5.683   3.544
 9273SOL    HW128718   4.516   5.720   3.461
 9273SOL    HW228719   4.535   5.614   3.583
 9274SOL     OW28720   5.365   2.551   6.863
 9274SOL    HW128721   5.374   2.607   6.946
 9274SOL    HW228722   5.442   2.571   6.802
 9275SOL     OW28723   1.229   1.328   6.830
 9275SOL    HW128724   1.256   1.361   6.920
 9275SOL    HW228725   1.308   1.287   6.785
 9276SOL     OW28726   2.959   4.956   4.527
 9276SOL    HW128727   3.024   4.946   4.452
 9276SOL    HW228728   2.986   4.896   4.603
 9277SOL     OW28729   3.414   3.284   0.077
 9277SOL    HW128730   3.397   3.381   0.060
 9277SOL    HW228731   3.456   3.272   0.167
 9278SOL     OW28732   1.191   1.956   4.078
 9278SOL    HW128733   1.098   1.994   4.076
 9278SOL    HW228734   1.255   2.025   4.111
 9279SOL     OW28735   4.287   0.714   1.757
 9279SOL    HW128736   4.213   0.649   1.772
 9279SOL    HW228737   4.364   0.668   1.713
 9280SOL     OW28738   1.181   0.128   3.822
 9280SOL    HW128739   1.263   0.172   3.860
 9280SOL    HW228740   1.153   0.052   3.881
 9281SOL     OW28741   2.335   3.046   1.083
 9281SOL    HW128742   2.306   3.130   1.130
 9281SOL    HW228743   2.370   2.981   1.150
 9282SOL     OW28744   4.728   2.045   4.767
 9282SOL    HW128745   4.772   2.083   4.686
 9282SOL    HW228746   4.645   1.996   4.741
 9283SOL     OW28747   6.005   1.962   3.078
 9283SOL    HW128748   6.069   2.014   3.135
 9283SOL    HW228749   6.037   1.966   2.983
 9284SOL     OW28750   3.988   4.827   0.420
 9284SOL    HW128751   4.025   4.737   0.397
 9284SOL    HW228752   3.901   4.816   0.468
 9285SOL     OW28753   6.336   3.279   6.802
 9285SOL    HW128754   6.253   3.282   6.746
 9285SOL    HW228755   6.325   3.211   6.875
 9286SOL     OW28756   5.592   6.585   5.838
 9286SOL    HW128757   5.649   6.629   5.908
 9286SOL    HW228758   5.648   6.566   5.757
 9287SOL     OW28759   3.117   5.466   1.495
 9287SOL    HW128760   3.100   5.373   1.462
 9287SOL    HW228761   3.154   5.521   1.421
 9288SOL     OW28762   4.225   1.181   6.176
 9288SOL    HW128763   4.262   1.197   6.267
 9288SOL    HW228764   4.238   1.263   6.120
 9289SOL     OW28765   4.802   2.298   2.493
 9289SOL    HW128766   4.836   2.218   2.542
 9289SOL    HW228767   4.715   2.275   2.448
 9290SOL     OW28768   4.118   1.841   5.249
 9290SOL    HW128769   4.188   1.843   5.320
 9290SOL    HW228770   4.136   1.764   5.187
 9291SOL     OW28771   1.821   0.484   4.949
 9291SOL    HW128772   1.809   0.583   4.939
 9291SOL    HW228773   1.749   0.436   4.897
 9292SOL     OW28774   6.878   3.110   6.255
 9292SOL    HW128775   6.961   3.114   6.311
 9292SOL    HW228776   6.889   3.169   6.176
 9293SOL     OW28777   5.004   4.583   1.061
 9293SOL    HW128778   5.082   4.629   1.018
 9293SOL    HW228779   5.013   4.590   1.161
 9294SOL     OW28780   3.881   6.007   0.319
 9294SOL    HW128781   3.860   5.986   0.223
 9294SOL    HW228782   3.930   5.931   0.360
 9295SOL     OW28783   4.982   1.686   3.255
 9295SOL    HW128784   4.969   1.695   3.157
 9295SOL    HW228785   4.929   1.608   3.289
 9296SOL     OW28786   6.261   6.632   5.848
 9296SOL    HW128787   6.288   6.718   5.805
 9296SOL    HW228788   6.162   6.625   5.851
 9297SOL     OW28789   0.201   0.385   1.623
 9297SOL    HW128790   0.118   0.415   1.576
 9297SOL    HW228791   0.216   0.443   1.703
 9298SOL     OW28792   2.432   6.071   5.513
 9298SOL    HW128793   2.521   6.110   5.537
 9298SOL    HW228794   2.390   6.126   5.441
 9299SOL     OW28795   1.509   2.973   3.900
 9299SOL    HW128796   1.549   2.907   3.837
 9299SOL    HW228797   1.532   2.947   3.994
 9300SOL     OW28798   6.382   4.936   4.889
 9300SOL    HW128799   6.451   4.869   4.859
 9300SOL    HW228800   6.410   5.027   4.860
 9301SOL     OW28801   5.114   4.284   3.160
 9301SOL    HW128802   5.125   4.277   3.060
 9301SOL    HW228803   5.200   4.316   3.200
 9302SOL     OW28804   2.473   2.623   3.663
 9302SOL    HW128805   2.522   2.709   3.678
 9302SOL    HW228806   2.378   2.634   3.691
 9303SOL     OW28807   4.283   6.901   0.881
 9303SOL    HW128808   4.252   6.940   0.968
 9303SOL    HW228809   4.204   6.884   0.823
 9304SOL     OW28810   3.654   4.304   0.425
 9304SOL    HW128811   3.635   4.207   0.416
 9304SOL    HW228812   3.575   4.351   0.465
 9305SOL     OW28813   5.811   1.977   1.547
 9305SOL    HW128814   5.767   2.015   1.466
 9305SOL    HW228815   5.822   2.050   1.615
 9306SOL     OW28816   0.576   4.734   4.244
 9306SOL    HW128817   0.530   4.793   4.178
 9306SOL    HW228818   0.540   4.641   4.236
 9307SOL     OW28819   1.673   2.647   1.111
 9307SOL    HW128820   1.579   2.624   1.136
 9307SOL    HW228821   1.679   2.657   1.011
 9308SOL     OW28822   0.564   4.053   0.958
 9308SOL    HW128823   0.656   4.017   0.942
 9308SOL    HW228824   0.512   3.988   1.014
 9309SOL     OW28825   4.003   4.694   5.357
 9309SOL    HW128826   4.016   4.715   5.261
 9309SOL    HW228827   3.944   4.614   5.366
 9310SOL     OW28828   4.476   6.716   5.772
 9310SOL    HW128829   4.449   6.765   5.690
 9310SOL    HW228830   4.452   6.620   5.764
 9311SOL     OW28831   5.657   4.521   1.234
 9311SOL    HW128832   5.623   4.599   1.181
 9311SOL    HW228833   5.592   4.501   1.308
 9312SOL     OW28834   1.759   4.705   6.855
 9312SOL    HW128835   1.778   4.803   6.845
 9312SOL    HW228836   1.831   4.663   6.911
 9313SOL     OW28837   6.816   0.744   2.266
 9313SOL    HW128838   6.808   0.842   2.284
 9313SOL    HW228839   6.895   0.727   2.208
 9314SOL     OW28840   3.909   5.612   6.773
 9314SOL    HW128841   3.812   5.596   6.757
 9314SOL    HW228842   3.963   5.545   6.721
 9315SOL     OW28843   6.444   0.336   5.515
 9315SOL    HW128844   6.492   0.419   5.486
 9315SOL    HW228845   6.363   0.361   5.568
 9316SOL     OW28846   4.366   5.941   4.264
 9316SOL    HW128847   4.421   5.869   4.222
 9316SOL    HW228848   4.270   5.926   4.240
 9317SOL     OW28849   6.107   5.764   3.028
 9317SOL    HW128850   6.134   5.695   3.095
 9317SOL    HW228851   6.147   5.852   3.053
 9318SOL     OW28852   6.705   0.900   6.149
 9318SOL    HW128853   6.658   0.812   6.160
 9318SOL    HW228854   6.714   0.943   6.239
 9319SOL     OW28855   0.453   3.005   6.303
 9319SOL    HW128856   0.508   2.964   6.231
 9319SOL    HW228857   0.369   2.952   6.315
 9320SOL     OW28858   3.784   2.426   5.698
 9320SOL    HW128859   3.692   2.466   5.706
 9320SOL    HW228860   3.776   2.329   5.675
 9321SOL     OW28861   5.924   0.157   2.641
 9321SOL    HW128862   5.997   0.166   2.709
 9321SOL    HW228863   5.960   0.112   2.559
 9322SOL     OW28864   0.134   5.892   6.046
 9322SOL    HW128865   0.210   5.881   6.110
 9322SOL    HW228866   0.082   5.974   6.070
 9323SOL     OW28867   1.391   0.195   5.704
 9323SOL    HW128868   1.445   0.123   5.662
 9323SOL    HW228869   1.373   0.173   5.800
 9324SOL     OW28870   1.623   4.851   0.500
 9324SOL    HW128871   1.620   4.939   0.547
 9324SOL    HW228872   1.562   4.786   0.546
 9325SOL     OW28873   5.179   1.784   1.154
 9325SOL    HW128874   5.230   1.757   1.235
 9325SOL    HW228875   5.235   1.845   1.098
 9326SOL     OW28876   2.656   0.035   0.858
 9326SOL    HW128877   2.575   7.008   0.889
 9326SOL    HW228878   2.737   7.020   0.902
 9327SOL     OW28879   4.739   6.737   3.330
 9327SOL    HW128880   4.820   6.684   3.356
 9327SOL    HW228881   4.764   6.806   3.263
 9328SOL     OW28882   3.885   1.683   6.865
 9328SOL    HW128883   3.887   1.583   6.864
 9328SOL    HW228884   3.881   1.717   6.771
 9329SOL     OW28885   6.692   2.983   2.800
 9329SOL    HW128886   6.617   2.918   2.793
 9329SOL    HW228887   6.758   2.952   2.868
 9330SOL     OW28888   0.160   6.616   0.619
 9330SOL    HW128889   0.157   6.521   0.591
 9330SOL    HW228890   0.175   6.674   0.539
 9331SOL     OW28891   0.404   1.175   6.869
 9331SOL    HW128892   0.440   1.129   6.789
 9331SOL    HW228893   0.371   1.107   6.935
 9332SOL     OW28894   3.373   4.151   3.339
 9332SOL    HW128895   3.461   4.193   3.315
 9332SOL    HW228896   3.365   4.062   3.293
 9333SOL     OW28897   5.446   4.052   0.732
 9333SOL    HW128898   5.423   4.089   0.643
 9333SOL    HW228899   5.530   3.997   0.725
 9334SOL     OW28900   3.340   0.290   3.236
 9334SOL    HW128901   3.316   0.236   3.156
 9334SOL    HW228902   3.437   0.316   3.232
 9335SOL     OW28903   1.295   1.908   6.886
 9335SOL    HW128904   1.243   1.988   6.855
 9335SOL    HW228905   1.391   1.933   6.900
 9336SOL     OW28906   2.995   6.507   6.241
 9336SOL    HW128907   2.938   6.484   6.320
 9336SOL    HW228908   2.970   6.598   6.208
 9337SOL     OW28909   5.163   0.758   2.787
 9337SOL    HW128910   5.143   0.669   2.747
 9337SOL    HW228911   5.179   0.747   2.886
 9338SOL     OW28912   4.120   0.499   1.777
 9338SOL    HW128913   4.166   0.410   1.784
 9338SOL    HW228914   4.021   0.486   1.787
 9339SOL     OW28915   5.833   6.848   1.003
 9339SOL    HW128916   5.859   6.832   0.908
 9339SOL    HW228917   5.754   6.909   1.006
 9340SOL     OW28918   5.244   3.540   5.717
 9340SOL    HW128919   5.238   3.597   5.635
 9340SOL    HW228920   5.221   3.445   5.693
 9341SOL     OW28921   1.536   5.647   6.758
 9341SOL    HW128922   1.463   5.618   6.697
 9341SOL    HW228923   1.595   5.713   6.710
 9342SOL     OW28924   2.073   0.420   4.874
 9342SOL    HW128925   2.140   0.409   4.947
 9342SOL    HW228926   1.987   0.454   4.912
 9343SOL     OW28927   6.146   5.140   4.847
 9343SOL    HW128928   6.216   5.070   4.834
 9343SOL    HW228929   6.178   5.227   4.809
 9344SOL     OW28930   4.961   6.425   0.749
 9344SOL    HW128931   5.040   6.458   0.698
 9344SOL    HW228932   4.983   6.424   0.847
 9345SOL     OW28933   6.479   2.537   2.542
 9345SOL    HW128934   6.428   2.592   2.476
 9345SOL    HW228935   6.575   2.532   2.514
 9346SOL     OW28936   5.573   0.380   1.458
 9346SOL    HW128937   5.529   0.296   1.427
 9346SOL    HW228938   5.625   0.421   1.383
 9347SOL     OW28939   1.672   5.912   1.417
 9347SOL    HW128940   1.635   5.818   1.420
 9347SOL    HW228941   1.688   5.943   1.511
 9348SOL     OW28942   3.934   6.093   0.729
 9348SOL    HW128943   3.942   6.145   0.814
 9348SOL    HW228944   3.927   6.156   0.652
 9349SOL     OW28945   0.885   6.801   2.321
 9349SOL    HW128946   0.977   6.826   2.352
 9349SOL    HW228947   0.870   6.838   2.229
 9350SOL     OW28948   0.331   2.559   6.119
 9350SOL    HW128949   0.354   2.466   6.091
 9350SOL    HW228950   0.400   2.593   6.182
 9351SOL     OW28951   2.908   2.163   6.776
 9351SOL    HW128952   2.996   2.190   6.814
 9351SOL    HW228953   2.847   2.137   6.851
 9352SOL     OW28954   2.831   4.263   6.747
 9352SOL    HW128955   2.875   4.305   6.668
 9352SOL    HW228956   2.881   4.287   6.831
 9353SOL     OW28957   1.336   5.685   1.919
 9353SOL    HW128958   1.294   5.648   2.002
 9353SOL    HW228959   1.364   5.609   1.859
 9354SOL     OW28960   5.941   2.818   6.547
 9354SOL    HW128961   6.026   2.825   6.600
 9354SOL    HW228962   5.905   2.910   6.531
 9355SOL     OW28963   0.220   1.890   4.879
 9355SOL    HW128964   0.283   1.846   4.815
 9355SOL    HW228965   0.135   1.836   4.884
 9356SOL     OW28966   4.446   0.119   1.955
 9356SOL    HW128967   4.424   0.023   1.975
 9356SOL    HW228968   4.452   0.170   2.040
 9357SOL     OW28969   0.581   2.133   6.836
 9357SOL    HW128970   0.533   2.048   6.814
 9357SOL    HW228971   0.677   2.113   6.856
 9358SOL     OW28972   0.846   3.491   2.193
 9358SOL    HW128973   0.937   3.521   2.162
 9358SOL    HW228974   0.854   3.401   2.237
 9359SOL     OW28975   2.104   6.216   6.016
 9359SOL    HW128976   2.188   6.264   5.990
 9359SOL    HW228977   2.112   6.119   5.992
 9360SOL     OW28978   1.445   0.002   6.639
 9360SOL    HW128979   1.403   0.071   6.698
 9360SOL    HW228980   1.373   6.967   6.600
 9361SOL     OW28981   2.219   6.138   4.156
 9361SOL    HW128982   2.199   6.161   4.060
 9361SOL    HW228983   2.215   6.039   4.168
 9362SOL     OW28984   2.041   0.614   2.579
 9362SOL    HW128985   2.124   0.638   2.628
 9362SOL    HW228986   1.984   0.554   2.635
 9363SOL     OW28987   2.789   5.378   2.620
 9363SOL    HW128988   2.808   5.416   2.529
 9363SOL    HW228989   2.732   5.442   2.671
 9364SOL     OW28990   1.664   1.990   1.893
 9364SOL    HW128991   1.694   1.895   1.903
 9364SOL    HW228992   1.566   1.991   1.869
 9365SOL     OW28993   3.122   1.803   4.083
 9365SOL    HW128994   3.106   1.866   4.159
 9365SOL    HW228995   3.220   1.781   4.078
 9366SOL     OW28996   3.407   5.629   0.325
 9366SOL    HW128997   3.396   5.564   0.401
 9366SOL    HW228998   3.360   5.594   0.244
 9367SOL     OW28999   5.560   0.776   0.994
 9367SOL    HW129000   5.600   0.802   1.082
 9367SOL    HW229001   5.583   0.681   0.974
 9368SOL     OW29002   3.682   0.580   2.673
 9368SOL    HW129003   3.599   0.598   2.725
 9368SOL    HW229004   3.762   0.595   2.731
 9369SOL     OW29005   1.296   5.144   6.320
 9369SOL    HW129006   1.259   5.228   6.281
 9369SOL    HW229007   1.305   5.153   6.419
 9370SOL     OW29008   4.874   2.247   4.611
 9370SOL    HW129009   4.826   2.318   4.559
 9370SOL    HW229010   4.946   2.207   4.555
 9371SOL     OW29011   3.516   6.083   1.289
 9371SOL    HW129012   3.446   6.014   1.272
 9371SOL    HW229013   3.554   6.071   1.380
 9372SOL     OW29014   5.001   6.928   1.799
 9372SOL    HW129015   4.990   7.012   1.853
 9372SOL    HW229016   5.097   6.919   1.772
 9373SOL     OW29017   6.657   1.394   0.464
 9373SOL    HW129018   6.576   1.372   0.410
 9373SOL    HW229019   6.708   1.310   0.483
 9374SOL     OW29020   0.988   4.793   5.546
 9374SOL    HW129021   1.086   4.782   5.558
 9374SOL    HW229022   0.951   4.709   5.505
 9375SOL     OW29023   0.496   1.893   6.761
 9375SOL    HW129024   0.399   1.876   6.778
 9375SOL    HW229025   0.511   1.909   6.664
 9376SOL     OW29026   2.097   3.664   2.156
 9376SOL    HW129027   2.117   3.655   2.254
 9376SOL    HW229028   2.148   3.595   2.105
 9377SOL     OW29029   2.509   6.396   2.972
 9377SOL    HW129030   2.580   6.465   2.982
 9377SOL    HW229031   2.543   6.308   3.005
 9378SOL     OW29032   3.682   0.388   3.544
 9378SOL    HW129033   3.596   0.346   3.574
 9378SOL    HW229034   3.664   0.482   3.513
 9379SOL     OW29035   4.461   6.367   4.679
 9379SOL    HW129036   4.552   6.327   4.675
 9379SOL    HW229037   4.426   6.379   4.586
 9380SOL     OW29038   4.637   6.106   6.865
 9380SOL    HW129039   4.613   6.021   6.913
 9380SOL    HW229040   4.609   6.184   6.921
 9381SOL     OW29041   5.820   2.114   5.150
 9381SOL    HW129042   5.879   2.096   5.071
 9381SOL    HW229043   5.810   2.213   5.162
 9382SOL     OW29044   3.219   0.155   4.241
 9382SOL    HW129045   3.156   0.223   4.203
 9382SOL    HW229046   3.286   0.201   4.298
 9383SOL     OW29047   4.831   4.044   3.777
 9383SOL    HW129048   4.882   3.995   3.707
 9383SOL    HW229049   4.804   4.134   3.742
 9384SOL     OW29050   1.623   0.272   2.014
 9384SOL    HW129051   1.723   0.267   2.003
 9384SOL    HW229052   1.580   0.200   1.960
 9385SOL     OW29053   4.335   1.481   3.246
 9385SOL    HW129054   4.258   1.445   3.195
 9385SOL    HW229055   4.406   1.410   3.253
 9386SOL     OW29056   3.849   6.466   5.518
 9386SOL    HW129057   3.821   6.495   5.427
 9386SOL    HW229058   3.891   6.375   5.513
 9387SOL     OW29059   3.257   2.521   6.879
 9387SOL    HW129060   3.257   2.562   6.970
 9387SOL    HW229061   3.318   2.441   6.878
 9388SOL     OW29062   2.064   6.541   4.564
 9388SOL    HW129063   2.109   6.593   4.492
 9388SOL    HW229064   2.093   6.574   4.654
 9389SOL     OW29065   2.984   4.989   1.559
 9389SOL    HW129066   2.891   4.956   1.541
 9389SOL    HW229067   3.050   4.928   1.515
 9390SOL     OW29068   4.722   5.283   5.310
 9390SOL    HW129069   4.785   5.333   5.370
 9390SOL    HW229070   4.759   5.280   5.217
 9391SOL     OW29071   1.674   6.281   4.786
 9391SOL    HW129072   1.586   6.316   4.818
 9391SOL    HW229073   1.663   6.186   4.756
 9392SOL     OW29074   5.616   4.615   2.764
 9392SOL    HW129075   5.677   4.621   2.685
 9392SOL    HW229076   5.641   4.685   2.831
 9393SOL     OW29077   2.604   6.579   5.435
 9393SOL    HW129078   2.608   6.587   5.534
 9393SOL    HW229079   2.632   6.666   5.394
 9394SOL     OW29080   4.819   6.745   1.043
 9394SOL    HW129081   4.853   6.677   1.108
 9394SOL    HW229082   4.772   6.818   1.093
 9395SOL     OW29083   2.665   2.138   0.429
 9395SOL    HW129084   2.676   2.229   0.389
 9395SOL    HW229085   2.662   2.146   0.529
 9396SOL     OW29086   1.083   6.434   6.547
 9396SOL    HW129087   1.030   6.429   6.632
 9396SOL    HW229088   1.031   6.390   6.473
 9397SOL     OW29089   3.967   0.850   6.581
 9397SOL    HW129090   3.974   0.881   6.486
 9397SOL    HW229091   4.055   0.861   6.626
 9398SOL     OW29092   0.361   1.339   6.544
 9398SOL    HW129093   0.266   1.311   6.550
 9398SOL    HW229094   0.371   1.408   6.471
 9399SOL     OW29095   2.146   2.446   3.806
 9399SOL    HW129096   2.149   2.534   3.854
 9399SOL    HW229097   2.111   2.460   3.713
 9400SOL     OW29098   5.693   1.599   0.573
 9400SOL    HW129099   5.764   1.560   0.631
 9400SOL    HW229100   5.730   1.613   0.481
 9401SOL     OW29101   0.023   1.830   2.980
 9401SOL    HW129102   0.071   1.887   3.046
 9401SOL    HW229103   0.084   1.758   2.948
 9402SOL     OW29104   1.329   5.684   3.481
 9402SOL    HW129105   1.272   5.615   3.525
 9402SOL    HW229106   1.414   5.695   3.532
 9403SOL     OW29107   6.164   2.722   1.831
 9403SOL    HW129108   6.123   2.691   1.917
 9403SOL    HW229109   6.159   2.822   1.826
 9404SOL     OW29110   2.083   3.405   0.896
 9404SOL    HW129111   2.019   3.330   0.910
 9404SOL    HW229112   2.036   3.482   0.853
 9405SOL     OW29113   0.738   5.211   5.359
 9405SOL    HW129114   0.795   5.264   5.422
 9405SOL    HW229115   0.774   5.219   5.266
 9406SOL     OW29116   6.846   2.847   6.958
 9406SOL    HW129117   6.771   2.912   6.948
 9406SOL    HW229118   6.881   2.822   6.867
 9407SOL     OW29119   1.555   4.954   5.608
 9407SOL    HW129120   1.531   4.857   5.614
 9407SOL    HW229121   1.593   4.973   5.517
 9408SOL     OW29122   6.721   4.570   4.597
 9408SOL    HW129123   6.686   4.523   4.516
 9408SOL    HW229124   6.701   4.517   4.679
 9409SOL     OW29125   0.202   5.217   2.166
 9409SOL    HW129126   0.281   5.202   2.225
 9409SOL    HW229127   0.188   5.315   2.154
 9410SOL     OW29128   4.355   1.123   1.443
 9410SOL    HW129129   4.422   1.076   1.501
 9410SOL    HW229130   4.392   1.134   1.351
 9411SOL     OW29131   3.052   3.220   3.611
 9411SOL    HW129132   3.021   3.207   3.517
 9411SOL    HW229133   3.119   3.150   3.635
 9412SOL     OW29134   6.217   6.366   1.759
 9412SOL    HW129135   6.237   6.273   1.730
 9412SOL    HW229136   6.165   6.413   1.687
 9413SOL     OW29137   4.141   4.720   3.407
 9413SOL    HW129138   4.190   4.633   3.406
 9413SOL    HW229139   4.083   4.726   3.325
 9414SOL     OW29140   1.516   2.031   4.353
 9414SOL    HW129141   1.616   2.021   4.358
 9414SOL    HW229142   1.473   1.942   4.356
 9415SOL     OW29143   3.808   1.362   2.232
 9415SOL    HW129144   3.787   1.361   2.135
 9415SOL    HW229145   3.807   1.269   2.268
 9416SOL     OW29146   6.277   5.108   6.486
 9416SOL    HW129147   6.331   5.148   6.560
 9416SOL    HW229148   6.189   5.076   6.522
 9417SOL     OW29149   3.719   6.328   1.753
 9417SOL    HW129150   3.792   6.373   1.702
 9417SOL    HW229151   3.759   6.275   1.828
 9418SOL     OW29152   3.369   2.013   4.333
 9418SOL    HW129153   3.405   2.047   4.420
 9418SOL    HW229154   3.277   1.976   4.348
 9419SOL     OW29155   2.336   2.950   6.451
 9419SOL    HW129156   2.355   2.863   6.496
 9419SOL    HW229157   2.353   2.940   6.352
 9420SOL     OW29158   6.315   4.312   0.090
 9420SOL    HW129159   6.330   4.290   0.187
 9420SOL    HW229160   6.403   4.330   0.047
 9421SOL     OW29161   3.510   6.154   5.450
 9421SOL    HW129162   3.571   6.233   5.442
 9421SOL    HW229163   3.446   6.153   5.373
 9422SOL     OW29164   2.567   5.678   4.688
 9422SOL    HW129165   2.543   5.601   4.746
 9422SOL    HW229166   2.574   5.761   4.744
 9423SOL     OW29167   4.871   4.917   3.605
 9423SOL    HW129168   4.796   4.869   3.560
 9423SOL    HW229169   4.874   5.012   3.573
 9424SOL     OW29170   5.816   0.407   4.501
 9424SOL    HW129171   5.753   0.330   4.513
 9424SOL    HW229172   5.826   0.455   4.588
 9425SOL     OW29173   0.007   5.363   0.847
 9425SOL    HW129174   6.932   5.361   0.832
 9425SOL    HW229175   0.042   5.270   0.859
 9426SOL     OW29176   6.671   2.211   6.709
 9426SOL    HW129177   6.668   2.292   6.768
 9426SOL    HW229178   6.593   2.213   6.647
 9427SOL     OW29179   4.428   5.063   3.124
 9427SOL    HW129180   4.446   5.015   3.038
 9427SOL    HW229181   4.373   5.004   3.184
 9428SOL     OW29182   6.883   6.636   5.772
 9428SOL    HW129183   6.964   6.591   5.809
 9428SOL    HW229184   6.809   6.569   5.761
 9429SOL     OW29185   2.220   2.169   3.781
 9429SOL    HW129186   2.218   2.261   3.820
 9429SOL    HW229187   2.228   2.102   3.855
 9430SOL     OW29188   0.188   1.886   4.454
 9430SOL    HW129189   0.114   1.922   4.510
 9430SOL    HW229190   0.216   1.954   4.386
 9431SOL     OW29191   0.496   4.950   5.436
 9431SOL    HW129192   0.466   4.992   5.350
 9431SOL    HW229193   0.495   5.018   5.509
 9432SOL     OW29194   6.781   1.028   3.955
 9432SOL    HW129195   6.795   0.936   3.919
 9432SOL    HW229196   6.766   1.024   4.053
 9433SOL     OW29197   4.784   5.713   2.617
 9433SOL    HW129198   4.781   5.781   2.689
 9433SOL    HW229199   4.715   5.735   2.547
 9434SOL     OW29200   5.074   5.075   4.027
 9434SOL    HW129201   5.027   5.114   4.106
 9434SOL    HW229202   5.008   5.028   3.968
 9435SOL     OW29203   0.178   2.860   1.910
 9435SOL    HW129204   0.224   2.949   1.914
 9435SOL    HW229205   0.242   2.790   1.881
 9436SOL     OW29206   1.874   0.434   3.217
 9436SOL    HW129207   1.853   0.527   3.248
 9436SOL    HW229208   1.968   0.431   3.182
 9437SOL     OW29209   6.270   5.885   4.540
 9437SOL    HW129210   6.322   5.866   4.623
 9437SOL    HW229211   6.201   5.954   4.559
 9438SOL     OW29212   4.190   5.965   2.559
 9438SOL    HW129213   4.170   5.867   2.557
 9438SOL    HW229214   4.289   5.979   2.552
 9439SOL     OW29215   1.155   3.234   0.869
 9439SOL    HW129216   1.199   3.217   0.957
 9439SOL    HW229217   1.067   3.278   0.884
 9440SOL     OW29218   1.749   5.031   3.317
 9440SOL    HW129219   1.827   4.970   3.304
 9440SOL    HW229220   1.705   5.048   3.228
 9441SOL     OW29221   0.346   6.255   4.848
 9441SOL    HW129222   0.325   6.168   4.803
 9441SOL    HW229223   0.266   6.315   4.843
 9442SOL     OW29224   4.413   3.635   0.535
 9442SOL    HW129225   4.322   3.602   0.558
 9442SOL    HW229226   4.413   3.735   0.532
 9443SOL     OW29227   1.463   4.212   3.086
 9443SOL    HW129228   1.477   4.125   3.133
 9443SOL    HW229229   1.552   4.251   3.062
 9444SOL     OW29230   0.903   4.482   6.733
 9444SOL    HW129231   1.002   4.468   6.723
 9444SOL    HW229232   0.856   4.440   6.656
 9445SOL     OW29233   0.106   1.278   4.284
 9445SOL    HW129234   0.026   1.220   4.296
 9445SOL    HW229235   0.159   1.279   4.369
 9446SOL     OW29236   6.033   5.176   2.887
 9446SOL    HW129237   6.121   5.199   2.845
 9446SOL    HW229238   5.960   5.186   2.819
 9447SOL     OW29239   4.870   4.199   2.025
 9447SOL    HW129240   4.793   4.214   1.962
 9447SOL    HW229241   4.931   4.130   1.987
 9448SOL     OW29242   6.236   0.540   5.211
 9448SOL    HW129243   6.140   0.545   5.184
 9448SOL    HW229244   6.284   0.473   5.154
 9449SOL     OW29245   6.121   6.849   1.406
 9449SOL    HW129246   6.141   6.808   1.496
 9449SOL    HW229247   6.036   6.811   1.370
 9450SOL     OW29248   1.591   4.954   3.835
 9450SOL    HW129249   1.556   4.861   3.845
 9450SOL    HW229250   1.670   4.967   3.895
 9451SOL     OW29251   3.458   6.009   6.424
 9451SOL    HW129252   3.424   5.917   6.445
 9451SOL    HW229253   3.402   6.049   6.351
 9452SOL     OW29254   6.893   4.311   0.521
 9452SOL    HW129255   6.800   4.337   0.499
 9452SOL    HW229256   6.901   4.294   0.619
 9453SOL     OW29257   5.166   5.644   2.793
 9453SOL    HW129258   5.113   5.567   2.759
 9453SOL    HW229259   5.257   5.643   2.752
 9454SOL     OW29260   5.256   3.724   0.547
 9454SOL    HW129261   5.299   3.780   0.476
 9454SOL    HW229262   5.273   3.765   0.636
 9455SOL     OW29263   3.099   2.009   1.784
 9455SOL    HW129264   3.159   1.943   1.830
 9455SOL    HW229265   3.118   2.101   1.819
 9456SOL     OW29266   6.799   3.227   1.166
 9456SOL    HW129267   6.715   3.261   1.123
 9456SOL    HW229268   6.867   3.208   1.094
 9457SOL     OW29269   0.064   5.614   4.009
 9457SOL    HW129270   0.076   5.659   4.098
 9457SOL    HW229271   0.150   5.618   3.959
 9458SOL     OW29272   6.334   3.714   0.336
 9458SOL    HW129273   6.384   3.654   0.274
 9458SOL    HW229274   6.328   3.805   0.296
 9459SOL     OW29275   4.571   4.545   5.312
 9459SOL    HW129276   4.645   4.585   5.367
 9459SOL    HW229277   4.598   4.454   5.282
 9460SOL     OW29278   1.537   1.927   3.174
 9460SOL    HW129279   1.537   1.875   3.259
 9460SOL    HW229280   1.554   1.865   3.097
 9461SOL     OW29281   1.140   2.315   2.435
 9461SOL    HW129282   1.066   2.378   2.413
 9461SOL    HW229283   1.202   2.306   2.357
 9462SOL     OW29284   1.427   1.754   4.363
 9462SOL    HW129285   1.487   1.714   4.294
 9462SOL    HW229286   1.334   1.721   4.351
 9463SOL     OW29287   5.361   5.032   0.996
 9463SOL    HW129288   5.380   5.095   1.071
 9463SOL    HW229289   5.447   4.990   0.966
 9464SOL     OW29290   1.110   0.947   1.363
 9464SOL    HW129291   1.071   0.995   1.442
 9464SOL    HW229292   1.091   1.000   1.280
 9465SOL     OW29293   6.605   4.422   1.168
 9465SOL    HW129294   6.647   4.426   1.077
 9465SOL    HW229295   6.664   4.471   1.233
 9466SOL     OW29296   3.682   4.800   5.423
 9466SOL    HW129297   3.632   4.813   5.509
 9466SOL    HW229298   3.716   4.706   5.419
 9467SOL     OW29299   2.336   3.957   0.628
 9467SOL    HW129300   2.267   3.991   0.564
 9467SOL    HW229301   2.344   3.858   0.620
 9468SOL     OW29302   6.368   1.772   0.310
 9468SOL    HW129303   6.293   1.838   0.308
 9468SOL    HW229304   6.438   1.803   0.374
 9469SOL     OW29305   1.296   6.773   1.663
 9469SOL    HW129306   1.295   6.712   1.584
 9469SOL    HW229307   1.295   6.868   1.632
 9470SOL     OW29308   3.787   4.526   0.519
 9470SOL    HW129309   3.813   4.496   0.611
 9470SOL    HW229310   3.723   4.460   0.480
 9471SOL     OW29311   6.200   3.650   5.105
 9471SOL    HW129312   6.294   3.631   5.133
 9471SOL    HW229313   6.200   3.721   5.035
 9472SOL     OW29314   1.560   3.020   6.357
 9472SOL    HW129315   1.475   3.013   6.410
 9472SOL    HW229316   1.600   3.110   6.372
 9473SOL     OW29317   3.225   4.345   0.096
 9473SOL    HW129318   3.176   4.432   0.104
 9473SOL    HW229319   3.315   4.353   0.139
 9474SOL     OW29320   5.784   2.859   1.351
 9474SOL    HW129321   5.858   2.868   1.417
 9474SOL    HW229322   5.807   2.909   1.268
 9475SOL     OW29323   4.699   3.725   6.210
 9475SOL    HW129324   4.714   3.778   6.126
 9475SOL    HW229325   4.759   3.646   6.211
 9476SOL     OW29326   4.155   4.236   6.258
 9476SOL    HW129327   4.209   4.154   6.280
 9476SOL    HW229328   4.164   4.302   6.333
 9477SOL     OW29329   2.116   4.395   1.002
 9477SOL    HW129330   2.088   4.337   0.925
 9477SOL    HW229331   2.194   4.353   1.048
 9478SOL     OW29332   5.547   3.086   0.510
 9478SOL    HW129333   5.621   3.153   0.498
 9478SOL    HW229334   5.460   3.133   0.518
 9479SOL     OW29335   3.743   0.505   1.571
 9479SOL    HW129336   3.708   0.411   1.568
 9479SOL    HW229337   3.713   0.549   1.655
 9480SOL     OW29338   6.483   6.890   0.037
 9480SOL    HW129339   6.580   6.868   0.050
 9480SOL    HW229340   6.454   6.862   6.969
 9481SOL     OW29341   4.262   0.465   3.511
 9481SOL    HW129342   4.197   0.503   3.444
 9481SOL    HW229343   4.231   0.375   3.539
 9482SOL     OW29344   6.326   6.613   0.030
 9482SOL    HW129345   6.347   6.649   6.963
 9482SOL    HW229346   6.255   6.670   0.072
 9483SOL     OW29347   6.760   0.066   0.819
 9483SOL    HW129348   6.818   0.047   0.898
 9483SOL    HW229349   6.817   0.092   0.741
 9484SOL     OW29350   4.053   6.008   4.872
 9484SOL    HW129351   3.997   6.090   4.863
 9484SOL    HW229352   4.126   6.025   4.938
 9485SOL     OW29353   6.716   1.012   0.261
 9485SOL    HW129354   6.716   0.912   0.250
 9485SOL    HW229355   6.746   1.054   0.175
 9486SOL     OW29356   5.142   5.802   0.187
 9486SOL    HW129357   5.187   5.712   0.187
 9486SOL    HW229358   5.058   5.796   0.131
 9487SOL     OW29359   2.948   3.397   3.222
 9487SOL    HW129360   2.991   3.348   3.298
 9487SOL    HW229361   2.899   3.477   3.258
 9488SOL     OW29362   1.646   1.576   0.738
 9488SOL    HW129363   1.598   1.620   0.662
 9488SOL    HW229364   1.588   1.577   0.819
 9489SOL     OW29365   5.099   4.023   0.355
 9489SOL    HW129366   5.059   4.057   0.440
 9489SOL    HW229367   5.197   4.008   0.368
 9490SOL     OW29368   5.625   3.953   4.421
 9490SOL    HW129369   5.588   4.046   4.430
 9490SOL    HW229370   5.700   3.953   4.356
 9491SOL     OW29371   4.645   6.244   2.837
 9491SOL    HW129372   4.596   6.312   2.891
 9491SOL    HW229373   4.726   6.287   2.795
 9492SOL     OW29374   4.918   2.846   4.148
 9492SOL    HW129375   4.873   2.935   4.139
 9492SOL    HW229376   5.016   2.857   4.136
 9493SOL     OW29377   4.203   6.997   2.335
 9493SOL    HW129378   4.250   6.948   2.408
 9493SOL    HW229379   4.144   6.934   2.286
 9494SOL     OW29380   5.436   2.238   2.055
 9494SOL    HW129381   5.506   2.170   2.032
 9494SOL    HW229382   5.426   2.243   2.154
 9495SOL     OW29383   0.806   1.618   2.323
 9495SOL    HW129384   0.713   1.616   2.357
 9495SOL    HW229385   0.806   1.650   2.228
 9496SOL     OW29386   4.910   2.128   2.048
 9496SOL    HW129387   4.829   2.084   2.087
 9496SOL    HW229388   4.975   2.150   2.122
 9497SOL     OW29389   5.060   4.865   4.790
 9497SOL    HW129390   5.139   4.840   4.846
 9497SOL    HW229391   5.084   4.859   4.693
 9498SOL     OW29392   0.353   5.605   3.970
 9498SOL    HW129393   0.366   5.507   3.985
 9498SOL    HW229394   0.409   5.657   4.035
 9499SOL     OW29395   6.166   5.836   5.760
 9499SOL    HW129396   6.204   5.780   5.687
 9499SOL    HW229397   6.075   5.868   5.733
 9500SOL     OW29398   4.001   1.191   0.757
 9500SOL    HW129399   4.030   1.192   0.852
 9500SOL    HW229400   4.038   1.272   0.710
 9501SOL     OW29401   1.395   3.020   5.240
 9501SOL    HW129402   1.452   3.007   5.322
 9501SOL    HW229403   1.443   3.079   5.176
 9502SOL     OW29404   5.866   4.516   5.338
 9502SOL    HW129405   5.865   4.463   5.253
 9502SOL    HW229406   5.807   4.596   5.328
 9503SOL     OW29407   0.385   2.869   0.055
 9503SOL    HW129408   0.313   2.845   0.121
 9503SOL    HW229409   0.410   2.788   0.003
 9504SOL     OW29410   6.260   5.217   2.187
 9504SOL    HW129411   6.201   5.252   2.260
 9504SOL    HW229412   6.325   5.288   2.160
 9505SOL     OW29413   4.264   5.136   5.391
 9505SOL    HW129414   4.257   5.210   5.324
 9505SOL    HW229415   4.184   5.139   5.451
 9506SOL     OW29416   3.239   1.646   1.163
 9506SOL    HW129417   3.154   1.687   1.130
 9506SOL    HW229418   3.221   1.552   1.190
 9507SOL     OW29419   5.241   0.777   1.944
 9507SOL    HW129420   5.142   0.762   1.937
 9507SOL    HW229421   5.284   0.695   1.981
 9508SOL     OW29422   5.273   2.012   2.994
 9508SOL    HW129423   5.244   1.950   2.921
 9508SOL    HW229424   5.231   1.985   3.080
 9509SOL     OW29425   6.480   6.864   3.156
 9509SOL    HW129426   6.460   6.779   3.206
 9509SOL    HW229427   6.483   6.940   3.220
 9510SOL     OW29428   1.396   2.423   3.408
 9510SOL    HW129429   1.493   2.401   3.404
 9510SOL    HW229430   1.348   2.382   3.331
 9511SOL     OW29431   1.968   1.837   0.678
 9511SOL    HW129432   2.057   1.881   0.665
 9511SOL    HW229433   1.932   1.861   0.768
 9512SOL     OW29434   6.474   2.031   1.020
 9512SOL    HW129435   6.492   2.127   1.000
 9512SOL    HW229436   6.386   2.005   0.982
 9513SOL     OW29437   4.178   5.180   6.506
 9513SOL    HW129438   4.210   5.262   6.459
 9513SOL    HW229439   4.232   5.101   6.475
 9514SOL     OW29440   3.609   2.811   0.382
 9514SOL    HW129441   3.655   2.818   0.470
 9514SOL    HW229442   3.510   2.808   0.396
 9515SOL     OW29443   1.362   4.843   4.093
 9515SOL    HW129444   1.346   4.837   4.192
 9515SOL    HW229445   1.426   4.916   4.074
 9516SOL     OW29446   6.643   4.143   0.887
 9516SOL    HW129447   6.667   4.074   0.819
 9516SOL    HW229448   6.576   4.206   0.848
 9517SOL     OW29449   0.996   4.972   0.341
 9517SOL    HW129450   0.929   4.940   0.407
 9517SOL    HW229451   1.028   5.063   0.367
 9518SOL     OW29452   1.269   1.424   0.061
 9518SOL    HW129453   1.316   1.512   0.049
 9518SOL    HW229454   1.181   1.438   0.106
 9519SOL     OW29455   1.218   2.744   4.929
 9519SOL    HW129456   1.299   2.689   4.915
 9519SOL    HW229457   1.173   2.761   4.841
 9520SOL     OW29458   3.301   6.505   1.939
 9520SOL    HW129459   3.400   6.490   1.929
 9520SOL    HW229460   3.273   6.578   1.877
 9521SOL     OW29461   5.477   5.288   4.123
 9521SOL    HW129462   5.535   5.369   4.118
 9521SOL    HW229463   5.481   5.249   4.215
 9522SOL     OW29464   3.457   5.824   1.043
 9522SOL    HW129465   3.520   5.747   1.044
 9522SOL    HW229466   3.495   5.898   0.987
 9523SOL     OW29467   3.750   5.469   4.303
 9523SOL    HW129468   3.832   5.525   4.315
 9523SOL    HW229469   3.735   5.453   4.206
 9524SOL     OW29470   4.219   3.080   1.199
 9524SOL    HW129471   4.184   2.993   1.163
 9524SOL    HW229472   4.319   3.076   1.202
 9525SOL     OW29473   3.500   1.056   6.334
 9525SOL    HW129474   3.405   1.032   6.355
 9525SOL    HW229475   3.555   1.049   6.418
 9526SOL     OW29476   5.942   5.319   2.142
 9526SOL    HW129477   5.933   5.224   2.170
 9526SOL    HW229478   5.868   5.341   2.077
 9527SOL     OW29479   6.842   2.006   1.589
 9527SOL    HW129480   6.903   1.953   1.647
 9527SOL    HW229481   6.758   1.955   1.573
 9528SOL     OW29482   6.898   0.962   2.026
 9528SOL    HW129483   6.978   0.919   2.069
 9528SOL    HW229484   6.857   1.027   2.090
 9529SOL     OW29485   0.812   3.755   5.634
 9529SOL    HW129486   0.891   3.694   5.633
 9529SOL    HW229487   0.774   3.761   5.542
 9530SOL     OW29488   1.262   2.264   3.603
 9530SOL    HW129489   1.335   2.223   3.657
 9530SOL    HW229490   1.300   2.335   3.543
 9531SOL     OW29491   3.518   6.251   2.434
 9531SOL    HW129492   3.474   6.243   2.345
 9531SOL    HW229493   3.587   6.323   2.431
 9532SOL     OW29494   2.048   0.665   2.099
 9532SOL    HW129495   2.061   0.693   2.194
 9532SOL    HW229496   2.011   0.742   2.046
 9533SOL     OW29497   2.062   0.828   5.006
 9533SOL    HW129498   2.103   0.916   4.982
 9533SOL    HW229499   1.980   0.814   4.952
 9534SOL     OW29500   4.951   2.612   4.777
 9534SOL    HW129501   4.868   2.666   4.763
 9534SOL    HW229502   5.029   2.662   4.740
 9535SOL     OW29503   2.027   1.258   5.644
 9535SOL    HW129504   2.001   1.232   5.737
 9535SOL    HW229505   1.945   1.278   5.591
 9536SOL     OW29506   2.008   6.634   5.828
 9536SOL    HW129507   1.911   6.649   5.808
 9536SOL    HW229508   2.036   6.546   5.789
 9537SOL     OW29509   2.854   6.857   0.951
 9537SOL    HW129510   2.903   6.876   1.035
 9537SOL    HW229511   2.919   6.838   0.877
 9538SOL     OW29512   6.677   3.062   3.679
 9538SOL    HW129513   6.726   2.976   3.696
 9538SOL    HW229514   6.629   3.090   3.763
 9539SOL     OW29515   0.481   5.621   1.009
 9539SOL    HW129516   0.393   5.575   0.996
 9539SOL    HW229517   0.476   5.714   0.971
 9540SOL     OW29518   4.918   4.482   4.843
 9540SOL    HW129519   4.940   4.459   4.937
 9540SOL    HW229520   4.834   4.436   4.816
 9541SOL     OW29521   2.053   2.438   3.534
 9541SOL    HW129522   2.111   2.503   3.486
 9541SOL    HW229523   1.966   2.428   3.485
 9542SOL     OW29524   4.930   3.675   4.316
 9542SOL    HW129525   4.929   3.611   4.239
 9542SOL    HW229526   4.994   3.643   4.386
 9543SOL     OW29527   5.292   2.289   2.513
 9543SOL    HW129528   5.195   2.274   2.494
 9543SOL    HW229529   5.314   2.386   2.502
 9544SOL     OW29530   3.584   1.624   1.863
 9544SOL    HW129531   3.609   1.699   1.924
 9544SOL    HW229532   3.662   1.563   1.851
 9545SOL     OW29533   6.843   0.128   4.402
 9545SOL    HW129534   6.808   0.054   4.344
 9545SOL    HW229535   6.876   0.090   4.488
 9546SOL     OW29536   2.966   4.816   0.662
 9546SOL    HW129537   2.916   4.902   0.667
 9546SOL    HW229538   2.963   4.770   0.751
 9547SOL     OW29539   0.032   6.220   3.374
 9547SOL    HW129540   0.124   6.181   3.367
 9547SOL    HW229541   0.036   6.306   3.427
 9548SOL     OW29542   4.537   6.196   2.553
 9548SOL    HW129543   4.511   6.281   2.598
 9548SOL    HW229544   4.497   6.193   2.462
 9549SOL     OW29545   2.457   6.115   0.640
 9549SOL    HW129546   2.363   6.082   0.629
 9549SOL    HW229547   2.516   6.068   0.575
 9550SOL     OW29548   0.922   1.743   0.522
 9550SOL    HW129549   0.983   1.771   0.595
 9550SOL    HW229550   0.965   1.760   0.434
 9551SOL     OW29551   2.187   6.357   4.968
 9551SOL    HW129552   2.102   6.334   4.920
 9551SOL    HW229553   2.166   6.419   5.044
 9552SOL     OW29554   1.260   5.296   3.117
 9552SOL    HW129555   1.285   5.310   3.213
 9552SOL    HW229556   1.194   5.366   3.090
 9553SOL     OW29557   5.744   4.255   4.988
 9553SOL    HW129558   5.712   4.180   4.929
 9553SOL    HW229559   5.728   4.231   5.084
 9554SOL     OW29560   2.207   1.692   2.069
 9554SOL    HW129561   2.245   1.783   2.049
 9554SOL    HW229562   2.177   1.689   2.165
 9555SOL     OW29563   6.630   2.561   6.843
 9555SOL    HW129564   6.620   2.521   6.934
 9555SOL    HW229565   6.724   2.548   6.810
 9556SOL     OW29566   1.889   1.736   1.653
 9556SOL    HW129567   1.980   1.696   1.669
 9556SOL    HW229568   1.842   1.747   1.740
 9557SOL     OW29569   5.454   1.924   1.867
 9557SOL    HW129570   5.440   1.881   1.777
 9557SOL    HW229571   5.518   2.000   1.857
 9558SOL     OW29572   6.610   5.128   2.450
 9558SOL    HW129573   6.571   5.219   2.465
 9558SOL    HW229574   6.644   5.091   2.536
 9559SOL     OW29575   6.719   2.855   2.522
 9559SOL    HW129576   6.732   2.930   2.588
 9559SOL    HW229577   6.622   2.830   2.519
 9560SOL     OW29578   3.030   1.277   4.141
 9560SOL    HW129579   2.965   1.221   4.090
 9560SOL    HW229580   3.000   1.373   4.140
 9561SOL     OW29581   3.689   0.063   1.153
 9561SOL    HW129582   3.777   0.061   1.201
 9561SOL    HW229583   3.643   6.999   1.166
 9562SOL     OW29584   6.186   5.537   3.161
 9562SOL    HW129585   6.228   5.524   3.071
 9562SOL    HW229586   6.224   5.471   3.226
 9563SOL     OW29587   6.758   5.674   6.620
 9563SOL    HW129588   6.703   5.756   6.636
 9563SOL    HW229589   6.701   5.604   6.577
 9564SOL     OW29590   2.447   0.083   6.678
 9564SOL    HW129591   2.434   0.181   6.693
 9564SOL    HW229592   2.474   0.067   6.583
 9565SOL     OW29593   3.963   6.010   4.020
 9565SOL    HW129594   4.030   6.059   4.076
 9565SOL    HW229595   3.928   6.071   3.949
 9566SOL     OW29596   3.121   4.812   5.154
 9566SOL    HW129597   3.031   4.770   5.143
 9566SOL    HW229598   3.190   4.741   5.168
 9567SOL     OW29599   6.080   5.502   5.989
 9567SOL    HW129600   6.041   5.584   6.032
 9567SOL    HW229601   6.056   5.501   5.892
 9568SOL     OW29602   5.008   3.932   6.604
 9568SOL    HW129603   4.991   3.842   6.563
 9568SOL    HW229604   4.986   4.003   6.537
 9569SOL     OW29605   6.180   0.573   0.924
 9569SOL    HW129606   6.257   0.515   0.949
 9569SOL    HW229607   6.177   0.652   0.984
 9570SOL     OW29608   0.281   0.256   6.973
 9570SOL    HW129609   0.195   0.205   6.969
 9570SOL    HW229610   0.356   0.193   6.987
 9571SOL     OW29611   2.582   4.219   0.376
 9571SOL    HW129612   2.566   4.286   0.303
 9571SOL    HW229613   2.561   4.127   0.343
 9572SOL     OW29614   1.413   4.562   0.908
 9572SOL    HW129615   1.319   4.552   0.941
 9572SOL    HW229616   1.468   4.485   0.941
 9573SOL     OW29617   0.347   2.269   1.429
 9573SOL    HW129618   0.323   2.212   1.351
 9573SOL    HW229619   0.367   2.362   1.397
 9574SOL     OW29620   2.261   1.776   5.445
 9574SOL    HW129621   2.296   1.852   5.500
 9574SOL    HW229622   2.198   1.811   5.376
 9575SOL     OW29623   5.266   0.741   1.663
 9575SOL    HW129624   5.345   0.679   1.661
 9575SOL    HW229625   5.247   0.766   1.758
 9576SOL     OW29626   3.472   2.051   5.629
 9576SOL    HW129627   3.445   2.026   5.537
 9576SOL    HW229628   3.427   1.991   5.695
 9577SOL     OW29629   0.529   5.983   3.157
 9577SOL    HW129630   0.527   5.907   3.222
 9577SOL    HW229631   0.585   6.057   3.194
 9578SOL     OW29632   5.512   3.595   2.044
 9578SOL    HW129633   5.560   3.513   2.077
 9578SOL    HW229634   5.448   3.627   2.114
 9579SOL     OW29635   0.969   6.556   2.990
 9579SOL    HW129636   0.907   6.565   2.912
 9579SOL    HW229637   0.996   6.460   3.001
 9580SOL     OW29638   4.208   3.858   6.144
 9580SOL    HW129639   4.243   3.858   6.051
 9580SOL    HW229640   4.264   3.917   6.202
 9581SOL     OW29641   1.497   4.744   6.551
 9581SOL    HW129642   1.518   4.814   6.484
 9581SOL    HW229643   1.401   4.715   6.540
 9582SOL     OW29644   4.111   5.593   4.526
 9582SOL    HW129645   4.013   5.572   4.533
 9582SOL    HW229646   4.125   5.663   4.457
 9583SOL     OW29647   2.406   4.397   2.010
 9583SOL    HW129648   2.325   4.431   2.059
 9583SOL    HW229649   2.464   4.474   1.984
 9584SOL     OW29650   5.981   5.604   6.575
 9584SOL    HW129651   5.966   5.696   6.611
 9584SOL    HW229652   6.043   5.608   6.498
 9585SOL     OW29653   6.632   0.192   4.582
 9585SOL    HW129654   6.710   0.211   4.523
 9585SOL    HW229655   6.624   0.093   4.594
 9586SOL     OW29656   5.538   3.530   3.238
 9586SOL    HW129657   5.579   3.522   3.147
 9586SOL    HW229658   5.590   3.475   3.303
 9587SOL     OW29659   5.071   6.534   2.182
 9587SOL    HW129660   5.055   6.584   2.267
 9587SOL    HW229661   5.136   6.460   2.198
 9588SOL     OW29662   6.874   0.630   2.556
 9588SOL    HW129663   6.838   0.579   2.478
 9588SOL    HW229664   6.967   0.599   2.575
 9589SOL     OW29665   2.385   1.229   6.139
 9589SOL    HW129666   2.421   1.322   6.138
 9589SOL    HW229667   2.391   1.191   6.232
 9590SOL     OW29668   6.822   4.532   5.039
 9590SOL    HW129669   6.847   4.624   5.008
 9590SOL    HW229670   6.899   4.491   5.089
 9591SOL     OW29671   1.659   4.642   2.135
 9591SOL    HW129672   1.571   4.687   2.119
 9591SOL    HW229673   1.642   4.546   2.159
 9592SOL     OW29674   5.200   5.177   2.293
 9592SOL    HW129675   5.175   5.260   2.341
 9592SOL    HW229676   5.279   5.195   2.234
 9593SOL     OW29677   1.246   2.791   4.445
 9593SOL    HW129678   1.196   2.824   4.365
 9593SOL    HW229679   1.187   2.795   4.526
 9594SOL     OW29680   6.105   6.686   2.155
 9594SOL    HW129681   6.165   6.635   2.216
 9594SOL    HW229682   6.013   6.691   2.195
 9595SOL     OW29683   0.460   4.064   4.387
 9595SOL    HW129684   0.510   4.132   4.441
 9595SOL    HW229685   0.373   4.043   4.432
 9596SOL     OW29686   4.729   5.820   3.478
 9596SOL    HW129687   4.781   5.757   3.535
 9596SOL    HW229688   4.688   5.771   3.402
 9597SOL     OW29689   2.057   3.910   1.181
 9597SOL    HW129690   2.134   3.847   1.194
 9597SOL    HW229691   2.084   4.002   1.208
 9598SOL     OW29692   0.123   5.296   5.574
 9598SOL    HW129693   0.202   5.239   5.597
 9598SOL    HW229694   0.153   5.378   5.526
 9599SOL     OW29695   5.269   2.167   4.752
 9599SOL    HW129696   5.362   2.148   4.722
 9599SOL    HW229697   5.250   2.265   4.742
 9600SOL     OW29698   1.541   6.325   0.043
 9600SOL    HW129699   1.506   6.402   0.097
 9600SOL    HW229700   1.546   6.352   6.970
 9601SOL     OW29701   0.825   5.613   5.921
 9601SOL    HW129702   0.784   5.526   5.896
 9601SOL    HW229703   0.905   5.630   5.863
 9602SOL     OW29704   1.469   5.643   0.627
 9602SOL    HW129705   1.538   5.576   0.599
 9602SOL    HW229706   1.489   5.675   0.720
 9603SOL     OW29707   1.326   4.815   4.352
 9603SOL    HW129708   1.276   4.771   4.426
 9603SOL    HW229709   1.384   4.888   4.390
 9604SOL     OW29710   6.894   0.202   0.558
 9604SOL    HW129711   6.985   0.162   0.547
 9604SOL    HW229712   6.902   0.291   0.603
 9605SOL     OW29713   2.304   5.728   6.666
 9605SOL    HW129714   2.354   5.789   6.728
 9605SOL    HW229715   2.361   5.710   6.585
 9606SOL     OW29716   6.547   6.617   4.424
 9606SOL    HW129717   6.552   6.646   4.519
 9606SOL    HW229718   6.452   6.613   4.394
 9607SOL     OW29719   0.302   2.922   1.518
 9607SOL    HW129720   0.254   2.910   1.432
 9607SOL    HW229721   0.390   2.874   1.514
 9608SOL     OW29722   0.074   6.250   3.021
 9608SOL    HW129723   7.008   6.291   3.002
 9608SOL    HW229724   0.092   6.253   3.119
 9609SOL     OW29725   1.799   2.486   3.394
 9609SOL    HW129726   1.772   2.582   3.382
 9609SOL    HW229727   1.828   2.449   3.305
 9610SOL     OW29728   2.676   2.190   6.253
 9610SOL    HW129729   2.657   2.284   6.223
 9610SOL    HW229730   2.743   2.192   6.327
 9611SOL     OW29731   6.157   6.212   1.027
 9611SOL    HW129732   6.149   6.169   0.936
 9611SOL    HW229733   6.104   6.159   1.093
 9612SOL     OW29734   5.579   3.311   2.588
 9612SOL    HW129735   5.572   3.240   2.518
 9612SOL    HW229736   5.505   3.377   2.576
 9613SOL     OW29737   5.307   6.462   5.852
 9613SOL    HW129738   5.403   6.489   5.864
 9613SOL    HW229739   5.300   6.397   5.777
 9614SOL     OW29740   2.933   3.455   2.260
 9614SOL    HW129741   2.910   3.518   2.334
 9614SOL    HW229742   2.915   3.499   2.172
 9615SOL     OW29743   1.026   6.143   4.030
 9615SOL    HW129744   1.066   6.184   4.111
 9615SOL    HW229745   1.077   6.173   3.949
 9616SOL     OW29746   2.670   3.469   1.485
 9616SOL    HW129747   2.630   3.446   1.396
 9616SOL    HW229748   2.759   3.423   1.495
 9617SOL     OW29749   0.730   3.500   2.876
 9617SOL    HW129750   0.725   3.414   2.926
 9617SOL    HW229751   0.749   3.481   2.779
 9618SOL     OW29752   3.906   5.535   0.509
 9618SOL    HW129753   3.946   5.503   0.595
 9618SOL    HW229754   3.844   5.612   0.527
 9619SOL     OW29755   1.473   0.016   0.971
 9619SOL    HW129756   1.386   0.028   0.922
 9619SOL    HW229757   1.482   6.945   1.000
 9620SOL     OW29758   3.882   1.824   0.090
 9620SOL    HW129759   3.857   1.772   0.009
 9620SOL    HW229760   3.806   1.824   0.155
 9621SOL     OW29761   0.804   2.019   1.794
 9621SOL    HW129762   0.753   2.105   1.786
 9621SOL    HW229763   0.894   2.037   1.833
 9622SOL     OW29764   6.801   6.776   6.007
 9622SOL    HW129765   6.821   6.726   5.923
 9622SOL    HW229766   6.702   6.782   6.019
 9623SOL     OW29767   4.506   6.503   6.282
 9623SOL    HW129768   4.412   6.514   6.249
 9623SOL    HW229769   4.532   6.582   6.336
 9624SOL     OW29770   4.799   5.182   5.046
 9624SOL    HW129771   4.733   5.111   5.022
 9624SOL    HW229772   4.760   5.272   5.025
 9625SOL     OW29773   4.745   3.505   5.604
 9625SOL    HW129774   4.676   3.489   5.675
 9625SOL    HW229775   4.828   3.453   5.625
 9626SOL     OW29776   2.315   2.389   5.996
 9626SOL    HW129777   2.399   2.424   5.954
 9626SOL    HW229778   2.334   2.360   6.090
 9627SOL     OW29779   0.471   5.165   6.516
 9627SOL    HW129780   0.495   5.149   6.612
 9627SOL    HW229781   0.534   5.114   6.457
 9628SOL     OW29782   6.205   1.335   6.586
 9628SOL    HW129783   6.261   1.353   6.505
 9628SOL    HW229784   6.108   1.339   6.560
 9629SOL     OW29785   0.237   6.151   4.587
 9629SOL    HW129786   0.177   6.228   4.570
 9629SOL    HW229787   0.213   6.107   4.674
 9630SOL     OW29788   6.062   6.873   6.157
 9630SOL    HW129789   6.007   6.949   6.192
 9630SOL    HW229790   6.057   6.871   6.058
 9631SOL     OW29791   3.335   0.462   0.830
 9631SOL    HW129792   3.399   0.386   0.813
 9631SOL    HW229793   3.387   0.544   0.854
 9632SOL     OW29794   3.137   5.482   2.418
 9632SOL    HW129795   3.126   5.581   2.417
 9632SOL    HW229796   3.186   5.453   2.336
 9633SOL     OW29797   3.321   2.967   3.101
 9633SOL    HW129798   3.241   2.940   3.047
 9633SOL    HW229799   3.404   2.935   3.056
 9634SOL     OW29800   5.888   5.086   3.344
 9634SOL    HW129801   5.955   5.138   3.291
 9634SOL    HW229802   5.858   5.141   3.422
 9635SOL     OW29803   0.942   5.331   4.407
 9635SOL    HW129804   0.944   5.300   4.502
 9635SOL    HW229805   0.921   5.429   4.405
 9636SOL     OW29806   5.178   3.534   4.017
 9636SOL    HW129807   5.090   3.514   4.059
 9636SOL    HW229808   5.181   3.493   3.926
 9637SOL     OW29809   2.327   2.951   0.100
 9637SOL    HW129810   2.273   3.006   0.036
 9637SOL    HW229811   2.266   2.901   0.162
 9638SOL     OW29812   6.463   5.431   4.989
 9638SOL    HW129813   6.495   5.464   5.078
 9638SOL    HW229814   6.373   5.470   4.970
 9639SOL     OW29815   4.109   1.610   2.083
 9639SOL    HW129816   4.072   1.701   2.101
 9639SOL    HW229817   4.118   1.560   2.169
 9640SOL     OW29818   4.893   0.208   2.881
 9640SOL    HW129819   4.864   0.152   2.958
 9640SOL    HW229820   4.889   0.305   2.906
 9641SOL     OW29821   6.463   3.741   3.103
 9641SOL    HW129822   6.406   3.811   3.146
 9641SOL    HW229823   6.456   3.750   3.004
 9642SOL     OW29824   1.117   0.854   4.518
 9642SOL    HW129825   1.155   0.833   4.608
 9642SOL    HW229826   1.051   0.928   4.525
 9643SOL     OW29827   4.628   4.736   4.511
 9643SOL    HW129828   4.562   4.661   4.521
 9643SOL    HW229829   4.719   4.699   4.496
 9644SOL     OW29830   1.482   5.082   4.404
 9644SOL    HW129831   1.466   5.106   4.308
 9644SOL    HW229832   1.576   5.051   4.416
 9645SOL     OW29833   0.545   4.896   6.056
 9645SOL    HW129834   0.625   4.955   6.052
 9645SOL    HW229835   0.544   4.847   6.143
 9646SOL     OW29836   3.264   5.306   5.938
 9646SOL    HW129837   3.196   5.276   5.871
 9646SOL    HW229838   3.335   5.359   5.891
 9647SOL     OW29839   6.526   6.932   3.538
 9647SOL    HW129840   6.441   6.902   3.495
 9647SOL    HW229841   6.555   7.019   3.500
 9648SOL     OW29842   3.816   1.812   0.982
 9648SOL    HW129843   3.771   1.867   0.912
 9648SOL    HW229844   3.791   1.847   1.072
 9649SOL     OW29845   0.940   5.910   6.838
 9649SOL    HW129846   0.891   5.897   6.753
 9649SOL    HW229847   0.976   6.004   6.842
 9650SOL     OW29848   6.567   4.901   4.235
 9650SOL    HW129849   6.636   4.901   4.307
 9650SOL    HW229850   6.602   4.951   4.156
 9651SOL     OW29851   4.381   1.707   0.402
 9651SOL    HW129852   4.338   1.795   0.418
 9651SOL    HW229853   4.396   1.661   0.490
 9652SOL     OW29854   7.011   3.482   0.284
 9652SOL    HW129855   7.020   3.550   0.357
 9652SOL    HW229856   6.949   3.516   0.214
 9653SOL     OW29857   4.173   4.694   6.245
 9653SOL    HW129858   4.226   4.661   6.323
 9653SOL    HW229859   4.235   4.732   6.176
 9654SOL     OW29860   3.630   3.504   2.850
 9654SOL    HW129861   3.538   3.544   2.855
 9654SOL    HW229862   3.696   3.564   2.894
 9655SOL     OW29863   3.919   1.282   1.313
 9655SOL    HW129864   3.845   1.348   1.298
 9655SOL    HW229865   3.964   1.302   1.400
 9656SOL     OW29866   5.959   3.588   0.386
 9656SOL    HW129867   6.013   3.612   0.305
 9656SOL    HW229868   6.015   3.533   0.448
 9657SOL     OW29869   6.035   4.297   3.743
 9657SOL    HW129870   5.974   4.342   3.808
 9657SOL    HW229871   6.020   4.333   3.651
 9658SOL     OW29872   4.704   2.245   3.223
 9658SOL    HW129873   4.700   2.330   3.276
 9658SOL    HW229874   4.775   2.186   3.260
 9659SOL     OW29875   2.726   3.505   0.823
 9659SOL    HW129876   2.746   3.603   0.813
 9659SOL    HW229877   2.771   3.454   0.749
 9660SOL     OW29878   1.616   6.023   1.691
 9660SOL    HW129879   1.542   5.981   1.744
 9660SOL    HW229880   1.639   6.111   1.732
 9661SOL     OW29881   4.719   4.530   1.106
 9661SOL    HW129882   4.806   4.565   1.072
 9661SOL    HW229883   4.715   4.539   1.205
 9662SOL     OW29884   5.593   5.405   5.841
 9662SOL    HW129885   5.626   5.360   5.924
 9662SOL    HW229886   5.644   5.490   5.826
 9663SOL     OW29887   0.924   5.357   3.141
 9663SOL    HW129888   0.900   5.296   3.216
 9663SOL    HW229889   1.011   5.402   3.161
 9664SOL     OW29890   4.787   4.222   2.771
 9664SOL    HW129891   4.777   4.185   2.678
 9664SOL    HW229892   4.735   4.306   2.779
 9665SOL     OW29893   6.189   6.034   6.752
 9665SOL    HW129894   6.254   5.970   6.709
 9665SOL    HW229895   6.237   6.118   6.777
 9666SOL     OW29896   6.115   3.394   0.607
 9666SOL    HW129897   6.203   3.356   0.582
 9666SOL    HW229898   6.052   3.320   0.632
 9667SOL     OW29899   6.122   6.135   6.443
 9667SOL    HW129900   6.038   6.092   6.410
 9667SOL    HW229901   6.123   6.136   6.543
 9668SOL     OW29902   0.042   0.479   5.864
 9668SOL    HW129903   0.096   0.401   5.895
 9668SOL    HW229904   7.006   0.511   5.938
 9669SOL     OW29905   3.806   0.587   0.177
 9669SOL    HW129906   3.778   0.496   0.208
 9669SOL    HW229907   3.828   0.644   0.257
 9670SOL     OW29908   0.184   6.953   6.736
 9670SOL    HW129909   0.172   6.984   6.830
 9670SOL    HW229910   0.185   6.853   6.733
 9671SOL     OW29911   0.901   5.538   6.510
 9671SOL    HW129912   0.857   5.448   6.506
 9671SOL    HW229913   0.930   5.557   6.603
 9672SOL     OW29914   1.188   3.402   4.112
 9672SOL    HW129915   1.259   3.349   4.158
 9672SOL    HW229916   1.099   3.362   4.132
 9673SOL     OW29917   2.143   4.101   0.402
 9673SOL    HW129918   2.180   4.017   0.363
 9673SOL    HW229919   2.139   4.172   0.331
 9674SOL     OW29920   2.392   5.826   4.017
 9674SOL    HW129921   2.419   5.903   4.075
 9674SOL    HW229922   2.466   5.758   4.015
 9675SOL     OW29923   5.062   2.990   0.729
 9675SOL    HW129924   4.989   3.054   0.702
 9675SOL    HW229925   5.090   3.008   0.823
 9676SOL     OW29926   0.191   2.970   6.907
 9676SOL    HW129927   0.235   2.998   6.822
 9676SOL    HW229928   0.259   2.930   6.968
 9677SOL     OW29929   0.150   5.118   0.970
 9677SOL    HW129930   0.113   5.061   1.043
 9677SOL    HW229931   0.248   5.132   0.985
 9678SOL     OW29932   3.474   3.532   5.099
 9678SOL    HW129933   3.573   3.538   5.114
 9678SOL    HW229934   3.426   3.573   5.176
 9679SOL     OW29935   1.956   1.886   4.690
 9679SOL    HW129936   1.985   1.790   4.702
 9679SOL    HW229937   1.914   1.896   4.599
 9680SOL     OW29938   5.045   6.033   1.904
 9680SOL    HW129939   5.045   5.974   1.985
 9680SOL    HW229940   5.002   6.120   1.927
 9681SOL     OW29941   1.530   1.563   1.844
 9681SOL    HW129942   1.513   1.487   1.907
 9681SOL    HW229943   1.488   1.543   1.756
 9682SOL     OW29944   4.416   5.683   5.551
 9682SOL    HW129945   4.361   5.655   5.630
 9682SOL    HW229946   4.436   5.602   5.495
 9683SOL     OW29947   3.426   6.281   2.166
 9683SOL    HW129948   3.378   6.195   2.151
 9683SOL    HW229949   3.396   6.349   2.099
 9684SOL     OW29950   0.097   3.492   5.758
 9684SOL    HW129951   0.047   3.526   5.838
 9684SOL    HW229952   0.151   3.567   5.719
 9685SOL     OW29953   4.000   4.075   1.763
 9685SOL    HW129954   4.008   4.163   1.716
 9685SOL    HW229955   3.918   4.075   1.820
 9686SOL     OW29956   6.540   2.201   5.605
 9686SOL    HW129957   6.599   2.192   5.686
 9686SOL    HW229958   6.587   2.164   5.525
 9687SOL     OW29959   5.943   1.285   2.657
 9687SOL    HW129960   5.855   1.243   2.635
 9687SOL    HW229961   6.012   1.214   2.673
 9688SOL     OW29962   0.321   5.002   1.237
 9688SOL    HW129963   0.370   4.936   1.293
 9688SOL    HW229964   0.378   5.083   1.223
 9689SOL     OW29965   1.845   6.002   1.182
 9689SOL    HW129966   1.767   5.974   1.237
 9689SOL    HW229967   1.858   6.101   1.190
 9690SOL     OW29968   6.461   5.447   4.535
 9690SOL    HW129969   6.447   5.381   4.462
 9690SOL    HW229970   6.381   5.449   4.595
 9691SOL     OW29971   3.055   4.116   1.937
 9691SOL    HW129972   2.990   4.170   1.990
 9691SOL    HW229973   3.027   4.116   1.841
 9692SOL     OW29974   5.430   4.869   1.414
 9692SOL    HW129975   5.514   4.874   1.467
 9692SOL    HW229976   5.397   4.961   1.394
 9693SOL     OW29977   5.399   3.626   4.852
 9693SOL    HW129978   5.326   3.612   4.784
 9693SOL    HW229979   5.388   3.560   4.926
 9694SOL     OW29980   3.112   6.513   2.469
 9694SOL    HW129981   3.183   6.583   2.469
 9694SOL    HW229982   3.039   6.540   2.406
 9695SOL     OW29983   1.155   2.018   3.492
 9695SOL    HW129984   1.060   2.045   3.502
 9695SOL    HW229985   1.213   2.077   3.549
 9696SOL     OW29986   5.727   2.108   2.849
 9696SOL    HW129987   5.703   2.119   2.945
 9696SOL    HW229988   5.682   2.027   2.812
 9697SOL     OW29989   1.351   6.669   0.660
 9697SOL    HW129990   1.381   6.627   0.746
 9697SOL    HW229991   1.266   6.718   0.676
 9698SOL     OW29992   5.994   3.137   1.421
 9698SOL    HW129993   6.012   3.060   1.482
 9698SOL    HW229994   5.901   3.170   1.437
 9699SOL     OW29995   1.381   5.327   0.607
 9699SOL    HW129996   1.419   5.385   0.678
 9699SOL    HW229997   1.288   5.358   0.585
 9700SOL     OW29998   5.453   0.379   5.342
 9700SOL    HW129999   5.400   0.321   5.404
 9700SOL    HW230000   5.529   0.420   5.393
 9701SOL     OW30001   4.836   3.474   6.202
 9701SOL    HW130002   4.874   3.421   6.277
 9701SOL    HW230003   4.742   3.445   6.183
 9702SOL     OW30004   3.326   3.568   1.517
 9702SOL    HW130005   3.245   3.589   1.461
 9702SOL    HW230006   3.351   3.472   1.504
 9703SOL     OW30007   6.979   4.468   4.137
 9703SOL    HW130008   7.017   4.474   4.229
 9703SOL    HW230009   0.027   4.439   4.073
 9704SOL     OW30010   2.005   4.007   2.688
 9704SOL    HW130011   1.995   4.023   2.590
 9704SOL    HW230012   1.915   4.010   2.732
 9705SOL     OW30013   6.291   3.247   5.614
 9705SOL    HW130014   6.196   3.224   5.638
 9705SOL    HW230015   6.326   3.314   5.680
 9706SOL     OW30016   0.895   1.015   1.922
 9706SOL    HW130017   0.878   1.100   1.973
 9706SOL    HW230018   0.986   0.980   1.946
 9707SOL     OW30019   0.709   4.719   2.236
 9707SOL    HW130020   0.724   4.802   2.291
 9707SOL    HW230021   0.643   4.739   2.164
 9708SOL     OW30022   2.489   0.472   2.140
 9708SOL    HW130023   2.414   0.411   2.166
 9708SOL    HW230024   2.484   0.556   2.194
 9709SOL     OW30025   4.953   2.076   1.532
 9709SOL    HW130026   4.959   2.081   1.632
 9709SOL    HW230027   4.961   1.981   1.503
 9710SOL     OW30028   6.821   5.249   3.609
 9710SOL    HW130029   6.869   5.218   3.527
 9710SOL    HW230030   6.734   5.200   3.618
 9711SOL     OW30031   3.954   0.139   0.111
 9711SOL    HW130032   3.941   0.148   0.210
 9711SOL    HW230033   4.049   0.114   0.092
 9712SOL     OW30034   5.748   1.804   6.409
 9712SOL    HW130035   5.808   1.829   6.484
 9712SOL    HW230036   5.755   1.706   6.392
 9713SOL     OW30037   1.167   0.074   3.364
 9713SOL    HW130038   1.210   0.126   3.291
 9713SOL    HW230039   1.125   7.015   3.326
 9714SOL     OW30040   2.376   4.778   4.540
 9714SOL    HW130041   2.418   4.691   4.567
 9714SOL    HW230042   2.437   4.853   4.565
 9715SOL     OW30043   6.433   3.567   6.709
 9715SOL    HW130044   6.392   3.487   6.666
 9715SOL    HW230045   6.465   3.630   6.638
 9716SOL     OW30046   2.454   5.311   6.760
 9716SOL    HW130047   2.444   5.227   6.813
 9716SOL    HW230048   2.432   5.390   6.818
 9717SOL     OW30049   4.040   1.504   5.294
 9717SOL    HW130050   3.969   1.441   5.262
 9717SOL    HW230051   4.007   1.555   5.373
 9718SOL     OW30052   3.873   3.045   6.894
 9718SOL    HW130053   3.933   3.043   6.974
 9718SOL    HW230054   3.778   3.046   6.924
 9719SOL     OW30055   4.571   6.792   5.341
 9719SOL    HW130056   4.587   6.882   5.381
 9719SOL    HW230057   4.514   6.800   5.259
 9720SOL     OW30058   2.102   3.539   3.245
 9720SOL    HW130059   2.132   3.602   3.174
 9720SOL    HW230060   2.019   3.574   3.288
 9721SOL     OW30061   1.169   1.533   0.486
 9721SOL    HW130062   1.201   1.505   0.576
 9721SOL    HW230063   1.244   1.525   0.420
 9722SOL     OW30064   4.085   3.059   5.344
 9722SOL    HW130065   4.020   3.125   5.383
 9722SOL    HW230066   4.034   2.980   5.310
 9723SOL     OW30067   6.874   6.458   4.913
 9723SOL    HW130068   6.817   6.381   4.940
 9723SOL    HW230069   6.888   6.519   4.991
 9724SOL     OW30070   1.416   5.363   0.119
 9724SOL    HW130071   1.491   5.398   0.062
 9724SOL    HW230072   1.359   5.301   0.064
 9725SOL     OW30073   4.047   5.177   5.559
 9725SOL    HW130074   4.095   5.183   5.646
 9725SOL    HW230075   3.993   5.260   5.545
 9726SOL     OW30076   6.364   1.680   4.316
 9726SOL    HW130077   6.415   1.755   4.273
 9726SOL    HW230078   6.423   1.600   4.324
 9727SOL     OW30079   0.197   1.286   0.227
 9727SOL    HW130080   0.179   1.377   0.264
 9727SOL    HW230081   0.295   1.270   0.221
 9728SOL     OW30082   4.653   1.551   5.463
 9728SOL    HW130083   4.635   1.586   5.371
 9728SOL    HW230084   4.569   1.550   5.516
 9729SOL     OW30085   0.539   5.024   3.331
 9729SOL    HW130086   0.596   4.962   3.277
 9729SOL    HW230087   0.450   4.982   3.347
 9730SOL     OW30088   0.338   4.070   2.962
 9730SOL    HW130089   0.279   4.148   2.985
 9730SOL    HW230090   0.295   3.985   2.992
 9731SOL     OW30091   5.053   3.430   2.168
 9731SOL    HW130092   5.018   3.454   2.078
 9731SOL    HW230093   4.984   3.451   2.237
 9732SOL     OW30094   1.733   2.955   2.932
 9732SOL    HW130095   1.816   3.006   2.956
 9732SOL    HW230096   1.677   3.011   2.870
 9733SOL     OW30097   6.738   4.678   2.224
 9733SOL    HW130098   6.654   4.732   2.226
 9733SOL    HW230099   6.800   4.715   2.155
 9734SOL     OW30100   6.052   6.061   6.148
 9734SOL    HW130101   5.976   5.998   6.164
 9734SOL    HW230102   6.131   6.011   6.112
 9735SOL     OW30103   0.981   2.800   1.252
 9735SOL    HW130104   1.076   2.825   1.233
 9735SOL    HW230105   0.970   2.701   1.248
 9736SOL     OW30106   5.353   1.990   4.939
 9736SOL    HW130107   5.341   2.059   4.868
 9736SOL    HW230108   5.427   1.928   4.913
 9737SOL     OW30109   5.832   2.842   2.655
 9737SOL    HW130110   5.760   2.831   2.586
 9737SOL    HW230111   5.920   2.817   2.614
 9738SOL     OW30112   2.401   6.376   1.834
 9738SOL    HW130113   2.322   6.323   1.866
 9738SOL    HW230114   2.436   6.335   1.749
 9739SOL     OW30115   5.760   6.670   6.929
 9739SOL    HW130116   5.666   6.677   6.897
 9739SOL    HW230117   5.810   6.754   6.906
 9740SOL     OW30118   6.248   0.712   2.585
 9740SOL    HW130119   6.308   0.756   2.518
 9740SOL    HW230120   6.275   0.617   2.597
 9741SOL     OW30121   2.724   1.576   4.244
 9741SOL    HW130122   2.662   1.528   4.183
 9741SOL    HW230123   2.678   1.596   4.330
 9742SOL     OW30124   3.738   2.101   5.869
 9742SOL    HW130125   3.698   2.012   5.892
 9742SOL    HW230126   3.738   2.112   5.769
 9743SOL     OW30127   5.541   3.410   4.040
 9743SOL    HW130128   5.468   3.477   4.053
 9743SOL    HW230129   5.611   3.449   3.980
 9744SOL     OW30130   1.791   0.504   4.025
 9744SOL    HW130131   1.800   0.547   4.115
 9744SOL    HW230132   1.806   0.405   4.035
 9745SOL     OW30133   7.014   0.498   5.583
 9745SOL    HW130134   0.029   0.485   5.674
 9745SOL    HW230135   0.053   0.460   5.514
 9746SOL     OW30136   3.865   5.662   6.471
 9746SOL    HW130137   3.771   5.699   6.470
 9746SOL    HW230138   3.922   5.721   6.528
 9747SOL     OW30139   2.417   2.072   2.665
 9747SOL    HW130140   2.424   2.119   2.753
 9747SOL    HW230141   2.505   2.078   2.617
 9748SOL     OW30142   1.587   1.023   3.859
 9748SOL    HW130143   1.621   1.115   3.841
 9748SOL    HW230144   1.497   1.011   3.818
 9749SOL     OW30145   0.004   1.302   2.171
 9749SOL    HW130146   0.098   1.309   2.206
 9749SOL    HW230147   0.006   1.276   2.074
 9750SOL     OW30148   0.325   3.853   3.791
 9750SOL    HW130149   0.410   3.801   3.798
 9750SOL    HW230150   0.323   3.922   3.864
 9751SOL     OW30151   2.954   0.498   1.375
 9751SOL    HW130152   3.037   0.530   1.421
 9751SOL    HW230153   2.978   0.427   1.309
 9752SOL     OW30154   3.179   3.429   6.915
 9752SOL    HW130155   3.139   3.455   6.827
 9752SOL    HW230156   3.117   3.367   6.963
 9753SOL     OW30157   6.960   6.044   4.753
 9753SOL    HW130158   6.875   6.057   4.701
 9753SOL    HW230159   6.942   6.059   4.850
 9754SOL     OW30160   3.322   1.058   1.779
 9754SOL    HW130161   3.362   0.990   1.718
 9754SOL    HW230162   3.385   1.135   1.789
 9755SOL     OW30163   3.335   4.242   6.869
 9755SOL    HW130164   3.421   4.197   6.844
 9755SOL    HW230165   3.337   4.267   6.965
 9756SOL     OW30166   5.913   0.135   5.937
 9756SOL    HW130167   5.822   0.120   5.899
 9756SOL    HW230168   5.907   0.200   6.013
 9757SOL     OW30169   5.420   4.391   4.002
 9757SOL    HW130170   5.339   4.427   4.049
 9757SOL    HW230171   5.432   4.439   3.915
 9758SOL     OW30172   1.902   0.305   1.909
 9758SOL    HW130173   1.958   0.273   1.985
 9758SOL    HW230174   1.937   0.392   1.876
 9759SOL     OW30175   0.238   1.143   0.955
 9759SOL    HW130176   0.175   1.136   0.877
 9759SOL    HW230177   0.188   1.130   1.040
 9760SOL     OW30178   4.593   1.410   7.020
 9760SOL    HW130179   4.552   1.426   6.930
 9760SOL    HW230180   4.531   1.355   0.053
 9761SOL     OW30181   1.358   2.317   1.108
 9761SOL    HW130182   1.322   2.245   1.167
 9761SOL    HW230183   1.457   2.323   1.118
 9762SOL     OW30184   2.583   1.713   5.770
 9762SOL    HW130185   2.604   1.689   5.675
 9762SOL    HW230186   2.488   1.690   5.790
 9763SOL     OW30187   5.808   0.857   0.776
 9763SOL    HW130188   5.778   0.946   0.741
 9763SOL    HW230189   5.848   0.869   0.867
 9764SOL     OW30190   6.255   2.449   2.204
 9764SOL    HW130191   6.230   2.422   2.297
 9764SOL    HW230192   6.354   2.462   2.199
 9765SOL     OW30193   6.472   0.458   1.653
 9765SOL    HW130194   6.439   0.438   1.561
 9765SOL    HW230195   6.538   0.533   1.649
 9766SOL     OW30196   2.486   1.896   4.570
 9766SOL    HW130197   2.404   1.902   4.627
 9766SOL    HW230198   2.566   1.926   4.623
 9767SOL     OW30199   2.329   3.185   6.085
 9767SOL    HW130200   2.289   3.214   5.998
 9767SOL    HW230201   2.352   3.265   6.140
 9768SOL     OW30202   6.159   2.838   1.051
 9768SOL    HW130203   6.135   2.760   1.109
 9768SOL    HW230204   6.254   2.830   1.021
 9769SOL     OW30205   3.170   1.800   5.341
 9769SOL    HW130206   3.255   1.769   5.297
 9769SOL    HW230207   3.158   1.898   5.325
 9770SOL     OW30208   2.971   2.433   6.151
 9770SOL    HW130209   2.982   2.346   6.199
 9770SOL    HW230210   3.009   2.425   6.059
 9771SOL     OW30211   3.304   6.110   3.041
 9771SOL    HW130212   3.333   6.017   3.065
 9771SOL    HW230213   3.328   6.129   2.946
 9772SOL     OW30214   0.978   0.311   1.063
 9772SOL    HW130215   1.018   0.312   0.972
 9772SOL    HW230216   0.979   0.404   1.101
 9773SOL     OW30217   5.171   4.619   2.019
 9773SOL    HW130218   5.097   4.560   1.987
 9773SOL    HW230219   5.178   4.700   1.960
 9774SOL     OW30220   0.856   5.520   4.900
 9774SOL    HW130221   0.841   5.611   4.863
 9774SOL    HW230222   0.946   5.487   4.871
 9775SOL     OW30223   2.299   1.395   3.400
 9775SOL    HW130224   2.312   1.352   3.311
 9775SOL    HW230225   2.226   1.464   3.394
 9776SOL     OW30226   1.458   5.947   6.789
 9776SOL    HW130227   1.496   5.954   6.696
 9776SOL    HW230228   1.403   5.864   6.796
 9777SOL     OW30229   4.553   0.685   5.165
 9777SOL    HW130230   4.542   0.752   5.238
 9777SOL    HW230231   4.647   0.649   5.167
 9778SOL     OW30232   0.320   3.223   4.027
 9778SOL    HW130233   0.282   3.272   3.949
 9778SOL    HW230234   0.258   3.230   4.105
 9779SOL     OW30235   2.071   1.045   3.757
 9779SOL    HW130236   1.977   1.017   3.738
 9779SOL    HW230237   2.073   1.095   3.844
 9780SOL     OW30238   1.646   2.935   1.812
 9780SOL    HW130239   1.566   2.971   1.764
 9780SOL    HW230240   1.672   2.847   1.770
 9781SOL     OW30241   1.960   2.609   3.111
 9781SOL    HW130242   1.885   2.663   3.150
 9781SOL    HW230243   1.944   2.512   3.128
 9782SOL     OW30244   0.063   2.469   1.398
 9782SOL    HW130245   0.058   2.385   1.452
 9782SOL    HW230246   0.144   2.466   1.339
 9783SOL     OW30247   3.713   1.302   3.095
 9783SOL    HW130248   3.798   1.300   3.148
 9783SOL    HW230249   3.639   1.262   3.150
 9784SOL     OW30250   1.551   1.264   6.321
 9784SOL    HW130251   1.513   1.276   6.230
 9784SOL    HW230252   1.489   1.303   6.389
 9785SOL     OW30253   0.593   2.676   4.288
 9785SOL    HW130254   0.588   2.776   4.284
 9785SOL    HW230255   0.689   2.647   4.297
 9786SOL     OW30256   2.267   4.569   1.293
 9786SOL    HW130257   2.292   4.473   1.287
 9786SOL    HW230258   2.350   4.625   1.301
 9787SOL     OW30259   3.341   3.467   3.242
 9787SOL    HW130260   3.385   3.377   3.242
 9787SOL    HW230261   3.276   3.472   3.318
 9788SOL     OW30262   5.416   6.716   1.702
 9788SOL    HW130263   5.505   6.733   1.745
 9788SOL    HW230264   5.429   6.696   1.605
 9789SOL     OW30265   3.718   0.833   6.727
 9789SOL    HW130266   3.794   0.844   6.662
 9789SOL    HW230267   3.702   0.735   6.742
 9790SOL     OW30268   0.296   4.603   4.307
 9790SOL    HW130269   0.308   4.652   4.393
 9790SOL    HW230270   0.293   4.504   4.324
 9791SOL     OW30271   1.416   6.511   0.900
 9791SOL    HW130272   1.474   6.525   0.980
 9791SOL    HW230273   1.402   6.413   0.886
 9792SOL     OW30274   4.069   6.316   0.312
 9792SOL    HW130275   4.137   6.326   0.385
 9792SOL    HW230276   3.989   6.266   0.348
 9793SOL     OW30277   5.096   1.373   3.541
 9793SOL    HW130278   5.053   1.290   3.506
 9793SOL    HW230279   5.193   1.375   3.515
 9794SOL     OW30280   4.617   4.790   4.784
 9794SOL    HW130281   4.620   4.797   4.684
 9794SOL    HW230282   4.523   4.801   4.816
 9795SOL     OW30283   1.687   3.593   3.125
 9795SOL    HW130284   1.640   3.532   3.062
 9795SOL    HW230285   1.744   3.657   3.074
 9796SOL     OW30286   3.438   3.822   3.676
 9796SOL    HW130287   3.391   3.905   3.704
 9796SOL    HW230288   3.490   3.785   3.753
 9797SOL     OW30289   3.230   6.314   6.641
 9797SOL    HW130290   3.187   6.321   6.551
 9797SOL    HW230291   3.294   6.237   6.641
 9798SOL     OW30292   1.284   3.738   0.088
 9798SOL    HW130293   1.195   3.773   0.118
 9798SOL    HW230294   1.310   3.661   0.146
 9799SOL     OW30295   2.933   6.980   6.758
 9799SOL    HW130296   2.937   6.961   6.856
 9799SOL    HW230297   3.017   0.004   6.730
 9800SOL     OW30298   6.377   3.661   4.673
 9800SOL    HW130299   6.387   3.613   4.761
 9800SOL    HW230300   6.440   3.620   4.607
 9801SOL     OW30301   6.128   6.025   0.025
 9801SOL    HW130302   6.142   6.116   0.065
 9801SOL    HW230303   6.132   6.032   6.949
 9802SOL     OW30304   4.098   4.625   0.131
 9802SOL    HW130305   4.183   4.663   0.169
 9802SOL    HW230306   4.046   4.581   0.204
 9803SOL     OW30307   0.931   3.919   6.762
 9803SOL    HW130308   0.987   3.851   6.811
 9803SOL    HW230309   0.846   3.934   6.813
 9804SOL     OW30310   0.260   5.590   2.433
 9804SOL    HW130311   0.273   5.492   2.449
 9804SOL    HW230312   0.309   5.617   2.351
 9805SOL     OW30313   1.209   6.168   3.767
 9805SOL    HW130314   1.236   6.235   3.837
 9805SOL    HW230315   1.269   6.088   3.772
 9806SOL     OW30316   3.294   2.306   6.402
 9806SOL    HW130317   3.367   2.310   6.333
 9806SOL    HW230318   3.331   2.271   6.488
 9807SOL     OW30319   3.237   4.068   2.159
 9807SOL    HW130320   3.178   4.084   2.080
 9807SOL    HW230321   3.235   3.970   2.183
 9808SOL     OW30322   4.180   6.042   3.352
 9808SOL    HW130323   4.259   6.047   3.291
 9808SOL    HW230324   4.154   5.946   3.365
 9809SOL     OW30325   0.256   3.398   0.715
 9809SOL    HW130326   0.212   3.331   0.774
 9809SOL    HW230327   0.222   3.388   0.622
 9810SOL     OW30328   2.116   1.550   6.265
 9810SOL    HW130329   2.212   1.529   6.281
 9810SOL    HW230330   2.109   1.625   6.199
 9811SOL     OW30331   6.242   3.958   3.657
 9811SOL    HW130332   6.244   4.026   3.731
 9811SOL    HW230333   6.233   4.005   3.569
 9812SOL     OW30334   3.357   6.094   5.006
 9812SOL    HW130335   3.422   6.159   4.969
 9812SOL    HW230336   3.272   6.142   5.029
 9813SOL     OW30337   4.858   2.394   1.120
 9813SOL    HW130338   4.913   2.462   1.071
 9813SOL    HW230339   4.918   2.324   1.158
 9814SOL     OW30340   5.849   1.136   7.008
 9814SOL    HW130341   5.886   1.229   7.010
 9814SOL    HW230342   5.923   1.071   0.002
 9815SOL     OW30343   4.307   2.240   4.963
 9815SOL    HW130344   4.291   2.208   4.870
 9815SOL    HW230345   4.220   2.242   5.013
 9816SOL     OW30346   1.935   0.114   0.047
 9816SOL    HW130347   1.848   0.159   0.028
 9816SOL    HW230348   1.971   0.146   0.135
 9817SOL     OW30349   7.007   6.524   3.398
 9817SOL    HW130350   6.933   6.531   3.331
 9817SOL    HW230351   0.071   6.533   3.350
 9818SOL     OW30352   6.808   2.800   4.695
 9818SOL    HW130353   6.798   2.700   4.698
 9818SOL    HW230354   6.721   2.841   4.668
 9819SOL     OW30355   3.897   1.603   3.207
 9819SOL    HW130356   3.843   1.667   3.153
 9819SOL    HW230357   3.931   1.650   3.289
 9820SOL     OW30358   4.489   4.245   5.878
 9820SOL    HW130359   4.520   4.317   5.815
 9820SOL    HW230360   4.466   4.163   5.826
 9821SOL     OW30361   5.854   6.066   0.031
 9821SOL    HW130362   5.800   6.077   0.114
 9821SOL    HW230363   5.951   6.065   0.053
 9822SOL     OW30364   0.561   6.979   3.204
 9822SOL    HW130365   0.481   6.948   3.153
 9822SOL    HW230366   0.643   6.935   3.168
 9823SOL     OW30367   3.134   1.092   1.978
 9823SOL    HW130368   3.200   1.057   1.912
 9823SOL    HW230369   3.063   1.144   1.930
 9824SOL     OW30370   1.473   4.634   4.767
 9824SOL    HW130371   1.537   4.668   4.697
 9824SOL    HW230372   1.380   4.662   4.743
 9825SOL     OW30373   3.852   4.436   5.360
 9825SOL    HW130374   3.822   4.341   5.348
 9825SOL    HW230375   3.868   4.454   5.457
 9826SOL     OW30376   4.138   7.000   5.721
 9826SOL    HW130377   4.228   6.956   5.718
 9826SOL    HW230378   4.102   6.995   5.814
 9827SOL     OW30379   0.909   3.616   4.725
 9827SOL    HW130380   0.964   3.694   4.756
 9827SOL    HW230381   0.918   3.606   4.626
 9828SOL     OW30382   4.256   2.411   0.124
 9828SOL    HW130383   4.203   2.413   0.039
 9828SOL    HW230384   4.334   2.349   0.114
 9829SOL     OW30385   1.714   5.896   0.295
 9829SOL    HW130386   1.680   5.810   0.257
 9829SOL    HW230387   1.719   5.965   0.222
 9830SOL     OW30388   5.960   1.547   1.928
 9830SOL    HW130389   5.862   1.528   1.924
 9830SOL    HW230390   6.000   1.495   2.003
 9831SOL     OW30391   0.504   6.504   2.067
 9831SOL    HW130392   0.427   6.529   2.008
 9831SOL    HW230393   0.584   6.559   2.043
 9832SOL     OW30394   4.676   5.254   1.883
 9832SOL    HW130395   4.731   5.334   1.858
 9832SOL    HW230396   4.691   5.232   1.979
 9833SOL     OW30397   3.534   3.851   5.014
 9833SOL    HW130398   3.435   3.846   4.998
 9833SOL    HW230399   3.568   3.759   5.036
 9834SOL     OW30400   1.145   3.771   5.320
 9834SOL    HW130401   1.179   3.799   5.230
 9834SOL    HW230402   1.082   3.694   5.310
 9835SOL     OW30403   5.348   1.362   4.278
 9835SOL    HW130404   5.388   1.376   4.369
 9835SOL    HW230405   5.249   1.350   4.287
 9836SOL     OW30406   5.207   4.593   3.246
 9836SOL    HW130407   5.233   4.583   3.150
 9836SOL    HW230408   5.116   4.634   3.251
 9837SOL     OW30409   2.303   6.548   4.210
 9837SOL    HW130410   2.280   6.451   4.202
 9837SOL    HW230411   2.295   6.576   4.305
 9838SOL     OW30412   0.850   6.759   6.254
 9838SOL    HW130413   0.764   6.711   6.242
 9838SOL    HW230414   0.903   6.754   6.169
 9839SOL     OW30415   6.715   1.446   1.335
 9839SOL    HW130416   6.746   1.410   1.423
 9839SOL    HW230417   6.750   1.389   1.261
 9840SOL     OW30418   0.324   0.303   0.738
 9840SOL    HW130419   0.415   0.327   0.772
 9840SOL    HW230420   0.269   0.386   0.730
 9841SOL     OW30421   1.442   4.150   4.774
 9841SOL    HW130422   1.370   4.113   4.715
 9841SOL    HW230423   1.523   4.170   4.719
 9842SOL     OW30424   2.986   3.288   2.713
 9842SOL    HW130425   3.071   3.302   2.662
 9842SOL    HW230426   3.006   3.283   2.811
 9843SOL     OW30427   6.855   1.704   1.306
 9843SOL    HW130428   6.793   1.636   1.346
 9843SOL    HW230429   6.935   1.715   1.364
 9844SOL     OW30430   5.010   0.069   2.473
 9844SOL    HW130431   4.978   0.161   2.496
 9844SOL    HW230432   4.996   0.052   2.375
 9845SOL     OW30433   2.221   1.964   3.978
 9845SOL    HW130434   2.187   1.991   4.068
 9845SOL    HW230435   2.158   1.898   3.937
 9846SOL     OW30436   3.347   3.999   3.081
 9846SOL    HW130437   3.300   4.036   3.001
 9846SOL    HW230438   3.291   3.927   3.122
 9847SOL     OW30439   1.871   3.054   6.494
 9847SOL    HW130440   1.828   3.070   6.405
 9847SOL    HW230441   1.802   3.060   6.566
 9848SOL     OW30442   4.542   2.947   6.985
 9848SOL    HW130443   4.611   2.919   0.028
 9848SOL    HW230444   4.451   2.941   0.003
 9849SOL     OW30445   6.676   6.644   6.371
 9849SOL    HW130446   6.635   6.730   6.402
 9849SOL    HW230447   6.625   6.610   6.293
 9850SOL     OW30448   4.014   6.917   2.542
 9850SOL    HW130449   3.959   6.999   2.525
 9850SOL    HW230450   4.083   6.937   2.612
 9851SOL     OW30451   4.873   1.921   5.433
 9851SOL    HW130452   4.783   1.961   5.453
 9851SOL    HW230453   4.918   1.975   5.362
 9852SOL     OW30454   4.651   1.951   3.879
 9852SOL    HW130455   4.686   1.869   3.923
 9852SOL    HW230456   4.554   1.939   3.858
 9853SOL     OW30457   5.787   4.316   2.490
 9853SOL    HW130458   5.776   4.276   2.581
 9853SOL    HW230459   5.762   4.413   2.493
 9854SOL     OW30460   5.427   5.418   4.498
 9854SOL    HW130461   5.329   5.411   4.518
 9854SOL    HW230462   5.459   5.333   4.458
 9855SOL     OW30463   0.809   4.372   1.187
 9855SOL    HW130464   0.777   4.431   1.261
 9855SOL    HW230465   0.795   4.276   1.212
 9856SOL     OW30466   3.780   3.697   0.635
 9856SOL    HW130467   3.789   3.624   0.703
 9856SOL    HW230468   3.700   3.753   0.657
 9857SOL     OW30469   5.310   2.368   2.819
 9857SOL    HW130470   5.298   2.467   2.831
 9857SOL    HW230471   5.223   2.326   2.795
 9858SOL     OW30472   5.300   1.158   2.296
 9858SOL    HW130473   5.331   1.168   2.390
 9858SOL    HW230474   5.288   1.248   2.255
 9859SOL     OW30475   5.731   0.495   1.257
 9859SOL    HW130476   5.791   0.457   1.186
 9859SOL    HW230477   5.781   0.565   1.308
 9860SOL     OW30478   0.103   0.482   2.325
 9860SOL    HW130479   0.146   0.572   2.330
 9860SOL    HW230480   0.155   0.417   2.381
 9861SOL     OW30481   4.082   6.178   4.217
 9861SOL    HW130482   4.035   6.266   4.214
 9861SOL    HW230483   4.078   6.141   4.310
 9862SOL     OW30484   2.278   3.365   0.343
 9862SOL    HW130485   2.235   3.357   0.253
 9862SOL    HW230486   2.323   3.279   0.367
 9863SOL     OW30487   3.385   6.942   2.903
 9863SOL    HW130488   3.482   6.923   2.917
 9863SOL    HW230489   3.366   6.946   2.805
 9864SOL     OW30490   4.256   5.124   4.174
 9864SOL    HW130491   4.191   5.086   4.108
 9864SOL    HW230492   4.349   5.112   4.140
 9865SOL     OW30493   0.393   0.118   3.610
 9865SOL    HW130494   0.474   0.151   3.658
 9865SOL    HW230495   0.357   0.037   3.657
 9866SOL     OW30496   4.846   3.958   4.730
 9866SOL    HW130497   4.801   3.990   4.814
 9866SOL    HW230498   4.932   4.006   4.718
 9867SOL     OW30499   4.364   1.535   0.643
 9867SOL    HW130500   4.413   1.541   0.730
 9867SOL    HW230501   4.280   1.481   0.657
 9868SOL     OW30502   7.022   4.400   0.166
 9868SOL    HW130503   7.008   4.443   0.256
 9868SOL    HW230504   0.076   4.337   0.171
 9869SOL     OW30505   2.180   3.946   3.262
 9869SOL    HW130506   2.220   3.999   3.187
 9869SOL    HW230507   2.170   4.005   3.342
 9870SOL     OW30508   4.858   5.193   2.411
 9870SOL    HW130509   4.781   5.226   2.465
 9870SOL    HW230510   4.915   5.133   2.467
 9871SOL     OW30511   1.837   0.653   6.216
 9871SOL    HW130512   1.909   0.632   6.151
 9871SOL    HW230513   1.750   0.618   6.181
 9872SOL     OW30514   2.877   4.773   3.169
 9872SOL    HW130515   2.819   4.711   3.117
 9872SOL    HW230516   2.971   4.768   3.134
 9873SOL     OW30517   2.140   3.314   0.118
 9873SOL    HW130518   2.186   3.333   0.031
 9873SOL    HW230519   2.052   3.271   0.099
 9874SOL     OW30520   0.514   1.975   3.222
 9874SOL    HW130521   0.576   1.896   3.229
 9874SOL    HW230522   0.516   2.011   3.129
 9875SOL     OW30523   0.224   0.288   2.498
 9875SOL    HW130524   0.160   0.222   2.537
 9875SOL    HW230525   0.315   0.272   2.535
 9876SOL     OW30526   6.254   0.340   2.442
 9876SOL    HW130527   6.173   0.397   2.449
 9876SOL    HW230528   6.232   0.255   2.394
 9877SOL     OW30529   3.239   6.753   2.202
 9877SOL    HW130530   3.192   6.664   2.203
 9877SOL    HW230531   3.216   6.801   2.118
 9878SOL     OW30532   1.801   5.433   6.124
 9878SOL    HW130533   1.744   5.352   6.111
 9878SOL    HW230534   1.859   5.446   6.044
 9879SOL     OW30535   5.180   5.445   4.581
 9879SOL    HW130536   5.107   5.499   4.538
 9879SOL    HW230537   5.177   5.458   4.680
 9880SOL     OW30538   1.375   2.528   5.314
 9880SOL    HW130539   1.348   2.610   5.364
 9880SOL    HW230540   1.375   2.449   5.375
 9881SOL     OW30541   1.168   2.501   5.129
 9881SOL    HW130542   1.248   2.528   5.183
 9881SOL    HW230543   1.141   2.577   5.070
 9882SOL     OW30544   0.977   2.473   4.069
 9882SOL    HW130545   1.053   2.411   4.053
 9882SOL    HW230546   0.994   2.559   4.020
 9883SOL     OW30547   1.600   0.722   1.711
 9883SOL    HW130548   1.664   0.649   1.685
 9883SOL    HW230549   1.507   0.685   1.713
 9884SOL     OW30550   4.065   0.853   3.927
 9884SOL    HW130551   4.104   0.934   3.882
 9884SOL    HW230552   4.130   0.820   3.996
 9885SOL     OW30553   6.458   4.306   4.969
 9885SOL    HW130554   6.385   4.337   5.029
 9885SOL    HW230555   6.517   4.242   5.018
 9886SOL     OW30556   0.983   4.747   2.468
 9886SOL    HW130557   0.942   4.661   2.438
 9886SOL    HW230558   1.066   4.728   2.520
 9887SOL     OW30559   3.578   0.894   0.189
 9887SOL    HW130560   3.621   0.899   0.099
 9887SOL    HW230561   3.511   0.820   0.190
 9888SOL     OW30562   0.058   3.631   0.522
 9888SOL    HW130563   0.114   3.714   0.520
 9888SOL    HW230564   0.029   3.613   0.616
 9889SOL     OW30565   6.750   5.049   1.084
 9889SOL    HW130566   6.844   5.079   1.063
 9889SOL    HW230567   6.687   5.124   1.068
 9890SOL     OW30568   1.560   2.324   0.856
 9890SOL    HW130569   1.652   2.363   0.854
 9890SOL    HW230570   1.517   2.334   0.766
 9891SOL     OW30571   6.030   2.485   0.486
 9891SOL    HW130572   6.042   2.432   0.403
 9891SOL    HW230573   5.937   2.523   0.488
 9892SOL     OW30574   6.876   5.309   0.524
 9892SOL    HW130575   6.889   5.328   0.621
 9892SOL    HW230576   6.934   5.231   0.497
 9893SOL     OW30577   2.073   0.844   0.621
 9893SOL    HW130578   2.155   0.894   0.649
 9893SOL    HW230579   1.994   0.879   0.671
 9894SOL     OW30580   1.765   1.874   0.946
 9894SOL    HW130581   1.723   1.964   0.959
 9894SOL    HW230582   1.694   1.806   0.931
 9895SOL     OW30583   5.420   3.353   5.055
 9895SOL    HW130584   5.444   3.437   5.103
 9895SOL    HW230585   5.344   3.370   4.993
 9896SOL     OW30586   6.579   6.562   6.811
 9896SOL    HW130587   6.652   6.554   6.879
 9896SOL    HW230588   6.611   6.524   6.724
 9897SOL     OW30589   5.744   5.903   3.265
 9897SOL    HW130590   5.654   5.905   3.308
 9897SOL    HW230591   5.753   5.820   3.210
 9898SOL     OW30592   2.722   6.572   6.136
 9898SOL    HW130593   2.697   6.508   6.064
 9898SOL    HW230594   2.726   6.524   6.223
 9899SOL     OW30595   0.758   6.073   0.688
 9899SOL    HW130596   0.658   6.072   0.691
 9899SOL    HW230597   0.789   6.031   0.603
 9900SOL     OW30598   1.475   3.805   3.078
 9900SOL    HW130599   1.441   3.712   3.066
 9900SOL    HW230600   1.547   3.823   3.012
 9901SOL     OW30601   2.760   2.324   5.751
 9901SOL    HW130602   2.757   2.336   5.651
 9901SOL    HW230603   2.807   2.238   5.773
 9902SOL     OW30604   2.320   4.925   6.620
 9902SOL    HW130605   2.237   4.978   6.599
 9902SOL    HW230606   2.349   4.944   6.713
 9903SOL     OW30607   4.808   1.405   3.057
 9903SOL    HW130608   4.823   1.414   3.155
 9903SOL    HW230609   4.715   1.435   3.035
 9904SOL     OW30610   1.032   3.042   6.614
 9904SOL    HW130611   0.997   3.135   6.610
 9904SOL    HW230612   0.979   2.984   6.551
 9905SOL     OW30613   3.388   0.952   0.809
 9905SOL    HW130614   3.475   0.902   0.810
 9905SOL    HW230615   3.347   0.945   0.718
 9906SOL     OW30616   3.182   2.948   2.557
 9906SOL    HW130617   3.192   2.920   2.462
 9906SOL    HW230618   3.100   3.004   2.567
 9907SOL     OW30619   6.362   0.460   1.361
 9907SOL    HW130620   6.398   0.545   1.324
 9907SOL    HW230621   6.302   0.417   1.293
 9908SOL     OW30622   5.359   2.337   3.222
 9908SOL    HW130623   5.381   2.289   3.306
 9908SOL    HW230624   5.389   2.283   3.143
 9909SOL     OW30625   3.983   6.679   3.904
 9909SOL    HW130626   3.961   6.690   3.807
 9909SOL    HW230627   3.945   6.592   3.937
 9910SOL     OW30628   1.411   3.735   2.472
 9910SOL    HW130629   1.312   3.743   2.480
 9910SOL    HW230630   1.445   3.805   2.408
 9911SOL     OW30631   4.043   7.001   1.953
 9911SOL    HW130632   3.990   6.961   2.028
 9911SOL    HW230633   3.982   0.030   1.893
 9912SOL     OW30634   4.478   2.079   1.005
 9912SOL    HW130635   4.563   2.031   1.024
 9912SOL    HW230636   4.480   2.169   1.050
 9913SOL     OW30637   5.962   3.885   0.141
 9913SOL    HW130638   5.970   3.935   0.054
 9913SOL    HW230639   5.990   3.790   0.127
 9914SOL     OW30640   0.208   3.356   4.894
 9914SOL    HW130641   0.278   3.349   4.965
 9914SOL    HW230642   0.171   3.449   4.894
 9915SOL     OW30643   4.707   0.827   2.816
 9915SOL    HW130644   4.646   0.748   2.827
 9915SOL    HW230645   4.653   0.911   2.809
 9916SOL     OW30646   2.303   2.306   3.090
 9916SOL    HW130647   2.309   2.396   3.135
 9916SOL    HW230648   2.341   2.236   3.151
 9917SOL     OW30649   6.032   3.635   0.079
 9917SOL    HW130650   6.119   3.588   0.066
 9917SOL    HW230651   5.957   3.570   0.066
 9918SOL     OW30652   3.883   1.738   2.580
 9918SOL    HW130653   3.858   1.642   2.569
 9918SOL    HW230654   3.810   1.796   2.543
 9919SOL     OW30655   6.144   5.934   1.825
 9919SOL    HW130656   6.159   5.860   1.891
 9919SOL    HW230657   6.101   5.897   1.743
 9920SOL     OW30658   4.902   1.257   1.941
 9920SOL    HW130659   4.812   1.249   1.899
 9920SOL    HW230660   4.947   1.168   1.942
 9921SOL     OW30661   4.286   6.082   5.829
 9921SOL    HW130662   4.381   6.052   5.819
 9921SOL    HW230663   4.247   6.099   5.739
 9922SOL     OW30664   1.021   5.340   0.154
 9922SOL    HW130665   1.099   5.375   0.206
 9922SOL    HW230666   0.936   5.369   0.197
 9923SOL     OW30667   4.610   5.009   6.431
 9923SOL    HW130668   4.685   4.971   6.376
 9923SOL    HW230669   4.624   5.108   6.441
 9924SOL     OW30670   0.197   2.203   5.083
 9924SOL    HW130671   0.269   2.257   5.039
 9924SOL    HW230672   0.138   2.264   5.136
 9925SOL     OW30673   6.762   3.995   3.763
 9925SOL    HW130674   6.861   4.011   3.764
 9925SOL    HW230675   6.737   3.941   3.843
 9926SOL     OW30676   2.513   3.977   0.284
 9926SOL    HW130677   2.435   3.921   0.310
 9926SOL    HW230678   2.507   3.999   0.186
 9927SOL     OW30679   5.971   7.018   2.400
 9927SOL    HW130680   5.929   6.928   2.384
 9927SOL    HW230681   5.962   0.050   2.318
 9928SOL     OW30682   4.908   4.905   1.578
 9928SOL    HW130683   4.965   4.977   1.538
 9928SOL    HW230684   4.897   4.921   1.676
 9929SOL     OW30685   2.030   5.444   5.362
 9929SOL    HW130686   2.070   5.367   5.312
 9929SOL    HW230687   2.033   5.426   5.460
 9930SOL     OW30688   6.586   0.232   4.865
 9930SOL    HW130689   6.639   0.162   4.913
 9930SOL    HW230690   6.618   0.240   4.771
 9931SOL     OW30691   0.894   4.616   5.219
 9931SOL    HW130692   0.822   4.638   5.284
 9931SOL    HW230693   0.853   4.600   5.129
 9932SOL     OW30694   1.873   6.413   6.482
 9932SOL    HW130695   1.820   6.338   6.521
 9932SOL    HW230696   1.811   6.485   6.449
 9933SOL     OW30697   1.689   4.621   2.474
 9933SOL    HW130698   1.739   4.705   2.494
 9933SOL    HW230699   1.618   4.606   2.542
 9934SOL     OW30700   6.063   1.981   5.911
 9934SOL    HW130701   6.138   1.923   5.945
 9934SOL    HW230702   5.975   1.940   5.938
 9935SOL     OW30703   2.808   0.704   0.420
 9935SOL    HW130704   2.855   0.775   0.472
 9935SOL    HW230705   2.873   0.631   0.397
 9936SOL     OW30706   6.873   5.031   5.022
 9936SOL    HW130707   6.787   5.042   5.073
 9936SOL    HW230708   6.903   5.120   4.987
 9937SOL     OW30709   6.071   2.451   5.364
 9937SOL    HW130710   6.129   2.502   5.427
 9937SOL    HW230711   6.070   2.498   5.275
 9938SOL     OW30712   6.782   5.875   3.102
 9938SOL    HW130713   6.804   5.952   3.163
 9938SOL    HW230714   6.755   5.910   3.013
 9939SOL     OW30715   3.267   3.153   0.439
 9939SOL    HW130716   3.242   3.077   0.380
 9939SOL    HW230717   3.269   3.238   0.386
 9940SOL     OW30718   0.348   0.520   1.427
 9940SOL    HW130719   0.285   0.490   1.498
 9940SOL    HW230720   0.363   0.446   1.361
 9941SOL     OW30721   3.279   4.140   5.063
 9941SOL    HW130722   3.208   4.167   5.128
 9941SOL    HW230723   3.238   4.117   4.975
 9942SOL     OW30724   2.256   6.166   3.107
 9942SOL    HW130725   2.198   6.111   3.049
 9942SOL    HW230726   2.234   6.263   3.095
 9943SOL     OW30727   0.329   5.920   6.235
 9943SOL    HW130728   0.419   5.877   6.223
 9943SOL    HW230729   0.264   5.852   6.269
 9944SOL     OW30730   1.948   4.416   6.240
 9944SOL    HW130731   1.996   4.496   6.204
 9944SOL    HW230732   1.865   4.444   6.288
 9945SOL     OW30733   6.567   5.331   0.079
 9945SOL    HW130734   6.603   5.249   0.035
 9945SOL    HW230735   6.499   5.305   0.148
 9946SOL     OW30736   5.600   1.321   5.242
 9946SOL    HW130737   5.683   1.281   5.203
 9946SOL    HW230738   5.533   1.249   5.258
 9947SOL     OW30739   6.768   4.074   6.134
 9947SOL    HW130740   6.813   3.992   6.098
 9947SOL    HW230741   6.687   4.094   6.080
 9948SOL     OW30742   4.812   4.935   4.899
 9948SOL    HW130743   4.730   4.889   4.865
 9948SOL    HW230744   4.891   4.906   4.843
 9949SOL     OW30745   5.393   5.150   3.658
 9949SOL    HW130746   5.333   5.088   3.709
 9949SOL    HW230747   5.440   5.211   3.722
 9950SOL     OW30748   5.760   6.307   5.447
 9950SOL    HW130749   5.728   6.236   5.509
 9950SOL    HW230750   5.686   6.335   5.386
 9951SOL     OW30751   6.600   2.281   3.946
 9951SOL    HW130752   6.662   2.204   3.961
 9951SOL    HW230753   6.645   2.366   3.973
 9952SOL     OW30754   6.383   3.879   1.069
 9952SOL    HW130755   6.419   3.801   1.017
 9952SOL    HW230756   6.447   3.902   1.142
 9953SOL     OW30757   6.254   2.346   4.457
 9953SOL    HW130758   6.271   2.439   4.489
 9953SOL    HW230759   6.155   2.330   4.452
 9954SOL     OW30760   5.644   6.300   6.065
 9954SOL    HW130761   5.688   6.288   6.154
 9954SOL    HW230762   5.711   6.335   5.999
 9955SOL     OW30763   6.613   4.797   4.824
 9955SOL    HW130764   6.677   4.726   4.795
 9955SOL    HW230765   6.632   4.822   4.919
 9956SOL     OW30766   1.852   0.103   1.741
 9956SOL    HW130767   1.757   0.078   1.763
 9956SOL    HW230768   1.891   0.153   1.818
 9957SOL     OW30769   6.455   5.515   2.979
 9957SOL    HW130770   6.482   5.449   3.048
 9957SOL    HW230771   6.457   5.607   3.018
 9958SOL     OW30772   3.864   5.181   0.391
 9958SOL    HW130773   3.918   5.179   0.307
 9958SOL    HW230774   3.912   5.133   0.464
 9959SOL     OW30775   4.164   3.637   5.700
 9959SOL    HW130776   4.221   3.566   5.657
 9959SOL    HW230777   4.174   3.722   5.649
 9960SOL     OW30778   6.631   0.237   2.668
 9960SOL    HW130779   6.597   0.313   2.723
 9960SOL    HW230780   6.715   0.200   2.709
 9961SOL     OW30781   2.050   5.588   4.202
 9961SOL    HW130782   2.079   5.517   4.267
 9961SOL    HW230783   2.096   5.674   4.224
 9962SOL     OW30784   5.777   6.706   4.213
 9962SOL    HW130785   5.702   6.728   4.152
 9962SOL    HW230786   5.864   6.723   4.167
 9963SOL     OW30787   3.238   2.598   0.566
 9963SOL    HW130788   3.184   2.541   0.628
 9963SOL    HW230789   3.246   2.552   0.478
 9964SOL     OW30790   5.108   5.709   4.339
 9964SOL    HW130791   5.053   5.660   4.407
 9964SOL    HW230792   5.191   5.745   4.383
 9965SOL     OW30793   4.007   6.533   0.147
 9965SOL    HW130794   4.024   6.457   0.209
 9965SOL    HW230795   4.094   6.565   0.109
 9966SOL     OW30796   1.550   5.153   1.900
 9966SOL    HW130797   1.611   5.228   1.876
 9966SOL    HW230798   1.505   5.118   1.818
 9967SOL     OW30799   1.172   5.254   1.861
 9967SOL    HW130800   1.122   5.173   1.830
 9967SOL    HW230801   1.111   5.333   1.861
 9968SOL     OW30802   3.489   4.138   2.111
 9968SOL    HW130803   3.556   4.166   2.180
 9968SOL    HW230804   3.399   4.130   2.153
 9969SOL     OW30805   1.543   3.629   2.673
 9969SOL    HW130806   1.489   3.684   2.608
 9969SOL    HW230807   1.622   3.682   2.704
 9970SOL     OW30808   5.120   4.127   1.722
 9970SOL    HW130809   5.168   4.191   1.662
 9970SOL    HW230810   5.029   4.108   1.684
 9971SOL     OW30811   1.225   4.705   1.106
 9971SOL    HW130812   1.175   4.624   1.135
 9971SOL    HW230813   1.166   4.761   1.048
 9972SOL     OW30814   5.515   4.615   2.100
 9972SOL    HW130815   5.482   4.708   2.114
 9972SOL    HW230816   5.438   4.554   2.082
 9973SOL     OW30817   5.642   1.291   3.574
 9973SOL    HW130818   5.585   1.210   3.562
 9973SOL    HW230819   5.723   1.284   3.516
 9974SOL     OW30820   1.364   1.086   3.500
 9974SOL    HW130821   1.425   1.045   3.432
 9974SOL    HW230822   1.368   1.185   3.494
 9975SOL     OW30823   6.793   2.658   0.573
 9975SOL    HW130824   6.800   2.697   0.665
 9975SOL    HW230825   6.697   2.648   0.548
 9976SOL     OW30826   0.943   6.907   5.300
 9976SOL    HW130827   0.963   7.004   5.297
 9976SOL    HW230828   1.003   6.858   5.237
 9977SOL     OW30829   6.044   5.083   5.414
 9977SOL    HW130830   6.083   4.990   5.412
 9977SOL    HW230831   6.042   5.120   5.321
 9978SOL     OW30832   0.413   2.376   4.752
 9978SOL    HW130833   0.339   2.429   4.709
 9978SOL    HW230834   0.492   2.435   4.767
 9979SOL     OW30835   6.157   4.244   4.570
 9979SOL    HW130836   6.211   4.248   4.486
 9979SOL    HW230837   6.060   4.247   4.547
 9980SOL     OW30838   3.535   0.450   6.636
 9980SOL    HW130839   3.613   0.508   6.660
 9980SOL    HW230840   3.553   0.356   6.666
 9981SOL     OW30841   3.422   1.536   3.678
 9981SOL    HW130842   3.431   1.630   3.645
 9981SOL    HW230843   3.397   1.476   3.602
 9982SOL     OW30844   6.901   5.917   3.628
 9982SOL    HW130845   6.827   5.985   3.626
 9982SOL    HW230846   6.890   5.858   3.707
 9983SOL     OW30847   6.652   1.254   2.636
 9983SOL    HW130848   6.727   1.193   2.612
 9983SOL    HW230849   6.588   1.262   2.560
 9984SOL     OW30850   2.402   1.904   6.495
 9984SOL    HW130851   2.325   1.851   6.529
 9984SOL    HW230852   2.410   1.892   6.396
 9985SOL     OW30853   2.258   0.918   1.386
 9985SOL    HW130854   2.331   0.887   1.325
 9985SOL    HW230855   2.224   0.840   1.440
 9986SOL     OW30856   5.606   3.957   4.888
 9986SOL    HW130857   5.565   3.923   4.803
 9986SOL    HW230858   5.680   3.896   4.917
 9987SOL     OW30859   5.660   3.738   6.206
 9987SOL    HW130860   5.718   3.818   6.218
 9987SOL    HW230861   5.594   3.733   6.281
 9988SOL     OW30862   6.448   6.521   5.195
 9988SOL    HW130863   6.512   6.594   5.171
 9988SOL    HW230864   6.364   6.532   5.142
 9989SOL     OW30865   6.966   3.393   4.652
 9989SOL    HW130866   7.005   3.478   4.615
 9989SOL    HW230867   0.015   3.325   4.660
 9990SOL     OW30868   0.842   5.175   3.337
 9990SOL    HW130869   0.801   5.102   3.283
 9990SOL    HW230870   0.780   5.202   3.411
 9991SOL     OW30871   3.542   2.132   4.164
 9991SOL    HW130872   3.467   2.086   4.213
 9991SOL    HW230873   3.616   2.152   4.228
 9992SOL     OW30874   5.848   5.252   6.356
 9992SOL    HW130875   5.814   5.178   6.414
 9992SOL    HW230876   5.935   5.223   6.314
 9993SOL     OW30877   2.099   1.883   1.370
 9993SOL    HW130878   2.068   1.940   1.446
 9993SOL    HW230879   2.029   1.815   1.348
 9994SOL     OW30880   6.001   4.484   3.534
 9994SOL    HW130881   5.925   4.548   3.550
 9994SOL    HW230882   6.029   4.488   3.438
 9995SOL     OW30883   5.004   1.483   4.079
 9995SOL    HW130884   5.065   1.477   3.999
 9995SOL    HW230885   4.920   1.431   4.060
 9996SOL     OW30886   3.805   4.479   0.161
 9996SOL    HW130887   3.798   4.519   0.253
 9996SOL    HW230888   3.834   4.549   0.096
 9997SOL     OW30889   3.041   0.764   5.663
 9997SOL    HW130890   2.944   0.786   5.649
 9997SOL    HW230891   3.069   0.693   5.598
 9998SOL     OW30892   6.088   5.171   5.153
 9998SOL    HW130893   6.015   5.235   5.177
 9998SOL    HW230894   6.082   5.148   5.056
 9999SOL     OW30895   6.167   2.617   5.790
 9999SOL    HW130896   6.193   2.711   5.812
 9999SOL    HW230897   6.158   2.607   5.691
10000SOL     OW30898   6.943   2.330   0.086
10000SOL    HW130899   6.917   2.396   0.015
10000SOL    HW230900   6.861   2.298   0.134
10001SOL     OW30901   4.686   1.034   2.055
10001SOL    HW130902   4.694   0.995   2.147
10001SOL    HW230903   4.703   1.133   2.059
10002SOL     OW30904   0.969   0.292   1.814
10002SOL    HW130905   0.970   0.386   1.849
10002SOL    HW230906   1.008   0.231   1.882
10003SOL     OW30907   3.915   2.150   3.407
10003SOL    HW130908   4.001   2.164   3.358
10003SOL    HW230909   3.934   2.114   3.499
10004SOL     OW30910   0.045   2.259   3.354
10004SOL    HW130911   0.117   2.288   3.291
10004SOL    HW230912   6.984   2.308   3.332
10005SOL     OW30913   5.200   0.723   3.065
10005SOL    HW130914   5.109   0.710   3.106
10005SOL    HW230915   5.252   0.788   3.120
10006SOL     OW30916   3.686   7.023   4.506
10006SOL    HW130917   3.741   6.945   4.475
10006SOL    HW230918   3.595   6.991   4.531
10007SOL     OW30919   0.446   3.068   4.501
10007SOL    HW130920   0.507   3.144   4.478
10007SOL    HW230921   0.355   3.104   4.523
10008SOL     OW30922   3.207   0.739   4.421
10008SOL    HW130923   3.197   0.648   4.462
10008SOL    HW230924   3.289   0.741   4.364
10009SOL     OW30925   2.328   4.131   1.970
10009SOL    HW130926   2.349   4.228   1.957
10009SOL    HW230927   2.343   4.082   1.884
10010SOL     OW30928   1.902   1.841   0.098
10010SOL    HW130929   1.974   1.805   0.158
10010SOL    HW230930   1.930   1.931   0.062
10011SOL     OW30931   6.620   6.513   5.510
10011SOL    HW130932   6.528   6.493   5.543
10011SOL    HW230933   6.621   6.511   5.410
10012SOL     OW30934   5.933   1.416   4.164
10012SOL    HW130935   5.847   1.367   4.149
10012SOL    HW230936   5.919   1.513   4.147
10013SOL     OW30937   0.164   0.169   2.949
10013SOL    HW130938   0.112   0.253   2.934
10013SOL    HW230939   0.260   0.183   2.923
10014SOL     OW30940   0.491   4.290   6.413
10014SOL    HW130941   0.446   4.221   6.357
10014SOL    HW230942   0.502   4.374   6.360
10015SOL     OW30943   2.099   4.766   6.739
10015SOL    HW130944   2.178   4.731   6.788
10015SOL    HW230945   2.026   4.697   6.739
10016SOL     OW30946   2.587   1.355   6.548
10016SOL    HW130947   2.674   1.338   6.501
10016SOL    HW230948   2.570   1.453   6.553
10017SOL     OW30949   2.255   1.894   4.719
10017SOL    HW130950   2.215   1.985   4.731
10017SOL    HW230951   2.303   1.868   4.802
10018SOL     OW30952   5.173   0.657   5.618
10018SOL    HW130953   5.107   0.720   5.658
10018SOL    HW230954   5.134   0.565   5.615
10019SOL     OW30955   1.591   0.687   3.474
10019SOL    HW130956   1.538   0.603   3.487
10019SOL    HW230957   1.535   0.754   3.425
10020SOL     OW30958   1.235   3.223   1.170
10020SOL    HW130959   1.316   3.179   1.209
10020SOL    HW230960   1.173   3.249   1.244
10021SOL     OW30961   0.389   3.846   1.261
10021SOL    HW130962   0.297   3.813   1.238
10021SOL    HW230963   0.422   3.797   1.342
10022SOL     OW30964   1.250   2.170   6.345
10022SOL    HW130965   1.321   2.113   6.386
10022SOL    HW230966   1.176   2.184   6.410
10023SOL     OW30967   6.616   3.250   0.453
10023SOL    HW130968   6.681   3.301   0.397
10023SOL    HW230969   6.665   3.177   0.501
10024SOL     OW30970   1.487   4.370   4.015
10024SOL    HW130971   1.485   4.430   4.095
10024SOL    HW230972   1.407   4.387   3.958
10025SOL     OW30973   1.900   1.637   1.223
10025SOL    HW130974   1.940   1.699   1.155
10025SOL    HW230975   1.911   1.543   1.192
10026SOL     OW30976   6.534   0.620   3.176
10026SOL    HW130977   6.511   0.710   3.212
10026SOL    HW230978   6.449   0.570   3.155
10027SOL     OW30979   5.226   3.409   4.868
10027SOL    HW130980   5.162   3.345   4.825
10027SOL    HW230981   5.174   3.481   4.914
10028SOL     OW30982   2.018   1.115   0.277
10028SOL    HW130983   1.990   1.020   0.264
10028SOL    HW230984   2.065   1.148   0.195
10029SOL     OW30985   5.538   1.823   3.714
10029SOL    HW130986   5.542   1.823   3.814
10029SOL    HW230987   5.590   1.745   3.679
10030SOL     OW30988   1.452   0.609   4.189
10030SOL    HW130989   1.468   0.607   4.091
10030SOL    HW230990   1.360   0.575   4.209
10031SOL     OW30991   6.376   4.436   3.665
10031SOL    HW130992   6.364   4.479   3.576
10031SOL    HW230993   6.316   4.479   3.732
10032SOL     OW30994   2.950   1.350   5.211
10032SOL    HW130995   3.032   1.322   5.261
10032SOL    HW230996   2.877   1.285   5.228
10033SOL     OW30997   5.862   3.253   4.773
10033SOL    HW130998   5.921   3.244   4.693
10033SOL    HW230999   5.881   3.339   4.820
10034SOL     OW31000   5.226   0.521   5.374
10034SOL    HW131001   5.321   0.522   5.404
10034SOL    HW231002   5.184   0.610   5.394
10035SOL     OW31003   0.476   5.513   1.342
10035SOL    HW131004   0.564   5.466   1.337
10035SOL    HW231005   0.483   5.601   1.296
10036SOL     OW31006   6.645   1.442   0.043
10036SOL    HW131007   6.598   1.530   0.048
10036SOL    HW231008   6.741   1.454   0.069
10037SOL     OW31009   0.581   0.269   6.996
10037SOL    HW131010   0.567   0.368   6.989
10037SOL    HW231011   0.673   0.246   6.964
10038SOL     OW31012   6.449   6.773   1.329
10038SOL    HW131013   6.485   6.724   1.408
10038SOL    HW231014   6.380   6.839   1.358
10039SOL     OW31015   3.402   0.196   3.853
10039SOL    HW131016   3.451   0.276   3.888
10039SOL    HW231017   3.396   0.127   3.925
10040SOL     OW31018   0.156   3.314   1.102
10040SOL    HW131019   0.069   3.278   1.067
10040SOL    HW231020   0.155   3.313   1.202
10041SOL     OW31021   2.112   6.589   0.128
10041SOL    HW131022   2.120   6.532   0.209
10041SOL    HW231023   2.199   6.635   0.110
10042SOL     OW31024   6.432   2.190   2.963
10042SOL    HW131025   6.423   2.128   3.041
10042SOL    HW231026   6.351   2.248   2.957
10043SOL     OW31027   6.985   1.905   5.929
10043SOL    HW131028   6.942   1.955   5.854
10043SOL    HW231029   0.002   1.821   5.894
10044SOL     OW31030   3.335   2.293   5.656
10044SOL    HW131031   3.376   2.201   5.655
10044SOL    HW231032   3.291   2.310   5.568
10045SOL     OW31033   3.485   0.720   0.473
10045SOL    HW131034   3.506   0.635   0.425
10045SOL    HW231035   3.544   0.728   0.554
10046SOL     OW31036   1.966   5.215   1.501
10046SOL    HW131037   2.032   5.149   1.537
10046SOL    HW231038   1.925   5.266   1.576
10047SOL     OW31039   0.767   3.746   7.001
10047SOL    HW131040   0.725   3.835   6.985
10047SOL    HW231041   0.707   3.674   6.968
10048SOL     OW31042   5.928   6.016   3.103
10048SOL    HW131043   5.878   5.968   3.175
10048SOL    HW231044   6.025   6.024   3.128
10049SOL     OW31045   0.079   1.047   5.848
10049SOL    HW131046   0.143   0.975   5.822
10049SOL    HW231047   0.014   1.011   5.915
10050SOL     OW31048   6.357   3.290   6.043
10050SOL    HW131049   6.444   3.243   6.030
10050SOL    HW231050   6.361   3.346   6.126
10051SOL     OW31051   1.518   3.362   3.636
10051SOL    HW131052   1.566   3.300   3.698
10051SOL    HW231053   1.467   3.308   3.568
10052SOL     OW31054   1.257   0.238   3.184
10052SOL    HW131055   1.160   0.238   3.161
10052SOL    HW231056   1.290   0.333   3.191
10053SOL     OW31057   5.546   5.324   5.057
10053SOL    HW131058   5.617   5.265   5.020
10053SOL    HW231059   5.459   5.306   5.011
10054SOL     OW31060   6.293   4.130   4.819
10054SOL    HW131061   6.250   4.164   4.735
10054SOL    HW231062   6.338   4.206   4.866
10055SOL     OW31063   0.558   1.910   6.490
10055SOL    HW131064   0.645   1.861   6.489
10055SOL    HW231065   0.517   1.906   6.399
10056SOL     OW31066   6.508   2.980   4.077
10056SOL    HW131067   6.500   2.986   3.977
10056SOL    HW231068   6.601   3.004   4.104
10057SOL     OW31069   5.947   4.938   5.781
10057SOL    HW131070   6.009   4.901   5.712
10057SOL    HW231071   5.984   5.024   5.816
10058SOL     OW31072   6.982   4.086   5.206
10058SOL    HW131073   0.046   4.065   5.251
10058SOL    HW231074   6.929   4.003   5.197
10059SOL     OW31075   6.423   0.710   6.882
10059SOL    HW131076   6.338   0.706   6.933
10059SOL    HW231077   6.477   0.627   6.901
10060SOL     OW31078   2.467   2.242   2.199
10060SOL    HW131079   2.540   2.305   2.224
10060SOL    HW231080   2.445   2.184   2.277
10061SOL     OW31081   3.642   0.050   2.677
10061SOL    HW131082   3.612   0.100   2.758
10061SOL    HW231083   3.640   6.975   2.697
10062SOL     OW31084   5.964   0.370   4.280
10062SOL    HW131085   6.018   0.454   4.272
10062SOL    HW231086   5.908   0.375   4.363
10063SOL     OW31087   1.565   2.944   5.450
10063SOL    HW131088   1.527   2.901   5.531
10063SOL    HW231089   1.664   2.951   5.459
10064SOL     OW31090   2.707   6.889   0.648
10064SOL    HW131091   2.671   6.943   0.725
10064SOL    HW231092   2.736   6.800   0.681
10065SOL     OW31093   1.023   1.600   1.927
10065SOL    HW131094   1.085   1.551   1.866
10065SOL    HW231095   1.026   1.559   2.018
10066SOL     OW31096   6.433   3.569   3.378
10066SOL    HW131097   6.348   3.601   3.421
10066SOL    HW231098   6.511   3.613   3.421
10067SOL     OW31099   6.632   2.715   5.425
10067SOL    HW131100   6.564   2.765   5.477
10067SOL    HW231101   6.720   2.763   5.431
10068SOL     OW31102   1.911   3.048   2.704
10068SOL    HW131103   1.883   2.955   2.729
10068SOL    HW231104   2.009   3.060   2.725
10069SOL     OW31105   2.802   5.028   0.581
10069SOL    HW131106   2.732   4.996   0.644
10069SOL    HW231107   2.759   5.082   0.508
10070SOL     OW31108   3.695   6.773   5.992
10070SOL    HW131109   3.631   6.718   6.046
10070SOL    HW231110   3.785   6.730   5.992
10071SOL     OW31111   6.310   7.019   3.960
10071SOL    HW131112   6.389   6.987   3.908
10071SOL    HW231113   6.316   6.985   4.054
10072SOL     OW31114   6.355   3.216   1.788
10072SOL    HW131115   6.366   3.245   1.693
10072SOL    HW231116   6.403   3.280   1.848
10073SOL     OW31117   6.841   4.717   4.120
10073SOL    HW131118   6.887   4.629   4.110
10073SOL    HW231119   6.809   4.728   4.214
10074SOL     OW31120   1.285   4.822   6.943
10074SOL    HW131121   1.235   4.878   6.877
10074SOL    HW231122   1.237   4.822   0.007
10075SOL     OW31123   1.644   3.335   1.896
10075SOL    HW131124   1.676   3.272   1.966
10075SOL    HW231125   1.709   3.336   1.820
10076SOL     OW31126   4.968   5.636   4.119
10076SOL    HW131127   5.038   5.660   4.187
10076SOL    HW231128   4.956   5.537   4.117
10077SOL     OW31129   5.006   3.477   6.818
10077SOL    HW131130   5.054   3.414   6.756
10077SOL    HW231131   4.956   3.425   6.886
10078SOL     OW31132   6.457   5.929   5.030
10078SOL    HW131133   6.494   5.977   5.110
10078SOL    HW231134   6.370   5.971   5.004
10079SOL     OW31135   4.693   2.805   3.644
10079SOL    HW131136   4.683   2.889   3.697
10079SOL    HW231137   4.699   2.727   3.707
10080SOL     OW31138   4.808   1.298   5.766
10080SOL    HW131139   4.852   1.369   5.711
10080SOL    HW231140   4.762   1.233   5.706
10081SOL     OW31141   1.781   4.134   0.759
10081SOL    HW131142   1.687   4.100   0.763
10081SOL    HW231143   1.826   4.100   0.677
10082SOL     OW31144   1.327   5.002   0.622
10082SOL    HW131145   1.376   4.960   0.698
10082SOL    HW231146   1.300   4.932   0.556
10083SOL     OW31147   3.670   4.917   3.258
10083SOL    HW131148   3.705   4.874   3.175
10083SOL    HW231149   3.570   4.921   3.254
10084SOL     OW31150   1.108   1.358   5.133
10084SOL    HW131151   1.071   1.439   5.087
10084SOL    HW231152   1.153   1.386   5.218
10085SOL     OW31153   5.011   0.082   0.449
10085SOL    HW131154   5.071   0.013   0.409
10085SOL    HW231155   4.947   0.039   0.512
10086SOL     OW31156   6.236   6.452   3.613
10086SOL    HW131157   6.148   6.409   3.595
10086SOL    HW231158   6.300   6.383   3.649
10087SOL     OW31159   1.059   6.883   5.801
10087SOL    HW131160   1.148   6.909   5.763
10087SOL    HW231161   0.986   6.909   5.737
10088SOL     OW31162   0.438   2.557   0.326
10088SOL    HW131163   0.439   2.528   0.231
10088SOL    HW231164   0.347   2.589   0.351
10089SOL     OW31165   3.366   1.497   1.766
10089SOL    HW131166   3.414   1.556   1.831
10089SOL    HW231167   3.423   1.480   1.687
10090SOL     OW31168   2.566   5.765   3.092
10090SOL    HW131169   2.560   5.688   3.156
10090SOL    HW231170   2.492   5.829   3.111
10091SOL     OW31171   6.685   4.310   5.232
10091SOL    HW131172   6.686   4.224   5.181
10091SOL    HW231173   6.779   4.345   5.240
10092SOL     OW31174   0.870   2.063   3.560
10092SOL    HW131175   0.784   2.076   3.511
10092SOL    HW231176   0.858   1.994   3.632
10093SOL     OW31177   5.026   4.222   6.031
10093SOL    HW131178   4.927   4.208   6.022
10093SOL    HW231179   5.046   4.319   6.018
10094SOL     OW31180   3.288   1.937   0.848
10094SOL    HW131181   3.211   1.909   0.905
10094SOL    HW231182   3.339   2.010   0.894
10095SOL     OW31183   4.608   2.842   5.449
10095SOL    HW131184   4.574   2.805   5.363
10095SOL    HW231185   4.646   2.933   5.434
10096SOL     OW31186   6.016   2.797   2.371
10096SOL    HW131187   5.931   2.813   2.320
10096SOL    HW231188   6.083   2.755   2.310
10097SOL     OW31189   0.651   0.942   6.942
10097SOL    HW131190   0.667   1.040   6.931
10097SOL    HW231191   0.739   0.896   6.954
10098SOL     OW31192   2.712   5.438   3.785
10098SOL    HW131193   2.697   5.391   3.872
10098SOL    HW231194   2.661   5.391   3.713
10099SOL     OW31195   0.681   5.351   1.602
10099SOL    HW131196   0.691   5.448   1.623
10099SOL    HW231197   0.602   5.314   1.652
10100SOL     OW31198   4.923   5.374   4.031
10100SOL    HW131199   4.996   5.325   3.984
10100SOL    HW231200   4.835   5.351   3.989
10101SOL     OW31201   0.168   2.877   1.294
10101SOL    HW131202   0.112   2.944   1.244
10101SOL    HW231203   0.221   2.823   1.229
10102SOL     OW31204   6.996   5.209   2.949
10102SOL    HW131205   0.002   5.288   2.894
10102SOL    HW231206   0.053   5.163   2.985
10103SOL     OW31207   6.642   5.889   6.116
10103SOL    HW131208   6.562   5.935   6.079
10103SOL    HW231209   6.658   5.803   6.066
10104SOL     OW31210   2.100   0.466   4.238
10104SOL    HW131211   2.152   0.503   4.161
10104SOL    HW231212   2.164   0.425   4.304
10105SOL     OW31213   3.445   0.678   5.760
10105SOL    HW131214   3.440   0.700   5.857
10105SOL    HW231215   3.425   0.581   5.746
10106SOL     OW31216   5.678   4.927   1.575
10106SOL    HW131217   5.719   5.015   1.553
10106SOL    HW231218   5.697   4.905   1.671
10107SOL     OW31219   5.379   4.521   0.223
10107SOL    HW131220   5.407   4.460   0.149
10107SOL    HW231221   5.279   4.519   0.232
10108SOL     OW31222   1.806   2.745   0.400
10108SOL    HW131223   1.857   2.818   0.444
10108SOL    HW231224   1.811   2.755   0.301
10109SOL     OW31225   1.158   2.271   1.572
10109SOL    HW131226   1.101   2.322   1.636
10109SOL    HW231227   1.104   2.198   1.530
10110SOL     OW31228   5.506   5.994   2.707
10110SOL    HW131229   5.568   6.070   2.727
10110SOL    HW231230   5.416   6.012   2.747
10111SOL     OW31231   1.151   2.723   1.737
10111SOL    HW131232   1.173   2.816   1.769
10111SOL    HW231233   1.052   2.710   1.740
10112SOL     OW31234   0.023   2.132   2.653
10112SOL    HW131235   0.121   2.122   2.633
10112SOL    HW231236   0.012   2.178   2.741
10113SOL     OW31237   6.937   1.016   6.067
10113SOL    HW131238   6.917   1.105   6.028
10113SOL    HW231239   6.854   0.980   6.111
10114SOL     OW31240   5.464   1.791   1.600
10114SOL    HW131241   5.380   1.795   1.547
10114SOL    HW231242   5.504   1.700   1.591
10115SOL     OW31243   3.350   2.782   6.246
10115SOL    HW131244   3.415   2.758   6.318
10115SOL    HW231245   3.372   2.873   6.210
10116SOL     OW31246   6.887   0.527   5.131
10116SOL    HW131247   6.879   0.590   5.054
10116SOL    HW231248   6.974   0.543   5.178
10117SOL     OW31249   6.023   5.231   3.157
10117SOL    HW131250   6.029   5.209   3.059
10117SOL    HW231251   6.110   5.266   3.189
10118SOL     OW31252   4.269   5.129   3.516
10118SOL    HW131253   4.345   5.132   3.581
10118SOL    HW231254   4.246   5.222   3.488
10119SOL     OW31255   6.744   5.756   4.733
10119SOL    HW131256   6.740   5.740   4.832
10119SOL    HW231257   6.725   5.852   4.714
10120SOL     OW31258   1.864   3.164   3.265
10120SOL    HW131259   1.768   3.188   3.250
10120SOL    HW231260   1.889   3.087   3.206
10121SOL     OW31261   6.204   4.914   0.993
10121SOL    HW131262   6.189   4.856   1.073
10121SOL    HW231263   6.301   4.912   0.968
10122SOL     OW31264   1.577   0.111   3.629
10122SOL    HW131265   1.558   0.143   3.536
10122SOL    HW231266   1.670   0.076   3.634
10123SOL     OW31267   6.606   5.431   6.848
10123SOL    HW131268   6.676   5.502   6.859
10123SOL    HW231269   6.595   5.382   6.935
10124SOL     OW31270   1.966   4.901   2.803
10124SOL    HW131271   2.059   4.872   2.778
10124SOL    HW231272   1.968   4.995   2.835
10125SOL     OW31273   2.037   1.099   4.939
10125SOL    HW131274   2.036   1.161   5.017
10125SOL    HW231275   1.951   1.107   4.888
10126SOL     OW31276   6.300   6.416   6.048
10126SOL    HW131277   6.303   6.487   5.978
10126SOL    HW231278   6.329   6.454   6.136
10127SOL     OW31279   2.605   0.056   5.842
10127SOL    HW131280   2.535   0.128   5.840
10127SOL    HW231281   2.657   0.057   5.756
10128SOL     OW31282   3.015   2.842   7.021
10128SOL    HW131283   2.921   2.852   6.989
10128SOL    HW231284   3.074   2.905   6.971
10129SOL     OW31285   6.280   1.589   4.887
10129SOL    HW131286   6.235   1.676   4.866
10129SOL    HW231287   6.352   1.572   4.820
10130SOL     OW31288   1.335   1.180   3.855
10130SOL    HW131289   1.287   1.149   3.773
10130SOL    HW231290   1.277   1.166   3.935
10131SOL     OW31291   1.773   6.200   3.928
10131SOL    HW131292   1.830   6.282   3.934
10131SOL    HW231293   1.800   6.135   3.998
10132SOL     OW31294   6.286   6.974   1.684
10132SOL    HW131295   6.195   6.973   1.726
10132SOL    HW231296   6.352   6.935   1.748
10133SOL     OW31297   5.512   6.345   6.990
10133SOL    HW131298   5.445   6.413   6.963
10133SOL    HW231299   5.604   6.385   6.985
10134SOL     OW31300   6.897   6.734   2.483
10134SOL    HW131301   6.986   6.714   2.440
10134SOL    HW231302   6.830   6.666   2.452
10135SOL     OW31303   6.132   0.097   2.818
10135SOL    HW131304   6.098   0.014   2.863
10135SOL    HW231305   6.216   0.076   2.769
10136SOL     OW31306   5.058   2.156   3.424
10136SOL    HW131307   4.977   2.099   3.405
10136SOL    HW231308   5.042   2.249   3.390
10137SOL     OW31309   6.271   5.131   5.608
10137SOL    HW131310   6.197   5.107   5.546
10137SOL    HW231311   6.336   5.056   5.614
10138SOL     OW31312   0.066   2.630   1.050
10138SOL    HW131313   0.004   2.577   0.992
10138SOL    HW231314   0.161   2.606   1.028
10139SOL     OW31315   2.529   3.407   6.673
10139SOL    HW131316   2.453   3.457   6.715
10139SOL    HW231317   2.587   3.471   6.624
10140SOL     OW31318   0.803   6.667   5.869
10140SOL    HW131319   0.832   6.715   5.786
10140SOL    HW231320   0.883   6.651   5.927
10141SOL     OW31321   2.128   2.621   4.271
10141SOL    HW131322   2.104   2.530   4.305
10141SOL    HW231323   2.074   2.642   4.189
10142SOL     OW31324   4.296   6.649   3.494
10142SOL    HW131325   4.230   6.717   3.528
10142SOL    HW231326   4.299   6.572   3.558
10143SOL     OW31327   5.407   2.633   6.459
10143SOL    HW131328   5.375   2.538   6.462
10143SOL    HW231329   5.471   2.649   6.535
10144SOL     OW31330   3.374   6.480   0.453
10144SOL    HW131331   3.315   6.508   0.529
10144SOL    HW231332   3.365   6.547   0.378
10145SOL     OW31333   5.487   6.803   6.316
10145SOL    HW131334   5.440   6.778   6.231
10145SOL    HW231335   5.444   6.884   6.355
10146SOL     OW31336   0.377   2.844   4.929
10146SOL    HW131337   0.304   2.910   4.911
10146SOL    HW231338   0.338   2.760   4.967
10147SOL     OW31339   3.990   5.772   5.780
10147SOL    HW131340   4.019   5.724   5.698
10147SOL    HW231341   3.982   5.707   5.856
10148SOL     OW31342   0.986   4.355   0.406
10148SOL    HW131343   0.942   4.444   0.395
10148SOL    HW231344   0.938   4.303   0.478
10149SOL     OW31345   3.997   3.575   0.910
10149SOL    HW131346   3.933   3.651   0.925
10149SOL    HW231347   3.961   3.513   0.841
10150SOL     OW31348   4.301   4.414   0.881
10150SOL    HW131349   4.239   4.486   0.851
10150SOL    HW231350   4.254   4.326   0.880
10151SOL     OW31351   6.094   6.958   5.874
10151SOL    HW131352   6.086   6.952   5.775
10151SOL    HW231353   6.047   0.017   5.906
10152SOL     OW31354   4.374   0.190   2.308
10152SOL    HW131355   4.318   0.110   2.333
10152SOL    HW231356   4.463   0.159   2.277
10153SOL     OW31357   4.687   4.455   2.487
10153SOL    HW131358   4.775   4.503   2.485
10153SOL    HW231359   4.685   4.387   2.414
10154SOL     OW31360   4.570   5.707   5.822
10154SOL    HW131361   4.488   5.724   5.877
10154SOL    HW231362   4.577   5.777   5.751
10155SOL     OW31363   4.836   1.563   4.627
10155SOL    HW131364   4.797   1.607   4.707
10155SOL    HW231365   4.775   1.576   4.549
10156SOL     OW31366   4.312   1.986   0.205
10156SOL    HW131367   4.388   1.974   0.270
10156SOL    HW231368   4.345   2.038   0.126
10157SOL     OW31369   0.266   4.280   1.519
10157SOL    HW131370   0.364   4.274   1.503
10157SOL    HW231371   0.217   4.224   1.452
10158SOL     OW31372   6.149   4.949   0.452
10158SOL    HW131373   6.099   4.904   0.525
10158SOL    HW231374   6.201   4.881   0.400
10159SOL     OW31375   3.104   3.002   2.089
10159SOL    HW131376   3.174   3.065   2.055
10159SOL    HW231377   3.034   3.054   2.138
10160SOL     OW31378   0.536   5.031   2.512
10160SOL    HW131379   0.538   5.094   2.589
10160SOL    HW231380   0.624   4.983   2.506
10161SOL     OW31381   5.435   3.238   4.590
10161SOL    HW131382   5.501   3.173   4.629
10161SOL    HW231383   5.475   3.329   4.589
10162SOL     OW31384   1.678   2.584   1.995
10162SOL    HW131385   1.672   2.535   2.082
10162SOL    HW231386   1.677   2.682   2.012
10163SOL     OW31387   2.582   5.821   5.129
10163SOL    HW131388   2.567   5.725   5.103
10163SOL    HW231389   2.503   5.854   5.182
10164SOL     OW31390   1.219   1.497   3.531
10164SOL    HW131391   1.206   1.445   3.446
10164SOL    HW231392   1.305   1.471   3.574
10165SOL     OW31393   0.774   3.526   4.218
10165SOL    HW131394   0.784   3.616   4.176
10165SOL    HW231395   0.686   3.521   4.267
10166SOL     OW31396   2.289   0.023   1.645
10166SOL    HW131397   2.273   0.116   1.613
10166SOL    HW231398   2.379   7.015   1.615
10167SOL     OW31399   2.381   1.524   6.330
10167SOL    HW131400   2.427   1.547   6.245
10167SOL    HW231401   2.439   1.549   6.407
10168SOL     OW31402   6.720   0.236   6.454
10168SOL    HW131403   6.753   0.147   6.486
10168SOL    HW231404   6.797   0.300   6.450
10169SOL     OW31405   4.935   4.071   4.074
10169SOL    HW131406   4.882   4.041   3.995
10169SOL    HW231407   5.030   4.046   4.061
10170SOL     OW31408   5.115   5.285   6.798
10170SOL    HW131409   5.028   5.282   6.750
10170SOL    HW231410   5.131   5.197   6.844
10171SOL     OW31411   1.972   4.827   5.062
10171SOL    HW131412   2.039   4.833   4.988
10171SOL    HW231413   2.000   4.888   5.137
10172SOL     OW31414   6.280   0.489   3.150
10172SOL    HW131415   6.267   0.461   3.245
10172SOL    HW231416   6.226   0.430   3.090
10173SOL     OW31417   3.548   4.051   4.820
10173SOL    HW131418   3.500   3.996   4.751
10173SOL    HW231419   3.553   4.000   4.905
10174SOL     OW31420   4.909   5.048   1.835
10174SOL    HW131421   4.881   4.987   1.909
10174SOL    HW231422   4.834   5.110   1.812
10175SOL     OW31423   0.219   0.455   4.278
10175SOL    HW131424   0.133   0.417   4.312
10175SOL    HW231425   0.204   0.497   4.188
10176SOL     OW31426   6.712   1.342   5.106
10176SOL    HW131427   6.806   1.358   5.138
10176SOL    HW231428   6.661   1.427   5.108
10177SOL     OW31429   2.547   1.241   3.373
10177SOL    HW131430   2.490   1.285   3.443
10177SOL    HW231431   2.613   1.307   3.338
10178SOL     OW31432   0.576   1.868   1.253
10178SOL    HW131433   0.593   1.960   1.216
10178SOL    HW231434   0.558   1.805   1.177
10179SOL     OW31435   1.237   3.650   0.480
10179SOL    HW131436   1.148   3.617   0.449
10179SOL    HW231437   1.309   3.605   0.428
10180SOL     OW31438   4.129   6.570   5.536
10180SOL    HW131439   4.183   6.528   5.610
10180SOL    HW231440   4.036   6.534   5.538
10181SOL     OW31441   6.088   3.116   2.748
10181SOL    HW131442   6.043   3.045   2.802
10181SOL    HW231443   6.070   3.206   2.789
10182SOL     OW31444   4.670   1.179   1.329
10182SOL    HW131445   4.721   1.196   1.413
10182SOL    HW231446   4.602   1.107   1.345
10183SOL     OW31447   6.114   1.372   6.148
10183SOL    HW131448   6.211   1.370   6.123
10183SOL    HW231449   6.090   1.289   6.197
10184SOL     OW31450   5.634   1.731   5.819
10184SOL    HW131451   5.691   1.728   5.738
10184SOL    HW231452   5.602   1.825   5.834
10185SOL     OW31453   3.755   5.560   1.702
10185SOL    HW131454   3.755   5.657   1.677
10185SOL    HW231455   3.805   5.547   1.788
10186SOL     OW31456   3.591   3.401   6.389
10186SOL    HW131457   3.610   3.351   6.473
10186SOL    HW231458   3.654   3.478   6.381
10187SOL     OW31459   2.289   4.686   5.676
10187SOL    HW131460   2.258   4.766   5.728
10187SOL    HW231461   2.250   4.603   5.716
10188SOL     OW31462   3.273   0.111   6.184
10188SOL    HW131463   3.350   0.154   6.136
10188SOL    HW231464   3.302   0.086   6.277
10189SOL     OW31465   1.410   1.832   5.543
10189SOL    HW131466   1.504   1.861   5.562
10189SOL    HW231467   1.398   1.737   5.572
10190SOL     OW31468   4.239   4.894   1.377
10190SOL    HW131469   4.217   4.859   1.468
10190SOL    HW231470   4.256   4.993   1.383
10191SOL     OW31471   5.048   6.911   6.533
10191SOL    HW131472   4.959   6.865   6.539
10191SOL    HW231473   5.121   6.842   6.531
10192SOL     OW31474   1.861   1.303   3.930
10192SOL    HW131475   1.877   1.400   3.910
10192SOL    HW231476   1.949   1.256   3.934
10193SOL     OW31477   3.718   3.350   3.715
10193SOL    HW131478   3.803   3.299   3.721
10193SOL    HW231479   3.688   3.377   3.806
10194SOL     OW31480   3.041   0.351   2.972
10194SOL    HW131481   2.957   0.299   2.987
10194SOL    HW231482   3.075   0.334   2.880
10195SOL     OW31483   4.678   6.617   2.598
10195SOL    HW131484   4.709   6.674   2.675
10195SOL    HW231485   4.726   6.530   2.600
10196SOL     OW31486   6.071   2.985   4.345
10196SOL    HW131487   6.070   2.886   4.358
10196SOL    HW231488   6.141   3.009   4.277
10197SOL     OW31489   5.142   0.619   2.214
10197SOL    HW131490   5.205   0.583   2.283
10197SOL    HW231491   5.117   0.713   2.236
10198SOL     OW31492   2.128   0.338   0.960
10198SOL    HW131493   2.166   0.387   0.882
10198SOL    HW231494   2.162   0.245   0.961
10199SOL     OW31495   1.285   1.530   0.745
10199SOL    HW131496   1.352   1.501   0.814
10199SOL    HW231497   1.333   1.565   0.665
10200SOL     OW31498   5.636   3.786   5.456
10200SOL    HW131499   5.689   3.777   5.541
10200SOL    HW231500   5.555   3.841   5.473
10201SOL     OW31501   1.501   4.969   2.716
10201SOL    HW131502   1.585   4.922   2.741
10201SOL    HW231503   1.522   5.060   2.682
10202SOL     OW31504   0.406   2.664   2.646
10202SOL    HW131505   0.310   2.691   2.644
10202SOL    HW231506   0.426   2.604   2.569
10203SOL     OW31507   1.129   3.211   2.035
10203SOL    HW131508   1.145   3.267   1.954
10203SOL    HW231509   1.133   3.267   2.117
10204SOL     OW31510   3.203   5.223   4.340
10204SOL    HW131511   3.280   5.241   4.402
10204SOL    HW231512   3.202   5.127   4.315
10205SOL     OW31513   4.584   1.063   2.716
10205SOL    HW131514   4.663   1.117   2.743
10205SOL    HW231515   4.561   1.082   2.620
10206SOL     OW31516   4.447   6.870   5.985
10206SOL    HW131517   4.443   6.815   5.901
10206SOL    HW231518   4.428   6.965   5.962
10207SOL     OW31519   4.501   0.649   2.833
10207SOL    HW131520   4.532   0.571   2.887
10207SOL    HW231521   4.418   0.625   2.783
10208SOL     OW31522   5.946   3.787   5.456
10208SOL    HW131523   5.912   3.770   5.549
10208SOL    HW231524   5.982   3.702   5.418
10209SOL     OW31525   5.370   6.960   6.623
10209SOL    HW131526   5.314   6.917   6.694
10209SOL    HW231527   5.452   7.000   6.665
10210SOL     OW31528   5.130   5.589   1.926
10210SOL    HW131529   5.190   5.636   1.991
10210SOL    HW231530   5.061   5.537   1.975
10211SOL     OW31531   3.751   5.422   5.022
10211SOL    HW131532   3.828   5.487   5.021
10211SOL    HW231533   3.771   5.346   4.960
10212SOL     OW31534   6.144   6.251   5.235
10212SOL    HW131535   6.154   6.218   5.142
10212SOL    HW231536   6.108   6.345   5.234
10213SOL     OW31537   6.074   0.629   3.512
10213SOL    HW131538   6.046   0.652   3.419
10213SOL    HW231539   6.169   0.657   3.526
10214SOL     OW31540   6.916   0.145   2.059
10214SOL    HW131541   6.987   0.107   1.999
10214SOL    HW231542   6.933   0.242   2.074
10215SOL     OW31543   3.763   2.929   0.184
10215SOL    HW131544   3.743   2.885   0.271
10215SOL    HW231545   3.678   2.948   0.135
10216SOL     OW31546   4.978   0.317   1.634
10216SOL    HW131547   5.065   0.278   1.664
10216SOL    HW231548   4.903   0.277   1.686
10217SOL     OW31549   3.216   1.315   5.288
10217SOL    HW131550   3.275   1.328   5.208
10217SOL    HW231551   3.264   1.260   5.356
10218SOL     OW31552   2.036   2.692   1.219
10218SOL    HW131553   2.108   2.625   1.235
10218SOL    HW231554   1.957   2.671   1.275
10219SOL     OW31555   1.000   3.808   0.111
10219SOL    HW131556   1.007   3.905   0.088
10219SOL    HW231557   0.909   3.775   0.085
10220SOL     OW31558   4.234   2.242   0.948
10220SOL    HW131559   4.324   2.199   0.945
10220SOL    HW231560   4.170   2.182   0.994
10221SOL     OW31561   3.285   0.542   5.089
10221SOL    HW131562   3.363   0.596   5.058
10221SOL    HW231563   3.302   0.506   5.180
10222SOL     OW31564   1.703   5.693   5.825
10222SOL    HW131565   1.633   5.750   5.782
10222SOL    HW231566   1.692   5.697   5.924
10223SOL     OW31567   6.918   4.769   0.584
10223SOL    HW131568   6.925   4.759   0.485
10223SOL    HW231569   7.010   4.774   0.624
10224SOL     OW31570   1.882   6.819   4.095
10224SOL    HW131571   1.803   6.881   4.095
10224SOL    HW231572   1.928   6.824   4.007
10225SOL     OW31573   6.110   6.107   4.631
10225SOL    HW131574   6.043   6.116   4.557
10225SOL    HW231575   6.069   6.059   4.708
10226SOL     OW31576   0.635   2.128   1.153
10226SOL    HW131577   0.568   2.202   1.157
10226SOL    HW231578   0.692   2.139   1.072
10227SOL     OW31579   5.548   5.641   6.381
10227SOL    HW131580   5.627   5.612   6.328
10227SOL    HW231581   5.545   5.741   6.384
10228SOL     OW31582   0.778   4.626   2.975
10228SOL    HW131583   0.800   4.689   2.901
10228SOL    HW231584   0.762   4.535   2.937
10229SOL     OW31585   1.735   0.538   2.549
10229SOL    HW131586   1.676   0.458   2.540
10229SOL    HW231587   1.719   0.581   2.637
10230SOL     OW31588   6.755   6.864   4.045
10230SOL    HW131589   6.732   6.954   4.083
10230SOL    HW231590   6.854   6.850   4.050
10231SOL     OW31591   5.077   6.856   3.984
10231SOL    HW131592   5.145   6.908   3.932
10231SOL    HW231593   5.038   6.914   4.055
10232SOL     OW31594   3.709   2.117   4.626
10232SOL    HW131595   3.693   2.030   4.671
10232SOL    HW231596   3.682   2.192   4.687
10233SOL     OW31597   4.679   1.020   5.825
10233SOL    HW131598   4.727   1.044   5.909
10233SOL    HW231599   4.611   1.090   5.803
10234SOL     OW31600   5.370   6.405   1.504
10234SOL    HW131601   5.371   6.336   1.431
10234SOL    HW231602   5.396   6.493   1.466
10235SOL     OW31603   5.379   1.149   6.376
10235SOL    HW131604   5.421   1.172   6.288
10235SOL    HW231605   5.381   1.050   6.389
10236SOL     OW31606   2.240   5.837   2.721
10236SOL    HW131607   2.269   5.871   2.632
10236SOL    HW231608   2.317   5.791   2.766
10237SOL     OW31609   6.823   2.625   2.837
10237SOL    HW131610   6.849   2.597   2.930
10237SOL    HW231611   6.745   2.570   2.807
10238SOL     OW31612   5.145   4.828   4.238
10238SOL    HW131613   5.160   4.889   4.161
10238SOL    HW231614   5.076   4.760   4.214
10239SOL     OW31615   0.238   3.983   3.551
10239SOL    HW131616   0.299   3.981   3.472
10239SOL    HW231617   0.276   3.925   3.623
10240SOL     OW31618   6.987   3.971   3.524
10240SOL    HW131619   6.946   4.057   3.495
10240SOL    HW231620   0.062   3.983   3.535
10241SOL     OW31621   2.364   0.969   2.779
10241SOL    HW131622   2.364   1.069   2.775
10241SOL    HW231623   2.447   0.934   2.734
10242SOL     OW31624   0.498   6.246   6.152
10242SOL    HW131625   0.538   6.175   6.095
10242SOL    HW231626   0.569   6.311   6.180
10243SOL     OW31627   1.517   5.871   2.483
10243SOL    HW131628   1.494   5.838   2.391
10243SOL    HW231629   1.435   5.911   2.525
10244SOL     OW31630   2.588   6.558   6.594
10244SOL    HW131631   2.566   6.561   6.692
10244SOL    HW231632   2.542   6.633   6.547
10245SOL     OW31633   1.959   2.285   6.927
10245SOL    HW131634   1.870   2.328   6.909
10245SOL    HW231635   1.975   2.213   6.859
10246SOL     OW31636   4.114   3.623   4.590
10246SOL    HW131637   4.172   3.544   4.612
10246SOL    HW231638   4.064   3.605   4.506
10247SOL     OW31639   1.338   5.568   5.700
10247SOL    HW131640   1.385   5.480   5.689
10247SOL    HW231641   1.349   5.600   5.794
10248SOL     OW31642   4.755   0.272   1.836
10248SOL    HW131643   4.697   0.353   1.822
10248SOL    HW231644   4.706   0.191   1.806
10249SOL     OW31645   3.864   1.144   0.302
10249SOL    HW131646   3.920   1.217   0.341
10249SOL    HW231647   3.857   1.157   0.203
10250SOL     OW31648   6.752   0.544   0.430
10250SOL    HW131649   6.837   0.499   0.459
10250SOL    HW231650   6.674   0.503   0.476
10251SOL     OW31651   3.597   4.572   0.002
10251SOL    HW131652   3.671   4.630   6.992
10251SOL    HW231653   3.632   4.512   0.075
10252SOL     OW31654   6.895   5.214   1.916
10252SOL    HW131655   6.878   5.311   1.895
10252SOL    HW231656   6.933   5.169   1.836
10253SOL     OW31657   3.715   5.248   6.452
10253SOL    HW131658   3.654   5.238   6.531
10253SOL    HW231659   3.788   5.180   6.458
10254SOL     OW31660   2.474   2.160   4.983
10254SOL    HW131661   2.541   2.234   4.988
10254SOL    HW231662   2.485   2.100   5.062
10255SOL     OW31663   2.903   5.515   2.935
10255SOL    HW131664   2.863   5.426   2.958
10255SOL    HW231665   2.869   5.584   2.998
10256SOL     OW31666   5.809   6.407   7.003
10256SOL    HW131667   5.860   6.358   6.932
10256SOL    HW231668   5.802   6.503   6.978
10257SOL     OW31669   1.717   5.952   6.340
10257SOL    HW131670   1.677   6.040   6.365
10257SOL    HW231671   1.786   5.966   6.269
10258SOL     OW31672   4.401   0.770   3.056
10258SOL    HW131673   4.452   0.743   2.974
10258SOL    HW231674   4.347   0.851   3.037
10259SOL     OW31675   0.913   4.005   2.828
10259SOL    HW131676   0.838   4.067   2.851
10259SOL    HW231677   0.895   3.962   2.739
10260SOL     OW31678   0.546   6.839   1.666
10260SOL    HW131679   0.543   6.745   1.701
10260SOL    HW231680   0.502   6.900   1.731
10261SOL     OW31681   1.631   0.012   1.497
10261SOL    HW131682   1.560   0.078   1.471
10261SOL    HW231683   1.718   0.041   1.456
10262SOL     OW31684   1.693   5.513   5.373
10262SOL    HW131685   1.723   5.499   5.468
10262SOL    HW231686   1.612   5.457   5.355
10263SOL     OW31687   6.061   2.407   6.461
10263SOL    HW131688   6.039   2.349   6.540
10263SOL    HW231689   6.029   2.362   6.378
10264SOL     OW31690   0.367   6.942   6.533
10264SOL    HW131691   0.444   6.886   6.563
10264SOL    HW231692   0.301   6.950   6.608
10265SOL     OW31693   4.257   1.843   2.192
10265SOL    HW131694   4.174   1.897   2.181
10265SOL    HW231695   4.327   1.875   2.128
10266SOL     OW31696   3.568   3.965   6.156
10266SOL    HW131697   3.500   4.038   6.153
10266SOL    HW231698   3.656   4.001   6.187
10267SOL     OW31699   6.362   1.974   6.710
10267SOL    HW131700   6.435   1.938   6.767
10267SOL    HW231701   6.337   1.905   6.642
10268SOL     OW31702   6.616   5.064   1.722
10268SOL    HW131703   6.622   5.103   1.814
10268SOL    HW231704   6.700   5.015   1.701
10269SOL     OW31705   3.036   2.792   5.645
10269SOL    HW131706   3.000   2.835   5.562
10269SOL    HW231707   3.035   2.859   5.719
10270SOL     OW31708   2.022   6.001   0.780
10270SOL    HW131709   1.996   6.038   0.691
10270SOL    HW231710   2.119   5.979   0.780
10271SOL     OW31711   4.265   4.822   1.065
10271SOL    HW131712   4.281   4.849   1.160
10271SOL    HW231713   4.334   4.865   1.007
10272SOL     OW31714   0.834   1.169   6.300
10272SOL    HW131715   0.749   1.190   6.348
10272SOL    HW231716   0.881   1.254   6.277
10273SOL     OW31717   4.734   6.278   4.649
10273SOL    HW131718   4.733   6.367   4.694
10273SOL    HW231719   4.740   6.291   4.550
10274SOL     OW31720   1.494   6.411   5.867
10274SOL    HW131721   1.490   6.386   5.964
10274SOL    HW231722   1.572   6.364   5.824
10275SOL     OW31723   1.073   6.463   2.116
10275SOL    HW131724   1.096   6.550   2.072
10275SOL    HW231725   0.974   6.451   2.117
10276SOL     OW31726   6.287   5.847   6.548
10276SOL    HW131727   6.314   5.859   6.453
10276SOL    HW231728   6.322   5.760   6.582
10277SOL     OW31729   1.613   5.405   3.777
10277SOL    HW131730   1.688   5.364   3.725
10277SOL    HW231731   1.643   5.421   3.871
10278SOL     OW31732   5.684   0.131   5.777
10278SOL    HW131733   5.628   0.209   5.751
10278SOL    HW231734   5.703   0.076   5.695
10279SOL     OW31735   3.826   6.951   3.636
10279SOL    HW131736   3.795   6.858   3.615
10279SOL    HW231737   3.769   6.990   3.708
10280SOL     OW31738   2.766   3.599   6.587
10280SOL    HW131739   2.797   3.562   6.499
10280SOL    HW231740   2.743   3.696   6.576
10281SOL     OW31741   4.198   6.855   3.926
10281SOL    HW131742   4.125   6.797   3.890
10281SOL    HW231743   4.257   6.801   3.986
10282SOL     OW31744   0.743   2.015   4.653
10282SOL    HW131745   0.842   2.028   4.660
10282SOL    HW231746   0.712   1.954   4.725
10283SOL     OW31747   0.842   3.733   6.568
10283SOL    HW131748   0.853   3.812   6.628
10283SOL    HW231749   0.929   3.714   6.522
10284SOL     OW31750   5.359   2.955   5.785
10284SOL    HW131751   5.450   2.918   5.801
10284SOL    HW231752   5.301   2.885   5.745
10285SOL     OW31753   6.147   6.816   0.893
10285SOL    HW131754   6.063   6.817   0.839
10285SOL    HW231755   6.130   6.769   0.980
10286SOL     OW31756   4.221   0.790   4.140
10286SOL    HW131757   4.283   0.852   4.188
10286SOL    HW231758   4.228   0.699   4.181
10287SOL     OW31759   2.706   5.724   1.624
10287SOL    HW131760   2.757   5.641   1.599
10287SOL    HW231761   2.742   5.760   1.710
10288SOL     OW31762   5.415   6.470   4.042
10288SOL    HW131763   5.439   6.381   4.004
10288SOL    HW231764   5.472   6.488   4.123
10289SOL     OW31765   2.892   0.941   1.916
10289SOL    HW131766   2.932   0.952   1.825
10289SOL    HW231767   2.964   0.942   1.985
10290SOL     OW31768   3.261   3.736   2.044
10290SOL    HW131769   3.314   3.737   2.129
10290SOL    HW231770   3.187   3.803   2.050
10291SOL     OW31771   3.792   0.018   5.652
10291SOL    HW131772   3.702   0.033   5.611
10291SOL    HW231773   3.797   6.949   5.689
10292SOL     OW31774   0.324   1.369   4.433
10292SOL    HW131775   0.327   1.270   4.444
10292SOL    HW231776   0.322   1.413   4.523
10293SOL     OW31777   2.387   5.950   3.218
10293SOL    HW131778   2.361   6.036   3.173
10293SOL    HW231779   2.406   5.967   3.314
10294SOL     OW31780   5.638   1.484   3.305
10294SOL    HW131781   5.684   1.522   3.224
10294SOL    HW231782   5.541   1.471   3.286
10295SOL     OW31783   0.628   5.342   5.892
10295SOL    HW131784   0.699   5.275   5.910
10295SOL    HW231785   0.593   5.330   5.799
10296SOL     OW31786   6.209   1.969   0.921
10296SOL    HW131787   6.175   1.883   0.960
10296SOL    HW231788   6.131   2.026   0.894
10297SOL     OW31789   1.808   5.235   4.752
10297SOL    HW131790   1.736   5.263   4.688
10297SOL    HW231791   1.767   5.182   4.826
10298SOL     OW31792   5.226   3.446   3.777
10298SOL    HW131793   5.282   3.363   3.776
10298SOL    HW231794   5.263   3.512   3.711
10299SOL     OW31795   4.974   4.886   2.620
10299SOL    HW131796   4.881   4.923   2.614
10299SOL    HW231797   4.972   4.797   2.666
10300SOL     OW31798   1.421   4.605   2.679
10300SOL    HW131799   1.397   4.699   2.654
10300SOL    HW231800   1.370   4.541   2.622
10301SOL     OW31801   5.572   1.132   1.137
10301SOL    HW131802   5.577   1.098   1.043
10301SOL    HW231803   5.660   1.118   1.182
10302SOL     OW31804   1.792   5.339   3.586
10302SOL    HW131805   1.761   5.289   3.506
10302SOL    HW231806   1.838   5.423   3.558
10303SOL     OW31807   3.218   2.927   1.128
10303SOL    HW131808   3.216   2.976   1.040
10303SOL    HW231809   3.310   2.932   1.166
10304SOL     OW31810   6.110   6.438   3.941
10304SOL    HW131811   6.165   6.519   3.919
10304SOL    HW231812   6.065   6.405   3.859
10305SOL     OW31813   1.588   5.714   0.867
10305SOL    HW131814   1.673   5.760   0.890
10305SOL    HW231815   1.510   5.773   0.888
10306SOL     OW31816   4.583   5.877   6.995
10306SOL    HW131817   4.569   5.816   6.918
10306SOL    HW231818   4.543   5.836   0.054
10307SOL     OW31819   2.404   1.288   5.422
10307SOL    HW131820   2.412   1.319   5.517
10307SOL    HW231821   2.312   1.251   5.406
10308SOL     OW31822   3.353   5.727   3.958
10308SOL    HW131823   3.392   5.644   3.918
10308SOL    HW231824   3.262   5.708   3.993
10309SOL     OW31825   0.288   6.478   3.641
10309SOL    HW131826   0.282   6.494   3.543
10309SOL    HW231827   0.240   6.393   3.664
10310SOL     OW31828   4.000   3.252   3.990
10310SOL    HW131829   4.052   3.318   4.043
10310SOL    HW231830   3.961   3.183   4.051
10311SOL     OW31831   0.002   6.121   0.369
10311SOL    HW131832   0.018   6.022   0.372
10311SOL    HW231833   6.975   6.148   0.450
10312SOL     OW31834   2.073   4.649   1.144
10312SOL    HW131835   2.041   4.580   1.080
10312SOL    HW231836   2.147   4.610   1.200
10313SOL     OW31837   5.053   6.484   3.147
10313SOL    HW131838   4.956   6.469   3.167
10313SOL    HW231839   5.094   6.535   3.223
10314SOL     OW31840   6.465   5.857   6.888
10314SOL    HW131841   6.534   5.896   6.827
10314SOL    HW231842   6.422   5.778   6.843
10315SOL     OW31843   6.152   5.658   4.450
10315SOL    HW131844   6.207   5.583   4.412
10315SOL    HW231845   6.212   5.731   4.481
10316SOL     OW31846   6.974   3.777   2.106
10316SOL    HW131847   6.983   3.845   2.033
10316SOL    HW231848   6.883   3.737   2.103
10317SOL     OW31849   3.563   4.730   0.707
10317SOL    HW131850   3.474   4.727   0.661
10317SOL    HW231851   3.598   4.637   0.717
10318SOL     OW31852   6.793   5.806   1.743
10318SOL    HW131853   6.743   5.734   1.791
10318SOL    HW231854   6.834   5.869   1.810
10319SOL     OW31855   5.457   0.016   4.108
10319SOL    HW131856   5.378   0.022   4.046
10319SOL    HW231857   5.503   0.105   4.111
10320SOL     OW31858   5.015   6.737   1.371
10320SOL    HW131859   5.094   6.772   1.321
10320SOL    HW231860   5.012   6.637   1.364
10321SOL     OW31861   3.759   5.962   4.252
10321SOL    HW131862   3.818   5.985   4.175
10321SOL    HW231863   3.675   5.921   4.218
10322SOL     OW31864   6.665   2.869   0.222
10322SOL    HW131865   6.744   2.808   0.231
10322SOL    HW231866   6.605   2.835   0.150
10323SOL     OW31867   6.021   2.683   4.977
10323SOL    HW131868   5.960   2.734   5.037
10323SOL    HW231869   6.020   2.724   4.886
10324SOL     OW31870   2.894   3.662   3.354
10324SOL    HW131871   2.902   3.758   3.330
10324SOL    HW231872   2.894   3.652   3.453
10325SOL     OW31873   0.878   3.818   2.601
10325SOL    HW131874   0.827   3.733   2.590
10325SOL    HW231875   0.869   3.873   2.518
10326SOL     OW31876   5.478   1.661   1.189
10326SOL    HW131877   5.399   1.605   1.216
10326SOL    HW231878   5.483   1.666   1.090
10327SOL     OW31879   0.075   0.701   4.006
10327SOL    HW131880   0.130   0.782   3.984
10327SOL    HW231881   0.093   0.630   3.938
10328SOL     OW31882   5.942   2.589   1.983
10328SOL    HW131883   5.898   2.516   2.034
10328SOL    HW231884   5.923   2.579   1.886
10329SOL     OW31885   4.029   6.451   1.942
10329SOL    HW131886   4.107   6.441   1.880
10329SOL    HW231887   3.962   6.380   1.924
10330SOL     OW31888   3.776   5.183   1.416
10330SOL    HW131889   3.834   5.264   1.404
10330SOL    HW231890   3.681   5.211   1.426
10331SOL     OW31891   5.840   0.566   3.947
10331SOL    HW131892   5.886   0.615   3.873
10331SOL    HW231893   5.869   0.470   3.946
10332SOL     OW31894   0.524   2.177   6.458
10332SOL    HW131895   0.528   2.079   6.479
10332SOL    HW231896   0.437   2.214   6.491
10333SOL     OW31897   4.689   4.309   4.720
10333SOL    HW131898   4.684   4.211   4.736
10333SOL    HW231899   4.630   4.356   4.785
10334SOL     OW31900   1.102   4.600   5.384
10334SOL    HW131901   1.018   4.610   5.330
10334SOL    HW231902   1.135   4.506   5.378
10335SOL     OW31903   2.043   5.616   2.002
10335SOL    HW131904   2.030   5.576   1.912
10335SOL    HW231905   2.009   5.711   2.001
10336SOL     OW31906   4.344   6.857   2.568
10336SOL    HW131907   4.285   6.793   2.617
10336SOL    HW231908   4.394   6.914   2.634
10337SOL     OW31909   0.220   5.519   4.925
10337SOL    HW131910   0.258   5.603   4.886
10337SOL    HW231911   0.267   5.498   5.010
10338SOL     OW31912   3.698   5.326   3.565
10338SOL    HW131913   3.650   5.412   3.550
10338SOL    HW231914   3.712   5.313   3.664
10339SOL     OW31915   3.237   5.429   0.733
10339SOL    HW131916   3.224   5.340   0.777
10339SOL    HW231917   3.260   5.414   0.636
10340SOL     OW31918   2.111   6.836   6.776
10340SOL    HW131919   2.175   6.881   6.838
10340SOL    HW231920   2.151   6.833   6.684
10341SOL     OW31921   1.791   1.365   2.252
10341SOL    HW131922   1.847   1.316   2.318
10341SOL    HW231923   1.704   1.390   2.294
10342SOL     OW31924   2.610   6.419   4.423
10342SOL    HW131925   2.544   6.354   4.384
10342SOL    HW231926   2.588   6.511   4.392
10343SOL     OW31927   2.219   3.065   4.668
10343SOL    HW131928   2.134   3.079   4.719
10343SOL    HW231929   2.276   3.146   4.676
10344SOL     OW31930   4.122   4.445   6.093
10344SOL    HW131931   4.094   4.523   6.148
10344SOL    HW231932   4.129   4.363   6.150
10345SOL     OW31933   1.820   2.090   6.343
10345SOL    HW131934   1.809   2.117   6.439
10345SOL    HW231935   1.745   2.029   6.318
10346SOL     OW31936   4.879   5.554   6.932
10346SOL    HW131937   4.838   5.469   6.965
10346SOL    HW231938   4.854   5.569   6.836
10347SOL     OW31939   4.994   2.056   1.794
10347SOL    HW131940   5.066   1.991   1.818
10347SOL    HW231941   4.966   2.106   1.876
10348SOL     OW31942   6.676   5.183   6.007
10348SOL    HW131943   6.588   5.150   5.973
10348SOL    HW231944   6.662   5.265   6.062
10349SOL     OW31945   0.230   1.583   0.287
10349SOL    HW131946   0.143   1.630   0.274
10349SOL    HW231947   0.290   1.638   0.344
10350SOL     OW31948   2.208   4.032   4.602
10350SOL    HW131949   2.171   4.001   4.690
10350SOL    HW231950   2.277   4.102   4.619
10351SOL     OW31951   4.577   4.521   4.879
10351SOL    HW131952   4.504   4.535   4.946
10351SOL    HW231953   4.606   4.609   4.842
10352SOL     OW31954   5.666   1.546   6.942
10352SOL    HW131955   5.601   1.471   6.934
10352SOL    HW231956   5.629   1.616   7.003
10353SOL     OW31957   6.884   2.600   3.492
10353SOL    HW131958   6.877   2.529   3.422
10353SOL    HW231959   6.814   2.585   3.562
10354SOL     OW31960   6.972   3.163   0.964
10354SOL    HW131961   6.966   3.063   0.974
10354SOL    HW231962   6.978   3.186   0.867
10355SOL     OW31963   0.262   1.607   0.988
10355SOL    HW131964   0.290   1.521   0.946
10355SOL    HW231965   0.170   1.597   1.027
10356SOL     OW31966   6.035   3.549   5.993
10356SOL    HW131967   6.015   3.510   6.083
10356SOL    HW231968   5.950   3.575   5.949
10357SOL     OW31969   1.177   1.725   6.037
10357SOL    HW131970   1.257   1.769   6.078
10357SOL    HW231971   1.106   1.793   6.020
10358SOL     OW31972   0.712   1.780   3.052
10358SOL    HW131973   0.750   1.735   3.132
10358SOL    HW231974   0.786   1.821   2.998
10359SOL     OW31975   6.328   2.327   1.733
10359SOL    HW131976   6.266   2.271   1.789
10359SOL    HW231977   6.361   2.405   1.787
10360SOL     OW31978   6.185   4.463   1.975
10360SOL    HW131979   6.194   4.425   1.883
10360SOL    HW231980   6.250   4.416   2.036
10361SOL     OW31981   0.454   1.334   2.014
10361SOL    HW131982   0.523   1.381   1.960
10361SOL    HW231983   0.380   1.398   2.037
10362SOL     OW31984   1.212   5.728   1.370
10362SOL    HW131985   1.168   5.813   1.399
10362SOL    HW231986   1.266   5.691   1.445
10363SOL     OW31987   5.493   4.226   6.606
10363SOL    HW131988   5.442   4.159   6.551
10363SOL    HW231989   5.585   4.237   6.567
10364SOL     OW31990   6.226   4.621   2.207
10364SOL    HW131991   6.159   4.692   2.229
10364SOL    HW231992   6.219   4.597   2.110
10365SOL     OW31993   5.185   5.543   0.015
10365SOL    HW131994   5.227   5.479   6.974
10365SOL    HW231995   5.089   5.557   7.015
10366SOL     OW31996   2.645   5.754   3.445
10366SOL    HW131997   2.738   5.738   3.477
10366SOL    HW231998   2.591   5.794   3.519
10367SOL     OW31999   5.793   0.146   1.671
10367SOL    HW132000   5.714   0.132   1.730
10367SOL    HW232001   5.772   0.110   1.580
10368SOL     OW32002   2.074   6.385   2.145
10368SOL    HW132003   2.167   6.419   2.127
10368SOL    HW232004   2.024   6.454   2.198
10369SOL     OW32005   3.100   0.288   6.110
10369SOL    HW132006   3.075   0.349   6.185
10369SOL    HW232007   3.156   0.213   6.145
10370SOL     OW32008   0.735   0.619   6.388
10370SOL    HW132009   0.659   0.596   6.449
10370SOL    HW232010   0.768   0.711   6.409
10371SOL     OW32011   4.279   5.306   3.101
10371SOL    HW132012   4.323   5.217   3.112
10371SOL    HW232013   4.185   5.301   3.135
10372SOL     OW32014   2.775   6.314   1.738
10372SOL    HW132015   2.769   6.214   1.740
10372SOL    HW232016   2.773   6.346   1.644
10373SOL     OW32017   0.161   1.363   6.079
10373SOL    HW132018   0.207   1.341   5.993
10373SOL    HW232019   0.076   1.411   6.060
10374SOL     OW32020   4.086   5.281   3.735
10374SOL    HW132021   4.175   5.294   3.777
10374SOL    HW232022   4.074   5.347   3.661
10375SOL     OW32023   2.397   4.336   0.103
10375SOL    HW132024   2.452   4.257   0.077
10375SOL    HW232025   2.455   4.417   0.106
10376SOL     OW32026   1.859   4.509   3.045
10376SOL    HW132027   1.799   4.552   2.977
10376SOL    HW232028   1.805   4.452   3.106
10377SOL     OW32029   1.541   0.698   2.124
10377SOL    HW132030   1.584   0.694   2.214
10377SOL    HW232031   1.592   0.761   2.065
10378SOL     OW32032   0.030   4.828   3.955
10378SOL    HW132033   0.094   4.757   3.987
10378SOL    HW232034   6.975   4.832   4.017
10379SOL     OW32035   1.804   6.331   4.315
10379SOL    HW132036   1.787   6.404   4.383
10379SOL    HW232037   1.902   6.315   4.308
10380SOL     OW32038   2.390   2.275   4.591
10380SOL    HW132039   2.460   2.344   4.609
10380SOL    HW232040   2.422   2.212   4.521
10381SOL     OW32041   4.201   5.510   2.296
10381SOL    HW132042   4.110   5.474   2.277
10381SOL    HW232043   4.268   5.466   2.236
10382SOL     OW32044   4.005   5.779   2.231
10382SOL    HW132045   3.978   5.702   2.172
10382SOL    HW232046   3.931   5.846   2.234
10383SOL     OW32047   1.905   4.053   0.534
10383SOL    HW132048   1.845   4.032   0.457
10383SOL    HW232049   2.000   4.051   0.503
10384SOL     OW32050   5.858   6.608   1.650
10384SOL    HW132051   5.795   6.682   1.671
10384SOL    HW232052   5.807   6.531   1.610
10385SOL     OW32053   4.791   4.897   6.668
10385SOL    HW132054   4.719   4.949   6.623
10385SOL    HW232055   4.767   4.801   6.670
10386SOL     OW32056   6.540   1.066   0.455
10386SOL    HW132057   6.583   1.054   0.366
10386SOL    HW232058   6.460   1.126   0.446
10387SOL     OW32059   5.168   2.899   2.106
10387SOL    HW132060   5.086   2.869   2.057
10387SOL    HW232061   5.234   2.937   2.042
10388SOL     OW32062   2.571   0.753   5.714
10388SOL    HW132063   2.543   0.659   5.735
10388SOL    HW232064   2.654   0.751   5.658
10389SOL     OW32065   0.704   3.715   0.744
10389SOL    HW132066   0.614   3.673   0.759
10389SOL    HW232067   0.693   3.813   0.729
10390SOL     OW32068   2.099   2.399   2.051
10390SOL    HW132069   2.187   2.363   2.021
10390SOL    HW232070   2.050   2.436   1.973
10391SOL     OW32071   6.024   6.628   4.865
10391SOL    HW132072   6.001   6.573   4.785
10391SOL    HW232073   6.015   6.725   4.844
10392SOL     OW32074   6.687   4.410   3.875
10392SOL    HW132075   6.645   4.388   3.787
10392SOL    HW232076   6.720   4.505   3.874
10393SOL     OW32077   1.289   3.847   3.390
10393SOL    HW132078   1.307   3.831   3.293
10393SOL    HW232079   1.191   3.845   3.407
10394SOL     OW32080   3.516   6.261   4.520
10394SOL    HW132081   3.535   6.355   4.493
10394SOL    HW232082   3.492   6.208   4.438
10395SOL     OW32083   0.219   0.049   0.803
10395SOL    HW132084   0.307   0.044   0.757
10395SOL    HW232085   0.198   0.144   0.825
10396SOL     OW32086   2.902   1.918   4.746
10396SOL    HW132087   2.869   1.970   4.668
10396SOL    HW232088   2.975   1.968   4.792
10397SOL     OW32089   3.029   2.204   2.606
10397SOL    HW132090   3.124   2.236   2.593
10397SOL    HW232091   3.017   2.174   2.700
10398SOL     OW32092   6.829   2.545   1.306
10398SOL    HW132093   6.848   2.487   1.226
10398SOL    HW232094   6.909   2.548   1.365
10399SOL     OW32095   6.487   3.660   1.535
10399SOL    HW132096   6.472   3.656   1.634
10399SOL    HW232097   6.402   3.639   1.487
10400SOL     OW32098   4.084   6.880   0.721
10400SOL    HW132099   3.996   6.919   0.749
10400SOL    HW232100   4.088   6.874   0.622
10401SOL     OW32101   0.144   0.636   5.217
10401SOL    HW132102   0.115   0.681   5.133
10401SOL    HW232103   0.158   0.704   5.289
10402SOL     OW32104   6.876   2.823   4.316
10402SOL    HW132105   6.787   2.815   4.362
10402SOL    HW232106   6.944   2.855   4.382
10403SOL     OW32107   2.877   0.570   3.294
10403SOL    HW132108   2.820   0.568   3.211
10403SOL    HW232109   2.959   0.514   3.279
10404SOL     OW32110   0.388   6.141   6.383
10404SOL    HW132111   0.364   6.052   6.347
10404SOL    HW232112   0.408   6.204   6.307
10405SOL     OW32113   6.847   1.261   5.952
10405SOL    HW132114   6.861   1.258   5.853
10405SOL    HW232115   6.901   1.336   5.990
10406SOL     OW32116   3.134   4.826   1.810
10406SOL    HW132117   3.086   4.846   1.725
10406SOL    HW232118   3.071   4.837   1.887
10407SOL     OW32119   3.115   6.666   0.293
10407SOL    HW132120   3.128   6.661   0.393
10407SOL    HW232121   3.204   6.662   0.248
10408SOL     OW32122   4.242   0.206   0.371
10408SOL    HW132123   4.336   0.233   0.392
10408SOL    HW232124   4.191   0.286   0.339
10409SOL     OW32125   6.050   4.796   0.662
10409SOL    HW132126   5.983   4.819   0.733
10409SOL    HW232127   6.108   4.722   0.694
10410SOL     OW32128   5.774   0.963   0.168
10410SOL    HW132129   5.756   0.876   0.121
10410SOL    HW232130   5.797   1.033   0.100
10411SOL     OW32131   2.681   5.003   3.406
10411SOL    HW132132   2.684   4.907   3.376
10411SOL    HW232133   2.631   5.009   3.492
10412SOL     OW32134   5.901   0.531   0.860
10412SOL    HW132135   5.864   0.620   0.834
10412SOL    HW232136   5.999   0.540   0.879
10413SOL     OW32137   6.235   2.015   1.357
10413SOL    HW132138   6.332   2.007   1.333
10413SOL    HW232139   6.183   2.046   1.278
10414SOL     OW32140   5.133   2.321   5.088
10414SOL    HW132141   5.075   2.306   5.008
10414SOL    HW232142   5.164   2.233   5.124
10415SOL     OW32143   0.683   6.078   5.996
10415SOL    HW132144   0.688   5.982   5.969
10415SOL    HW232145   0.725   6.090   6.085
10416SOL     OW32146   6.020   2.989   4.906
10416SOL    HW132147   6.027   3.088   4.897
10416SOL    HW232148   5.938   2.966   4.958
10417SOL     OW32149   2.236   4.746   3.841
10417SOL    HW132150   2.316   4.720   3.787
10417SOL    HW232151   2.215   4.843   3.824
10418SOL     OW32152   0.853   4.222   5.050
10418SOL    HW132153   0.804   4.136   5.067
10418SOL    HW232154   0.901   4.250   5.133
10419SOL     OW32155   1.034   1.309   0.820
10419SOL    HW132156   1.108   1.377   0.814
10419SOL    HW232157   1.038   1.250   0.739
10420SOL     OW32158   6.927   2.672   2.601
10420SOL    HW132159   6.878   2.746   2.555
10420SOL    HW232160   6.899   2.668   2.697
10421SOL     OW32161   1.423   0.575   3.905
10421SOL    HW132162   1.347   0.631   3.870
10421SOL    HW232163   1.500   0.581   3.842
10422SOL     OW32164   6.436   2.467   5.601
10422SOL    HW132165   6.462   2.371   5.614
10422SOL    HW232166   6.435   2.514   5.689
10423SOL     OW32167   4.597   4.771   4.010
10423SOL    HW132168   4.658   4.694   4.029
10423SOL    HW232169   4.640   4.856   4.041
10424SOL     OW32170   5.357   1.592   6.906
10424SOL    HW132171   5.397   1.628   6.990
10424SOL    HW232172   5.268   1.551   6.926
10425SOL     OW32173   1.587   5.613   2.602
10425SOL    HW132174   1.569   5.569   2.690
10425SOL    HW232175   1.541   5.702   2.599
10426SOL     OW32176   6.318   4.289   0.387
10426SOL    HW132177   6.325   4.200   0.434
10426SOL    HW232178   6.240   4.340   0.424
10427SOL     OW32179   5.219   2.174   0.578
10427SOL    HW132180   5.310   2.211   0.599
10427SOL    HW232181   5.152   2.216   0.638
10428SOL     OW32182   3.989   0.534   4.707
10428SOL    HW132183   4.059   0.465   4.687
10428SOL    HW232184   4.033   0.618   4.737
10429SOL     OW32185   6.959   6.004   1.529
10429SOL    HW132186   6.866   5.985   1.559
10429SOL    HW232187   7.012   6.042   1.605
10430SOL     OW32188   4.223   6.333   3.065
10430SOL    HW132189   4.144   6.317   3.005
10430SOL    HW232190   4.198   6.311   3.159
10431SOL     OW32191   2.890   0.324   5.040
10431SOL    HW132192   2.828   0.367   5.106
10431SOL    HW232193   2.931   0.395   4.983
10432SOL     OW32194   5.929   0.780   4.301
10432SOL    HW132195   5.976   0.861   4.266
10432SOL    HW232196   5.876   0.738   4.227
10433SOL     OW32197   1.633   6.545   1.042
10433SOL    HW132198   1.710   6.577   0.987
10433SOL    HW232199   1.579   6.624   1.072
10434SOL     OW32200   3.414   0.087   3.425
10434SOL    HW132201   3.363   0.008   3.392
10434SOL    HW232202   3.394   0.166   3.368
10435SOL     OW32203   5.683   6.589   6.121
10435SOL    HW132204   5.587   6.569   6.103
10435SOL    HW232205   5.723   6.515   6.175
10436SOL     OW32206   1.431   5.127   4.127
10436SOL    HW132207   1.504   5.192   4.106
10436SOL    HW232208   1.351   5.147   4.071
10437SOL     OW32209   6.411   5.120   5.927
10437SOL    HW132210   6.369   5.131   6.017
10437SOL    HW232211   6.370   5.185   5.863
10438SOL     OW32212   5.167   6.559   0.650
10438SOL    HW132213   5.233   6.520   0.714
10438SOL    HW232214   5.125   6.640   0.691
10439SOL     OW32215   3.654   0.377   5.576
10439SOL    HW132216   3.558   0.404   5.573
10439SOL    HW232217   3.668   0.315   5.653
10440SOL     OW32218   0.975   6.768   0.974
10440SOL    HW132219   0.929   6.746   1.059
10440SOL    HW232220   1.073   6.783   0.991
10441SOL     OW32221   5.455   1.781   6.585
10441SOL    HW132222   5.380   1.825   6.536
10441SOL    HW232223   5.453   1.682   6.566
10442SOL     OW32224   3.684   5.342   5.722
10442SOL    HW132225   3.641   5.252   5.715
10442SOL    HW232226   3.756   5.351   5.653
10443SOL     OW32227   6.096   3.672   4.795
10443SOL    HW132228   6.022   3.625   4.747
10443SOL    HW232229   6.184   3.644   4.759
10444SOL     OW32230   3.738   5.258   4.799
10444SOL    HW132231   3.702   5.165   4.804
10444SOL    HW232232   3.662   5.323   4.808
10445SOL     OW32233   6.809   5.763   4.305
10445SOL    HW132234   6.746   5.760   4.383
10445SOL    HW232235   6.758   5.748   4.220
10446SOL     OW32236   0.980   4.709   6.438
10446SOL    HW132237   0.909   4.773   6.467
10446SOL    HW232238   0.950   4.661   6.356
10447SOL     OW32239   6.657   2.150   1.382
10447SOL    HW132240   6.615   2.152   1.472
10447SOL    HW232241   6.591   2.117   1.315
10448SOL     OW32242   3.833   3.989   2.202
10448SOL    HW132243   3.920   3.942   2.193
10448SOL    HW232244   3.813   4.039   2.117
10449SOL     OW32245   2.356   5.443   4.295
10449SOL    HW132246   2.375   5.390   4.212
10449SOL    HW232247   2.265   5.421   4.329
10450SOL     OW32248   0.071   1.809   0.253
10450SOL    HW132249   0.023   1.766   0.330
10450SOL    HW232250   0.045   1.905   0.247
10451SOL     OW32251   2.426   4.403   3.005
10451SOL    HW132252   2.363   4.465   3.051
10451SOL    HW232253   2.481   4.455   2.939
10452SOL     OW32254   0.719   3.066   3.908
10452SOL    HW132255   0.666   3.141   3.947
10452SOL    HW232256   0.772   3.099   3.830
10453SOL     OW32257   5.629   5.729   1.173
10453SOL    HW132258   5.578   5.783   1.240
10453SOL    HW232259   5.608   5.763   1.081
10454SOL     OW32260   5.141   3.097   2.290
10454SOL    HW132261   5.199   3.178   2.299
10454SOL    HW232262   5.167   3.046   2.208
10455SOL     OW32263   0.447   4.896   4.064
10455SOL    HW132264   0.406   4.839   3.993
10455SOL    HW232265   0.497   4.972   4.022
10456SOL     OW32266   3.778   6.018   1.278
10456SOL    HW132267   3.842   6.091   1.301
10456SOL    HW232268   3.688   6.057   1.259
10457SOL     OW32269   4.000   3.654   3.389
10457SOL    HW132270   3.982   3.568   3.436
10457SOL    HW232271   3.992   3.730   3.453
10458SOL     OW32272   1.178   6.483   1.035
10458SOL    HW132273   1.152   6.391   1.006
10458SOL    HW232274   1.248   6.519   0.973
10459SOL     OW32275   6.111   5.296   2.395
10459SOL    HW132276   6.113   5.385   2.439
10459SOL    HW232277   6.020   5.255   2.408
10460SOL     OW32278   2.454   5.098   1.821
10460SOL    HW132279   2.375   5.128   1.769
10460SOL    HW232280   2.487   5.174   1.877
10461SOL     OW32281   3.151   0.382   6.727
10461SOL    HW132282   3.185   0.468   6.765
10461SOL    HW232283   3.179   0.375   6.631
10462SOL     OW32284   5.977   0.395   1.125
10462SOL    HW132285   5.938   0.350   1.044
10462SOL    HW232286   6.076   0.380   1.127
10463SOL     OW32287   2.858   4.853   0.239
10463SOL    HW132288   2.891   4.848   0.333
10463SOL    HW232289   2.758   4.861   0.239
10464SOL     OW32290   5.220   0.530   0.782
10464SOL    HW132291   5.150   0.563   0.718
10464SOL    HW232292   5.293   0.597   0.790
10465SOL     OW32293   6.624   5.233   6.373
10465SOL    HW132294   6.649   5.155   6.316
10465SOL    HW232295   6.602   5.201   6.465
10466SOL     OW32296   4.709   6.111   5.240
10466SOL    HW132297   4.640   6.138   5.173
10466SOL    HW232298   4.799   6.145   5.212
10467SOL     OW32299   2.831   1.702   5.324
10467SOL    HW132300   2.889   1.621   5.313
10467SOL    HW232301   2.834   1.757   5.240
10468SOL     OW32302   3.336   6.806   3.552
10468SOL    HW132303   3.369   6.714   3.575
10468SOL    HW232304   3.411   6.860   3.514
10469SOL     OW32305   1.720   4.493   0.559
10469SOL    HW132306   1.776   4.526   0.635
10469SOL    HW232307   1.779   4.470   0.481
10470SOL     OW32308   2.997   1.553   4.193
10470SOL    HW132309   2.903   1.586   4.201
10470SOL    HW232310   3.052   1.620   4.143
10471SOL     OW32311   3.142   3.598   1.128
10471SOL    HW132312   3.161   3.690   1.092
10471SOL    HW232313   3.053   3.567   1.096
10472SOL     OW32314   3.574   1.166   1.734
10472SOL    HW132315   3.606   1.081   1.692
10472SOL    HW232316   3.567   1.237   1.664
10473SOL     OW32317   5.554   5.923   0.320
10473SOL    HW132318   5.602   5.853   0.268
10473SOL    HW232319   5.487   5.968   0.260
10474SOL     OW32320   3.877   0.437   4.464
10474SOL    HW132321   3.826   0.522   4.476
10474SOL    HW232322   3.931   0.419   4.546
10475SOL     OW32323   4.128   0.254   0.977
10475SOL    HW132324   4.084   0.168   0.952
10475SOL    HW232325   4.122   0.317   0.900
10476SOL     OW32326   0.274   5.305   6.737
10476SOL    HW132327   0.290   5.340   6.644
10476SOL    HW232328   0.179   5.273   6.744
10477SOL     OW32329   5.507   4.112   5.096
10477SOL    HW132330   5.552   4.038   5.047
10477SOL    HW232331   5.528   4.105   5.194
10478SOL     OW32332   0.221   6.239   1.418
10478SOL    HW132333   0.250   6.218   1.324
10478SOL    HW232334   0.137   6.294   1.414
10479SOL     OW32335   1.565   3.404   2.966
10479SOL    HW132336   1.613   3.346   2.900
10479SOL    HW232337   1.473   3.425   2.933
10480SOL     OW32338   5.345   6.889   2.261
10480SOL    HW132339   5.288   6.936   2.327
10480SOL    HW232340   5.287   6.841   2.195
10481SOL     OW32341   1.832   0.797   4.885
10481SOL    HW132342   1.756   0.800   4.951
10481SOL    HW232343   1.805   0.740   4.808
10482SOL     OW32344   1.045   5.939   5.113
10482SOL    HW132345   1.002   5.966   5.027
10482SOL    HW232346   1.009   5.995   5.188
10483SOL     OW32347   0.108   5.229   7.002
10483SOL    HW132348   0.125   5.139   6.963
10483SOL    HW232349   0.113   5.223   0.078
10484SOL     OW32350   6.430   1.028   1.663
10484SOL    HW132351   6.517   1.042   1.709
10484SOL    HW232352   6.403   1.111   1.615
10485SOL     OW32353   3.557   3.848   2.972
10485SOL    HW132354   3.621   3.791   3.023
10485SOL    HW232355   3.510   3.910   3.034
10486SOL     OW32356   5.948   6.072   5.326
10486SOL    HW132357   6.007   6.140   5.283
10486SOL    HW232358   5.875   6.119   5.376
10487SOL     OW32359   4.234   2.137   1.520
10487SOL    HW132360   4.210   2.151   1.616
10487SOL    HW232361   4.163   2.084   1.475
10488SOL     OW32362   6.860   2.274   5.347
10488SOL    HW132363   6.938   2.321   5.306
10488SOL    HW232364   6.802   2.340   5.395
10489SOL     OW32365   5.884   4.564   4.275
10489SOL    HW132366   5.914   4.580   4.369
10489SOL    HW232367   5.874   4.465   4.259
10490SOL     OW32368   5.572   6.286   6.367
10490SOL    HW132369   5.654   6.338   6.347
10490SOL    HW232370   5.577   6.249   6.460
10491SOL     OW32371   1.426   2.987   6.114
10491SOL    HW132372   1.483   3.019   6.189
10491SOL    HW232373   1.384   2.900   6.140
10492SOL     OW32374   4.122   0.482   0.266
10492SOL    HW132375   4.184   0.558   0.248
10492SOL    HW232376   4.041   0.515   0.316
10493SOL     OW32377   4.280   5.660   0.554
10493SOL    HW132378   4.315   5.741   0.507
10493SOL    HW232379   4.321   5.578   0.513
10494SOL     OW32380   0.469   4.284   5.249
10494SOL    HW132381   0.463   4.293   5.348
10494SOL    HW232382   0.422   4.361   5.206
10495SOL     OW32383   0.652   6.211   0.004
10495SOL    HW132384   0.568   6.188   0.054
10495SOL    HW232385   0.725   6.150   0.033
10496SOL     OW32386   0.371   4.014   5.485
10496SOL    HW132387   0.470   4.002   5.488
10496SOL    HW232388   0.343   4.081   5.555
10497SOL     OW32389   2.203   6.555   1.145
10497SOL    HW132390   2.195   6.644   1.100
10497SOL    HW232391   2.182   6.565   1.242
10498SOL     OW32392   4.334   5.225   0.355
10498SOL    HW132393   4.361   5.316   0.387
10498SOL    HW232394   4.235   5.214   0.366
10499SOL     OW32395   5.434   5.281   2.574
10499SOL    HW132396   5.481   5.255   2.490
10499SOL    HW232397   5.412   5.198   2.627
10500SOL     OW32398   6.692   3.909   4.885
10500SOL    HW132399   6.718   3.974   4.813
10500SOL    HW232400   6.726   3.818   4.862
10501SOL     OW32401   2.848   5.221   2.974
10501SOL    HW132402   2.848   5.255   3.068
10501SOL    HW232403   2.883   5.127   2.972
10502SOL     OW32404   3.386   4.016   2.463
10502SOL    HW132405   3.398   4.045   2.558
10502SOL    HW232406   3.464   4.046   2.408
10503SOL     OW32407   5.563   2.570   6.686
10503SOL    HW132408   5.535   2.478   6.658
10503SOL    HW232409   5.660   2.584   6.663
10504SOL     OW32410   1.712   2.784   6.333
10504SOL    HW132411   1.764   2.773   6.247
10504SOL    HW232412   1.672   2.875   6.336
10505SOL     OW32413   6.041   6.648   1.107
10505SOL    HW132414   5.991   6.571   1.067
10505SOL    HW232415   5.977   6.708   1.155
10506SOL     OW32416   1.029   2.454   0.344
10506SOL    HW132417   0.960   2.481   0.411
10506SOL    HW232418   1.117   2.440   0.391
10507SOL     OW32419   0.952   5.344   6.062
10507SOL    HW132420   0.946   5.302   5.971
10507SOL    HW232421   1.035   5.399   6.068
10508SOL     OW32422   1.108   5.159   5.542
10508SOL    HW132423   1.103   5.203   5.453
10508SOL    HW232424   1.022   5.114   5.563
10509SOL     OW32425   4.689   2.623   3.845
10509SOL    HW132426   4.655   2.643   3.937
10509SOL    HW232427   4.727   2.531   3.843
10510SOL     OW32428   5.550   5.528   3.699
10510SOL    HW132429   5.610   5.572   3.766
10510SOL    HW232430   5.509   5.446   3.739
10511SOL     OW32431   3.974   1.851   2.134
10511SOL    HW132432   3.950   1.913   2.060
10511SOL    HW232433   3.891   1.824   2.183
10512SOL     OW32434   4.169   1.051   4.792
10512SOL    HW132435   4.186   1.115   4.868
10512SOL    HW232436   4.104   1.092   4.728
10513SOL     OW32437   5.201   3.039   1.323
10513SOL    HW132438   5.255   3.007   1.245
10513SOL    HW232439   5.255   3.105   1.375
10514SOL     OW32440   0.499   3.252   1.725
10514SOL    HW132441   0.553   3.169   1.738
10514SOL    HW232442   0.488   3.299   1.812
10515SOL     OW32443   2.113   2.597   5.156
10515SOL    HW132444   2.202   2.617   5.115
10515SOL    HW232445   2.044   2.659   5.118
10516SOL     OW32446   4.286   2.313   1.247
10516SOL    HW132447   4.276   2.288   1.151
10516SOL    HW232448   4.336   2.242   1.296
10517SOL     OW32449   0.755   2.283   3.052
10517SOL    HW132450   0.710   2.366   3.020
10517SOL    HW232451   0.698   2.204   3.030
10518SOL     OW32452   0.783   4.946   2.409
10518SOL    HW132453   0.862   4.884   2.402
10518SOL    HW232454   0.816   5.041   2.414
10519SOL     OW32455   3.309   6.227   0.832
10519SOL    HW132456   3.223   6.192   0.871
10519SOL    HW232457   3.332   6.175   0.750
10520SOL     OW32458   6.848   2.163   4.735
10520SOL    HW132459   6.908   2.215   4.795
10520SOL    HW232460   6.765   2.138   4.784
10521SOL     OW32461   6.627   3.006   1.504
10521SOL    HW132462   6.639   3.023   1.406
10521SOL    HW232463   6.545   3.053   1.536
10522SOL     OW32464   5.262   2.429   3.754
10522SOL    HW132465   5.216   2.341   3.741
10522SOL    HW232466   5.356   2.413   3.785
10523SOL     OW32467   6.950   4.448   2.913
10523SOL    HW132468   7.023   4.411   2.856
10523SOL    HW232469   6.924   4.538   2.880
10524SOL     OW32470   6.803   6.324   5.248
10524SOL    HW132471   6.893   6.282   5.236
10524SOL    HW232472   6.737   6.279   5.188
10525SOL     OW32473   5.098   2.128   4.487
10525SOL    HW132474   5.082   2.054   4.421
10525SOL    HW232475   5.158   2.196   4.446
10526SOL     OW32476   1.689   5.058   0.246
10526SOL    HW132477   1.634   5.138   0.268
10526SOL    HW232478   1.645   4.976   0.283
10527SOL     OW32479   0.810   0.081   4.382
10527SOL    HW132480   0.729   0.028   4.406
10527SOL    HW232481   0.892   0.030   4.405
10528SOL     OW32482   1.177   4.015   5.748
10528SOL    HW132483   1.077   4.008   5.745
10528SOL    HW232484   1.203   4.108   5.773
10529SOL     OW32485   0.952   6.089   0.976
10529SOL    HW132486   0.875   6.150   0.991
10529SOL    HW232487   1.031   6.142   0.943
10530SOL     OW32488   0.185   5.802   0.646
10530SOL    HW132489   0.124   5.738   0.599
10530SOL    HW232490   0.280   5.779   0.625
10531SOL     OW32491   2.856   3.252   5.121
10531SOL    HW132492   2.775   3.300   5.087
10531SOL    HW232493   2.828   3.175   5.179
10532SOL     OW32494   5.369   6.226   6.718
10532SOL    HW132495   5.421   6.172   6.784
10532SOL    HW232496   5.415   6.314   6.703
10533SOL     OW32497   2.890   5.455   3.544
10533SOL    HW132498   2.970   5.422   3.594
10533SOL    HW232499   2.807   5.421   3.586
10534SOL     OW32500   1.560   6.320   3.757
10534SOL    HW132501   1.638   6.291   3.812
10534SOL    HW232502   1.519   6.240   3.713
10535SOL     OW32503   3.427   2.062   2.633
10535SOL    HW132504   3.437   1.973   2.676
10535SOL    HW232505   3.384   2.051   2.543
10536SOL     OW32506   5.675   1.578   4.061
10536SOL    HW132507   5.618   1.658   4.041
10536SOL    HW232508   5.768   1.595   4.031
10537SOL     OW32509   4.496   0.179   4.081
10537SOL    HW132510   4.403   0.185   4.116
10537SOL    HW232511   4.499   0.117   4.003
10538SOL     OW32512   6.446   3.265   3.015
10538SOL    HW132513   6.374   3.332   2.999
10538SOL    HW232514   6.419   3.176   2.978
10539SOL     OW32515   6.783   0.523   3.140
10539SOL    HW132516   6.774   0.429   3.172
10539SOL    HW232517   6.699   0.573   3.160
10540SOL     OW32518   2.384   3.464   6.070
10540SOL    HW132519   2.366   3.541   6.132
10540SOL    HW232520   2.479   3.433   6.082
10541SOL     OW32521   3.207   3.154   5.369
10541SOL    HW132522   3.167   3.232   5.323
10541SOL    HW232523   3.134   3.097   5.408
10542SOL     OW32524   4.968   7.014   4.174
10542SOL    HW132525   4.998   0.081   4.206
10542SOL    HW232526   4.911   6.971   4.244
10543SOL     OW32527   0.305   3.932   5.078
10543SOL    HW132528   0.369   3.990   5.128
10543SOL    HW232529   0.344   3.840   5.068
10544SOL     OW32530   1.848   1.228   2.876
10544SOL    HW132531   1.876   1.134   2.855
10544SOL    HW232532   1.775   1.256   2.813
10545SOL     OW32533   1.859   2.040   2.826
10545SOL    HW132534   1.909   2.011   2.744
10545SOL    HW232535   1.920   2.093   2.885
10546SOL     OW32536   2.963   6.931   0.295
10546SOL    HW132537   2.995   6.836   0.292
10546SOL    HW232538   2.867   6.933   0.323
10547SOL     OW32539   4.647   0.249   4.691
10547SOL    HW132540   4.678   0.154   4.699
10547SOL    HW232541   4.622   0.284   4.781
10548SOL     OW32542   0.242   5.063   4.193
10548SOL    HW132543   0.196   5.007   4.262
10548SOL    HW232544   0.323   5.014   4.158
10549SOL     OW32545   0.118   0.803   1.171
10549SOL    HW132546   0.209   0.762   1.165
10549SOL    HW232547   0.059   0.744   1.226
10550SOL     OW32548   4.932   5.547   3.605
10550SOL    HW132549   4.950   5.634   3.651
10550SOL    HW232550   4.938   5.561   3.506
10551SOL     OW32551   2.802   1.961   6.174
10551SOL    HW132552   2.870   1.997   6.110
10551SOL    HW232553   2.752   2.037   6.214
10552SOL     OW32554   2.936   1.060   4.545
10552SOL    HW132555   2.995   1.124   4.496
10552SOL    HW232556   2.940   1.079   4.643
10553SOL     OW32557   0.400   4.795   0.616
10553SOL    HW132558   0.445   4.743   0.689
10553SOL    HW232559   0.460   4.869   0.586
10554SOL     OW32560   6.583   5.566   2.191
10554SOL    HW132561   6.676   5.563   2.227
10554SOL    HW232562   6.518   5.575   2.267
10555SOL     OW32563   3.859   2.999   0.728
10555SOL    HW132564   3.834   3.054   0.649
10555SOL    HW232565   3.928   3.048   0.782
10556SOL     OW32566   2.327   1.536   2.777
10556SOL    HW132567   2.230   1.536   2.751
10556SOL    HW232568   2.371   1.617   2.740
10557SOL     OW32569   2.232   4.051   4.285
10557SOL    HW132570   2.221   4.006   4.373
10557SOL    HW232571   2.148   4.099   4.261
10558SOL     OW32572   2.998   5.336   4.836
10558SOL    HW132573   2.950   5.421   4.857
10558SOL    HW232574   2.942   5.258   4.863
10559SOL     OW32575   4.240   6.635   7.011
10559SOL    HW132576   4.280   6.610   6.923
10559SOL    HW232577   4.313   6.658   0.052
10560SOL     OW32578   5.879   6.769   2.323
10560SOL    HW132579   5.794   6.765   2.270
10560SOL    HW232580   5.872   6.709   2.403
10561SOL     OW32581   5.684   4.219   0.573
10561SOL    HW132582   5.651   4.261   0.657
10561SOL    HW232583   5.619   4.237   0.499
10562SOL     OW32584   3.923   6.267   2.240
10562SOL    HW132585   4.005   6.323   2.244
10562SOL    HW232586   3.843   6.324   2.222
10563SOL     OW32587   0.735   0.250   1.342
10563SOL    HW132588   0.663   0.191   1.378
10563SOL    HW232589   0.824   0.208   1.359
10564SOL     OW32590   5.631   4.962   3.929
10564SOL    HW132591   5.672   4.984   4.018
10564SOL    HW232592   5.537   4.996   3.927
10565SOL     OW32593   0.665   6.798   5.613
10565SOL    HW132594   0.574   6.821   5.578
10565SOL    HW232595   0.669   6.700   5.633
10566SOL     OW32596   2.481   3.521   6.978
10566SOL    HW132597   2.548   3.468   0.008
10566SOL    HW232598   2.525   3.603   6.943
10567SOL     OW32599   1.082   2.200   6.594
10567SOL    HW132600   0.992   2.156   6.587
10567SOL    HW232601   1.076   2.295   6.564
10568SOL     OW32602   5.186   2.424   5.707
10568SOL    HW132603   5.244   2.405   5.628
10568SOL    HW232604   5.105   2.364   5.704
10569SOL     OW32605   5.680   6.471   0.794
10569SOL    HW132606   5.692   6.383   0.838
10569SOL    HW232607   5.729   6.472   0.706
10570SOL     OW32608   1.268   4.675   3.306
10570SOL    HW132609   1.194   4.720   3.256
10570SOL    HW232610   1.354   4.724   3.288
10571SOL     OW32611   6.420   4.449   6.074
10571SOL    HW132612   6.394   4.536   6.032
10571SOL    HW232613   6.458   4.388   6.004
10572SOL     OW32614   5.926   4.372   0.715
10572SOL    HW132615   5.900   4.438   0.785
10572SOL    HW232616   5.844   4.334   0.672
10573SOL     OW32617   5.734   1.230   3.836
10573SOL    HW132618   5.706   1.255   3.743
10573SOL    HW232619   5.671   1.160   3.871
10574SOL     OW32620   6.599   2.674   3.614
10574SOL    HW132621   6.597   2.728   3.530
10574SOL    HW232622   6.510   2.629   3.627
10575SOL     OW32623   6.228   0.152   1.521
10575SOL    HW132624   6.226   0.068   1.575
10575SOL    HW232625   6.233   0.129   1.424
10576SOL     OW32626   1.632   4.706   4.314
10576SOL    HW132627   1.622   4.779   4.246
10576SOL    HW232628   1.700   4.640   4.282
10577SOL     OW32629   4.041   5.534   0.731
10577SOL    HW132630   3.997   5.587   0.803
10577SOL    HW232631   4.105   5.593   0.681
10578SOL     OW32632   6.912   3.639   4.185
10578SOL    HW132633   6.897   3.719   4.242
10578SOL    HW232634   6.961   3.665   4.102
10579SOL     OW32635   1.411   3.660   6.846
10579SOL    HW132636   1.333   3.720   6.865
10579SOL    HW232637   1.435   3.610   6.930
10580SOL     OW32638   6.765   6.611   6.995
10580SOL    HW132639   6.771   6.700   0.014
10580SOL    HW232640   6.758   6.540   0.041
10581SOL     OW32641   5.307   6.878   2.746
10581SOL    HW132642   5.227   6.924   2.785
10581SOL    HW232643   5.371   6.855   2.819
10582SOL     OW32644   5.842   4.587   6.379
10582SOL    HW132645   5.809   4.602   6.285
10582SOL    HW232646   5.933   4.629   6.389
10583SOL     OW32647   3.029   0.608   5.432
10583SOL    HW132648   3.125   0.632   5.422
10583SOL    HW232649   2.979   0.633   5.349
10584SOL     OW32650   1.026   0.104   5.015
10584SOL    HW132651   1.018   0.201   4.991
10584SOL    HW232652   1.109   0.090   5.069
10585SOL     OW32653   0.815   7.017   4.861
10585SOL    HW132654   0.745   0.064   4.850
10585SOL    HW232655   0.899   0.035   4.898
10586SOL     OW32656   4.075   4.232   5.228
10586SOL    HW132657   3.979   4.260   5.229
10586SOL    HW232658   4.133   4.313   5.217
10587SOL     OW32659   2.316   5.904   5.242
10587SOL    HW132660   2.234   5.868   5.197
10587SOL    HW232661   2.289   5.973   5.309
10588SOL     OW32662   0.971   3.786   4.130
10588SOL    HW132663   0.910   3.829   4.064
10588SOL    HW232664   0.938   3.801   4.223
10589SOL     OW32665   5.106   6.035   3.590
10589SOL    HW132666   5.104   5.938   3.563
10589SOL    HW232667   5.054   6.047   3.674
10590SOL     OW32668   0.684   5.551   2.464
10590SOL    HW132669   0.752   5.559   2.537
10590SOL    HW232670   0.718   5.491   2.392
10591SOL     OW32671   0.207   2.561   1.730
10591SOL    HW132672   0.162   2.635   1.680
10591SOL    HW232673   0.145   2.482   1.735
10592SOL     OW32674   6.257   1.884   4.783
10592SOL    HW132675   6.214   1.972   4.763
10592SOL    HW232676   6.262   1.830   4.699
10593SOL     OW32677   3.387   5.869   3.073
10593SOL    HW132678   3.452   5.839   3.143
10593SOL    HW232679   3.375   5.796   3.006
10594SOL     OW32680   3.097   6.996   3.578
10594SOL    HW132681   3.176   6.945   3.545
10594SOL    HW232682   3.013   6.947   3.551
10595SOL     OW32683   6.165   6.756   0.189
10595SOL    HW132684   6.073   6.717   0.183
10595SOL    HW232685   6.184   6.780   0.284
10596SOL     OW32686   5.111   2.857   6.824
10596SOL    HW132687   5.209   2.864   6.805
10596SOL    HW232688   5.086   2.761   6.831
10597SOL     OW32689   2.113   1.076   6.066
10597SOL    HW132690   2.205   1.105   6.093
10597SOL    HW232691   2.048   1.100   6.139
10598SOL     OW32692   2.344   2.361   6.291
10598SOL    HW132693   2.267   2.315   6.334
10598SOL    HW232694   2.317   2.455   6.266
10599SOL     OW32695   6.745   2.560   6.366
10599SOL    HW132696   6.690   2.562   6.282
10599SOL    HW232697   6.684   2.565   6.445
10600SOL     OW32698   2.895   2.074   1.046
10600SOL    HW132699   2.896   2.116   1.137
10600SOL    HW232700   2.981   2.094   0.999
10601SOL     OW32701   1.027   6.740   6.034
10601SOL    HW132702   1.052   6.802   5.960
10601SOL    HW232703   1.093   6.665   6.040
10602SOL     OW32704   6.854   0.088   1.089
10602SOL    HW132705   6.850   0.115   1.185
10602SOL    HW232706   6.878   7.014   1.083
10603SOL     OW32707   5.248   0.245   2.719
10603SOL    HW132708   5.221   0.244   2.623
10603SOL    HW232709   5.337   0.289   2.729
10604SOL     OW32710   5.886   6.210   5.041
10604SOL    HW132711   5.853   6.120   5.068
10604SOL    HW232712   5.847   6.235   4.952
10605SOL     OW32713   2.533   2.168   1.456
10605SOL    HW132714   2.480   2.249   1.480
10605SOL    HW232715   2.475   2.104   1.406
10606SOL     OW32716   6.191   0.461   0.621
10606SOL    HW132717   6.197   0.440   0.718
10606SOL    HW232718   6.132   0.540   0.607
10607SOL     OW32719   3.348   4.665   6.550
10607SOL    HW132720   3.441   4.651   6.582
10607SOL    HW232721   3.298   4.578   6.551
10608SOL     OW32722   5.845   3.866   3.074
10608SOL    HW132723   5.823   3.771   3.095
10608SOL    HW232724   5.769   3.909   3.025
10609SOL     OW32725   4.372   1.736   6.488
10609SOL    HW132726   4.318   1.653   6.477
10609SOL    HW232727   4.460   1.712   6.531
10610SOL     OW32728   0.391   0.468   3.912
10610SOL    HW132729   0.294   0.458   3.935
10610SOL    HW232730   0.404   0.454   3.814
10611SOL     OW32731   3.422   5.295   4.483
10611SOL    HW132732   3.420   5.358   4.560
10611SOL    HW232733   3.482   5.218   4.504
10612SOL     OW32734   5.742   1.589   3.775
10612SOL    HW132735   5.780   1.615   3.685
10612SOL    HW232736   5.812   1.539   3.826
10613SOL     OW32737   5.162   6.747   4.310
10613SOL    HW132738   5.118   6.658   4.296
10613SOL    HW232739   5.260   6.739   4.290
10614SOL     OW32740   4.416   0.546   5.783
10614SOL    HW132741   4.417   0.639   5.822
10614SOL    HW232742   4.457   0.548   5.692
10615SOL     OW32743   1.639   1.879   6.205
10615SOL    HW132744   1.688   1.916   6.126
10615SOL    HW232745   1.645   1.779   6.205
10616SOL     OW32746   2.368   6.652   0.024
10616SOL    HW132747   2.434   6.686   0.091
10616SOL    HW232748   2.352   6.721   6.977
10617SOL     OW32749   2.577   3.347   1.729
10617SOL    HW132750   2.491   3.378   1.768
10617SOL    HW232751   2.596   3.398   1.645
10618SOL     OW32752   1.128   5.135   4.871
10618SOL    HW132753   1.037   5.143   4.912
10618SOL    HW232754   1.157   5.224   4.836
10619SOL     OW32755   1.232   2.267   3.241
10619SOL    HW132756   1.255   2.170   3.234
10619SOL    HW232757   1.139   2.283   3.210
10620SOL     OW32758   3.236   1.000   6.325
10620SOL    HW132759   3.254   0.989   6.227
10620SOL    HW232760   3.167   1.072   6.338
10621SOL     OW32761   0.357   3.637   3.229
10621SOL    HW132762   0.347   3.737   3.231
10621SOL    HW232763   0.268   3.595   3.211
10622SOL     OW32764   4.364   2.669   0.213
10622SOL    HW132765   4.353   2.584   0.161
10622SOL    HW232766   4.279   2.720   0.211
10623SOL     OW32767   5.232   6.053   5.857
10623SOL    HW132768   5.325   6.062   5.892
10623SOL    HW232769   5.181   6.137   5.874
10624SOL     OW32770   0.217   2.459   5.666
10624SOL    HW132771   0.171   2.433   5.751
10624SOL    HW232772   0.283   2.389   5.641
10625SOL     OW32773   6.251   4.778   6.906
10625SOL    HW132774   6.320   4.744   6.843
10625SOL    HW232775   6.192   4.703   6.935
10626SOL     OW32776   4.936   3.002   1.318
10626SOL    HW132777   5.033   3.028   1.318
10626SOL    HW232778   4.919   2.934   1.247
10627SOL     OW32779   5.760   5.620   5.759
10627SOL    HW132780   5.792   5.663   5.675
10627SOL    HW232781   5.756   5.688   5.833
10628SOL     OW32782   3.593   6.594   1.330
10628SOL    HW132783   3.583   6.500   1.297
10628SOL    HW232784   3.622   6.593   1.426
10629SOL     OW32785   2.590   5.064   4.293
10629SOL    HW132786   2.659   5.134   4.312
10629SOL    HW232787   2.509   5.080   4.349
10630SOL     OW32788   3.749   0.643   2.176
10630SOL    HW132789   3.826   0.580   2.164
10630SOL    HW232790   3.679   0.624   2.107
10631SOL     OW32791   4.361   6.518   6.746
10631SOL    HW132792   4.443   6.510   6.689
10631SOL    HW232793   4.347   6.432   6.795
10632SOL     OW32794   4.079   5.590   3.317
10632SOL    HW132795   3.990   5.547   3.300
10632SOL    HW232796   4.068   5.665   3.381
10633SOL     OW32797   1.336   3.069   1.611
10633SOL    HW132798   1.273   3.028   1.677
10633SOL    HW232799   1.372   3.155   1.648
10634SOL     OW32800   0.158   3.419   6.717
10634SOL    HW132801   0.231   3.367   6.762
10634SOL    HW232802   0.193   3.456   6.630
10635SOL     OW32803   2.168   4.274   6.120
10635SOL    HW132804   2.102   4.332   6.168
10635SOL    HW232805   2.122   4.194   6.082
10636SOL     OW32806   6.782   1.790   6.068
10636SOL    HW132807   6.779   1.848   6.150
10636SOL    HW232808   6.844   1.830   6.001
10637SOL     OW32809   3.060   1.267   6.843
10637SOL    HW132810   3.091   1.362   6.842
10637SOL    HW232811   3.122   1.212   6.900
10638SOL     OW32812   0.156   5.302   1.605
10638SOL    HW132813   0.255   5.309   1.613
10638SOL    HW232814   0.116   5.393   1.615
10639SOL     OW32815   1.661   4.666   1.259
10639SOL    HW132816   1.677   4.633   1.166
10639SOL    HW232817   1.703   4.603   1.324
10640SOL     OW32818   4.269   0.001   3.718
10640SOL    HW132819   4.239   6.966   3.793
10640SOL    HW232820   4.356   0.043   3.742
10641SOL     OW32821   1.852   1.005   3.472
10641SOL    HW132822   1.829   0.973   3.565
10641SOL    HW232823   1.932   1.064   3.476
10642SOL     OW32824   5.788   2.202   6.510
10642SOL    HW132825   5.769   2.280   6.450
10642SOL    HW232826   5.711   2.139   6.509
10643SOL     OW32827   1.688   5.102   5.820
10643SOL    HW132828   1.758   5.119   5.750
10643SOL    HW232829   1.613   5.050   5.779
10644SOL     OW32830   6.819   2.403   3.298
10644SOL    HW132831   6.767   2.327   3.338
10644SOL    HW232832   6.761   2.452   3.233
10645SOL     OW32833   2.574   2.338   3.614
10645SOL    HW132834   2.547   2.432   3.594
10645SOL    HW232835   2.496   2.277   3.600
10646SOL     OW32836   4.972   0.850   4.226
10646SOL    HW132837   5.045   0.912   4.256
10646SOL    HW232838   4.988   0.822   4.132
10647SOL     OW32839   3.967   4.859   4.816
10647SOL    HW132840   4.028   4.915   4.758
10647SOL    HW232841   3.904   4.919   4.865
10648SOL     OW32842   4.965   5.535   5.019
10648SOL    HW132843   4.975   5.477   5.100
10648SOL    HW232844   4.999   5.627   5.040
10649SOL     OW32845   6.366   3.181   2.689
10649SOL    HW132846   6.376   3.276   2.716
10649SOL    HW232847   6.269   3.155   2.693
10650SOL     OW32848   0.444   0.667   4.087
10650SOL    HW132849   0.407   0.617   4.009
10650SOL    HW232850   0.455   0.604   4.165
10651SOL     OW32851   3.615   6.373   5.636
10651SOL    HW132852   3.705   6.412   5.614
10651SOL    HW232853   3.628   6.284   5.679
10652SOL     OW32854   1.526   6.908   0.075
10652SOL    HW132855   1.546   6.908   7.001
10652SOL    HW232856   1.602   6.867   0.125
10653SOL     OW32857   4.722   6.521   4.759
10653SOL    HW132858   4.743   6.581   4.682
10653SOL    HW232859   4.717   6.575   4.843
10654SOL     OW32860   6.001   1.616   4.549
10654SOL    HW132861   5.939   1.666   4.610
10654SOL    HW232862   5.999   1.518   4.572
10655SOL     OW32863   0.801   4.970   1.005
10655SOL    HW132864   0.787   4.885   1.056
10655SOL    HW232865   0.780   5.048   1.063
10656SOL     OW32866   6.031   1.098   2.361
10656SOL    HW132867   6.051   1.059   2.451
10656SOL    HW232868   6.083   1.183   2.348
10657SOL     OW32869   5.835   0.162   3.578
10657SOL    HW132870   5.803   0.118   3.662
10657SOL    HW232871   5.870   0.092   3.515
10658SOL     OW32872   7.021   3.427   5.197
10658SOL    HW132873   6.995   3.375   5.115
10658SOL    HW232874   0.066   3.376   5.249
10659SOL     OW32875   1.091   5.359   0.586
10659SOL    HW132876   0.998   5.359   0.622
10659SOL    HW232877   1.087   5.340   0.487
10660SOL     OW32878   6.580   3.752   5.136
10660SOL    HW132879   6.518   3.810   5.083
10660SOL    HW232880   6.604   3.798   5.221
10661SOL     OW32881   1.808   3.833   6.107
10661SOL    HW132882   1.794   3.880   6.020
10661SOL    HW232883   1.810   3.900   6.182
10662SOL     OW32884   2.993   1.566   2.970
10662SOL    HW132885   3.037   1.489   2.923
10662SOL    HW232886   2.999   1.647   2.912
10663SOL     OW32887   1.929   1.948   4.222
10663SOL    HW132888   2.018   1.990   4.234
10663SOL    HW232889   1.868   2.011   4.174
10664SOL     OW32890   1.491   5.150   5.230
10664SOL    HW132891   1.415   5.121   5.173
10664SOL    HW232892   1.466   5.231   5.282
10665SOL     OW32893   2.086   2.547   5.976
10665SOL    HW132894   2.172   2.503   5.951
10665SOL    HW232895   2.035   2.568   5.892
10666SOL     OW32896   3.810   3.543   2.259
10666SOL    HW132897   3.777   3.523   2.351
10666SOL    HW232898   3.786   3.636   2.234
10667SOL     OW32899   5.729   2.451   3.470
10667SOL    HW132900   5.633   2.478   3.467
10667SOL    HW232901   5.778   2.494   3.394
10668SOL     OW32902   3.266   2.284   5.394
10668SOL    HW132903   3.207   2.207   5.415
10668SOL    HW232904   3.230   2.335   5.316
10669SOL     OW32905   5.964   1.374   1.103
10669SOL    HW132906   6.042   1.419   1.146
10669SOL    HW232907   5.883   1.433   1.112
10670SOL     OW32908   5.119   3.518   4.482
10670SOL    HW132909   5.126   3.420   4.462
10670SOL    HW232910   5.199   3.566   4.445
10671SOL     OW32911   1.213   2.351   4.452
10671SOL    HW132912   1.129   2.401   4.473
10671SOL    HW232913   1.192   2.255   4.437
10672SOL     OW32914   5.518   3.383   1.263
10672SOL    HW132915   5.436   3.346   1.306
10672SOL    HW232916   5.538   3.473   1.302
10673SOL     OW32917   2.021   1.256   0.741
10673SOL    HW132918   1.973   1.224   0.659
10673SOL    HW232919   2.107   1.300   0.715
10674SOL     OW32920   3.892   3.940   4.525
10674SOL    HW132921   3.982   3.910   4.557
10674SOL    HW232922   3.847   3.994   4.596
10675SOL     OW32923   3.798   6.789   5.345
10675SOL    HW132924   3.762   6.785   5.252
10675SOL    HW232925   3.881   6.734   5.351
10676SOL     OW32926   1.705   6.358   5.487
10676SOL    HW132927   1.664   6.449   5.479
10676SOL    HW232928   1.702   6.329   5.583
10677SOL     OW32929   0.386   1.392   0.904
10677SOL    HW132930   0.452   1.426   0.837
10677SOL    HW232931   0.353   1.302   0.876
10678SOL     OW32932   4.321   5.357   3.820
10678SOL    HW132933   4.355   5.445   3.851
10678SOL    HW232934   4.384   5.285   3.847
10679SOL     OW32935   3.852   3.732   6.934
10679SOL    HW132936   3.932   3.791   6.920
10679SOL    HW232937   3.877   3.638   6.912
10680SOL     OW32938   3.868   1.273   3.815
10680SOL    HW132939   3.827   1.198   3.763
10680SOL    HW232940   3.807   1.353   3.811
10681SOL     OW32941   0.188   2.937   6.375
10681SOL    HW132942   0.210   2.867   6.443
10681SOL    HW232943   0.150   2.894   6.293
10682SOL     OW32944   6.012   3.157   5.712
10682SOL    HW132945   6.068   3.160   5.795
10682SOL    HW232946   6.005   3.062   5.681
10683SOL     OW32947   3.946   0.534   3.647
10683SOL    HW132948   3.975   0.564   3.556
10683SOL    HW232949   3.870   0.469   3.638
10684SOL     OW32950   4.253   4.301   1.665
10684SOL    HW132951   4.312   4.257   1.732
10684SOL    HW232952   4.244   4.398   1.686
10685SOL     OW32953   1.399   5.943   1.855
10685SOL    HW132954   1.338   5.995   1.795
10685SOL    HW232955   1.356   5.856   1.878
10686SOL     OW32956   2.336   3.714   0.085
10686SOL    HW132957   2.347   3.628   0.036
10686SOL    HW232958   2.372   3.705   0.177
10687SOL     OW32959   0.187   4.677   2.824
10687SOL    HW132960   0.130   4.745   2.779
10687SOL    HW232961   0.281   4.711   2.829
10688SOL     OW32962   5.199   1.920   2.516
10688SOL    HW132963   5.293   1.951   2.502
10688SOL    HW232964   5.149   1.926   2.430
10689SOL     OW32965   0.367   6.978   2.423
10689SOL    HW132966   0.279   7.022   2.402
10689SOL    HW232967   0.429   6.990   2.346
10690SOL     OW32968   6.749   5.794   3.431
10690SOL    HW132969   6.793   5.881   3.454
10690SOL    HW232970   6.789   5.720   3.485
10691SOL     OW32971   3.271   1.854   2.853
10691SOL    HW132972   3.176   1.823   2.847
10691SOL    HW232973   3.321   1.823   2.773
10692SOL     OW32974   2.682   0.923   4.873
10692SOL    HW132975   2.688   1.023   4.883
10692SOL    HW232976   2.594   0.891   4.908
10693SOL     OW32977   1.622   6.050   0.821
10693SOL    HW132978   1.654   6.017   0.733
10693SOL    HW232979   1.699   6.090   0.872
10694SOL     OW32980   4.743   6.254   5.717
10694SOL    HW132981   4.801   6.330   5.686
10694SOL    HW232982   4.702   6.209   5.638
10695SOL     OW32983   0.199   3.200   1.440
10695SOL    HW132984   0.236   3.107   1.434
10695SOL    HW232985   0.100   3.195   1.455
10696SOL     OW32986   6.637   4.461   4.832
10696SOL    HW132987   6.564   4.401   4.865
10696SOL    HW232988   6.707   4.468   4.903
10697SOL     OW32989   0.577   5.526   4.956
10697SOL    HW132990   0.675   5.524   4.937
10697SOL    HW232991   0.544   5.434   4.976
10698SOL     OW32992   4.422   3.830   0.010
10698SOL    HW132993   4.484   3.752   7.022
10698SOL    HW232994   4.456   3.888   0.084
10699SOL     OW32995   3.598   4.463   0.801
10699SOL    HW132996   3.696   4.472   0.823
10699SOL    HW232997   3.555   4.403   0.868
10700SOL     OW32998   5.239   6.687   0.123
10700SOL    HW132999   5.300   6.764   0.140
10700SOL    HW233000   5.188   6.666   0.207
10701SOL     OW33001   2.782   0.207   6.308
10701SOL    HW133002   2.742   0.217   6.400
10701SOL    HW233003   2.765   0.290   6.256
10702SOL     OW33004   4.874   3.272   2.655
10702SOL    HW133005   4.797   3.322   2.696
10702SOL    HW233006   4.839   3.196   2.600
10703SOL     OW33007   2.209   2.248   5.565
10703SOL    HW133008   2.110   2.252   5.549
10703SOL    HW233009   2.243   2.339   5.587
10704SOL     OW33010   0.593   5.821   2.594
10704SOL    HW133011   0.494   5.837   2.597
10704SOL    HW233012   0.612   5.738   2.540
10705SOL     OW33013   5.700   5.267   0.793
10705SOL    HW133014   5.714   5.169   0.806
10705SOL    HW233015   5.612   5.282   0.748
10706SOL     OW33016   4.641   0.200   2.181
10706SOL    HW133017   4.733   0.207   2.142
10706SOL    HW233018   4.611   0.291   2.210
10707SOL     OW33019   6.405   6.940   4.510
10707SOL    HW133020   6.484   6.879   4.519
10707SOL    HW233021   6.419   6.999   4.431
10708SOL     OW33022   4.708   2.714   2.830
10708SOL    HW133023   4.788   2.662   2.802
10708SOL    HW233024   4.663   2.669   2.908
10709SOL     OW33025   5.710   5.729   3.870
10709SOL    HW133026   5.686   5.802   3.806
10709SOL    HW233027   5.756   5.768   3.950
10710SOL     OW33028   5.336   0.949   3.189
10710SOL    HW133029   5.281   1.018   3.141
10710SOL    HW233030   5.428   0.947   3.151
10711SOL     OW33031   3.400   6.412   3.340
10711SOL    HW133032   3.450   6.356   3.274
10711SOL    HW233033   3.323   6.359   3.376
10712SOL     OW33034   3.910   0.589   2.805
10712SOL    HW133035   3.967   0.583   2.887
10712SOL    HW233036   3.954   0.650   2.739
10713SOL     OW33037   1.328   3.261   0.590
10713SOL    HW133038   1.342   3.165   0.614
10713SOL    HW233039   1.304   3.312   0.673
10714SOL     OW33040   3.868   3.281   4.851
10714SOL    HW133041   3.864   3.263   4.753
10714SOL    HW233042   3.947   3.339   4.872
10715SOL     OW33043   5.247   0.312   2.145
10715SOL    HW133044   5.274   0.384   2.209
10715SOL    HW233045   5.189   0.352   2.074
10716SOL     OW33046   6.548   2.774   3.357
10716SOL    HW133047   6.548   2.755   3.259
10716SOL    HW233048   6.463   2.820   3.382
10717SOL     OW33049   1.772   3.058   0.597
10717SOL    HW133050   1.788   3.156   0.586
10717SOL    HW233051   1.712   3.042   0.675
10718SOL     OW33052   0.746   4.317   6.557
10718SOL    HW133053   0.650   4.290   6.564
10718SOL    HW233054   0.804   4.239   6.582
10719SOL     OW33055   6.036   6.235   3.487
10719SOL    HW133056   6.007   6.277   3.573
10719SOL    HW233057   5.992   6.146   3.477
10720SOL     OW33058   5.753   5.131   4.207
10720SOL    HW133059   5.801   5.218   4.193
10720SOL    HW233060   5.810   5.056   4.173
10721SOL     OW33061   5.101   4.109   5.324
10721SOL    HW133062   5.080   4.198   5.284
10721SOL    HW233063   5.021   4.075   5.374
10722SOL     OW33064   6.323   3.836   6.848
10722SOL    HW133065   6.343   3.739   6.835
10722SOL    HW233066   6.225   3.851   6.838
10723SOL     OW33067   0.137   1.621   6.884
10723SOL    HW133068   0.047   1.617   6.841
10723SOL    HW233069   0.172   1.527   6.895
10724SOL     OW33070   0.587   6.985   6.945
10724SOL    HW133071   0.652   6.911   6.922
10724SOL    HW233072   0.618   0.046   6.902
10725SOL     OW33073   2.090   5.808   5.112
10725SOL    HW133074   2.050   5.826   5.022
10725SOL    HW233075   2.161   5.739   5.103
10726SOL     OW33076   4.681   0.722   4.121
10726SOL    HW133077   4.642   0.777   4.195
10726SOL    HW233078   4.675   0.772   4.035
10727SOL     OW33079   0.856   4.642   6.117
10727SOL    HW133080   0.954   4.663   6.117
10727SOL    HW233081   0.835   4.584   6.038
10728SOL     OW33082   0.446   5.243   0.279
10728SOL    HW133083   0.373   5.310   0.295
10728SOL    HW233084   0.501   5.234   0.362
10729SOL     OW33085   5.902   2.090   1.903
10729SOL    HW133086   5.991   2.102   1.860
10729SOL    HW233087   5.899   2.001   1.949
10730SOL     OW33088   3.281   0.380   1.318
10730SOL    HW133089   3.253   0.420   1.230
10730SOL    HW233090   3.286   0.281   1.308
10731SOL     OW33091   3.900   0.826   1.074
10731SOL    HW133092   3.866   0.920   1.067
10731SOL    HW233093   3.832   0.769   1.121
10732SOL     OW33094   0.170   4.897   5.381
10732SOL    HW133095   0.099   4.925   5.444
10732SOL    HW233096   0.214   4.813   5.414
10733SOL     OW33097   5.968   1.357   6.490
10733SOL    HW133098   5.928   1.415   6.419
10733SOL    HW233099   5.898   1.333   6.557
10734SOL     OW33100   1.008   2.006   1.159
10734SOL    HW133101   0.947   2.029   1.083
10734SOL    HW233102   0.968   1.933   1.213
10735SOL     OW33103   0.278   2.597   1.983
10735SOL    HW133104   0.214   2.568   2.055
10735SOL    HW233105   0.239   2.573   1.894
10736SOL     OW33106   1.942   0.189   3.728
10736SOL    HW133107   1.946   0.190   3.628
10736SOL    HW233108   2.011   0.124   3.763
10737SOL     OW33109   0.729   2.161   1.439
10737SOL    HW133110   0.714   2.133   1.344
10737SOL    HW233111   0.662   2.115   1.498
10738SOL     OW33112   3.519   5.883   2.554
10738SOL    HW133113   3.599   5.940   2.534
10738SOL    HW233114   3.497   5.890   2.652
10739SOL     OW33115   1.714   3.038   1.532
10739SOL    HW133116   1.788   3.042   1.599
10739SOL    HW233117   1.663   3.125   1.533
10740SOL     OW33118   6.126   4.839   5.595
10740SOL    HW133119   6.225   4.834   5.604
10740SOL    HW233120   6.089   4.748   5.579
10741SOL     OW33121   4.390   1.408   1.761
10741SOL    HW133122   4.327   1.474   1.802
10741SOL    HW233123   4.401   1.330   1.824
10742SOL     OW33124   5.973   5.430   1.608
10742SOL    HW133125   5.995   5.387   1.695
10742SOL    HW233126   6.055   5.429   1.549
10743SOL     OW33127   1.755   1.848   4.425
10743SOL    HW133128   1.728   1.759   4.388
10743SOL    HW233129   1.842   1.876   4.383
10744SOL     OW33130   3.459   2.159   0.951
10744SOL    HW133131   3.487   2.107   1.031
10744SOL    HW233132   3.502   2.249   0.953
10745SOL     OW33133   0.293   5.289   5.194
10745SOL    HW133134   0.290   5.189   5.186
10745SOL    HW233135   0.342   5.314   5.277
10746SOL     OW33136   1.315   3.465   6.342
10746SOL    HW133137   1.241   3.403   6.367
10746SOL    HW233138   1.360   3.498   6.425
10747SOL     OW33139   2.856   0.894   5.083
10747SOL    HW133140   2.956   0.891   5.076
10747SOL    HW233141   2.816   0.903   4.992
10748SOL     OW33142   6.077   1.396   2.449
10748SOL    HW133143   6.163   1.422   2.493
10748SOL    HW233144   6.017   1.354   2.517
10749SOL     OW33145   0.922   6.455   5.264
10749SOL    HW133146   0.862   6.376   5.250
10749SOL    HW233147   0.964   6.450   5.355
10750SOL     OW33148   4.005   0.192   5.109
10750SOL    HW133149   3.950   0.142   5.176
10750SOL    HW233150   3.946   0.250   5.054
10751SOL     OW33151   1.959   4.581   4.321
10751SOL    HW133152   2.045   4.539   4.292
10751SOL    HW233153   1.882   4.531   4.282
10752SOL     OW33154   5.710   3.934   5.227
10752SOL    HW133155   5.694   3.903   5.321
10752SOL    HW233156   5.701   3.855   5.165
10753SOL     OW33157   0.302   4.044   3.953
10753SOL    HW133158   0.271   4.137   3.973
10753SOL    HW233159   0.340   4.003   4.036
10754SOL     OW33160   1.362   0.222   2.825
10754SOL    HW133161   1.404   0.295   2.878
10754SOL    HW233162   1.423   0.195   2.750
10755SOL     OW33163   6.698   0.062   1.833
10755SOL    HW133164   6.613   0.095   1.791
10755SOL    HW233165   6.734   7.009   1.780
10756SOL     OW33166   6.771   5.447   5.182
10756SOL    HW133167   6.744   5.430   5.087
10756SOL    HW233168   6.849   5.389   5.205
10757SOL     OW33169   2.544   3.089   6.595
10757SOL    HW133170   2.584   3.008   6.639
10757SOL    HW233171   2.470   3.060   6.533
10758SOL     OW33172   0.946   6.171   3.714
10758SOL    HW133173   0.880   6.095   3.716
10758SOL    HW233174   1.037   6.136   3.694
10759SOL     OW33175   1.372   3.428   0.375
10759SOL    HW133176   1.461   3.468   0.398
10759SOL    HW233177   1.343   3.367   0.448
10760SOL     OW33178   6.019   1.168   3.129
10760SOL    HW133179   6.110   1.203   3.109
10760SOL    HW233180   5.961   1.174   3.048
10761SOL     OW33181   1.489   5.357   5.674
10761SOL    HW133182   1.579   5.389   5.644
10761SOL    HW233183   1.488   5.257   5.674
10762SOL     OW33184   2.911   0.149   4.581
10762SOL    HW133185   2.981   0.210   4.617
10762SOL    HW233186   2.848   0.201   4.523
10763SOL     OW33187   4.384   0.232   3.309
10763SOL    HW133188   4.327   0.224   3.390
10763SOL    HW233189   4.427   0.323   3.307
10764SOL     OW33190   5.106   1.930   4.676
10764SOL    HW133191   5.114   2.008   4.613
10764SOL    HW233192   5.044   1.862   4.638
10765SOL     OW33193   5.540   2.884   0.934
10765SOL    HW133194   5.571   2.801   0.885
10765SOL    HW233195   5.456   2.864   0.984
10766SOL     OW33196   4.262   4.816   0.573
10766SOL    HW133197   4.318   4.898   0.564
10766SOL    HW233198   4.169   4.836   0.540
10767SOL     OW33199   2.504   0.575   1.291
10767SOL    HW133200   2.517   0.519   1.210
10767SOL    HW233201   2.552   0.532   1.369
10768SOL     OW33202   6.460   5.286   1.346
10768SOL    HW133203   6.413   5.205   1.313
10768SOL    HW233204   6.480   5.276   1.444
10769SOL     OW33205   1.638   3.444   6.042
10769SOL    HW133206   1.710   3.383   6.009
10769SOL    HW233207   1.638   3.529   5.990
10770SOL     OW33208   5.446   5.587   3.286
10770SOL    HW133209   5.413   5.675   3.252
10770SOL    HW233210   5.502   5.602   3.368
10771SOL     OW33211   4.442   6.901   4.171
10771SOL    HW133212   4.354   6.865   4.203
10771SOL    HW233213   4.432   6.998   4.148
10772SOL     OW33214   6.465   5.892   3.668
10772SOL    HW133215   6.464   5.859   3.763
10772SOL    HW233216   6.395   5.845   3.616
10773SOL     OW33217   5.852   4.345   6.212
10773SOL    HW133218   5.874   4.345   6.310
10773SOL    HW233219   5.883   4.260   6.170
10774SOL     OW33220   2.013   1.238   4.237
10774SOL    HW133221   2.025   1.257   4.334
10774SOL    HW233222   1.923   1.198   4.221
10775SOL     OW33223   0.762   4.189   2.006
10775SOL    HW133224   0.852   4.167   2.044
10775SOL    HW233225   0.735   4.280   2.036
10776SOL     OW33226   0.868   0.409   6.511
10776SOL    HW133227   0.822   0.480   6.458
10776SOL    HW233228   0.843   0.319   6.475
10777SOL     OW33229   4.022   5.170   1.078
10777SOL    HW133230   3.995   5.209   0.990
10777SOL    HW233231   4.112   5.204   1.104
10778SOL     OW33232   5.236   0.216   3.552
10778SOL    HW133233   5.168   0.159   3.597
10778SOL    HW233234   5.326   0.173   3.559
10779SOL     OW33235   5.931   2.951   2.897
10779SOL    HW133236   5.881   2.934   2.982
10779SOL    HW233237   5.877   2.919   2.819
10780SOL     OW33238   1.090   1.240   3.977
10780SOL    HW133239   1.097   1.317   4.039
10780SOL    HW233240   0.995   1.207   3.976
10781SOL     OW33241   3.835   0.677   3.909
10781SOL    HW133242   3.924   0.722   3.902
10781SOL    HW233243   3.787   0.684   3.822
10782SOL     OW33244   0.038   6.759   3.584
10782SOL    HW133245   7.002   6.828   3.625
10782SOL    HW233246   7.009   6.676   3.566
10783SOL     OW33247   0.142   2.729   2.662
10783SOL    HW133248   0.134   2.680   2.749
10783SOL    HW233249   0.054   2.729   2.616
10784SOL     OW33250   2.616   0.756   3.388
10784SOL    HW133251   2.565   0.827   3.437
10784SOL    HW233252   2.707   0.791   3.364
10785SOL     OW33253   1.795   3.805   0.245
10785SOL    HW133254   1.854   3.882   0.222
10785SOL    HW233255   1.735   3.831   0.320
10786SOL     OW33256   6.156   6.172   2.868
10786SOL    HW133257   6.128   6.268   2.871
10786SOL    HW233258   6.119   6.123   2.947
10787SOL     OW33259   0.451   0.516   5.243
10787SOL    HW133260   0.369   0.526   5.186
10787SOL    HW233261   0.428   0.536   5.338
10788SOL     OW33262   0.992   3.508   0.404
10788SOL    HW133263   0.898   3.539   0.389
10788SOL    HW233264   0.995   3.408   0.400
10789SOL     OW33265   6.668   3.033   6.930
10789SOL    HW133266   6.591   3.060   6.988
10789SOL    HW233267   6.689   3.106   6.866
10790SOL     OW33268   0.823   6.426   1.673
10790SOL    HW133269   0.894   6.363   1.642
10790SOL    HW233270   0.780   6.389   1.756
10791SOL     OW33271   6.941   5.953   1.981
10791SOL    HW133272   6.856   5.935   2.031
10791SOL    HW233273   7.000   6.012   2.035
10792SOL     OW33274   3.727   3.614   5.114
10792SOL    HW133275   3.745   3.639   5.019
10792SOL    HW233276   3.807   3.636   5.170
10793SOL     OW33277   5.736   3.478   5.583
10793SOL    HW133278   5.712   3.390   5.541
10793SOL    HW233279   5.671   3.548   5.553
10794SOL     OW33280   3.756   3.762   4.356
10794SOL    HW133281   3.818   3.823   4.405
10794SOL    HW233282   3.668   3.807   4.344
10795SOL     OW33283   0.773   4.949   3.171
10795SOL    HW133284   0.765   4.849   3.172
10795SOL    HW233285   0.852   4.975   3.114
10796SOL     OW33286   6.533   6.050   5.882
10796SOL    HW133287   6.617   6.100   5.899
10796SOL    HW233288   6.457   6.114   5.874
10797SOL     OW33289   3.796   3.077   0.476
10797SOL    HW133290   3.699   3.070   0.501
10797SOL    HW233291   3.807   3.148   0.407
10798SOL     OW33292   2.188   1.998   0.605
10798SOL    HW133293   2.282   1.963   0.603
10798SOL    HW233294   2.188   2.089   0.647
10799SOL     OW33295   4.538   0.183   3.078
10799SOL    HW133296   4.484   0.194   3.162
10799SOL    HW233297   4.486   0.127   3.013
10800SOL     OW33298   0.790   5.895   0.031
10800SOL    HW133299   0.845   5.880   6.972
10800SOL    HW233300   0.694   5.875   0.010
10801SOL     OW33301   1.426   0.635   0.588
10801SOL    HW133302   1.492   0.696   0.632
10801SOL    HW233303   1.468   0.593   0.508
10802SOL     OW33304   6.772   6.532   3.276
10802SOL    HW133305   6.731   6.479   3.351
10802SOL    HW233306   6.774   6.629   3.302
10803SOL     OW33307   1.673   5.802   6.559
10803SOL    HW133308   1.614   5.728   6.529
10803SOL    HW233309   1.698   5.859   6.481
10804SOL     OW33310   0.281   2.899   3.177
10804SOL    HW133311   0.289   2.866   3.270
10804SOL    HW233312   0.324   2.834   3.114
10805SOL     OW33313   5.859   1.239   5.190
10805SOL    HW133314   5.870   1.144   5.218
10805SOL    HW233315   5.948   1.285   5.194
10806SOL     OW33316   2.698   5.155   6.753
10806SOL    HW133317   2.649   5.233   6.714
10806SOL    HW233318   2.716   5.088   6.682
10807SOL     OW33319   1.676   5.775   4.106
10807SOL    HW133320   1.722   5.798   4.191
10807SOL    HW233321   1.578   5.792   4.115
10808SOL     OW33322   0.095   2.581   5.996
10808SOL    HW133323   0.076   2.490   5.957
10808SOL    HW233324   0.183   2.580   6.043
10809SOL     OW33325   2.015   4.228   4.347
10809SOL    HW133326   1.964   4.314   4.336
10809SOL    HW233327   2.050   4.222   4.440
10810SOL     OW33328   6.910   0.345   4.041
10810SOL    HW133329   6.821   0.300   4.044
10810SOL    HW233330   6.941   0.364   4.134
10811SOL     OW33331   5.087   5.147   4.524
10811SOL    HW133332   5.132   5.236   4.515
10811SOL    HW233333   5.013   5.153   4.591
10812SOL     OW33334   6.952   2.803   6.560
10812SOL    HW133335   7.012   2.792   6.640
10812SOL    HW233336   6.902   2.889   6.568
10813SOL     OW33337   0.791   3.647   6.063
10813SOL    HW133338   0.811   3.627   6.159
10813SOL    HW233339   0.858   3.712   6.027
10814SOL     OW33340   2.379   6.959   0.873
10814SOL    HW133341   2.354   6.894   0.801
10814SOL    HW233342   2.381   6.912   0.962
10815SOL     OW33343   5.067   1.660   3.509
10815SOL    HW133344   5.088   1.564   3.525
10815SOL    HW233345   5.047   1.673   3.412
10816SOL     OW33346   3.661   2.908   3.244
10816SOL    HW133347   3.606   2.870   3.319
10816SOL    HW233348   3.754   2.925   3.277
10817SOL     OW33349   3.252   0.077   3.063
10817SOL    HW133350   3.250   0.027   3.150
10817SOL    HW233351   3.302   0.023   2.995
10818SOL     OW33352   5.013   5.193   5.696
10818SOL    HW133353   4.964   5.253   5.760
10818SOL    HW233354   5.110   5.189   5.722
10819SOL     OW33355   6.558   5.452   6.567
10819SOL    HW133356   6.598   5.445   6.658
10819SOL    HW233357   6.610   5.395   6.503
10820SOL     OW33358   0.916   5.495   5.325
10820SOL    HW133359   0.967   5.575   5.293
10820SOL    HW233360   0.980   5.421   5.345
10821SOL     OW33361   4.176   5.344   2.634
10821SOL    HW133362   4.092   5.299   2.662
10821SOL    HW233363   4.214   5.396   2.711
10822SOL     OW33364   5.296   2.774   0.972
10822SOL    HW133365   5.314   2.721   1.055
10822SOL    HW233366   5.208   2.821   0.981
10823SOL     OW33367   0.173   6.941   2.851
10823SOL    HW133368   0.197   6.907   2.942
10823SOL    HW233369   0.180   0.018   2.851
10824SOL     OW33370   1.132   1.014   4.269
10824SOL    HW133371   1.120   0.966   4.356
10824SOL    HW233372   1.195   0.962   4.210
10825SOL     OW33373   1.277   2.355   0.849
10825SOL    HW133374   1.293   2.364   0.948
10825SOL    HW233375   1.349   2.298   0.809
10826SOL     OW33376   0.924   1.906   2.877
10826SOL    HW133377   1.007   1.902   2.931
10826SOL    HW233378   0.908   2.000   2.846
10827SOL     OW33379   6.358   3.954   5.188
10827SOL    HW133380   6.310   3.929   5.104
10827SOL    HW233381   6.323   3.899   5.264
10828SOL     OW33382   6.245   3.454   0.005
10828SOL    HW133383   6.245   3.415   0.097
10828SOL    HW233384   6.274   3.384   6.963
10829SOL     OW33385   4.638   3.706   6.894
10829SOL    HW133386   4.614   3.610   6.881
10829SOL    HW233387   4.652   3.749   6.804
10830SOL     OW33388   4.866   1.688   3.705
10830SOL    HW133389   4.951   1.680   3.654
10830SOL    HW233390   4.876   1.643   3.794
10831SOL     OW33391   3.971   0.940   2.042
10831SOL    HW133392   4.030   0.887   2.103
10831SOL    HW233393   3.879   0.945   2.082
10832SOL     OW33394   6.952   3.170   6.935
10832SOL    HW133395   0.010   3.111   6.938
10832SOL    HW233396   6.927   3.187   6.840
10833SOL     OW33397   0.379   1.985   0.812
10833SOL    HW133398   0.354   1.923   0.886
10833SOL    HW233399   0.309   2.056   0.803
10834SOL     OW33400   6.690   6.863   0.712
10834SOL    HW133401   6.768   6.854   0.650
10834SOL    HW233402   6.699   6.948   0.764
10835SOL     OW33403   5.362   3.343   0.551
10835SOL    HW133404   5.298   3.401   0.601
10835SOL    HW233405   5.422   3.400   0.495
10836SOL     OW33406   1.342   1.040   2.686
10836SOL    HW133407   1.351   0.941   2.687
10836SOL    HW233408   1.266   1.066   2.627
10837SOL     OW33409   6.472   4.738   2.231
10837SOL    HW133410   6.381   4.698   2.245
10837SOL    HW233411   6.463   4.825   2.183
10838SOL     OW33412   5.549   6.179   3.665
10838SOL    HW133413   5.519   6.229   3.583
10838SOL    HW233414   5.479   6.113   3.692
10839SOL     OW33415   4.656   3.698   0.365
10839SOL    HW133416   4.708   3.773   0.406
10839SOL    HW233417   4.581   3.673   0.426
10840SOL     OW33418   2.899   0.317   1.766
10840SOL    HW133419   2.931   0.402   1.809
10840SOL    HW233420   2.918   0.240   1.827
10841SOL     OW33421   0.592   5.406   4.679
10841SOL    HW133422   0.602   5.413   4.778
10841SOL    HW233423   0.525   5.473   4.648
10842SOL     OW33424   4.066   3.364   1.647
10842SOL    HW133425   4.099   3.311   1.568
10842SOL    HW233426   4.081   3.461   1.630
10843SOL     OW33427   2.213   1.535   1.135
10843SOL    HW133428   2.130   1.487   1.104
10843SOL    HW233429   2.225   1.618   1.080
10844SOL     OW33430   1.138   5.796   4.770
10844SOL    HW133431   1.130   5.895   4.780
10844SOL    HW233432   1.047   5.756   4.760
10845SOL     OW33433   4.870   6.173   5.024
10845SOL    HW133434   4.782   6.137   4.992
10845SOL    HW233435   4.890   6.259   4.978
10846SOL     OW33436   5.701   6.844   0.149
10846SOL    HW133437   5.635   6.919   0.140
10846SOL    HW233438   5.698   6.787   0.067
10847SOL     OW33439   2.327   1.653   6.807
10847SOL    HW133440   2.424   1.648   6.833
10847SOL    HW233441   2.310   1.737   6.756
10848SOL     OW33442   1.318   3.980   1.207
10848SOL    HW133443   1.366   3.894   1.225
10848SOL    HW233444   1.299   4.026   1.294
10849SOL     OW33445   2.733   4.970   3.900
10849SOL    HW133446   2.787   5.044   3.940
10849SOL    HW233447   2.757   4.884   3.943
10850SOL     OW33448   4.919   6.419   0.333
10850SOL    HW133449   4.940   6.378   0.422
10850SOL    HW233450   4.821   6.411   0.315
10851SOL     OW33451   3.028   4.406   1.610
10851SOL    HW133452   2.966   4.445   1.678
10851SOL    HW233453   3.080   4.331   1.652
10852SOL     OW33454   1.738   1.641   0.326
10852SOL    HW133455   1.790   1.695   0.259
10852SOL    HW233456   1.801   1.603   0.393
10853SOL     OW33457   2.159   2.811   6.018
10853SOL    HW133458   2.143   2.712   6.023
10853SOL    HW233459   2.174   2.837   5.922
10854SOL     OW33460   4.121   6.115   4.477
10854SOL    HW133461   4.030   6.133   4.515
10854SOL    HW233462   4.186   6.179   4.517
10855SOL     OW33463   3.437   1.283   0.510
10855SOL    HW133464   3.437   1.276   0.609
10855SOL    HW233465   3.397   1.200   0.470
10856SOL     OW33466   6.946   0.500   6.976
10856SOL    HW133467   6.920   0.533   0.043
10856SOL    HW233468   0.007   0.544   6.947
10857SOL     OW33469   7.018   1.684   2.105
10857SOL    HW133470   6.976   1.696   2.195
10857SOL    HW233471   0.053   1.603   2.106
10858SOL     OW33472   2.633   6.051   1.622
10858SOL    HW133473   2.694   5.987   1.669
10858SOL    HW233474   2.625   6.025   1.526
10859SOL     OW33475   0.115   4.823   4.318
10859SOL    HW133476   0.058   4.756   4.365
10859SOL    HW233477   0.200   4.780   4.288
10860SOL     OW33478   6.586   3.114   2.530
10860SOL    HW133479   6.491   3.107   2.560
10860SOL    HW233480   6.610   3.211   2.516
10861SOL     OW33481   3.230   3.048   3.648
10861SOL    HW133482   3.261   3.014   3.559
10861SOL    HW233483   3.308   3.081   3.701
10862SOL     OW33484   2.227   0.430   5.098
10862SOL    HW133485   2.139   0.424   5.145
10862SOL    HW233486   2.266   0.521   5.113
10863SOL     OW33487   2.785   6.363   4.807
10863SOL    HW133488   2.725   6.442   4.810
10863SOL    HW233489   2.848   6.365   4.885
10864SOL     OW33490   3.534   6.953   1.872
10864SOL    HW133491   3.548   6.880   1.940
10864SOL    HW233492   3.509   0.014   1.920
10865SOL     OW33493   6.000   0.970   6.716
10865SOL    HW133494   6.092   0.937   6.735
10865SOL    HW233495   5.999   1.070   6.718
10866SOL     OW33496   5.194   4.250   0.571
10866SOL    HW133497   5.181   4.185   0.647
10866SOL    HW233498   5.223   4.338   0.608
10867SOL     OW33499   3.195   4.444   0.705
10867SOL    HW133500   3.234   4.378   0.770
10867SOL    HW233501   3.193   4.534   0.748
10868SOL     OW33502   4.193   1.458   3.462
10868SOL    HW133503   4.098   1.485   3.445
10868SOL    HW233504   4.246   1.468   3.378
10869NA      NA33505   6.053   2.193   5.806
10870NA      NA33506   4.351   4.612   5.263
10871NA      NA33507   2.038   3.692   1.684
10872NA      NA33508   4.817   3.702   5.501
10873NA      NA33509   4.515   2.275   5.047
10874NA      NA33510   3.633   4.806   1.662
10875NA      NA33511   6.649   5.437   5.378
10876NA      NA33512   3.395   3.402   4.927
10877NA      NA33513   4.914   6.420   6.356
10878NA      NA33514   3.377   6.672   5.454
10879NA      NA33515   6.954   5.193   2.154
10880NA      NA33516   2.362   0.551   3.834
10881NA      NA33517   3.839   5.119   1.199
10882NA      NA33518   3.379   3.422   2.318
   7.02356   7.02356   7.02356
