Generated by trjconv : CNT in water t= 198.00000
33518
    1C        C    1   2.845   2.769   4.752
    1C        C    2   2.897   2.719   4.873
    1C        C    3   2.847   2.777   4.991
    1C        C    4   2.845   2.771   4.264
    1C        C    5   2.901   2.727   4.386
    1C        C    6   2.841   2.767   4.508
    1C        C    7   3.013   2.642   4.626
    1C        C    8   2.894   2.718   4.630
    1C        C    9   3.077   2.608   4.747
    1C        C   10   3.013   2.639   4.868
    1C        C   11   3.183   2.495   4.977
    1C        C   12   3.060   2.563   4.977
    1C        C   13   2.849   2.770   3.774
    1C        C   14   2.897   2.718   3.896
    1C        C   15   2.847   2.772   4.017
    1C        C   16   3.012   2.644   4.140
    1C        C   17   2.895   2.723   4.141
    1C        C   18   3.080   2.612   4.260
    1C        C   19   3.017   2.647   4.382
    1C        C   20   3.210   2.562   4.504
    1C        C   21   3.077   2.610   4.505
    1C        C   22   3.278   2.540   4.625
    1C        C   23   3.209   2.554   4.747
    1C        C   24   3.414   2.485   4.870
    1C        C   25   3.273   2.510   4.867
    1C        C   26   3.496   2.487   4.983
    1C        C   27   2.847   2.765   3.285
    1C        C   28   2.902   2.718   3.406
    1C        C   29   2.850   2.769   3.528
    1C        C   30   3.013   2.637   3.653
    1C        C   31   2.902   2.725   3.651
    1C        C   32   3.074   2.603   3.776
    1C        C   33   3.016   2.641   3.899
    1C        C   34   3.212   2.561   4.019
    1C        C   35   3.080   2.613   4.021
    1C        C   36   3.282   2.545   4.141
    1C        C   37   3.213   2.565   4.262
    1C        C   38   3.420   2.511   4.385
    1C        C   39   3.283   2.546   4.384
    1C        C   40   3.490   2.507   4.507
    1C        C   41   3.418   2.516   4.628
    1C        C   42   3.629   2.488   4.749
    1C        C   43   3.487   2.491   4.748
    1C        C   44   3.708   2.487   4.866
    1C        C   45   3.635   2.483   4.985
    1C        C   46   2.839   2.752   2.795
    1C        C   47   2.894   2.711   2.919
    1C        C   48   2.845   2.762   3.041
    1C        C   49   3.022   2.643   3.164
    1C        C   50   2.903   2.720   3.163
    1C        C   51   3.083   2.608   3.286
    1C        C   52   3.019   2.640   3.408
    1C        C   53   3.207   2.549   3.532
    1C        C   54   3.075   2.600   3.532
    1C        C   55   3.277   2.534   3.654
    1C        C   56   3.208   2.556   3.775
    1C        C   57   3.416   2.510   3.896
    1C        C   58   3.277   2.535   3.896
    1C        C   59   3.488   2.509   4.018
    1C        C   60   3.421   2.518   4.141
    1C        C   61   3.632   2.502   4.264
    1C        C   62   3.491   2.500   4.263
    1C        C   63   3.703   2.512   4.386
    1C        C   64   3.631   2.507   4.507
    1C        C   65   3.837   2.552   4.626
    1C        C   66   3.703   2.508   4.629
    1C        C   67   3.910   2.565   4.746
    1C        C   68   3.843   2.526   4.864
    1C        C   69   4.057   2.584   4.978
    1C        C   70   3.929   2.527   4.975
    1C        C   71   2.830   2.740   2.313
    1C        C   72   2.891   2.700   2.434
    1C        C   73   2.835   2.749   2.554
    1C        C   74   3.012   2.626   2.678
    1C        C   75   2.893   2.704   2.674
    1C        C   76   3.073   2.589   2.800
    1C        C   77   3.010   2.630   2.919
    1C        C   78   3.209   2.552   3.040
    1C        C   79   3.078   2.605   3.040
    1C        C   80   3.278   2.530   3.162
    1C        C   81   3.214   2.555   3.286
    1C        C   82   3.416   2.507   3.408
    1C        C   83   3.277   2.534   3.410
    1C        C   84   3.486   2.503   3.530
    1C        C   85   3.417   2.514   3.653
    1C        C   86   3.629   2.507   3.772
    1C        C   87   3.488   2.506   3.774
    1C        C   88   3.698   2.521   3.895
    1C        C   89   3.630   2.512   4.018
    1C        C   90   3.836   2.552   4.137
    1C        C   91   3.700   2.515   4.141
    1C        C   92   3.904   2.574   4.259
    1C        C   93   3.840   2.547   4.382
    1C        C   94   4.031   2.637   4.501
    1C        C   95   3.906   2.573   4.504
    1C        C   96   4.094   2.675   4.622
    1C        C   97   4.035   2.633   4.743
    1C        C   98   4.191   2.772   4.865
    1C        C   99   4.102   2.660   4.866
    1C        C  100   4.213   2.849   4.980
    1C        C  101   2.824   2.731   2.075
    1C        C  102   2.992   2.592   2.192
    1C        C  103   2.881   2.682   2.194
    1C        C  104   3.062   2.571   2.314
    1C        C  105   3.006   2.617   2.435
    1C        C  106   3.201   2.532   2.554
    1C        C  107   3.073   2.591   2.556
    1C        C  108   3.274   2.519   2.675
    1C        C  109   3.204   2.536   2.796
    1C        C  110   3.414   2.500   2.919
    1C        C  111   3.274   2.522   2.918
    1C        C  112   3.486   2.498   3.040
    1C        C  113   3.417   2.505   3.163
    1C        C  114   3.628   2.500   3.282
    1C        C  115   3.486   2.496   3.286
    1C        C  116   3.696   2.517   3.404
    1C        C  117   3.627   2.511   3.527
    1C        C  118   3.835   2.551   3.649
    1C        C  119   3.698   2.512   3.649
    1C        C  120   3.901   2.577   3.771
    1C        C  121   3.835   2.555   3.894
    1C        C  122   4.030   2.640   4.015
    1C        C  123   3.902   2.580   4.016
    1C        C  124   4.093   2.674   4.137
    1C        C  125   4.033   2.633   4.258
    1C        C  126   4.200   2.766   4.381
    1C        C  127   4.091   2.675   4.379
    1C        C  128   4.247   2.823   4.501
    1C        C  129   4.201   2.767   4.622
    1C        C  130   4.328   2.939   4.744
    1C        C  131   4.247   2.822   4.744
    1C        C  132   4.361   3.006   4.863
    1C        C  133   4.292   2.964   4.977
    1C        C  134   3.176   2.470   2.085
    1C        C  135   3.042   2.512   2.085
    1C        C  136   3.263   2.485   2.194
    1C        C  137   3.197   2.524   2.312
    1C        C  138   3.407   2.483   2.428
    1C        C  139   3.268   2.504   2.433
    1C        C  140   3.481   2.485   2.549
    1C        C  141   3.414   2.498   2.672
    1C        C  142   3.623   2.493   2.796
    1C        C  143   3.482   2.491   2.795
    1C        C  144   3.697   2.499   2.916
    1C        C  145   3.627   2.493   3.039
    1C        C  146   3.837   2.530   3.160
    1C        C  147   3.699   2.499   3.160
    1C        C  148   3.903   2.563   3.281
    1C        C  149   3.834   2.547   3.404
    1C        C  150   4.029   2.631   3.525
    1C        C  151   3.901   2.571   3.526
    1C        C  152   4.090   2.669   3.647
    1C        C  153   4.029   2.636   3.769
    1C        C  154   4.198   2.765   3.891
    1C        C  155   4.088   2.676   3.891
    1C        C  156   4.250   2.814   4.013
    1C        C  157   4.201   2.765   4.136
    1C        C  158   4.340   2.924   4.259
    1C        C  159   4.251   2.814   4.258
    1C        C  160   4.378   2.989   4.378
    1C        C  161   4.330   2.937   4.501
    1C        C  162   4.443   3.119   4.619
    1C        C  163   4.369   2.998   4.622
    1C        C  164   4.471   3.188   4.739
    1C        C  165   4.438   3.124   4.860
    1C        C  166   4.513   3.322   4.972
    1C        C  167   4.477   3.187   4.979
    1C        C  168   3.478   2.435   2.075
    1C        C  169   3.403   2.467   2.189
    1C        C  170   3.621   2.467   2.310
    1C        C  171   3.479   2.469   2.308
    1C        C  172   3.695   2.487   2.429
    1C        C  173   3.623   2.488   2.550
    1C        C  174   3.828   2.538   2.670
    1C        C  175   3.691   2.503   2.673
    1C        C  176   3.896   2.561   2.792
    1C        C  177   3.835   2.533   2.916
    1C        C  178   4.025   2.626   3.035
    1C        C  179   3.903   2.555   3.038
    1C        C  180   4.085   2.664   3.157
    1C        C  181   4.029   2.627   3.281
    1C        C  182   4.201   2.752   3.404
    1C        C  183   4.091   2.663   3.403
    1C        C  184   4.254   2.803   3.524
    1C        C  185   4.199   2.760   3.647
    1C        C  186   4.344   2.917   3.767
    1C        C  187   4.250   2.812   3.768
    1C        C  188   4.380   2.979   3.889
    1C        C  189   4.339   2.924   4.012
    1C        C  190   4.443   3.107   4.131
    1C        C  191   4.378   2.981   4.135
    1C        C  192   4.469   3.177   4.251
    1C        C  193   4.443   3.114   4.375
    1C        C  194   4.513   3.317   4.493
    1C        C  195   4.469   3.183   4.496
    1C        C  196   4.528   3.392   4.612
    1C        C  197   4.514   3.324   4.735
    1C        C  198   4.559   3.537   4.853
    1C        C  199   4.530   3.397   4.855
    1C        C  200   4.589   3.624   4.963
    1C        C  201   3.617   2.423   2.074
    1C        C  202   3.829   2.512   2.185
    1C        C  203   3.695   2.462   2.188
    1C        C  204   3.903   2.536   2.304
    1C        C  205   3.831   2.524   2.425
    1C        C  206   4.019   2.623   2.545
    1C        C  207   3.896   2.554   2.547
    1C        C  208   4.079   2.663   2.666
    1C        C  209   4.019   2.629   2.790
    1C        C  210   4.196   2.747   2.910
    1C        C  211   4.081   2.665   2.912
    1C        C  212   4.249   2.794   3.032
    1C        C  213   4.198   2.750   3.156
    1C        C  214   4.330   2.914   3.275
    1C        C  215   4.245   2.802   3.279
    1C        C  216   4.368   2.975   3.397
    1C        C  217   4.338   2.916   3.522
    1C        C  218   4.437   3.104   3.642
    1C        C  219   4.376   2.977   3.643
    1C        C  220   4.467   3.171   3.763
    1C        C  221   4.440   3.107   3.886
    1C        C  222   4.502   3.310   4.006
    1C        C  223   4.465   3.173   4.008
    1C        C  224   4.515   3.383   4.126
    1C        C  225   4.505   3.313   4.249
    1C        C  226   4.518   3.527   4.367
    1C        C  227   4.518   3.385   4.370
    1C        C  228   4.520   3.599   4.489
    1C        C  229   4.528   3.533   4.613
    1C        C  230   4.503   3.747   4.730
    1C        C  231   4.538   3.609   4.732
    1C        C  232   4.502   3.826   4.847
    1C        C  233   4.549   3.758   4.960
    1C        C  234   4.019   2.616   2.065
    1C        C  235   3.901   2.542   2.069
    1C        C  236   4.089   2.644   2.183
    1C        C  237   4.029   2.600   2.304
    1C        C  238   4.199   2.736   2.422
    1C        C  239   4.087   2.649   2.423
    1C        C  240   4.250   2.788   2.543
    1C        C  241   4.195   2.744   2.665
    1C        C  242   4.336   2.903   2.787
    1C        C  243   4.248   2.792   2.787
    1C        C  244   4.376   2.963   2.909
    1C        C  245   4.336   2.906   3.031
    1C        C  246   4.443   3.092   3.150
    1C        C  247   4.374   2.968   3.152
    1C        C  248   4.463   3.162   3.271
    1C        C  249   4.433   3.101   3.395
    1C        C  250   4.498   3.303   3.515
    1C        C  251   4.460   3.167   3.517
    1C        C  252   4.510   3.373   3.637
    1C        C  253   4.503   3.308   3.762
    1C        C  254   4.528   3.519   3.878
    1C        C  255   4.516   3.378   3.884
    1C        C  256   4.525   3.593   3.999
    1C        C  257   4.520   3.524   4.122
    1C        C  258   4.501   3.735   4.245
    1C        C  259   4.522   3.595   4.244
    1C        C  260   4.480   3.807   4.365
    1C        C  261   4.488   3.736   4.487
    1C        C  262   4.428   3.943   4.607
    1C        C  263   4.479   3.811   4.606
    1C        C  264   4.401   4.014   4.726
    1C        C  265   4.437   3.951   4.847
    1C        C  266   4.325   4.138   4.962
    1C        C  267   4.393   4.016   4.963
    1C        C  268   4.268   2.776   2.070
    1C        C  269   4.199   2.733   2.183
    1C        C  270   4.348   2.892   2.302
    1C        C  271   4.257   2.782   2.302
    1C        C  272   4.386   2.955   2.422
    1C        C  273   4.338   2.899   2.543
    1C        C  274   4.446   3.083   2.662
    1C        C  275   4.379   2.958   2.664
    1C        C  276   4.467   3.154   2.782
    1C        C  277   4.440   3.089   2.904
    1C        C  278   4.504   3.291   3.025
    1C        C  279   4.468   3.154   3.026
    1C        C  280   4.515   3.364   3.145
    1C        C  281   4.501   3.297   3.269
    1C        C  282   4.519   3.510   3.390
    1C        C  283   4.512   3.369   3.391
    1C        C  284   4.516   3.583   3.511
    1C        C  285   4.518   3.514   3.635
    1C        C  286   4.491   3.727   3.754
    1C        C  287   4.516   3.588   3.755
    1C        C  288   4.481   3.795   3.877
    1C        C  289   4.498   3.731   4.002
    1C        C  290   4.429   3.935   4.119
    1C        C  291   4.479   3.802   4.122
    1C        C  292   4.401   4.000   4.241
    1C        C  293   4.430   3.939   4.365
    1C        C  294   4.328   4.129   4.480
    1C        C  295   4.393   4.004   4.485
    1C        C  296   4.289   4.192   4.600
    1C        C  297   4.333   4.139   4.723
    1C        C  298   4.199   4.312   4.838
    1C        C  299   4.295   4.205   4.843
    1C        C  300   4.169   4.399   4.948
    1C        C  301   4.355   2.884   2.064
    1C        C  302   4.473   3.070   2.178
    1C        C  303   4.396   2.949   2.181
    1C        C  304   4.483   3.145   2.299
    1C        C  305   4.452   3.080   2.420
    1C        C  306   4.508   3.287   2.540
    1C        C  307   4.474   3.150   2.541
    1C        C  308   4.517   3.361   2.660
    1C        C  309   4.498   3.292   2.782
    1C        C  310   4.524   3.503   2.901
    1C        C  311   4.513   3.362   2.903
    1C        C  312   4.520   3.574   3.024
    1C        C  313   4.518   3.505   3.147
    1C        C  314   4.489   3.717   3.265
    1C        C  315   4.519   3.579   3.267
    1C        C  316   4.470   3.787   3.387
    1C        C  317   4.493   3.722   3.510
    1C        C  318   4.427   3.927   3.629
    1C        C  319   4.476   3.795   3.630
    1C        C  320   4.398   3.987   3.754
    1C        C  321   4.433   3.928   3.877
    1C        C  322   4.323   4.116   3.991
    1C        C  323   4.399   3.997   3.996
    1C        C  324   4.279   4.171   4.114
    1C        C  325   4.327   4.120   4.237
    1C        C  326   4.187   4.284   4.355
    1C        C  327   4.287   4.184   4.356
    1C        C  328   4.137   4.339   4.475
    1C        C  329   4.195   4.298   4.597
    1C        C  330   4.027   4.437   4.714
    1C        C  331   4.143   4.355   4.715
    1C        C  332   3.971   4.489   4.833
    1C        C  333   4.054   4.479   4.945
    1C        C  334   4.552   3.267   2.063
    1C        C  335   4.533   3.129   2.062
    1C        C  336   4.542   3.350   2.176
    1C        C  337   4.514   3.284   2.297
    1C        C  338   4.527   3.498   2.415
    1C        C  339   4.525   3.357   2.418
    1C        C  340   4.522   3.572   2.535
    1C        C  341   4.522   3.502   2.658
    1C        C  342   4.496   3.713   2.776
    1C        C  343   4.523   3.574   2.779
    1C        C  344   4.480   3.781   2.899
    1C        C  345   4.496   3.714   3.022
    1C        C  346   4.421   3.916   3.139
    1C        C  347   4.468   3.783   3.142
    1C        C  348   4.392   3.981   3.260
    1C        C  349   4.426   3.921   3.384
    1C        C  350   4.322   4.107   3.504
    1C        C  351   4.400   3.989   3.505
    1C        C  352   4.276   4.163   3.625
    1C        C  353   4.320   4.105   3.747
    1C        C  354   4.179   4.266   3.869
    1C        C  355   4.277   4.165   3.867
    1C        C  356   4.126   4.319   3.989
    1C        C  357   4.177   4.268   4.111
    1C        C  358   4.013   4.403   4.231
    1C        C  359   4.131   4.326   4.232
    1C        C  360   3.952   4.444   4.352
    1C        C  361   4.019   4.417   4.473
    1C        C  362   3.828   4.515   4.594
    1C        C  363   3.958   4.461   4.593
    1C        C  364   3.763   4.547   4.715
    1C        C  365   3.839   4.539   4.834
    1C        C  366   3.631   4.598   4.953
    1C        C  367   3.768   4.575   4.949
    1C        C  368   4.512   3.565   2.057
    1C        C  369   4.528   3.490   2.174
    1C        C  370   4.504   3.707   2.290
    1C        C  371   4.527   3.567   2.292
    1C        C  372   4.483   3.779   2.409
    1C        C  373   4.498   3.711   2.532
    1C        C  374   4.425   3.912   2.653
    1C        C  375   4.474   3.779   2.653
    1C        C  376   4.395   3.977   2.775
    1C        C  377   4.426   3.911   2.896
    1C        C  378   4.323   4.102   3.014
    1C        C  379   4.397   3.981   3.016
    1C        C  380   4.277   4.158   3.135
    1C        C  381   4.319   4.102   3.258
    1C        C  382   4.175   4.257   3.379
    1C        C  383   4.278   4.160   3.381
    1C        C  384   4.123   4.307   3.500
    1C        C  385   4.175   4.262   3.623
    1C        C  386   4.009   4.391   3.745
    1C        C  387   4.120   4.304   3.746
    1C        C  388   3.945   4.429   3.865
    1C        C  389   4.008   4.397   3.988
    1C        C  390   3.822   4.497   4.110
    1C        C  391   3.951   4.440   4.110
    1C        C  392   3.751   4.518   4.230
    1C        C  393   3.820   4.494   4.351
    1C        C  394   3.618   4.556   4.477
    1C        C  395   3.756   4.525   4.473
    1C        C  396   3.548   4.571   4.598
    1C        C  397   3.623   4.569   4.717
    1C        C  398   3.413   4.553   4.841
    1C        C  399   3.552   4.577   4.839
    1C        C  400   3.345   4.516   4.958
    1C        C  401   4.500   3.704   2.054
    1C        C  402   4.459   3.918   2.168
    1C        C  403   4.495   3.782   2.170
    1C        C  404   4.414   3.979   2.287
    1C        C  405   4.436   3.913   2.410
    1C        C  406   4.330   4.099   2.528
    1C        C  407   4.406   3.980   2.530
    1C        C  408   4.282   4.156   2.648
    1C        C  409   4.323   4.098   2.770
    1C        C  410   4.181   4.258   2.891
    1C        C  411   4.280   4.157   2.891
    1C        C  412   4.127   4.304   3.013
    1C        C  413   4.177   4.257   3.137
    1C        C  414   4.004   4.384   3.256
    1C        C  415   4.122   4.306   3.257
    1C        C  416   3.943   4.418   3.379
    1C        C  417   4.007   4.388   3.501
    1C        C  418   3.815   4.479   3.622
    1C        C  419   3.946   4.424   3.623
    1C        C  420   3.749   4.507   3.743
    1C        C  421   3.814   4.481   3.866
    1C        C  422   3.612   4.535   3.987
    1C        C  423   3.751   4.509   3.989
    1C        C  424   3.543   4.543   4.111
    1C        C  425   3.612   4.543   4.234
    1C        C  426   3.403   4.559   4.358
    1C        C  427   3.544   4.559   4.357
    1C        C  428   3.333   4.551   4.481
    1C        C  429   3.407   4.562   4.601
    1C        C  430   3.197   4.523   4.724
    1C        C  431   3.338   4.543   4.722
    1C        C  432   3.126   4.501   4.845
    1C        C  433   3.207   4.496   4.960
    1C        C  434   4.385   4.124   2.053
    1C        C  435   4.451   4.001   2.056
    1C        C  436   4.306   4.165   2.166
    1C        C  437   4.338   4.099   2.288
    1C        C  438   4.184   4.253   2.405
    1C        C  439   4.285   4.154   2.407
    1C        C  440   4.126   4.299   2.525
    1C        C  441   4.182   4.256   2.648
    1C        C  442   4.009   4.382   2.766
    1C        C  443   4.126   4.302   2.769
    1C        C  444   3.943   4.410   2.888
    1C        C  445   4.006   4.376   3.010
    1C        C  446   3.812   4.465   3.133
    1C        C  447   3.945   4.415   3.132
    1C        C  448   3.746   4.489   3.256
    1C        C  449   3.813   4.474   3.379
    1C        C  450   3.607   4.528   3.500
    1C        C  451   3.745   4.499   3.501
    1C        C  452   3.539   4.540   3.623
    1C        C  453   3.610   4.536   3.745
    1C        C  454   3.398   4.551   3.866
    1C        C  455   3.539   4.546   3.867
    1C        C  456   3.333   4.540   3.991
    1C        C  457   3.402   4.542   4.114
    1C        C  458   3.194   4.511   4.239
    1C        C  459   3.332   4.543   4.237
    1C        C  460   3.128   4.488   4.361
    1C        C  461   3.195   4.519   4.482
    1C        C  462   3.001   4.437   4.605
    1C        C  463   3.127   4.501   4.604
    1C        C  464   2.935   4.401   4.725
    1C        C  465   2.994   4.446   4.846
    1C        C  466   2.801   4.348   4.962
    1C        C  467   2.909   4.437   4.961
    1C        C  468   4.127   4.286   2.041
    1C        C  469   4.191   4.250   2.161
    1C        C  470   4.013   4.374   2.281
    1C        C  471   4.131   4.296   2.281
    1C        C  472   3.946   4.409   2.400
    1C        C  473   4.007   4.375   2.523
    1C        C  474   3.815   4.469   2.646
    1C        C  475   3.944   4.411   2.644
    1C        C  476   3.746   4.494   2.767
    1C        C  477   3.814   4.467   2.887
    1C        C  478   3.609   4.521   3.011
    1C        C  479   3.746   4.485   3.010
    1C        C  480   3.540   4.531   3.133
    1C        C  481   3.609   4.521   3.256
    1C        C  482   3.396   4.534   3.377
    1C        C  483   3.537   4.535   3.377
    1C        C  484   3.328   4.535   3.501
    1C        C  485   3.398   4.544   3.624
    1C        C  486   3.189   4.512   3.747
    1C        C  487   3.326   4.548   3.745
    1C        C  488   3.126   4.488   3.871
    1C        C  489   3.196   4.504   3.992
    1C        C  490   3.004   4.422   4.118
    1C        C  491   3.129   4.487   4.115
    1C        C  492   2.942   4.389   4.241
    1C        C  493   3.001   4.426   4.364
    1C        C  494   2.829   4.304   4.486
    1C        C  495   2.941   4.390   4.486
    1C        C  496   2.771   4.261   4.607
    1C        C  497   2.821   4.317   4.727
    1C        C  498   2.669   4.170   4.847
    1C        C  499   2.758   4.279   4.848
    1C        C  500   2.603   4.122   4.961
    1C        C  501   4.011   4.363   2.044
    1C        C  502   3.821   4.469   2.159
    1C        C  503   3.949   4.411   2.160
    1C        C  504   3.747   4.482   2.278
    1C        C  505   3.816   4.463   2.400
    1C        C  506   3.608   4.506   2.522
    1C        C  507   3.747   4.481   2.523
    1C        C  508   3.537   4.517   2.644
    1C        C  509   3.606   4.515   2.767
    1C        C  510   3.395   4.533   2.889
    1C        C  511   3.536   4.526   2.890
    1C        C  512   3.325   4.527   3.011
    1C        C  513   3.399   4.533   3.132
    1C        C  514   3.188   4.506   3.256
    1C        C  515   3.327   4.530   3.254
    1C        C  516   3.121   4.481   3.378
    1C        C  517   3.191   4.502   3.499
    1C        C  518   3.001   4.418   3.627
    1C        C  519   3.125   4.484   3.623
    1C        C  520   2.946   4.376   3.751
    1C        C  521   3.005   4.416   3.873
    1C        C  522   2.842   4.283   3.999
    1C        C  523   2.952   4.372   3.997
    1C        C  524   2.789   4.240   4.122
    1C        C  525   2.835   4.297   4.243
    1C        C  526   2.694   4.139   4.369
    1C        C  527   2.779   4.252   4.364
    1C        C  528   2.652   4.083   4.491
    1C        C  529   2.685   4.149   4.611
    1C        C  530   2.589   3.961   4.736
    1C        C  531   2.637   4.094   4.732
    1C        C  532   2.547   3.901   4.858
    1C        C  533   2.536   3.999   4.961
    1C        C  534   3.622   4.559   2.046
    1C        C  535   3.757   4.521   2.045
    1C        C  536   3.538   4.538   2.160
    1C        C  537   3.609   4.515   2.281
    1C        C  538   3.394   4.521   2.403
    1C        C  539   3.536   4.518   2.402
    1C        C  540   3.326   4.517   2.526
    1C        C  541   3.396   4.522   2.648
    1C        C  542   3.184   4.492   2.765
    1C        C  543   3.322   4.521   2.769
    1C        C  544   3.121   4.470   2.890
    1C        C  545   3.189   4.492   3.012
    1C        C  546   2.994   4.415   3.138
    1C        C  547   3.119   4.480   3.135
    1C        C  548   2.939   4.375   3.261
    1C        C  549   2.996   4.416   3.384
    1C        C  550   2.830   4.288   3.509
    1C        C  551   2.936   4.382   3.507
    1C        C  552   2.780   4.242   3.633
    1C        C  553   2.835   4.289   3.754
    1C        C  554   2.701   4.126   3.877
    1C        C  555   2.791   4.235   3.876
    1C        C  556   2.663   4.067   3.999
    1C        C  557   2.701   4.129   4.120
    1C        C  558   2.611   3.945   4.249
    1C        C  559   2.664   4.076   4.246
    1C        C  560   2.580   3.882   4.372
    1C        C  561   2.599   3.952   4.493
    1C        C  562   2.534   3.752   4.619
    1C        C  563   2.568   3.888   4.616
    1C        C  564   2.518   3.683   4.741
    1C        C  565   2.524   3.759   4.861
    1C        C  566   2.532   3.544   4.981
    1C        C  567   2.527   3.683   4.978
    1C        C  568   3.331   4.469   2.045
    1C        C  569   3.397   4.522   2.157
    1C        C  570   3.187   4.480   2.281
    1C        C  571   3.325   4.516   2.280
    1C        C  572   3.118   4.461   2.403
    1C        C  573   3.187   4.490   2.522
    1C        C  574   2.988   4.412   2.650
    1C        C  575   3.117   4.468   2.643
    1C        C  576   2.933   4.368   2.773
    1C        C  577   2.995   4.407   2.894
    1C        C  578   2.826   4.281   3.019
    1C        C  579   2.934   4.372   3.017
    1C        C  580   2.782   4.226   3.141
    1C        C  581   2.832   4.282   3.261
    1C        C  582   2.708   4.118   3.387
    1C        C  583   2.786   4.236   3.386
    1C        C  584   2.665   4.062   3.509
    1C        C  585   2.698   4.126   3.630
    1C        C  586   2.604   3.939   3.758
    1C        C  587   2.667   4.065   3.753
    1C        C  588   2.583   3.872   3.881
    1C        C  589   2.610   3.936   4.004
    1C        C  590   2.548   3.739   4.131
    1C        C  591   2.588   3.874   4.129
    1C        C  592   2.532   3.675   4.256
    1C        C  593   2.539   3.747   4.378
    1C        C  594   2.519   3.535   4.500
    1C        C  595   2.528   3.676   4.499
    1C        C  596   2.521   3.464   4.622
    1C        C  597   2.517   3.540   4.741
    1C        C  598   2.539   3.328   4.863
    1C        C  599   2.528   3.469   4.862
    1C        C  600   2.538   3.248   4.978
    1C        C  601   3.199   4.428   2.048
    1C        C  602   2.985   4.399   2.163
    1C        C  603   3.119   4.448   2.161
    1C        C  604   2.925   4.366   2.288
    1C        C  605   2.990   4.401   2.408
    1C        C  606   2.822   4.274   2.532
    1C        C  607   2.925   4.371   2.530
    1C        C  608   2.773   4.226   2.655
    1C        C  609   2.823   4.280   2.776
    1C        C  610   2.690   4.116   2.899
    1C        C  611   2.774   4.230   2.898
    1C        C  612   2.654   4.054   3.021
    1C        C  613   2.699   4.111   3.142
    1C        C  614   2.603   3.928   3.269
    1C        C  615   2.670   4.053   3.267
    1C        C  616   2.579   3.865   3.393
    1C        C  617   2.607   3.933   3.514
    1C        C  618   2.545   3.734   3.640
    1C        C  619   2.577   3.871   3.637
    1C        C  620   2.533   3.665   3.763
    1C        C  621   2.544   3.736   3.885
    1C        C  622   2.525   3.529   4.013
    1C        C  623   2.534   3.669   4.009
    1C        C  624   2.525   3.459   4.136
    1C        C  625   2.526   3.534   4.256
    1C        C  626   2.542   3.323   4.380
    1C        C  627   2.526   3.464   4.379
    1C        C  628   2.560   3.253   4.502
    1C        C  629   2.539   3.324   4.622
    1C        C  630   2.597   3.119   4.745
    1C        C  631   2.554   3.254   4.744
    1C        C  632   2.625   3.054   4.869
    1C        C  633   2.569   3.112   4.987
    1C        C  634   2.785   4.306   2.054
    1C        C  635   2.895   4.393   2.052
    1C        C  636   2.751   4.238   2.171
    1C        C  637   2.812   4.280   2.291
    1C        C  638   2.685   4.108   2.412
    1C        C  639   2.769   4.222   2.412
    1C        C  640   2.643   4.053   2.535
    1C        C  641   2.686   4.114   2.655
    1C        C  642   2.594   3.926   2.779
    1C        C  643   2.650   4.056   2.778
    1C        C  644   2.571   3.858   2.902
    1C        C  645   2.594   3.926   3.024
    1C        C  646   2.536   3.725   3.151
    1C        C  647   2.574   3.861   3.148
    1C        C  648   2.522   3.658   3.275
    1C        C  649   2.540   3.730   3.395
    1C        C  650   2.527   3.521   3.523
    1C        C  651   2.532   3.662   3.519
    1C        C  652   2.530   3.452   3.646
    1C        C  653   2.527   3.524   3.768
    1C        C  654   2.542   3.316   3.894
    1C        C  655   2.524   3.456   3.891
    1C        C  656   2.554   3.248   4.017
    1C        C  657   2.540   3.319   4.138
    1C        C  658   2.607   3.119   4.261
    1C        C  659   2.556   3.251   4.260
    1C        C  660   2.635   3.052   4.383
    1C        C  661   2.601   3.118   4.504
    1C        C  662   2.709   2.936   4.629
    1C        C  663   2.627   3.051   4.625
    1C        C  664   2.756   2.880   4.750
    1C        C  665   2.707   2.937   4.872
    1C        C  666   2.744   2.871   4.990
    1C        C  667   2.675   4.031   2.056
    1C        C  668   2.688   4.111   2.169
    1C        C  669   2.597   3.915   2.296
    1C        C  670   2.653   4.046   2.289
    1C        C  671   2.571   3.848   2.417
    1C        C  672   2.592   3.921   2.536
    1C        C  673   2.528   3.721   2.663
    1C        C  674   2.565   3.857   2.659
    1C        C  675   2.517   3.651   2.785
    1C        C  676   2.537   3.721   2.906
    1C        C  677   2.514   3.513   3.032
    1C        C  678   2.525   3.654   3.030
    1C        C  679   2.514   3.445   3.155
    1C        C  680   2.515   3.517   3.277
    1C        C  681   2.537   3.311   3.406
    1C        C  682   2.517   3.450   3.401
    1C        C  683   2.557   3.241   3.527
    1C        C  684   2.542   3.311   3.649
    1C        C  685   2.601   3.110   3.774
    1C        C  686   2.556   3.244   3.773
    1C        C  687   2.629   3.047   3.897
    1C        C  688   2.596   3.113   4.019
    1C        C  689   2.705   2.930   4.143
    1C        C  690   2.629   3.049   4.140
    1C        C  691   2.748   2.873   4.265
    1C        C  692   2.705   2.930   4.387
    1C        C  693   2.750   2.875   4.509
    1C        C  694   2.636   3.896   2.060
    1C        C  695   2.530   3.709   2.181
    1C        C  696   2.581   3.841   2.177
    1C        C  697   2.507   3.640   2.302
    1C        C  698   2.528   3.714   2.420
    1C        C  699   2.501   3.505   2.547
    1C        C  700   2.515   3.646   2.544
    1C        C  701   2.512   3.436   2.669
    1C        C  702   2.510   3.510   2.790
    1C        C  703   2.527   3.298   2.916
    1C        C  704   2.514   3.439   2.912
    1C        C  705   2.547   3.232   3.039
    1C        C  706   2.538   3.306   3.160
    1C        C  707   2.601   3.108   3.284
    1C        C  708   2.555   3.241   3.284
    1C        C  709   2.631   3.044   3.407
    1C        C  710   2.605   3.108   3.530
    1C        C  711   2.711   2.927   3.652
    1C        C  712   2.635   3.045   3.653
    1C        C  713   2.755   2.876   3.776
    1C        C  714   2.709   2.931   3.898
    1C        C  715   2.753   2.878   4.021
    1C        C  716   2.452   3.503   2.067
    1C        C  717   2.490   3.638   2.068
    1C        C  718   2.467   3.423   2.185
    1C        C  719   2.482   3.500   2.304
    1C        C  720   2.513   3.292   2.429
    1C        C  721   2.489   3.431   2.427
    1C        C  722   2.537   3.222   2.549
    1C        C  723   2.535   3.297   2.669
    1C        C  724   2.597   3.099   2.794
    1C        C  725   2.546   3.231   2.793
    1C        C  726   2.624   3.035   2.916
    1C        C  727   2.594   3.099   3.039
    1C        C  728   2.709   2.925   3.160
    1C        C  729   2.629   3.041   3.163
    1C        C  730   2.752   2.870   3.283
    1C        C  731   2.710   2.927   3.405
    1C        C  732   2.755   2.874   3.528
    1C        C  733   2.496   3.204   2.074
    1C        C  734   2.485   3.281   2.190
    1C        C  735   2.580   3.086   2.308
    1C        C  736   2.520   3.214   2.311
    1C        C  737   2.605   3.018   2.430
    1C        C  738   2.581   3.088   2.551
    1C        C  739   2.698   2.911   2.673
    1C        C  740   2.621   3.030   2.673
    1C        C  741   2.743   2.856   2.795
    1C        C  742   2.704   2.918   2.915
    1C        C  743   2.752   2.868   3.038
    1C        C  744   2.547   3.074   2.079
    1C        C  745   2.689   2.898   2.188
    1C        C  746   2.607   3.013   2.190
    1C        C  747   2.730   2.842   2.311
    1C        C  748   2.685   2.901   2.431
    1C        C  749   2.736   2.850   2.552
    1C        C  750   2.738   2.841   2.071
    1C        C  751   3.658   2.315   1.981
    1C        O  752   3.705   2.211   2.035
    1C        O  753   3.708   2.347   1.855
    1C        C  754   4.622   3.057   1.968
    1C        O  755   4.621   3.078   1.844
    1C        O  756   4.743   3.001   2.010
    1C        C  757   4.443   4.220   1.957
    1C        O  758   4.519   4.313   1.995
    1C        O  759   4.484   4.174   1.831
    1C        C  760   3.575   4.636   1.928
    1C        O  761   3.609   4.756   1.909
    1C        O  762   3.565   4.564   1.809
    1C        C  763   2.892   4.492   1.942
    1C        O  764   2.917   4.453   1.825
    1C        O  765   2.804   4.601   1.955
    1C        C  766   2.327   3.478   1.992
    1C        O  767   2.316   3.500   1.868
    1C        O  768   2.202   3.504   2.049
    1C        C  769   4.704   3.598   5.053
    1C        O  770   4.688   3.526   5.155
    1C        O  771   4.836   3.624   5.015
    1C        C  772   4.282   4.445   5.032
    1C        O  773   4.263   4.467   5.155
    1C        O  774   4.368   4.547   4.991
    1C        C  775   4.138   2.537   5.092
    1C        O  776   4.260   2.509   5.077
    1C        O  777   4.119   2.606   5.212
    1C        C  778   2.888   4.560   5.040
    1C        O  779   2.816   4.653   4.993
    1C        O  780   2.864   4.537   5.176
    1C        C  781   2.466   3.041   5.066
    1C        O  782   2.346   3.028   5.030
    1C        O  783   2.493   3.004   5.197
    1C        C  784   2.422   3.994   5.055
    1C        O  785   2.301   3.997   5.021
    1C        O  786   2.447   3.945   5.184
    1C        C  787   2.964   2.418   2.001
    1C        O  788   2.907   2.458   1.896
    1C        O  789   2.914   2.294   2.040
    1C        C  790   3.161   2.357   5.026
    1C        O  791   3.122   2.265   4.949
    1C        O  792   3.228   2.319   5.143
    1C        H  793   4.251   3.038   5.044
    1C        H  794   4.180   2.810   5.073
    1C        H  795   4.500   3.125   5.064
    1C        H  796   4.521   3.374   5.065
    1C        H  797   4.547   3.808   5.054
    1C        H  798   4.389   3.965   5.057
    1C        H  799   4.249   4.147   5.037
    1C        H  800   4.045   4.551   5.024
    1C        H  801   3.829   4.624   5.022
    1C        H  802   3.585   4.629   5.045
    1C        H  803   3.387   4.509   5.056
    1C        H  804   3.161   4.497   5.056
    1C        H  805   3.901   2.460   5.054
    1C        H  806   3.681   2.474   5.081
    1C        H  807   3.024   2.586   5.075
    1C        H  808   3.445   2.469   5.076
    1C        H  809   2.915   2.778   5.073
    1C        H  810   2.666   2.847   5.059
    1C        H  811   2.539   3.296   5.074
    1C        H  812   2.571   3.495   5.068
    1C        H  813   2.552   3.731   5.070
    1C        H  814   2.572   4.196   5.032
    1C        H  815   2.742   4.342   5.051
    1C        H  816   2.736   2.896   1.979
    1C        H  817   2.799   2.654   2.005
    1C        H  818   3.210   2.411   2.002
    1C        H  819   3.438   2.474   1.984
    1C        H  820   3.905   2.469   1.990
    1C        H  821   4.047   2.661   1.972
    1C        H  822   4.266   2.716   1.981
    1C        H  823   4.414   2.895   1.975
    1C        H  824   4.574   3.309   1.967
    1C        H  825   4.550   3.525   1.965
    1C        H  826   4.479   3.754   1.962
    1C        H  827   3.816   4.558   1.964
    1C        H  828   3.964   4.384   1.950
    1C        H  829   4.143   4.223   1.956
    1C        H  830   4.494   3.970   1.962
    1C        H  831   2.679   3.830   1.988
    1C        H  832   2.674   4.078   1.959
    1C        H  833   2.714   4.312   1.975
    1C        H  834   3.387   4.452   1.955
    1C        H  835   3.152   4.401   1.956
    1C        H  836   2.529   3.020   1.989
    1C        H  837   2.420   3.220   2.000
    1C        H  838   2.490   3.685   1.972
    2V3OU   H29  839   2.806   3.551   1.938
    2V3OU   C27  840   2.783   3.506   2.038
    2V3OU   H27  841   2.731   3.570   2.114
    2V3OU   H28  842   2.727   3.409   2.029
    2V3OU   O11  843   2.911   3.480   2.097
    2V3OU   C15  844   2.922   3.398   2.207
    2V3OU   C13  845   3.052   3.377   2.259
    2V3OU   C14  846   3.081   3.275   2.350
    2V3OU   C16  847   2.980   3.194   2.401
    2V3OU    H6  848   2.997   3.101   2.456
    2V3OU   C12  849   3.218   3.242   2.396
    2V3OU    O2  850   3.242   3.136   2.458
    2V3OU   C10  851   3.328   3.316   2.333
    2V3OU    C8  852   3.459   3.277   2.357
    2V3OU   O10  853   3.492   3.158   2.415
    2V3OU   H26  854   3.406   3.119   2.436
    2V3OU    C6  855   3.569   3.359   2.318
    2V3OU    C5  856   3.540   3.475   2.247
    2V3OU    C4  857   3.705   3.298   2.313
    2V3OU    H4  858   3.730   3.227   2.398
    2V3OU    H5  859   3.712   3.233   2.221
    2V3OU    C2  860   3.819   3.400   2.310
    2V3OU    O6  861   3.816   3.482   2.427
    2V3OU   H21  862   3.763   3.561   2.407
    2V3OU    C3  863   3.785   3.494   2.194
    2V3OU    H2  864   3.867   3.570   2.186
    2V3OU    H3  865   3.784   3.440   2.096
    2V3OU   C25  866   3.956   3.333   2.299
    2V3OU    O7  867   4.004   3.300   2.191
    2V3OU   C26  868   4.032   3.295   2.424
    2V3OU   H22  869   4.075   3.384   2.477
    2V3OU   H23  870   4.116   3.225   2.398
    2V3OU    O8  871   3.959   3.222   2.521
    2V3OU   H24  872   3.936   3.265   2.604
    2V3OU    C1  873   3.652   3.567   2.210
    2V3OU    H1  874   3.628   3.620   2.113
    2V3OU    O3  875   3.662   3.654   2.322
    2V3OU   C19  876   3.620   3.791   2.320
    2V3OU    H9  877   3.522   3.801   2.263
    2V3OU    O4  878   3.713   3.852   2.234
    2V3OU   C20  879   3.846   3.877   2.281
    2V3OU   H10  880   3.896   3.778   2.298
    2V3OU   C24  881   3.613   3.855   2.459
    2V3OU   H16  882   3.544   3.792   2.520
    2V3OU   H17  883   3.563   3.954   2.441
    2V3OU   C23  884   3.753   3.879   2.517
    2V3OU   H15  885   3.797   3.775   2.536
    2V3OU    N1  886   3.741   3.953   2.641
    2V3OU   H19  887   3.800   3.915   2.712
    2V3OU   H20  888   3.648   3.933   2.673
    2V3OU   C21  889   3.848   3.950   2.415
    2V3OU   H11  890   3.952   3.927   2.452
    2V3OU    O5  891   3.832   4.091   2.410
    2V3OU   H18  892   3.798   4.117   2.497
    2V3OU   C22  893   3.918   3.957   2.173
    2V3OU   H12  894   3.868   4.055   2.152
    2V3OU   H13  895   3.917   3.899   2.078
    2V3OU   H14  896   4.027   3.964   2.199
    2V3OU   C11  897   3.162   3.471   2.232
    2V3OU    O1  898   3.142   3.589   2.196
    2V3OU    C9  899   3.302   3.427   2.247
    2V3OU    C7  900   3.407   3.510   2.208
    2V3OU    O9  901   3.388   3.618   2.125
    2V3OU   H25  902   3.293   3.632   2.118
    2V3OU   C17  903   2.820   3.321   2.266
    2V3OU    H7  904   2.720   3.363   2.279
    2V3OU   C18  905   2.851   3.220   2.356
    2V3OU    H8  906   2.778   3.161   2.414
    3SOL     OW  907   3.372   4.754   0.940
    3SOL    HW1  908   3.283   4.724   0.975
    3SOL    HW2  909   3.375   4.740   0.841
    4SOL     OW  910   6.659   5.886   1.520
    4SOL    HW1  911   6.730   5.816   1.525
    4SOL    HW2  912   6.588   5.866   1.588
    5SOL     OW  913   4.623   1.220   2.553
    5SOL    HW1  914   4.566   1.278   2.495
    5SOL    HW2  915   4.565   1.164   2.611
    6SOL     OW  916   4.062   1.470   1.060
    6SOL    HW1  917   4.099   1.493   1.150
    6SOL    HW2  918   4.117   1.397   1.018
    7SOL     OW  919   6.871   3.671   2.137
    7SOL    HW1  920   6.840   3.716   2.221
    7SOL    HW2  921   6.894   3.576   2.156
    8SOL     OW  922   2.692   0.247   6.522
    8SOL    HW1  923   2.677   0.277   6.428
    8SOL    HW2  924   2.790   0.231   6.537
    9SOL     OW  925   6.683   5.750   6.630
    9SOL    HW1  926   6.776   5.718   6.648
    9SOL    HW2  927   6.684   5.811   6.550
   10SOL     OW  928   0.890   5.289   5.964
   10SOL    HW1  929   0.947   5.357   6.010
   10SOL    HW2  930   0.882   5.312   5.867
   11SOL     OW  931   2.651   0.497   6.673
   11SOL    HW1  932   2.703   0.515   6.756
   11SOL    HW2  933   2.632   0.399   6.666
   12SOL     OW  934   3.764   6.439   3.969
   12SOL    HW1  935   3.771   6.342   3.993
   12SOL    HW2  936   3.680   6.454   3.917
   13SOL     OW  937   3.600   5.629   3.733
   13SOL    HW1  938   3.538   5.676   3.796
   13SOL    HW2  939   3.652   5.559   3.782
   14SOL     OW  940   4.930   4.758   5.966
   14SOL    HW1  941   5.029   4.763   5.951
   14SOL    HW2  942   4.886   4.837   5.924
   15SOL     OW  943   1.243   5.673   1.562
   15SOL    HW1  944   1.158   5.663   1.613
   15SOL    HW2  945   1.304   5.736   1.611
   16SOL     OW  946   5.504   2.856   5.792
   16SOL    HW1  947   5.572   2.911   5.841
   16SOL    HW2  948   5.537   2.762   5.784
   17SOL     OW  949   5.275   6.209   5.259
   17SOL    HW1  950   5.371   6.205   5.287
   17SOL    HW2  951   5.218   6.164   5.328
   18SOL     OW  952   3.302   0.954   5.984
   18SOL    HW1  953   3.284   0.858   6.006
   18SOL    HW2  954   3.320   0.962   5.886
   19SOL     OW  955   0.328   0.295   3.348
   19SOL    HW1  956   0.298   0.384   3.383
   19SOL    HW2  957   0.348   0.302   3.251
   20SOL     OW  958   5.155   2.835   4.341
   20SOL    HW1  959   5.243   2.790   4.352
   20SOL    HW2  960   5.165   2.916   4.284
   21SOL     OW  961   3.144   2.073   2.368
   21SOL    HW1  962   3.055   2.116   2.351
   21SOL    HW2  963   3.208   2.097   2.295
   22SOL     OW  964   2.141   6.692   6.912
   22SOL    HW1  965   2.208   6.721   6.844
   22SOL    HW2  966   2.129   6.764   6.980
   23SOL     OW  967   4.844   6.425   2.868
   23SOL    HW1  968   4.764   6.372   2.895
   23SOL    HW2  969   4.816   6.517   2.842
   24SOL     OW  970   4.941   1.133   3.552
   24SOL    HW1  971   4.998   1.211   3.527
   24SOL    HW2  972   4.844   1.156   3.541
   25SOL     OW  973   3.201   0.245   5.175
   25SOL    HW1  974   3.289   0.282   5.147
   25SOL    HW2  975   3.129   0.284   5.118
   26SOL     OW  976   6.866   0.895   0.483
   26SOL    HW1  977   6.957   0.861   0.504
   26SOL    HW2  978   6.798   0.825   0.506
   27SOL     OW  979   0.999   1.322   1.896
   27SOL    HW1  980   0.957   1.370   1.973
   27SOL    HW2  981   0.968   1.227   1.894
   28SOL     OW  982   3.637   1.500   6.473
   28SOL    HW1  983   3.698   1.511   6.551
   28SOL    HW2  984   3.596   1.588   6.450
   29SOL     OW  985   4.865   2.663   2.025
   29SOL    HW1  986   4.846   2.570   2.059
   29SOL    HW2  987   4.838   2.729   2.095
   30SOL     OW  988   3.686   1.423   4.252
   30SOL    HW1  989   3.639   1.511   4.260
   30SOL    HW2  990   3.768   1.435   4.196
   31SOL     OW  991   0.773   2.650   5.962
   31SOL    HW1  992   0.694   2.599   5.996
   31SOL    HW2  993   0.774   2.646   5.862
   32SOL     OW  994   0.409   1.530   3.184
   32SOL    HW1  995   0.410   1.443   3.134
   32SOL    HW2  996   0.498   1.575   3.174
   33SOL     OW  997   2.272   3.874   6.694
   33SOL    HW1  998   2.300   3.793   6.746
   33SOL    HW2  999   2.285   3.956   6.751
   34SOL     OW 1000   2.560   1.644   3.895
   34SOL    HW1 1001   2.570   1.742   3.912
   34SOL    HW2 1002   2.531   1.598   3.979
   35SOL     OW 1003   3.418   3.142   6.705
   35SOL    HW1 1004   3.501   3.194   6.684
   35SOL    HW2 1005   3.362   3.135   6.622
   36SOL     OW 1006   6.022   0.922   5.707
   36SOL    HW1 1007   6.006   0.962   5.797
   36SOL    HW2 1008   6.111   0.878   5.705
   37SOL     OW 1009   0.975   0.597   0.402
   37SOL    HW1 1010   0.992   0.595   0.500
   37SOL    HW2 1011   1.015   0.516   0.359
   38SOL     OW 1012   0.406   4.821   2.742
   38SOL    HW1 1013   0.349   4.841   2.662
   38SOL    HW2 1014   0.368   4.868   2.822
   39SOL     OW 1015   0.047   5.301   6.803
   39SOL    HW1 1016   7.013   5.377   6.822
   39SOL    HW2 1017   7.027   5.230   6.753
   40SOL     OW 1018   5.301   2.189   1.777
   40SOL    HW1 1019   5.232   2.227   1.838
   40SOL    HW2 1020   5.260   2.172   1.687
   41SOL     OW 1021   6.798   6.240   4.193
   41SOL    HW1 1022   6.861   6.242   4.270
   41SOL    HW2 1023   6.835   6.297   4.119
   42SOL     OW 1024   2.531   5.200   5.298
   42SOL    HW1 1025   2.611   5.215   5.356
   42SOL    HW2 1026   2.560   5.162   5.210
   43SOL     OW 1027   5.463   6.609   5.324
   43SOL    HW1 1028   5.448   6.540   5.394
   43SOL    HW2 1029   5.378   6.659   5.307
   44SOL     OW 1030   5.460   1.753   6.651
   44SOL    HW1 1031   5.461   1.731   6.554
   44SOL    HW2 1032   5.467   1.669   6.704
   45SOL     OW 1033   3.423   6.874   3.283
   45SOL    HW1 1034   3.394   6.937   3.355
   45SOL    HW2 1035   3.512   6.836   3.307
   46SOL     OW 1036   0.825   3.633   3.070
   46SOL    HW1 1037   0.794   3.547   3.112
   46SOL    HW2 1038   0.899   3.613   3.006
   47SOL     OW 1039   5.046   4.937   1.383
   47SOL    HW1 1040   4.973   4.941   1.315
   47SOL    HW2 1041   5.126   4.892   1.343
   48SOL     OW 1042   6.614   2.705   5.967
   48SOL    HW1 1043   6.604   2.642   6.043
   48SOL    HW2 1044   6.711   2.723   5.950
   49SOL     OW 1045   5.000   3.929   1.730
   49SOL    HW1 1046   5.027   3.849   1.676
   49SOL    HW2 1047   4.909   3.914   1.768
   50SOL     OW 1048   6.246   2.094   5.403
   50SOL    HW1 1049   6.194   2.126   5.323
   50SOL    HW2 1050   6.183   2.053   5.469
   51SOL     OW 1051   3.102   6.574   2.689
   51SOL    HW1 1052   3.163   6.533   2.757
   51SOL    HW2 1053   3.153   6.641   2.635
   52SOL     OW 1054   5.030   2.122   3.342
   52SOL    HW1 1055   5.075   2.035   3.324
   52SOL    HW2 1056   4.967   2.143   3.266
   53SOL     OW 1057   3.725   6.823   4.690
   53SOL    HW1 1058   3.797   6.892   4.685
   53SOL    HW2 1059   3.663   6.845   4.766
   54SOL     OW 1060   3.832   4.808   1.070
   54SOL    HW1 1061   3.819   4.845   0.979
   54SOL    HW2 1062   3.743   4.789   1.112
   55SOL     OW 1063   3.118   1.531   6.501
   55SOL    HW1 1064   3.158   1.458   6.557
   55SOL    HW2 1065   3.169   1.541   6.416
   56SOL     OW 1066   0.432   0.706   1.372
   56SOL    HW1 1067   0.334   0.691   1.357
   56SOL    HW2 1068   0.446   0.799   1.406
   57SOL     OW 1069   5.476   0.449   0.912
   57SOL    HW1 1070   5.559   0.431   0.965
   57SOL    HW2 1071   5.483   0.539   0.869
   58SOL     OW 1072   6.493   6.682   5.971
   58SOL    HW1 1073   6.531   6.774   5.960
   58SOL    HW2 1074   6.543   6.618   5.912
   59SOL     OW 1075   0.901   1.667   5.895
   59SOL    HW1 1076   0.941   1.582   5.863
   59SOL    HW2 1077   0.956   1.744   5.862
   60SOL     OW 1078   5.268   1.303   5.986
   60SOL    HW1 1079   5.200   1.230   5.982
   60SOL    HW2 1080   5.222   1.390   6.005
   61SOL     OW 1081   5.032   2.206   4.832
   61SOL    HW1 1082   4.947   2.168   4.867
   61SOL    HW2 1083   5.072   2.268   4.900
   62SOL     OW 1084   0.169   1.013   2.758
   62SOL    HW1 1085   0.080   1.052   2.783
   62SOL    HW2 1086   0.224   1.083   2.712
   63SOL     OW 1087   5.561   1.295   3.950
   63SOL    HW1 1088   5.463   1.286   3.938
   63SOL    HW2 1089   5.609   1.256   3.872
   64SOL     OW 1090   0.349   3.786   5.937
   64SOL    HW1 1091   0.283   3.852   5.903
   64SOL    HW2 1092   0.307   3.695   5.940
   65SOL     OW 1093   7.025   4.830   5.826
   65SOL    HW1 1094   0.086   4.872   5.845
   65SOL    HW2 1095   7.007   4.758   5.893
   66SOL     OW 1096   3.810   0.763   5.800
   66SOL    HW1 1097   3.715   0.733   5.806
   66SOL    HW2 1098   3.849   0.773   5.891
   67SOL     OW 1099   5.364   4.286   5.814
   67SOL    HW1 1100   5.368   4.247   5.722
   67SOL    HW2 1101   5.283   4.252   5.862
   68SOL     OW 1102   5.549   0.608   6.690
   68SOL    HW1 1103   5.520   0.694   6.732
   68SOL    HW2 1104   5.558   0.621   6.591
   69SOL     OW 1105   0.842   3.880   5.832
   69SOL    HW1 1106   0.849   3.783   5.857
   69SOL    HW2 1107   0.921   3.929   5.868
   70SOL     OW 1108   5.743   4.728   4.659
   70SOL    HW1 1109   5.811   4.706   4.589
   70SOL    HW2 1110   5.765   4.676   4.742
   71SOL     OW 1111   4.119   1.743   3.229
   71SOL    HW1 1112   4.175   1.813   3.272
   71SOL    HW2 1113   4.129   1.657   3.278
   72SOL     OW 1114   2.375   6.499   4.445
   72SOL    HW1 1115   2.372   6.401   4.429
   72SOL    HW2 1116   2.465   6.535   4.422
   73SOL     OW 1117   3.149   1.171   1.067
   73SOL    HW1 1118   3.201   1.248   1.105
   73SOL    HW2 1119   3.207   1.121   1.003
   74SOL     OW 1120   5.347   6.592   6.746
   74SOL    HW1 1121   5.269   6.534   6.770
   74SOL    HW2 1122   5.428   6.534   6.731
   75SOL     OW 1123   3.748   0.089   0.104
   75SOL    HW1 1124   3.689   0.093   0.022
   75SOL    HW2 1125   3.843   0.081   0.076
   76SOL     OW 1126   2.706   2.734   1.036
   76SOL    HW1 1127   2.712   2.635   1.028
   76SOL    HW2 1128   2.615   2.765   1.009
   77SOL     OW 1129   6.466   6.545   3.149
   77SOL    HW1 1130   6.450   6.450   3.174
   77SOL    HW2 1131   6.415   6.567   3.066
   78SOL     OW 1132   6.150   0.801   6.928
   78SOL    HW1 1133   6.139   0.728   6.861
   78SOL    HW2 1134   6.114   0.771   7.016
   79SOL     OW 1135   3.055   6.050   0.299
   79SOL    HW1 1136   3.081   5.967   0.250
   79SOL    HW2 1137   3.082   6.041   0.395
   80SOL     OW 1138   5.281   1.981   3.686
   80SOL    HW1 1139   5.324   2.048   3.747
   80SOL    HW2 1140   5.186   2.007   3.669
   81SOL     OW 1141   2.192   6.969   3.086
   81SOL    HW1 1142   2.125   0.014   3.085
   81SOL    HW2 1143   2.269   6.994   3.028
   82SOL     OW 1144   6.819   5.161   1.160
   82SOL    HW1 1145   6.817   5.201   1.069
   82SOL    HW2 1146   6.897   5.097   1.167
   83SOL     OW 1147   0.064   0.768   0.580
   83SOL    HW1 1148   0.096   0.798   0.670
   83SOL    HW2 1149   0.084   0.670   0.568
   84SOL     OW 1150   5.629   2.636   3.509
   84SOL    HW1 1151   5.651   2.711   3.572
   84SOL    HW2 1152   5.545   2.659   3.459
   85SOL     OW 1153   1.899   1.968   4.341
   85SOL    HW1 1154   1.979   1.997   4.289
   85SOL    HW2 1155   1.817   1.980   4.285
   86SOL     OW 1156   6.883   0.638   4.972
   86SOL    HW1 1157   6.912   0.582   4.894
   86SOL    HW2 1158   6.959   0.695   5.002
   87SOL     OW 1159   5.284   3.572   0.547
   87SOL    HW1 1160   5.252   3.523   0.628
   87SOL    HW2 1161   5.307   3.506   0.476
   88SOL     OW 1162   3.590   1.712   6.235
   88SOL    HW1 1163   3.552   1.760   6.156
   88SOL    HW2 1164   3.636   1.629   6.204
   89SOL     OW 1165   1.344   2.525   5.611
   89SOL    HW1 1166   1.244   2.530   5.615
   89SOL    HW2 1167   1.381   2.616   5.591
   90SOL     OW 1168   3.869   5.915   2.328
   90SOL    HW1 1169   3.891   5.841   2.265
   90SOL    HW2 1170   3.775   5.904   2.361
   91SOL     OW 1171   4.605   4.368   4.974
   91SOL    HW1 1172   4.586   4.349   5.071
   91SOL    HW2 1173   4.525   4.410   4.933
   92SOL     OW 1174   3.665   4.693   0.553
   92SOL    HW1 1175   3.577   4.716   0.509
   92SOL    HW2 1176   3.735   4.757   0.522
   93SOL     OW 1177   2.635   4.198   6.492
   93SOL    HW1 1178   2.594   4.120   6.444
   93SOL    HW2 1179   2.684   4.255   6.426
   94SOL     OW 1180   2.285   6.005   5.993
   94SOL    HW1 1181   2.371   5.954   5.978
   94SOL    HW2 1182   2.306   6.101   6.011
   95SOL     OW 1183   1.108   0.649   3.098
   95SOL    HW1 1184   1.173   0.684   3.030
   95SOL    HW2 1185   1.071   0.562   3.067
   96SOL     OW 1186   3.119   0.239   5.417
   96SOL    HW1 1187   3.054   0.168   5.445
   96SOL    HW2 1188   3.130   0.237   5.318
   97SOL     OW 1189   2.109   3.134   5.949
   97SOL    HW1 1190   2.097   3.047   5.901
   97SOL    HW2 1191   2.207   3.157   5.950
   98SOL     OW 1192   6.779   3.484   0.806
   98SOL    HW1 1193   6.831   3.407   0.769
   98SOL    HW2 1194   6.682   3.459   0.813
   99SOL     OW 1195   3.986   3.635   0.911
   99SOL    HW1 1196   3.933   3.569   0.964
   99SOL    HW2 1197   3.929   3.713   0.888
  100SOL     OW 1198   6.838   0.075   5.183
  100SOL    HW1 1199   6.906   0.149   5.179
  100SOL    HW2 1200   6.884   7.017   5.200
  101SOL     OW 1201   1.968   5.279   2.295
  101SOL    HW1 1202   1.979   5.273   2.394
  101SOL    HW2 1203   1.967   5.376   2.268
  102SOL     OW 1204   3.885   6.614   2.634
  102SOL    HW1 1205   3.964   6.554   2.651
  102SOL    HW2 1206   3.915   6.694   2.582
  103SOL     OW 1207   2.514   1.032   2.116
  103SOL    HW1 1208   2.600   1.077   2.142
  103SOL    HW2 1209   2.501   1.043   2.017
  104SOL     OW 1210   0.618   5.510   3.002
  104SOL    HW1 1211   0.519   5.525   3.004
  104SOL    HW2 1212   0.650   5.485   3.093
  105SOL     OW 1213   6.708   2.680   6.845
  105SOL    HW1 1214   6.635   2.623   6.807
  105SOL    HW2 1215   6.682   2.714   6.935
  106SOL     OW 1216   3.451   6.179   5.008
  106SOL    HW1 1217   3.375   6.118   5.030
  106SOL    HW2 1218   3.537   6.134   5.032
  107SOL     OW 1219   2.177   1.283   1.208
  107SOL    HW1 1220   2.098   1.283   1.146
  107SOL    HW2 1221   2.154   1.336   1.290
  108SOL     OW 1222   3.671   4.962   5.918
  108SOL    HW1 1223   3.709   4.892   5.859
  108SOL    HW2 1224   3.685   5.052   5.876
  109SOL     OW 1225   6.845   0.395   1.749
  109SOL    HW1 1226   6.878   0.309   1.711
  109SOL    HW2 1227   6.918   0.438   1.802
  110SOL     OW 1228   3.370   5.697   5.122
  110SOL    HW1 1229   3.290   5.659   5.075
  110SOL    HW2 1230   3.363   5.678   5.220
  111SOL     OW 1231   2.413   1.276   4.272
  111SOL    HW1 1232   2.419   1.337   4.352
  111SOL    HW2 1233   2.501   1.275   4.224
  112SOL     OW 1234   4.825   6.723   6.323
  112SOL    HW1 1235   4.844   6.664   6.245
  112SOL    HW2 1236   4.824   6.819   6.292
  113SOL     OW 1237   6.138   6.455   3.070
  113SOL    HW1 1238   6.229   6.434   3.034
  113SOL    HW2 1239   6.093   6.369   3.098
  114SOL     OW 1240   0.382   0.067   1.213
  114SOL    HW1 1241   0.440   0.063   1.132
  114SOL    HW2 1242   0.388   7.010   1.264
  115SOL     OW 1243   4.192   1.491   3.309
  115SOL    HW1 1244   4.195   1.402   3.355
  115SOL    HW2 1245   4.254   1.490   3.230
  116SOL     OW 1246   5.735   4.703   1.421
  116SOL    HW1 1247   5.671   4.738   1.489
  116SOL    HW2 1248   5.684   4.670   1.341
  117SOL     OW 1249   1.323   1.736   0.640
  117SOL    HW1 1250   1.382   1.679   0.697
  117SOL    HW2 1251   1.243   1.765   0.692
  118SOL     OW 1252   1.729   0.880   3.619
  118SOL    HW1 1253   1.769   0.961   3.576
  118SOL    HW2 1254   1.719   0.895   3.717
  119SOL     OW 1255   0.367   1.208   0.220
  119SOL    HW1 1256   0.338   1.296   0.184
  119SOL    HW2 1257   0.405   1.153   0.146
  120SOL     OW 1258   6.333   6.735   6.920
  120SOL    HW1 1259   6.415   6.750   6.865
  120SOL    HW2 1260   6.275   6.817   6.915
  121SOL     OW 1261   1.897   3.675   6.222
  121SOL    HW1 1262   1.908   3.607   6.150
  121SOL    HW2 1263   1.799   3.691   6.237
  122SOL     OW 1264   2.285   3.854   6.444
  122SOL    HW1 1265   2.276   3.872   6.542
  122SOL    HW2 1266   2.201   3.883   6.398
  123SOL     OW 1267   0.535   1.110   2.052
  123SOL    HW1 1268   0.521   1.102   1.954
  123SOL    HW2 1269   0.550   1.019   2.091
  124SOL     OW 1270   4.382   3.100   0.966
  124SOL    HW1 1271   4.426   3.011   0.982
  124SOL    HW2 1272   4.392   3.157   1.048
  125SOL     OW 1273   3.316   1.863   1.461
  125SOL    HW1 1274   3.357   1.954   1.456
  125SOL    HW2 1275   3.377   1.801   1.511
  126SOL     OW 1276   2.667   3.927   0.936
  126SOL    HW1 1277   2.681   3.908   0.839
  126SOL    HW2 1278   2.747   3.896   0.988
  127SOL     OW 1279   0.582   5.363   0.023
  127SOL    HW1 1280   0.486   5.377   7.026
  127SOL    HW2 1281   0.599   5.266   0.035
  128SOL     OW 1282   5.172   3.034   1.365
  128SOL    HW1 1283   5.132   2.947   1.337
  128SOL    HW2 1284   5.192   3.089   1.285
  129SOL     OW 1285   2.397   3.106   6.218
  129SOL    HW1 1286   2.460   3.168   6.171
  129SOL    HW2 1287   2.355   3.044   6.152
  130SOL     OW 1288   0.876   2.069   4.097
  130SOL    HW1 1289   0.830   2.158   4.089
  130SOL    HW2 1290   0.884   2.028   4.006
  131SOL     OW 1291   5.311   1.700   3.667
  131SOL    HW1 1292   5.338   1.668   3.758
  131SOL    HW2 1293   5.300   1.800   3.668
  132SOL     OW 1294   2.315   1.931   1.046
  132SOL    HW1 1295   2.242   1.951   0.980
  132SOL    HW2 1296   2.397   1.983   1.022
  133SOL     OW 1297   4.807   6.650   3.781
  133SOL    HW1 1298   4.789   6.728   3.840
  133SOL    HW2 1299   4.766   6.568   3.821
  134SOL     OW 1300   6.875   1.400   2.483
  134SOL    HW1 1301   6.875   1.486   2.533
  134SOL    HW2 1302   6.834   1.329   2.540
  135SOL     OW 1303   5.687   4.042   3.813
  135SOL    HW1 1304   5.594   4.071   3.792
  135SOL    HW2 1305   5.752   4.102   3.764
  136SOL     OW 1306   3.350   3.972   5.857
  136SOL    HW1 1307   3.424   4.019   5.906
  136SOL    HW2 1308   3.292   3.924   5.922
  137SOL     OW 1309   5.487   2.042   4.700
  137SOL    HW1 1310   5.462   2.139   4.701
  137SOL    HW2 1311   5.431   1.993   4.768
  138SOL     OW 1312   1.011   4.163   2.460
  138SOL    HW1 1313   1.011   4.226   2.382
  138SOL    HW2 1314   0.938   4.095   2.449
  139SOL     OW 1315   2.058   0.174   4.561
  139SOL    HW1 1316   1.959   0.164   4.560
  139SOL    HW2 1317   2.099   0.108   4.497
  140SOL     OW 1318   0.678   5.774   2.914
  140SOL    HW1 1319   0.631   5.687   2.926
  140SOL    HW2 1320   0.745   5.765   2.840
  141SOL     OW 1321   6.277   3.178   5.240
  141SOL    HW1 1322   6.253   3.095   5.291
  141SOL    HW2 1323   6.323   3.243   5.301
  142SOL     OW 1324   1.105   4.090   0.776
  142SOL    HW1 1325   1.144   4.140   0.854
  142SOL    HW2 1326   1.068   4.003   0.808
  143SOL     OW 1327   6.065   4.258   1.420
  143SOL    HW1 1328   5.971   4.233   1.397
  143SOL    HW2 1329   6.086   4.226   1.512
  144SOL     OW 1330   1.154   6.701   5.788
  144SOL    HW1 1331   1.223   6.656   5.730
  144SOL    HW2 1332   1.104   6.632   5.840
  145SOL     OW 1333   6.901   5.453   0.170
  145SOL    HW1 1334   6.904   5.365   0.123
  145SOL    HW2 1335   6.808   5.489   0.168
  146SOL     OW 1336   4.681   0.261   6.929
  146SOL    HW1 1337   4.779   0.279   6.937
  146SOL    HW2 1338   4.646   0.228   7.016
  147SOL     OW 1339   6.421   3.591   6.230
  147SOL    HW1 1340   6.389   3.632   6.316
  147SOL    HW2 1341   6.469   3.660   6.176
  148SOL     OW 1342   6.809   5.452   6.445
  148SOL    HW1 1343   6.752   5.417   6.519
  148SOL    HW2 1344   6.839   5.545   6.467
  149SOL     OW 1345   3.079   1.575   4.185
  149SOL    HW1 1346   3.005   1.641   4.192
  149SOL    HW2 1347   3.054   1.503   4.120
  150SOL     OW 1348   5.848   5.655   6.800
  150SOL    HW1 1349   5.784   5.731   6.810
  150SOL    HW2 1350   5.892   5.660   6.710
  151SOL     OW 1351   2.975   2.140   0.511
  151SOL    HW1 1352   2.925   2.156   0.596
  151SOL    HW2 1353   3.004   2.044   0.507
  152SOL     OW 1354   1.299   0.969   2.332
  152SOL    HW1 1355   1.242   0.990   2.412
  152SOL    HW2 1356   1.395   0.966   2.360
  153SOL     OW 1357   2.864   0.690   1.713
  153SOL    HW1 1358   2.786   0.745   1.742
  153SOL    HW2 1359   2.948   0.741   1.727
  154SOL     OW 1360   0.573   2.031   2.477
  154SOL    HW1 1361   0.651   2.076   2.520
  154SOL    HW2 1362   0.538   2.087   2.402
  155SOL     OW 1363   6.899   1.712   3.391
  155SOL    HW1 1364   6.881   1.808   3.370
  155SOL    HW2 1365   6.812   1.663   3.400
  156SOL     OW 1366   0.222   2.131   0.908
  156SOL    HW1 1367   0.172   2.146   0.823
  156SOL    HW2 1368   0.315   2.103   0.888
  157SOL     OW 1369   5.853   2.984   1.507
  157SOL    HW1 1370   5.913   2.956   1.582
  157SOL    HW2 1371   5.760   2.992   1.541
  158SOL     OW 1372   2.188   5.405   2.500
  158SOL    HW1 1373   2.259   5.413   2.431
  158SOL    HW2 1374   2.149   5.313   2.498
  159SOL     OW 1375   4.405   4.826   2.157
  159SOL    HW1 1376   4.319   4.876   2.151
  159SOL    HW2 1377   4.386   4.728   2.167
  160SOL     OW 1378   5.570   5.430   0.215
  160SOL    HW1 1379   5.576   5.352   0.152
  160SOL    HW2 1380   5.509   5.499   0.177
  161SOL     OW 1381   1.853   5.722   3.821
  161SOL    HW1 1382   1.881   5.800   3.765
  161SOL    HW2 1383   1.847   5.640   3.764
  162SOL     OW 1384   3.532   5.485   0.225
  162SOL    HW1 1385   3.479   5.460   0.144
  162SOL    HW2 1386   3.469   5.504   0.301
  163SOL     OW 1387   5.721   5.573   1.033
  163SOL    HW1 1388   5.708   5.539   1.126
  163SOL    HW2 1389   5.770   5.506   0.978
  164SOL     OW 1390   6.656   4.697   0.351
  164SOL    HW1 1391   6.576   4.642   0.329
  164SOL    HW2 1392   6.718   4.700   0.273
  165SOL     OW 1393   5.068   3.142   1.583
  165SOL    HW1 1394   5.109   3.104   1.500
  165SOL    HW2 1395   5.027   3.068   1.637
  166SOL     OW 1396   6.840   4.266   2.778
  166SOL    HW1 1397   6.746   4.298   2.770
  166SOL    HW2 1398   6.902   4.335   2.740
  167SOL     OW 1399   5.088   2.932   0.886
  167SOL    HW1 1400   5.132   3.014   0.924
  167SOL    HW2 1401   5.004   2.958   0.840
  168SOL     OW 1402   2.188   3.108   1.297
  168SOL    HW1 1403   2.211   3.105   1.394
  168SOL    HW2 1404   2.164   3.201   1.271
  169SOL     OW 1405   4.577   1.144   1.521
  169SOL    HW1 1406   4.632   1.100   1.450
  169SOL    HW2 1407   4.551   1.236   1.491
  170SOL     OW 1408   1.828   1.054   3.362
  170SOL    HW1 1409   1.853   1.131   3.304
  170SOL    HW2 1410   1.736   1.023   3.339
  171SOL     OW 1411   4.175   4.155   6.730
  171SOL    HW1 1412   4.265   4.155   6.774
  171SOL    HW2 1413   4.108   4.196   6.792
  172SOL     OW 1414   6.276   2.200   3.221
  172SOL    HW1 1415   6.213   2.273   3.245
  172SOL    HW2 1416   6.271   2.127   3.289
  173SOL     OW 1417   6.810   1.965   4.494
  173SOL    HW1 1418   6.790   2.009   4.407
  173SOL    HW2 1419   6.825   1.867   4.479
  174SOL     OW 1420   3.669   5.261   3.522
  174SOL    HW1 1421   3.769   5.255   3.529
  174SOL    HW2 1422   3.631   5.168   3.521
  175SOL     OW 1423   2.442   0.296   1.685
  175SOL    HW1 1424   2.411   0.250   1.602
  175SOL    HW2 1425   2.368   0.298   1.752
  176SOL     OW 1426   0.825   4.473   0.533
  176SOL    HW1 1427   0.788   4.566   0.535
  176SOL    HW2 1428   0.925   4.478   0.526
  177SOL     OW 1429   5.933   3.001   2.909
  177SOL    HW1 1430   5.997   2.939   2.862
  177SOL    HW2 1431   5.842   2.990   2.871
  178SOL     OW 1432   2.392   2.741   6.888
  178SOL    HW1 1433   2.460   2.703   6.951
  178SOL    HW2 1434   2.329   2.669   6.860
  179SOL     OW 1435   3.550   0.887   5.405
  179SOL    HW1 1436   3.517   0.800   5.368
  179SOL    HW2 1437   3.496   0.962   5.366
  180SOL     OW 1438   1.934   6.762   0.381
  180SOL    HW1 1439   1.843   6.801   0.367
  180SOL    HW2 1440   2.000   6.809   0.322
  181SOL     OW 1441   3.539   2.905   6.409
  181SOL    HW1 1442   3.570   2.995   6.377
  181SOL    HW2 1443   3.486   2.860   6.337
  182SOL     OW 1444   4.007   1.637   5.098
  182SOL    HW1 1445   3.984   1.583   5.180
  182SOL    HW2 1446   3.937   1.622   5.028
  183SOL     OW 1447   3.649   2.095   3.193
  183SOL    HW1 1448   3.631   2.110   3.290
  183SOL    HW2 1449   3.740   2.128   3.170
  184SOL     OW 1450   1.497   6.221   4.495
  184SOL    HW1 1451   1.473   6.278   4.417
  184SOL    HW2 1452   1.542   6.276   4.565
  185SOL     OW 1453   0.290   1.513   6.120
  185SOL    HW1 1454   0.243   1.510   6.031
  185SOL    HW2 1455   0.238   1.461   6.187
  186SOL     OW 1456   5.716   0.722   4.863
  186SOL    HW1 1457   5.652   0.660   4.819
  186SOL    HW2 1458   5.723   0.807   4.810
  187SOL     OW 1459   4.208   6.909   3.159
  187SOL    HW1 1460   4.163   6.820   3.147
  187SOL    HW2 1461   4.223   6.926   3.256
  188SOL     OW 1462   0.630   1.806   3.097
  188SOL    HW1 1463   0.711   1.810   3.155
  188SOL    HW2 1464   0.550   1.833   3.150
  189SOL     OW 1465   2.088   5.403   1.563
  189SOL    HW1 1466   2.038   5.320   1.539
  189SOL    HW2 1467   2.067   5.429   1.657
  190SOL     OW 1468   5.181   1.995   4.756
  190SOL    HW1 1469   5.128   1.932   4.813
  190SOL    HW2 1470   5.130   2.079   4.743
  191SOL     OW 1471   6.150   6.207   0.260
  191SOL    HW1 1472   6.227   6.171   0.207
  191SOL    HW2 1473   6.082   6.135   0.273
  192SOL     OW 1474   0.974   5.981   2.163
  192SOL    HW1 1475   1.009   5.953   2.074
  192SOL    HW2 1476   1.030   6.057   2.198
  193SOL     OW 1477   4.944   2.618   5.261
  193SOL    HW1 1478   5.039   2.632   5.290
  193SOL    HW2 1479   4.942   2.576   5.170
  194SOL     OW 1480   3.834   0.327   2.887
  194SOL    HW1 1481   3.761   0.394   2.890
  194SOL    HW2 1482   3.798   0.240   2.853
  195SOL     OW 1483   2.133   0.245   5.247
  195SOL    HW1 1484   2.199   0.250   5.172
  195SOL    HW2 1485   2.040   0.253   5.209
  196SOL     OW 1486   2.770   0.087   0.598
  196SOL    HW1 1487   2.858   0.104   0.555
  196SOL    HW2 1488   2.707   0.161   0.576
  197SOL     OW 1489   2.615   6.873   1.550
  197SOL    HW1 1490   2.686   6.890   1.482
  197SOL    HW2 1491   2.534   6.835   1.506
  198SOL     OW 1492   4.657   0.616   2.627
  198SOL    HW1 1493   4.754   0.591   2.632
  198SOL    HW2 1494   4.642   0.701   2.679
  199SOL     OW 1495   6.873   1.828   4.086
  199SOL    HW1 1496   6.809   1.806   4.160
  199SOL    HW2 1497   6.955   1.771   4.095
  200SOL     OW 1498   1.067   3.840   0.918
  200SOL    HW1 1499   1.096   3.855   1.013
  200SOL    HW2 1500   1.002   3.764   0.915
  201SOL     OW 1501   0.259   0.215   6.300
  201SOL    HW1 1502   0.326   0.218   6.375
  201SOL    HW2 1503   0.303   0.244   6.215
  202SOL     OW 1504   3.822   0.941   6.959
  202SOL    HW1 1505   3.814   0.842   6.965
  202SOL    HW2 1506   3.738   0.983   6.994
  203SOL     OW 1507   5.626   2.266   5.337
  203SOL    HW1 1508   5.678   2.348   5.313
  203SOL    HW2 1509   5.550   2.291   5.397
  204SOL     OW 1510   1.180   0.595   5.123
  204SOL    HW1 1511   1.088   0.566   5.094
  204SOL    HW2 1512   1.181   0.608   5.222
  205SOL     OW 1513   0.002   2.402   3.228
  205SOL    HW1 1514   6.958   2.343   3.262
  205SOL    HW2 1515   6.999   2.451   3.147
  206SOL     OW 1516   0.643   4.442   0.765
  206SOL    HW1 1517   0.570   4.505   0.790
  206SOL    HW2 1518   0.674   4.461   0.672
  207SOL     OW 1519   6.520   1.742   3.483
  207SOL    HW1 1520   6.587   1.754   3.556
  207SOL    HW2 1521   6.516   1.826   3.428
  208SOL     OW 1522   6.727   4.402   5.776
  208SOL    HW1 1523   6.823   4.375   5.781
  208SOL    HW2 1524   6.674   4.331   5.730
  209SOL     OW 1525   0.635   5.802   4.492
  209SOL    HW1 1526   0.727   5.816   4.529
  209SOL    HW2 1527   0.604   5.709   4.514
  210SOL     OW 1528   4.200   1.746   0.767
  210SOL    HW1 1529   4.287   1.708   0.799
  210SOL    HW2 1530   4.209   1.777   0.673
  211SOL     OW 1531   1.962   6.549   2.594
  211SOL    HW1 1532   1.882   6.492   2.576
  211SOL    HW2 1533   1.932   6.635   2.636
  212SOL     OW 1534   0.895   4.180   2.059
  212SOL    HW1 1535   0.894   4.267   2.010
  212SOL    HW2 1536   0.809   4.131   2.043
  213SOL     OW 1537   2.963   0.108   0.403
  213SOL    HW1 1538   2.934   0.194   0.362
  213SOL    HW2 1539   3.061   0.112   0.421
  214SOL     OW 1540   4.248   5.240   2.422
  214SOL    HW1 1541   4.211   5.165   2.477
  214SOL    HW2 1542   4.191   5.321   2.434
  215SOL     OW 1543   2.682   4.035   0.617
  215SOL    HW1 1544   2.707   4.131   0.602
  215SOL    HW2 1545   2.710   3.981   0.538
  216SOL     OW 1546   1.442   6.084   3.786
  216SOL    HW1 1547   1.469   6.120   3.875
  216SOL    HW2 1548   1.514   6.104   3.719
  217SOL     OW 1549   1.360   3.061   3.831
  217SOL    HW1 1550   1.427   2.988   3.843
  217SOL    HW2 1551   1.279   3.024   3.785
  218SOL     OW 1552   0.540   3.155   4.457
  218SOL    HW1 1553   0.625   3.204   4.472
  218SOL    HW2 1554   0.559   3.057   4.444
  219SOL     OW 1555   4.284   0.622   0.471
  219SOL    HW1 1556   4.277   0.524   0.488
  219SOL    HW2 1557   4.235   0.645   0.387
  220SOL     OW 1558   3.263   6.547   1.643
  220SOL    HW1 1559   3.228   6.537   1.550
  220SOL    HW2 1560   3.361   6.525   1.644
  221SOL     OW 1561   6.290   4.203   0.831
  221SOL    HW1 1562   6.368   4.185   0.771
  221SOL    HW2 1563   6.303   4.154   0.918
  222SOL     OW 1564   2.141   4.487   5.486
  222SOL    HW1 1565   2.197   4.453   5.411
  222SOL    HW2 1566   2.045   4.488   5.458
  223SOL     OW 1567   6.528   3.324   6.246
  223SOL    HW1 1568   6.480   3.411   6.254
  223SOL    HW2 1569   6.471   3.251   6.285
  224SOL     OW 1570   2.771   1.855   5.382
  224SOL    HW1 1571   2.703   1.834   5.453
  224SOL    HW2 1572   2.734   1.829   5.293
  225SOL     OW 1573   4.789   3.984   6.617
  225SOL    HW1 1574   4.763   4.006   6.523
  225SOL    HW2 1575   4.708   3.951   6.666
  226SOL     OW 1576   0.779   1.189   5.783
  226SOL    HW1 1577   0.733   1.204   5.695
  226SOL    HW2 1578   0.849   1.259   5.795
  227SOL     OW 1579   1.149   4.183   1.779
  227SOL    HW1 1580   1.050   4.168   1.772
  227SOL    HW2 1581   1.176   4.186   1.875
  228SOL     OW 1582   2.952   0.198   3.896
  228SOL    HW1 1583   2.860   0.226   3.920
  228SOL    HW2 1584   2.987   0.256   3.823
  229SOL     OW 1585   6.316   6.205   6.497
  229SOL    HW1 1586   6.394   6.242   6.445
  229SOL    HW2 1587   6.242   6.272   6.497
  230SOL     OW 1588   3.384   4.903   3.604
  230SOL    HW1 1589   3.328   4.908   3.686
  230SOL    HW2 1590   3.347   4.965   3.535
  231SOL     OW 1591   5.955   1.836   6.999
  231SOL    HW1 1592   5.981   1.743   7.026
  231SOL    HW2 1593   6.023   1.873   6.936
  232SOL     OW 1594   0.281   3.272   6.866
  232SOL    HW1 1595   0.374   3.261   6.831
  232SOL    HW2 1596   0.279   3.347   6.933
  233SOL     OW 1597   3.350   1.376   2.985
  233SOL    HW1 1598   3.366   1.464   2.940
  233SOL    HW2 1599   3.407   1.370   3.067
  234SOL     OW 1600   5.582   0.659   6.417
  234SOL    HW1 1601   5.633   0.668   6.332
  234SOL    HW2 1602   5.489   0.628   6.397
  235SOL     OW 1603   4.592   2.401   1.863
  235SOL    HW1 1604   4.636   2.472   1.808
  235SOL    HW2 1605   4.493   2.404   1.850
  236SOL     OW 1606   5.550   2.633   6.673
  236SOL    HW1 1607   5.452   2.647   6.689
  236SOL    HW2 1608   5.578   2.545   6.711
  237SOL     OW 1609   6.652   4.764   1.722
  237SOL    HW1 1610   6.722   4.698   1.693
  237SOL    HW2 1611   6.683   4.857   1.702
  238SOL     OW 1612   5.495   1.203   0.605
  238SOL    HW1 1613   5.487   1.303   0.596
  238SOL    HW2 1614   5.519   1.180   0.700
  239SOL     OW 1615   0.736   5.199   6.570
  239SOL    HW1 1616   0.733   5.210   6.669
  239SOL    HW2 1617   0.722   5.102   6.547
  240SOL     OW 1618   6.829   3.146   3.202
  240SOL    HW1 1619   6.731   3.147   3.218
  240SOL    HW2 1620   6.877   3.127   3.288
  241SOL     OW 1621   2.879   2.151   5.004
  241SOL    HW1 1622   2.974   2.179   4.995
  241SOL    HW2 1623   2.866   2.061   4.962
  242SOL     OW 1624   4.074   3.793   4.113
  242SOL    HW1 1625   4.087   3.773   4.210
  242SOL    HW2 1626   4.037   3.885   4.103
  243SOL     OW 1627   4.751   0.133   6.426
  243SOL    HW1 1628   4.816   0.207   6.405
  243SOL    HW2 1629   4.710   0.150   6.515
  244SOL     OW 1630   5.745   2.935   5.524
  244SOL    HW1 1631   5.745   2.838   5.546
  244SOL    HW2 1632   5.815   2.981   5.579
  245SOL     OW 1633   5.134   3.098   3.879
  245SOL    HW1 1634   5.139   3.059   3.787
  245SOL    HW2 1635   5.218   3.078   3.929
  246SOL     OW 1636   4.625   2.249   3.144
  246SOL    HW1 1637   4.569   2.331   3.131
  246SOL    HW2 1638   4.718   2.267   3.111
  247SOL     OW 1639   2.913   1.693   0.202
  247SOL    HW1 1640   2.958   1.775   0.166
  247SOL    HW2 1641   2.833   1.671   0.147
  248SOL     OW 1642   4.108   1.477   2.336
  248SOL    HW1 1643   4.119   1.403   2.402
  248SOL    HW2 1644   4.065   1.555   2.381
  249SOL     OW 1645   4.221   0.339   4.998
  249SOL    HW1 1646   4.226   0.408   5.071
  249SOL    HW2 1647   4.295   0.272   5.011
  250SOL     OW 1648   4.855   3.029   0.689
  250SOL    HW1 1649   4.766   3.074   0.687
  250SOL    HW2 1650   4.919   3.076   0.628
  251SOL     OW 1651   4.814   3.726   5.497
  251SOL    HW1 1652   4.849   3.650   5.552
  251SOL    HW2 1653   4.876   3.805   5.506
  252SOL     OW 1654   7.021   6.009   5.756
  252SOL    HW1 1655   6.941   5.959   5.721
  252SOL    HW2 1656   7.024   6.100   5.717
  253SOL     OW 1657   2.441   4.767   5.796
  253SOL    HW1 1658   2.528   4.753   5.844
  253SOL    HW2 1659   2.408   4.680   5.759
  254SOL     OW 1660   5.910   2.620   4.106
  254SOL    HW1 1661   5.847   2.613   4.183
  254SOL    HW2 1662   5.972   2.542   4.106
  255SOL     OW 1663   1.645   4.852   5.327
  255SOL    HW1 1664   1.572   4.891   5.382
  255SOL    HW2 1665   1.605   4.805   5.248
  256SOL     OW 1666   6.197   3.601   5.802
  256SOL    HW1 1667   6.247   3.675   5.757
  256SOL    HW2 1668   6.109   3.589   5.758
  257SOL     OW 1669   5.097   0.657   3.950
  257SOL    HW1 1670   5.036   0.682   3.875
  257SOL    HW2 1671   5.189   0.693   3.932
  258SOL     OW 1672   2.281   5.015   4.936
  258SOL    HW1 1673   2.261   5.061   5.023
  258SOL    HW2 1674   2.349   4.944   4.951
  259SOL     OW 1675   6.983   2.107   2.770
  259SOL    HW1 1676   0.034   2.072   2.720
  259SOL    HW2 1677   7.013   2.176   2.836
  260SOL     OW 1678   4.309   0.340   1.695
  260SOL    HW1 1679   4.373   0.284   1.749
  260SOL    HW2 1680   4.338   0.436   1.698
  261SOL     OW 1681   6.604   3.249   0.418
  261SOL    HW1 1682   6.683   3.193   0.441
  261SOL    HW2 1683   6.558   3.212   0.337
  262SOL     OW 1684   0.295   3.525   7.018
  262SOL    HW1 1685   0.255   3.596   6.959
  262SOL    HW2 1686   0.382   3.557   0.025
  263SOL     OW 1687   1.964   1.048   4.362
  263SOL    HW1 1688   1.879   1.088   4.397
  263SOL    HW2 1689   2.041   1.081   4.417
  264SOL     OW 1690   5.934   3.491   6.966
  264SOL    HW1 1691   5.928   3.391   6.969
  264SOL    HW2 1692   5.885   3.530   0.015
  265SOL     OW 1693   5.086   6.588   2.819
  265SOL    HW1 1694   5.173   6.573   2.867
  265SOL    HW2 1695   5.011   6.589   2.885
  266SOL     OW 1696   3.305   2.857   5.921
  266SOL    HW1 1697   3.222   2.856   5.865
  266SOL    HW2 1698   3.376   2.803   5.876
  267SOL     OW 1699   0.218   1.383   6.811
  267SOL    HW1 1700   0.119   1.375   6.805
  267SOL    HW2 1701   0.261   1.309   6.760
  268SOL     OW 1702   3.454   0.903   5.687
  268SOL    HW1 1703   3.505   0.897   5.601
  268SOL    HW2 1704   3.457   0.997   5.721
  269SOL     OW 1705   0.952   3.469   1.961
  269SOL    HW1 1706   0.856   3.492   1.946
  269SOL    HW2 1707   1.003   3.482   1.876
  270SOL     OW 1708   1.203   6.573   0.189
  270SOL    HW1 1709   1.104   6.584   0.178
  270SOL    HW2 1710   1.238   6.645   0.248
  271SOL     OW 1711   6.565   1.912   0.018
  271SOL    HW1 1712   6.467   1.899   0.033
  271SOL    HW2 1713   6.606   1.826   7.018
  272SOL     OW 1714   3.662   5.625   4.463
  272SOL    HW1 1715   3.589   5.682   4.426
  272SOL    HW2 1716   3.747   5.643   4.413
  273SOL     OW 1717   1.945   4.697   4.559
  273SOL    HW1 1718   1.997   4.636   4.620
  273SOL    HW2 1719   1.998   4.714   4.476
  274SOL     OW 1720   4.221   2.285   3.223
  274SOL    HW1 1721   4.209   2.242   3.313
  274SOL    HW2 1722   4.187   2.224   3.152
  275SOL     OW 1723   6.212   4.908   4.418
  275SOL    HW1 1724   6.125   4.879   4.378
  275SOL    HW2 1725   6.210   4.893   4.517
  276SOL     OW 1726   6.592   6.871   2.903
  276SOL    HW1 1727   6.675   6.848   2.953
  276SOL    HW2 1728   6.614   6.900   2.811
  277SOL     OW 1729   1.662   4.309   0.058
  277SOL    HW1 1730   1.576   4.359   0.046
  277SOL    HW2 1731   1.685   4.306   0.156
  278SOL     OW 1732   6.750   5.090   1.969
  278SOL    HW1 1733   6.725   5.061   1.876
  278SOL    HW2 1734   6.667   5.110   2.020
  279SOL     OW 1735   6.124   3.507   4.166
  279SOL    HW1 1736   6.055   3.436   4.152
  279SOL    HW2 1737   6.087   3.596   4.138
  280SOL     OW 1738   3.056   6.979   3.411
  280SOL    HW1 1739   3.117   7.007   3.486
  280SOL    HW2 1740   3.016   0.031   3.368
  281SOL     OW 1741   2.676   4.570   1.719
  281SOL    HW1 1742   2.672   4.478   1.682
  281SOL    HW2 1743   2.724   4.569   1.807
  282SOL     OW 1744   3.259   1.635   5.969
  282SOL    HW1 1745   3.163   1.612   5.988
  282SOL    HW2 1746   3.274   1.636   5.870
  283SOL     OW 1747   6.100   1.597   6.433
  283SOL    HW1 1748   6.051   1.658   6.371
  283SOL    HW2 1749   6.052   1.593   6.520
  284SOL     OW 1750   1.429   4.180   3.305
  284SOL    HW1 1751   1.513   4.231   3.287
  284SOL    HW2 1752   1.358   4.206   3.239
  285SOL     OW 1753   6.030   5.016   4.678
  285SOL    HW1 1754   5.944   4.999   4.631
  285SOL    HW2 1755   6.070   5.101   4.644
  286SOL     OW 1756   3.255   5.742   6.102
  286SOL    HW1 1757   3.343   5.780   6.076
  286SOL    HW2 1758   3.184   5.777   6.040
  287SOL     OW 1759   0.805   3.904   0.453
  287SOL    HW1 1760   0.831   3.998   0.428
  287SOL    HW2 1761   0.715   3.883   0.415
  288SOL     OW 1762   3.689   1.129   6.213
  288SOL    HW1 1763   3.717   1.175   6.129
  288SOL    HW2 1764   3.589   1.119   6.214
  289SOL     OW 1765   7.003   4.438   5.451
  289SOL    HW1 1766   0.062   4.484   5.439
  289SOL    HW2 1767   6.992   4.368   5.380
  290SOL     OW 1768   6.469   2.083   4.878
  290SOL    HW1 1769   6.560   2.083   4.836
  290SOL    HW2 1770   6.423   1.996   4.857
  291SOL     OW 1771   1.601   2.210   4.310
  291SOL    HW1 1772   1.564   2.182   4.398
  291SOL    HW2 1773   1.631   2.129   4.259
  292SOL     OW 1774   1.447   2.455   3.431
  292SOL    HW1 1775   1.402   2.451   3.342
  292SOL    HW2 1776   1.478   2.364   3.457
  293SOL     OW 1777   4.107   5.997   2.427
  293SOL    HW1 1778   4.141   6.029   2.339
  293SOL    HW2 1779   4.007   6.000   2.427
  294SOL     OW 1780   0.925   5.588   6.489
  294SOL    HW1 1781   0.910   5.507   6.432
  294SOL    HW2 1782   0.958   5.663   6.432
  295SOL     OW 1783   3.732   1.810   4.061
  295SOL    HW1 1784   3.785   1.810   4.146
  295SOL    HW2 1785   3.792   1.786   3.984
  296SOL     OW 1786   4.262   1.846   2.929
  296SOL    HW1 1787   4.328   1.819   2.999
  296SOL    HW2 1788   4.179   1.791   2.937
  297SOL     OW 1789   2.525   4.506   3.274
  297SOL    HW1 1790   2.589   4.551   3.337
  297SOL    HW2 1791   2.539   4.541   3.181
  298SOL     OW 1792   3.967   6.236   1.055
  298SOL    HW1 1793   3.948   6.165   0.986
  298SOL    HW2 1794   3.880   6.274   1.088
  299SOL     OW 1795   5.168   3.388   6.081
  299SOL    HW1 1796   5.201   3.407   5.988
  299SOL    HW2 1797   5.188   3.466   6.140
  300SOL     OW 1798   7.007   1.153   2.265
  300SOL    HW1 1799   0.001   1.250   2.268
  300SOL    HW2 1800   7.027   1.111   2.353
  301SOL     OW 1801   5.113   3.509   1.445
  301SOL    HW1 1802   5.175   3.558   1.383
  301SOL    HW2 1803   5.026   3.494   1.400
  302SOL     OW 1804   0.741   0.628   3.143
  302SOL    HW1 1805   0.798   0.700   3.183
  302SOL    HW2 1806   0.723   0.558   3.212
  303SOL     OW 1807   5.695   1.123   2.226
  303SOL    HW1 1808   5.720   1.087   2.136
  303SOL    HW2 1809   5.624   1.066   2.267
  304SOL     OW 1810   2.547   6.888   4.187
  304SOL    HW1 1811   2.644   6.898   4.165
  304SOL    HW2 1812   2.493   6.946   4.125
  305SOL     OW 1813   0.930   3.446   0.416
  305SOL    HW1 1814   0.897   3.414   0.327
  305SOL    HW2 1815   1.003   3.385   0.448
  306SOL     OW 1816   2.091   1.654   3.516
  306SOL    HW1 1817   2.175   1.634   3.467
  306SOL    HW2 1818   2.097   1.744   3.558
  307SOL     OW 1819   4.836   0.357   0.731
  307SOL    HW1 1820   4.833   0.395   0.824
  307SOL    HW2 1821   4.930   0.332   0.709
  308SOL     OW 1822   6.410   3.719   4.973
  308SOL    HW1 1823   6.428   3.792   4.908
  308SOL    HW2 1824   6.470   3.729   5.052
  309SOL     OW 1825   3.029   4.703   6.619
  309SOL    HW1 1826   2.995   4.763   6.691
  309SOL    HW2 1827   2.954   4.681   6.557
  310SOL     OW 1828   6.260   6.862   5.809
  310SOL    HW1 1829   6.310   6.929   5.756
  310SOL    HW2 1830   6.311   6.776   5.811
  311SOL     OW 1831   5.789   5.107   1.305
  311SOL    HW1 1832   5.793   5.140   1.211
  311SOL    HW2 1833   5.855   5.032   1.317
  312SOL     OW 1834   4.317   1.229   5.742
  312SOL    HW1 1835   4.398   1.175   5.718
  312SOL    HW2 1836   4.341   1.292   5.816
  313SOL     OW 1837   3.009   4.080   1.860
  313SOL    HW1 1838   2.926   4.097   1.807
  313SOL    HW2 1839   3.033   4.163   1.911
  314SOL     OW 1840   3.673   4.663   6.621
  314SOL    HW1 1841   3.644   4.759   6.620
  314SOL    HW2 1842   3.766   4.656   6.587
  315SOL     OW 1843   1.002   3.449   3.262
  315SOL    HW1 1844   1.006   3.350   3.251
  315SOL    HW2 1845   1.072   3.478   3.328
  316SOL     OW 1846   2.887   2.296   4.243
  316SOL    HW1 1847   2.924   2.231   4.177
  316SOL    HW2 1848   2.933   2.284   4.331
  317SOL     OW 1849   1.042   0.209   0.968
  317SOL    HW1 1850   1.016   0.163   1.052
  317SOL    HW2 1851   0.995   0.167   0.891
  318SOL     OW 1852   0.664   6.275   6.934
  318SOL    HW1 1853   0.564   6.279   6.928
  318SOL    HW2 1854   0.699   6.218   6.859
  319SOL     OW 1855   6.921   0.801   3.851
  319SOL    HW1 1856   6.990   0.858   3.807
  319SOL    HW2 1857   6.957   0.710   3.867
  320SOL     OW 1858   5.630   2.119   6.891
  320SOL    HW1 1859   5.587   2.029   6.899
  320SOL    HW2 1860   5.651   2.154   6.982
  321SOL     OW 1861   3.150   1.003   1.306
  321SOL    HW1 1862   3.055   0.972   1.306
  321SOL    HW2 1863   3.171   1.048   1.220
  322SOL     OW 1864   3.568   4.020   4.649
  322SOL    HW1 1865   3.619   3.934   4.652
  322SOL    HW2 1866   3.607   4.084   4.715
  323SOL     OW 1867   0.215   3.710   6.829
  323SOL    HW1 1868   0.271   3.773   6.774
  323SOL    HW2 1869   0.160   3.653   6.768
  324SOL     OW 1870   2.119   2.439   3.831
  324SOL    HW1 1871   2.131   2.472   3.737
  324SOL    HW2 1872   2.202   2.391   3.859
  325SOL     OW 1873   1.151   2.850   1.739
  325SOL    HW1 1874   1.157   2.754   1.767
  325SOL    HW2 1875   1.198   2.907   1.806
  326SOL     OW 1876   1.782   5.254   6.166
  326SOL    HW1 1877   1.830   5.340   6.148
  326SOL    HW2 1878   1.684   5.266   6.152
  327SOL     OW 1879   1.595   5.232   3.683
  327SOL    HW1 1880   1.520   5.203   3.623
  327SOL    HW2 1881   1.576   5.322   3.720
  328SOL     OW 1882   2.339   5.809   1.940
  328SOL    HW1 1883   2.418   5.773   1.891
  328SOL    HW2 1884   2.276   5.853   1.876
  329SOL     OW 1885   3.288   4.083   4.344
  329SOL    HW1 1886   3.387   4.090   4.331
  329SOL    HW2 1887   3.242   4.091   4.255
  330SOL     OW 1888   3.174   6.448   1.403
  330SOL    HW1 1889   3.096   6.499   1.366
  330SOL    HW2 1890   3.216   6.394   1.331
  331SOL     OW 1891   4.212   4.565   6.730
  331SOL    HW1 1892   4.149   4.553   6.806
  331SOL    HW2 1893   4.195   4.654   6.686
  332SOL     OW 1894   3.486   1.939   4.935
  332SOL    HW1 1895   3.438   1.995   4.867
  332SOL    HW2 1896   3.532   1.863   4.889
  333SOL     OW 1897   3.157   6.836   6.659
  333SOL    HW1 1898   3.180   6.769   6.587
  333SOL    HW2 1899   3.098   6.793   6.727
  334SOL     OW 1900   2.560   0.248   1.022
  334SOL    HW1 1901   2.620   0.250   0.942
  334SOL    HW2 1902   2.578   0.327   1.080
  335SOL     OW 1903   3.504   6.417   4.633
  335SOL    HW1 1904   3.439   6.419   4.709
  335SOL    HW2 1905   3.490   6.496   4.574
  336SOL     OW 1906   3.080   1.500   3.751
  336SOL    HW1 1907   3.153   1.471   3.813
  336SOL    HW2 1908   3.106   1.585   3.705
  337SOL     OW 1909   6.864   3.193   0.774
  337SOL    HW1 1910   6.891   3.110   0.823
  337SOL    HW2 1911   6.829   3.168   0.684
  338SOL     OW 1912   2.972   2.700   0.928
  338SOL    HW1 1913   2.884   2.740   0.952
  338SOL    HW2 1914   2.965   2.600   0.932
  339SOL     OW 1915   3.731   6.385   4.747
  339SOL    HW1 1916   3.773   6.473   4.767
  339SOL    HW2 1917   3.640   6.400   4.706
  340SOL     OW 1918   4.939   4.156   5.031
  340SOL    HW1 1919   4.914   4.094   5.106
  340SOL    HW2 1920   4.901   4.246   5.049
  341SOL     OW 1921   6.468   0.199   4.539
  341SOL    HW1 1922   6.437   0.117   4.491
  341SOL    HW2 1923   6.452   0.279   4.482
  342SOL     OW 1924   5.916   3.217   6.976
  342SOL    HW1 1925   5.929   3.198   0.045
  342SOL    HW2 1926   5.829   3.178   6.946
  343SOL     OW 1927   1.959   5.565   0.946
  343SOL    HW1 1928   1.946   5.530   0.854
  343SOL    HW2 1929   1.888   5.529   1.006
  344SOL     OW 1930   1.654   4.643   1.864
  344SOL    HW1 1931   1.589   4.663   1.936
  344SOL    HW2 1932   1.745   4.673   1.892
  345SOL     OW 1933   6.666   1.334   4.878
  345SOL    HW1 1934   6.751   1.337   4.826
  345SOL    HW2 1935   6.596   1.389   4.832
  346SOL     OW 1936   1.834   0.786   1.906
  346SOL    HW1 1937   1.878   0.726   1.839
  346SOL    HW2 1938   1.774   0.732   1.965
  347SOL     OW 1939   3.956   6.837   6.132
  347SOL    HW1 1940   3.883   6.803   6.072
  347SOL    HW2 1941   4.044   6.832   6.084
  348SOL     OW 1942   4.679   5.093   1.359
  348SOL    HW1 1943   4.600   5.142   1.322
  348SOL    HW2 1944   4.649   5.005   1.396
  349SOL     OW 1945   6.265   4.720   1.518
  349SOL    HW1 1946   6.235   4.634   1.476
  349SOL    HW2 1947   6.318   4.700   1.600
  350SOL     OW 1948   3.557   3.133   1.909
  350SOL    HW1 1949   3.599   3.089   1.988
  350SOL    HW2 1950   3.628   3.151   1.840
  351SOL     OW 1951   2.417   2.663   0.272
  351SOL    HW1 1952   2.342   2.607   0.307
  351SOL    HW2 1953   2.455   2.718   0.347
  352SOL     OW 1954   3.443   0.330   4.786
  352SOL    HW1 1955   3.403   0.301   4.699
  352SOL    HW2 1956   3.541   0.344   4.774
  353SOL     OW 1957   2.665   6.963   0.848
  353SOL    HW1 1958   2.676   6.994   0.754
  353SOL    HW2 1959   2.746   6.986   0.901
  354SOL     OW 1960   3.960   2.238   0.569
  354SOL    HW1 1961   3.883   2.187   0.608
  354SOL    HW2 1962   3.945   2.252   0.471
  355SOL     OW 1963   6.849   3.386   2.747
  355SOL    HW1 1964   6.825   3.293   2.776
  355SOL    HW2 1965   6.884   3.383   2.653
  356SOL     OW 1966   3.993   5.832   5.038
  356SOL    HW1 1967   3.929   5.793   4.972
  356SOL    HW2 1968   4.076   5.861   4.990
  357SOL     OW 1969   6.419   0.070   5.645
  357SOL    HW1 1970   6.489   0.140   5.633
  357SOL    HW2 1971   6.336   0.096   5.596
  358SOL     OW 1972   5.330   0.302   2.097
  358SOL    HW1 1973   5.422   0.332   2.122
  358SOL    HW2 1974   5.264   0.337   2.164
  359SOL     OW 1975   1.479   2.101   2.627
  359SOL    HW1 1976   1.442   2.077   2.537
  359SOL    HW2 1977   1.579   2.105   2.621
  360SOL     OW 1978   1.880   5.744   6.054
  360SOL    HW1 1979   1.948   5.814   6.077
  360SOL    HW2 1980   1.798   5.789   6.017
  361SOL     OW 1981   5.609   5.887   2.958
  361SOL    HW1 1982   5.697   5.921   2.924
  361SOL    HW2 1983   5.536   5.915   2.896
  362SOL     OW 1984   3.715   4.052   0.643
  362SOL    HW1 1985   3.704   4.114   0.565
  362SOL    HW2 1986   3.702   4.103   0.728
  363SOL     OW 1987   4.525   4.457   3.235
  363SOL    HW1 1988   4.582   4.376   3.245
  363SOL    HW2 1989   4.572   4.525   3.179
  364SOL     OW 1990   0.153   5.914   5.507
  364SOL    HW1 1991   0.218   5.968   5.454
  364SOL    HW2 1992   0.140   5.957   5.597
  365SOL     OW 1993   4.669   5.490   2.505
  365SOL    HW1 1994   4.606   5.567   2.516
  365SOL    HW2 1995   4.689   5.451   2.595
  366SOL     OW 1996   6.205   1.345   0.305
  366SOL    HW1 1997   6.285   1.285   0.307
  366SOL    HW2 1998   6.129   1.297   0.262
  367SOL     OW 1999   5.072   2.797   1.281
  367SOL    HW1 2000   5.056   2.720   1.343
  367SOL    HW2 2001   5.068   2.766   1.186
  368SOL     OW 2002   0.729   3.882   4.847
  368SOL    HW1 2003   0.736   3.874   4.946
  368SOL    HW2 2004   0.820   3.873   4.806
  369SOL     OW 2005   6.195   4.932   1.743
  369SOL    HW1 2006   6.206   4.887   1.655
  369SOL    HW2 2007   6.111   4.900   1.787
  370SOL     OW 2008   3.203   2.002   5.715
  370SOL    HW1 2009   3.155   2.080   5.676
  370SOL    HW2 2010   3.233   1.941   5.641
  371SOL     OW 2011   2.552   3.586   6.401
  371SOL    HW1 2012   2.531   3.670   6.350
  371SOL    HW2 2013   2.511   3.591   6.492
  372SOL     OW 2014   6.537   0.904   5.139
  372SOL    HW1 2015   6.561   0.953   5.055
  372SOL    HW2 2016   6.445   0.865   5.129
  373SOL     OW 2017   6.091   6.663   4.878
  373SOL    HW1 2018   6.166   6.709   4.925
  373SOL    HW2 2019   6.033   6.616   4.945
  374SOL     OW 2020   3.581   0.163   2.506
  374SOL    HW1 2021   3.567   0.253   2.547
  374SOL    HW2 2022   3.610   0.099   2.576
  375SOL     OW 2023   0.401   4.812   4.009
  375SOL    HW1 2024   0.486   4.852   4.044
  375SOL    HW2 2025   0.418   4.770   3.920
  376SOL     OW 2026   1.658   3.359   4.007
  376SOL    HW1 2027   1.568   3.341   3.967
  376SOL    HW2 2028   1.718   3.281   3.990
  377SOL     OW 2029   6.262   2.720   1.910
  377SOL    HW1 2030   6.217   2.650   1.855
  377SOL    HW2 2031   6.346   2.749   1.864
  378SOL     OW 2032   3.292   2.697   5.687
  378SOL    HW1 2033   3.354   2.766   5.652
  378SOL    HW2 2034   3.206   2.700   5.635
  379SOL     OW 2035   6.236   4.357   1.755
  379SOL    HW1 2036   6.313   4.382   1.813
  379SOL    HW2 2037   6.156   4.411   1.779
  380SOL     OW 2038   2.624   1.449   1.490
  380SOL    HW1 2039   2.707   1.474   1.539
  380SOL    HW2 2040   2.635   1.469   1.392
  381SOL     OW 2041   2.151   4.606   1.637
  381SOL    HW1 2042   2.183   4.516   1.609
  381SOL    HW2 2043   2.219   4.648   1.697
  382SOL     OW 2044   5.260   6.011   6.462
  382SOL    HW1 2045   5.255   5.936   6.396
  382SOL    HW2 2046   5.311   6.087   6.423
  383SOL     OW 2047   6.139   2.702   6.252
  383SOL    HW1 2048   6.079   2.710   6.332
  383SOL    HW2 2049   6.221   2.757   6.267
  384SOL     OW 2050   0.477   4.130   4.996
  384SOL    HW1 2051   0.483   4.089   5.087
  384SOL    HW2 2052   0.405   4.198   4.994
  385SOL     OW 2053   4.459   6.338   6.652
  385SOL    HW1 2054   4.482   6.243   6.629
  385SOL    HW2 2055   4.476   6.354   6.750
  386SOL     OW 2056   3.615   0.133   5.163
  386SOL    HW1 2057   3.544   0.199   5.141
  386SOL    HW2 2058   3.696   0.181   5.198
  387SOL     OW 2059   6.789   5.869   3.730
  387SOL    HW1 2060   6.699   5.835   3.757
  387SOL    HW2 2061   6.794   5.874   3.630
  388SOL     OW 2062   0.531   2.364   4.460
  388SOL    HW1 2063   0.521   2.270   4.430
  388SOL    HW2 2064   0.598   2.412   4.402
  389SOL     OW 2065   4.269   4.235   1.662
  389SOL    HW1 2066   4.321   4.286   1.594
  389SOL    HW2 2067   4.328   4.212   1.739
  390SOL     OW 2068   3.298   1.156   0.460
  390SOL    HW1 2069   3.304   1.092   0.537
  390SOL    HW2 2070   3.294   1.105   0.374
  391SOL     OW 2071   2.071   3.932   5.208
  391SOL    HW1 2072   2.094   3.839   5.233
  391SOL    HW2 2073   2.123   3.959   5.127
  392SOL     OW 2074   1.456   3.015   2.354
  392SOL    HW1 2075   1.467   2.917   2.371
  392SOL    HW2 2076   1.513   3.042   2.277
  393SOL     OW 2077   1.493   5.510   0.332
  393SOL    HW1 2078   1.536   5.577   0.393
  393SOL    HW2 2079   1.564   5.455   0.288
  394SOL     OW 2080   0.888   3.106   6.448
  394SOL    HW1 2081   0.867   3.200   6.476
  394SOL    HW2 2082   0.964   3.106   6.384
  395SOL     OW 2083   5.375   4.020   2.095
  395SOL    HW1 2084   5.439   4.012   2.019
  395SOL    HW2 2085   5.407   4.090   2.159
  396SOL     OW 2086   2.294   2.090   2.347
  396SOL    HW1 2087   2.238   2.011   2.322
  396SOL    HW2 2088   2.376   2.093   2.289
  397SOL     OW 2089   5.577   1.598   6.147
  397SOL    HW1 2090   5.669   1.559   6.152
  397SOL    HW2 2091   5.523   1.564   6.224
  398SOL     OW 2092   1.340   6.071   4.664
  398SOL    HW1 2093   1.293   6.020   4.592
  398SOL    HW2 2094   1.418   6.119   4.626
  399SOL     OW 2095   6.601   5.950   4.344
  399SOL    HW1 2096   6.556   6.030   4.306
  399SOL    HW2 2097   6.569   5.868   4.296
  400SOL     OW 2098   6.548   6.470   5.181
  400SOL    HW1 2099   6.584   6.385   5.142
  400SOL    HW2 2100   6.509   6.526   5.108
  401SOL     OW 2101   5.621   6.951   5.958
  401SOL    HW1 2102   5.625   6.984   5.864
  401SOL    HW2 2103   5.697   6.991   6.011
  402SOL     OW 2104   6.277   0.302   2.350
  402SOL    HW1 2105   6.352   0.271   2.291
  402SOL    HW2 2106   6.315   0.345   2.431
  403SOL     OW 2107   3.374   0.271   6.415
  403SOL    HW1 2108   3.339   0.185   6.453
  403SOL    HW2 2109   3.469   0.260   6.388
  404SOL     OW 2110   2.676   5.704   5.524
  404SOL    HW1 2111   2.591   5.669   5.565
  404SOL    HW2 2112   2.748   5.704   5.593
  405SOL     OW 2113   2.258   4.137   3.394
  405SOL    HW1 2114   2.271   4.043   3.360
  405SOL    HW2 2115   2.224   4.134   3.488
  406SOL     OW 2116   0.555   4.673   5.392
  406SOL    HW1 2117   0.524   4.611   5.320
  406SOL    HW2 2118   0.649   4.650   5.417
  407SOL     OW 2119   1.888   2.815   3.587
  407SOL    HW1 2120   1.979   2.833   3.549
  407SOL    HW2 2121   1.842   2.902   3.604
  408SOL     OW 2122   3.406   2.079   3.062
  408SOL    HW1 2123   3.493   2.080   3.112
  408SOL    HW2 2124   3.425   2.074   2.963
  409SOL     OW 2125   6.834   3.401   1.778
  409SOL    HW1 2126   6.786   3.372   1.695
  409SOL    HW2 2127   6.921   3.444   1.753
  410SOL     OW 2128   1.316   1.837   1.297
  410SOL    HW1 2129   1.304   1.792   1.386
  410SOL    HW2 2130   1.336   1.768   1.227
  411SOL     OW 2131   6.362   1.936   2.167
  411SOL    HW1 2132   6.369   1.838   2.189
  411SOL    HW2 2133   6.432   1.986   2.218
  412SOL     OW 2134   3.472   5.025   2.820
  412SOL    HW1 2135   3.469   4.955   2.891
  412SOL    HW2 2136   3.399   5.007   2.753
  413SOL     OW 2137   4.050   5.278   1.865
  413SOL    HW1 2138   3.985   5.241   1.932
  413SOL    HW2 2139   4.035   5.376   1.855
  414SOL     OW 2140   3.671   0.487   3.917
  414SOL    HW1 2141   3.573   0.508   3.918
  414SOL    HW2 2142   3.684   0.390   3.897
  415SOL     OW 2143   0.005   1.439   0.118
  415SOL    HW1 2144   7.024   1.426   0.020
  415SOL    HW2 2145   0.095   1.479   0.138
  416SOL     OW 2146   5.364   4.567   4.611
  416SOL    HW1 2147   5.264   4.562   4.614
  416SOL    HW2 2148   5.397   4.517   4.532
  417SOL     OW 2149   1.906   1.162   6.472
  417SOL    HW1 2150   1.897   1.228   6.397
  417SOL    HW2 2151   2.002   1.152   6.496
  418SOL     OW 2152   2.959   0.010   5.453
  418SOL    HW1 2153   2.871   0.024   5.407
  418SOL    HW2 2154   3.003   6.957   5.417
  419SOL     OW 2155   0.137   6.571   3.090
  419SOL    HW1 2156   0.130   6.481   3.134
  419SOL    HW2 2157   0.170   6.638   3.155
  420SOL     OW 2158   5.538   0.912   6.670
  420SOL    HW1 2159   5.539   1.010   6.653
  420SOL    HW2 2160   5.600   0.866   6.607
  421SOL     OW 2161   5.893   4.159   5.162
  421SOL    HW1 2162   5.885   4.121   5.254
  421SOL    HW2 2163   5.860   4.093   5.095
  422SOL     OW 2164   5.588   2.074   0.466
  422SOL    HW1 2165   5.675   2.062   0.514
  422SOL    HW2 2166   5.552   1.984   0.441
  423SOL     OW 2167   2.491   1.167   6.689
  423SOL    HW1 2168   2.395   1.165   6.718
  423SOL    HW2 2169   2.497   1.191   6.593
  424SOL     OW 2170   2.042   5.264   2.892
  424SOL    HW1 2171   1.972   5.219   2.838
  424SOL    HW2 2172   2.036   5.233   2.987
  425SOL     OW 2173   5.110   1.155   4.744
  425SOL    HW1 2174   5.155   1.133   4.831
  425SOL    HW2 2175   5.028   1.098   4.734
  426SOL     OW 2176   2.233   2.895   5.314
  426SOL    HW1 2177   2.268   2.912   5.406
  426SOL    HW2 2178   2.292   2.939   5.246
  427SOL     OW 2179   5.285   1.273   4.316
  427SOL    HW1 2180   5.297   1.323   4.402
  427SOL    HW2 2181   5.200   1.302   4.272
  428SOL     OW 2182   2.362   0.500   4.531
  428SOL    HW1 2183   2.424   0.498   4.609
  428SOL    HW2 2184   2.360   0.592   4.492
  429SOL     OW 2185   0.777   5.130   4.174
  429SOL    HW1 2186   0.694   5.159   4.222
  429SOL    HW2 2187   0.852   5.125   4.240
  430SOL     OW 2188   1.851   0.370   3.822
  430SOL    HW1 2189   1.799   0.304   3.875
  430SOL    HW2 2190   1.820   0.463   3.843
  431SOL     OW 2191   2.156   2.111   0.541
  431SOL    HW1 2192   2.093   2.056   0.485
  431SOL    HW2 2193   2.105   2.186   0.584
  432SOL     OW 2194   5.276   1.830   1.218
  432SOL    HW1 2195   5.375   1.833   1.214
  432SOL    HW2 2196   5.238   1.919   1.194
  433SOL     OW 2197   3.668   6.637   6.281
  433SOL    HW1 2198   3.682   6.586   6.195
  433SOL    HW2 2199   3.665   6.735   6.261
  434SOL     OW 2200   3.809   6.147   3.777
  434SOL    HW1 2201   3.849   6.168   3.688
  434SOL    HW2 2202   3.711   6.169   3.775
  435SOL     OW 2203   3.808   1.156   5.414
  435SOL    HW1 2204   3.795   1.242   5.465
  435SOL    HW2 2205   3.799   1.079   5.477
  436SOL     OW 2206   3.290   6.108   2.609
  436SOL    HW1 2207   3.277   6.108   2.510
  436SOL    HW2 2208   3.276   6.200   2.644
  437SOL     OW 2209   0.293   1.253   4.657
  437SOL    HW1 2210   0.348   1.331   4.687
  437SOL    HW2 2211   0.352   1.185   4.614
  438SOL     OW 2212   1.143   4.490   2.861
  438SOL    HW1 2213   1.098   4.507   2.774
  438SOL    HW2 2214   1.138   4.573   2.918
  439SOL     OW 2215   5.932   0.934   3.123
  439SOL    HW1 2216   5.913   0.891   3.211
  439SOL    HW2 2217   5.928   1.034   3.132
  440SOL     OW 2218   3.700   1.282   6.850
  440SOL    HW1 2219   3.618   1.325   6.813
  440SOL    HW2 2220   3.762   1.259   6.775
  441SOL     OW 2221   6.007   4.359   3.020
  441SOL    HW1 2222   6.089   4.339   3.072
  441SOL    HW2 2223   6.003   4.457   3.000
  442SOL     OW 2224   4.954   4.041   5.766
  442SOL    HW1 2225   4.860   4.040   5.802
  442SOL    HW2 2226   4.996   3.952   5.783
  443SOL     OW 2227   5.265   4.790   3.327
  443SOL    HW1 2228   5.228   4.782   3.234
  443SOL    HW2 2229   5.362   4.814   3.322
  444SOL     OW 2230   3.864   1.319   6.598
  444SOL    HW1 2231   3.804   1.252   6.553
  444SOL    HW2 2232   3.889   1.390   6.532
  445SOL     OW 2233   2.691   6.257   2.715
  445SOL    HW1 2234   2.640   6.302   2.642
  445SOL    HW2 2235   2.781   6.299   2.723
  446SOL     OW 2236   4.608   6.048   2.769
  446SOL    HW1 2237   4.512   6.043   2.798
  446SOL    HW2 2238   4.624   5.982   2.696
  447SOL     OW 2239   6.406   3.347   5.400
  447SOL    HW1 2240   6.361   3.311   5.482
  447SOL    HW2 2241   6.490   3.393   5.427
  448SOL     OW 2242   1.863   1.463   3.107
  448SOL    HW1 2243   1.770   1.492   3.085
  448SOL    HW2 2244   1.927   1.538   3.086
  449SOL     OW 2245   2.014   2.425   3.353
  449SOL    HW1 2246   1.951   2.499   3.378
  449SOL    HW2 2247   2.023   2.422   3.254
  450SOL     OW 2248   0.836   4.810   3.494
  450SOL    HW1 2249   0.764   4.836   3.558
  450SOL    HW2 2250   0.889   4.891   3.469
  451SOL     OW 2251   6.787   2.497   3.570
  451SOL    HW1 2252   6.697   2.478   3.531
  451SOL    HW2 2253   6.841   2.552   3.506
  452SOL     OW 2254   3.367   6.780   2.793
  452SOL    HW1 2255   3.450   6.727   2.782
  452SOL    HW2 2256   3.345   6.790   2.891
  453SOL     OW 2257   4.509   0.463   6.838
  453SOL    HW1 2258   4.573   0.390   6.865
  453SOL    HW2 2259   4.553   0.552   6.850
  454SOL     OW 2260   6.659   3.965   6.398
  454SOL    HW1 2261   6.691   3.991   6.306
  454SOL    HW2 2262   6.563   3.991   6.408
  455SOL     OW 2263   6.710   3.886   5.729
  455SOL    HW1 2264   6.683   3.939   5.649
  455SOL    HW2 2265   6.752   3.800   5.700
  456SOL     OW 2266   1.636   0.772   3.937
  456SOL    HW1 2267   1.585   0.789   4.022
  456SOL    HW2 2268   1.712   0.836   3.931
  457SOL     OW 2269   1.357   5.842   5.756
  457SOL    HW1 2270   1.405   5.781   5.819
  457SOL    HW2 2271   1.333   5.792   5.673
  458SOL     OW 2272   2.432   1.005   2.827
  458SOL    HW1 2273   2.451   1.098   2.857
  458SOL    HW2 2274   2.473   0.940   2.891
  459SOL     OW 2275   2.330   0.532   5.394
  459SOL    HW1 2276   2.427   0.515   5.381
  459SOL    HW2 2277   2.313   0.556   5.490
  460SOL     OW 2278   1.238   1.591   5.195
  460SOL    HW1 2279   1.257   1.495   5.173
  460SOL    HW2 2280   1.266   1.649   5.118
  461SOL     OW 2281   6.862   4.842   5.273
  461SOL    HW1 2282   6.947   4.798   5.302
  461SOL    HW2 2283   6.882   4.913   5.205
  462SOL     OW 2284   3.714   3.794   4.517
  462SOL    HW1 2285   3.691   3.715   4.574
  462SOL    HW2 2286   3.701   3.771   4.421
  463SOL     OW 2287   5.918   6.771   2.762
  463SOL    HW1 2288   5.990   6.791   2.829
  463SOL    HW2 2289   5.935   6.824   2.678
  464SOL     OW 2290   3.180   6.524   6.302
  464SOL    HW1 2291   3.201   6.503   6.397
  464SOL    HW2 2292   3.088   6.492   6.280
  465SOL     OW 2293   1.173   2.087   0.472
  465SOL    HW1 2294   1.128   2.160   0.524
  465SOL    HW2 2295   1.107   2.015   0.452
  466SOL     OW 2296   3.459   6.101   4.583
  466SOL    HW1 2297   3.435   6.198   4.577
  466SOL    HW2 2298   3.517   6.077   4.505
  467SOL     OW 2299   1.022   1.774   2.494
  467SOL    HW1 2300   1.085   1.745   2.566
  467SOL    HW2 2301   0.954   1.702   2.479
  468SOL     OW 2302   5.018   0.256   6.331
  468SOL    HW1 2303   4.989   0.342   6.374
  468SOL    HW2 2304   5.116   0.245   6.341
  469SOL     OW 2305   3.158   4.474   5.532
  469SOL    HW1 2306   3.093   4.455   5.459
  469SOL    HW2 2307   3.122   4.439   5.619
  470SOL     OW 2308   3.139   6.119   3.106
  470SOL    HW1 2309   3.044   6.128   3.136
  470SOL    HW2 2310   3.176   6.032   3.138
  471SOL     OW 2311   2.614   2.414   4.240
  471SOL    HW1 2312   2.709   2.388   4.251
  471SOL    HW2 2313   2.558   2.332   4.224
  472SOL     OW 2314   5.575   4.372   6.297
  472SOL    HW1 2315   5.522   4.302   6.346
  472SOL    HW2 2316   5.582   4.347   6.200
  473SOL     OW 2317   6.837   2.505   2.557
  473SOL    HW1 2318   6.787   2.458   2.630
  473SOL    HW2 2319   6.833   2.604   2.571
  474SOL     OW 2320   6.152   5.712   4.996
  474SOL    HW1 2321   6.186   5.806   4.998
  474SOL    HW2 2322   6.116   5.692   4.905
  475SOL     OW 2323   5.502   2.815   0.367
  475SOL    HW1 2324   5.404   2.810   0.344
  475SOL    HW2 2325   5.519   2.898   0.421
  476SOL     OW 2326   0.133   3.954   1.944
  476SOL    HW1 2327   0.033   3.956   1.939
  476SOL    HW2 2328   0.163   3.862   1.967
  477SOL     OW 2329   2.763   5.991   3.800
  477SOL    HW1 2330   2.800   5.899   3.810
  477SOL    HW2 2331   2.663   5.988   3.807
  478SOL     OW 2332   4.348   5.939   2.765
  478SOL    HW1 2333   4.283   6.013   2.782
  478SOL    HW2 2334   4.355   5.883   2.848
  479SOL     OW 2335   4.021   3.151   4.145
  479SOL    HW1 2336   4.055   3.242   4.169
  479SOL    HW2 2337   4.022   3.093   4.227
  480SOL     OW 2338   1.713   6.988   2.934
  480SOL    HW1 2339   1.726   6.890   2.918
  480SOL    HW2 2340   1.704   0.007   2.847
  481SOL     OW 2341   1.040   6.182   1.464
  481SOL    HW1 2342   1.014   6.086   1.450
  481SOL    HW2 2343   1.058   6.197   1.562
  482SOL     OW 2344   5.410   4.348   3.057
  482SOL    HW1 2345   5.399   4.250   3.074
  482SOL    HW2 2346   5.508   4.370   3.053
  483SOL     OW 2347   6.238   2.740   2.847
  483SOL    HW1 2348   6.159   2.712   2.902
  483SOL    HW2 2349   6.278   2.660   2.803
  484SOL     OW 2350   1.840   4.215   4.512
  484SOL    HW1 2351   1.847   4.190   4.415
  484SOL    HW2 2352   1.775   4.290   4.522
  485SOL     OW 2353   5.647   3.478   2.611
  485SOL    HW1 2354   5.706   3.477   2.530
  485SOL    HW2 2355   5.700   3.449   2.691
  486SOL     OW 2356   6.240   0.235   6.385
  486SOL    HW1 2357   6.159   0.223   6.327
  486SOL    HW2 2358   6.241   0.329   6.421
  487SOL     OW 2359   0.198   0.058   3.351
  487SOL    HW1 2360   0.265   0.128   3.327
  487SOL    HW2 2361   0.233   0.003   3.427
  488SOL     OW 2362   1.808   6.905   3.379
  488SOL    HW1 2363   1.835   6.892   3.284
  488SOL    HW2 2364   1.888   6.932   3.433
  489SOL     OW 2365   6.282   5.935   4.479
  489SOL    HW1 2366   6.197   5.986   4.494
  489SOL    HW2 2367   6.345   5.991   4.427
  490SOL     OW 2368   1.496   5.689   5.913
  490SOL    HW1 2369   1.410   5.672   5.961
  490SOL    HW2 2370   1.553   5.607   5.916
  491SOL     OW 2371   6.936   3.453   0.527
  491SOL    HW1 2372   6.856   3.420   0.477
  491SOL    HW2 2373   6.988   3.516   0.470
  492SOL     OW 2374   1.594   1.265   5.988
  492SOL    HW1 2375   1.543   1.351   5.980
  492SOL    HW2 2376   1.647   1.250   5.905
  493SOL     OW 2377   2.705   7.020   5.344
  493SOL    HW1 2378   2.652   6.961   5.283
  493SOL    HW2 2379   2.680   0.087   5.329
  494SOL     OW 2380   2.611   1.073   5.882
  494SOL    HW1 2381   2.662   1.060   5.967
  494SOL    HW2 2382   2.653   1.020   5.809
  495SOL     OW 2383   4.004   5.937   5.551
  495SOL    HW1 2384   4.020   6.030   5.585
  495SOL    HW2 2385   3.918   5.934   5.501
  496SOL     OW 2386   6.786   1.784   3.081
  496SOL    HW1 2387   6.804   1.854   3.011
  496SOL    HW2 2388   6.784   1.826   3.171
  497SOL     OW 2389   3.752   1.400   5.561
  497SOL    HW1 2390   3.731   1.487   5.606
  497SOL    HW2 2391   3.773   1.332   5.631
  498SOL     OW 2392   6.831   5.784   1.980
  498SOL    HW1 2393   6.746   5.737   2.001
  498SOL    HW2 2394   6.816   5.848   1.904
  499SOL     OW 2395   3.139   4.841   6.384
  499SOL    HW1 2396   3.073   4.777   6.422
  499SOL    HW2 2397   3.149   4.823   6.286
  500SOL     OW 2398   5.273   2.646   6.687
  500SOL    HW1 2399   5.182   2.609   6.704
  500SOL    HW2 2400   5.310   2.607   6.602
  501SOL     OW 2401   2.243   0.092   2.489
  501SOL    HW1 2402   2.206   0.134   2.572
  501SOL    HW2 2403   2.296   0.160   2.438
  502SOL     OW 2404   1.642   4.699   6.015
  502SOL    HW1 2405   1.630   4.726   5.920
  502SOL    HW2 2406   1.618   4.776   6.075
  503SOL     OW 2407   3.236   4.546   6.635
  503SOL    HW1 2408   3.148   4.594   6.643
  503SOL    HW2 2409   3.304   4.607   6.596
  504SOL     OW 2410   6.433   5.899   2.055
  504SOL    HW1 2411   6.489   5.921   1.976
  504SOL    HW2 2412   6.382   5.980   2.084
  505SOL     OW 2413   3.921   0.060   5.378
  505SOL    HW1 2414   3.978   0.089   5.301
  505SOL    HW2 2415   3.979   0.040   5.457
  506SOL     OW 2416   3.258   5.452   2.901
  506SOL    HW1 2417   3.194   5.528   2.905
  506SOL    HW2 2418   3.346   5.484   2.866
  507SOL     OW 2419   4.367   1.283   1.789
  507SOL    HW1 2420   4.290   1.243   1.740
  507SOL    HW2 2421   4.366   1.252   1.884
  508SOL     OW 2422   6.830   3.388   4.316
  508SOL    HW1 2423   6.853   3.302   4.271
  508SOL    HW2 2424   6.816   3.459   4.246
  509SOL     OW 2425   5.279   0.475   0.213
  509SOL    HW1 2426   5.332   0.559   0.202
  509SOL    HW2 2427   5.282   0.445   0.308
  510SOL     OW 2428   6.282   4.425   5.617
  510SOL    HW1 2429   6.207   4.391   5.559
  510SOL    HW2 2430   6.326   4.502   5.571
  511SOL     OW 2431   1.132   1.647   6.633
  511SOL    HW1 2432   1.225   1.621   6.659
  511SOL    HW2 2433   1.066   1.586   6.677
  512SOL     OW 2434   5.376   2.560   0.252
  512SOL    HW1 2435   5.460   2.613   0.258
  512SOL    HW2 2436   5.397   2.465   0.228
  513SOL     OW 2437   5.906   6.607   2.310
  513SOL    HW1 2438   5.878   6.593   2.405
  513SOL    HW2 2439   6.003   6.631   2.306
  514SOL     OW 2440   0.069   6.382   3.814
  514SOL    HW1 2441   0.152   6.432   3.789
  514SOL    HW2 2442   7.025   6.403   3.749
  515SOL     OW 2443   2.909   0.915   6.301
  515SOL    HW1 2444   3.001   0.877   6.311
  515SOL    HW2 2445   2.849   0.876   6.371
  516SOL     OW 2446   2.485   4.106   1.447
  516SOL    HW1 2447   2.420   4.073   1.378
  516SOL    HW2 2448   2.507   4.031   1.510
  517SOL     OW 2449   3.466   4.925   2.543
  517SOL    HW1 2450   3.545   4.865   2.558
  517SOL    HW2 2451   3.461   4.950   2.447
  518SOL     OW 2452   2.154   3.311   3.397
  518SOL    HW1 2453   2.253   3.305   3.386
  518SOL    HW2 2454   2.109   3.286   3.312
  519SOL     OW 2455   6.873   6.401   3.987
  519SOL    HW1 2456   6.954   6.423   4.042
  519SOL    HW2 2457   6.897   6.335   3.916
  520SOL     OW 2458   1.439   3.270   6.779
  520SOL    HW1 2459   1.488   3.272   6.692
  520SOL    HW2 2460   1.459   3.184   6.826
  521SOL     OW 2461   4.453   5.284   4.548
  521SOL    HW1 2462   4.539   5.298   4.498
  521SOL    HW2 2463   4.474   5.257   4.642
  522SOL     OW 2464   4.171   3.930   1.243
  522SOL    HW1 2465   4.233   3.921   1.321
  522SOL    HW2 2466   4.182   4.020   1.201
  523SOL     OW 2467   0.070   6.515   1.841
  523SOL    HW1 2468   0.159   6.553   1.867
  523SOL    HW2 2469   0.074   6.415   1.848
  524SOL     OW 2470   0.587   2.867   2.277
  524SOL    HW1 2471   0.684   2.857   2.252
  524SOL    HW2 2472   0.548   2.778   2.297
  525SOL     OW 2473   1.045   3.489   6.668
  525SOL    HW1 2474   1.091   3.425   6.730
  525SOL    HW2 2475   1.113   3.544   6.620
  526SOL     OW 2476   3.474   7.027   4.167
  526SOL    HW1 2477   3.421   0.002   4.082
  526SOL    HW2 2478   3.540   6.952   4.161
  527SOL     OW 2479   1.140   2.577   0.057
  527SOL    HW1 2480   1.045   2.600   0.038
  527SOL    HW2 2481   1.153   2.572   0.156
  528SOL     OW 2482   0.671   3.399   3.278
  528SOL    HW1 2483   0.726   3.342   3.217
  528SOL    HW2 2484   0.724   3.421   3.360
  529SOL     OW 2485   2.633   0.513   5.781
  529SOL    HW1 2486   2.577   0.575   5.836
  529SOL    HW2 2487   2.640   0.424   5.827
  530SOL     OW 2488   3.683   2.997   2.100
  530SOL    HW1 2489   3.713   3.005   2.195
  530SOL    HW2 2490   3.759   2.964   2.044
  531SOL     OW 2491   2.244   0.408   2.659
  531SOL    HW1 2492   2.231   0.505   2.675
  531SOL    HW2 2493   2.212   0.384   2.568
  532SOL     OW 2494   1.643   3.852   0.520
  532SOL    HW1 2495   1.668   3.828   0.613
  532SOL    HW2 2496   1.700   3.802   0.456
  533SOL     OW 2497   5.554   0.178   3.399
  533SOL    HW1 2498   5.471   0.144   3.354
  533SOL    HW2 2499   5.596   0.248   3.342
  534SOL     OW 2500   0.781   5.834   1.721
  534SOL    HW1 2501   0.683   5.813   1.730
  534SOL    HW2 2502   0.792   5.933   1.711
  535SOL     OW 2503   6.844   4.382   3.045
  535SOL    HW1 2504   6.813   4.357   2.954
  535SOL    HW2 2505   6.769   4.426   3.095
  536SOL     OW 2506   6.728   5.442   3.158
  536SOL    HW1 2507   6.737   5.415   3.062
  536SOL    HW2 2508   6.808   5.497   3.184
  537SOL     OW 2509   3.633   6.670   4.489
  537SOL    HW1 2510   3.706   6.610   4.456
  537SOL    HW2 2511   3.668   6.728   4.563
  538SOL     OW 2512   1.562   5.427   5.541
  538SOL    HW1 2513   1.586   5.506   5.485
  538SOL    HW2 2514   1.477   5.386   5.508
  539SOL     OW 2515   1.302   5.349   2.018
  539SOL    HW1 2516   1.310   5.381   1.924
  539SOL    HW2 2517   1.370   5.278   2.035
  540SOL     OW 2518   1.848   0.940   3.899
  540SOL    HW1 2519   1.923   0.908   3.840
  540SOL    HW2 2520   1.871   1.029   3.937
  541SOL     OW 2521   4.124   5.947   3.690
  541SOL    HW1 2522   4.103   5.992   3.776
  541SOL    HW2 2523   4.060   5.872   3.675
  542SOL     OW 2524   3.655   6.138   6.352
  542SOL    HW1 2525   3.570   6.130   6.299
  542SOL    HW2 2526   3.651   6.222   6.407
  543SOL     OW 2527   5.580   3.617   3.871
  543SOL    HW1 2528   5.515   3.690   3.851
  543SOL    HW2 2529   5.572   3.590   3.967
  544SOL     OW 2530   0.489   4.696   0.100
  544SOL    HW1 2531   0.468   4.656   0.011
  544SOL    HW2 2532   0.582   4.734   0.098
  545SOL     OW 2533   4.390   0.929   1.096
  545SOL    HW1 2534   4.449   0.906   1.173
  545SOL    HW2 2535   4.444   0.969   1.023
  546SOL     OW 2536   0.380   4.374   1.552
  546SOL    HW1 2537   0.308   4.439   1.525
  546SOL    HW2 2538   0.458   4.384   1.490
  547SOL     OW 2539   2.923   2.606   0.356
  547SOL    HW1 2540   2.970   2.522   0.383
  547SOL    HW2 2541   2.824   2.592   0.361
  548SOL     OW 2542   3.174   3.436   0.912
  548SOL    HW1 2543   3.129   3.387   0.987
  548SOL    HW2 2544   3.251   3.489   0.948
  549SOL     OW 2545   5.094   2.447   1.433
  549SOL    HW1 2546   5.158   2.440   1.356
  549SOL    HW2 2547   5.000   2.444   1.398
  550SOL     OW 2548   6.688   4.992   3.266
  550SOL    HW1 2549   6.603   5.017   3.219
  550SOL    HW2 2550   6.696   5.044   3.351
  551SOL     OW 2551   0.146   0.839   0.810
  551SOL    HW1 2552   0.238   0.817   0.840
  551SOL    HW2 2553   0.137   0.939   0.800
  552SOL     OW 2554   5.111   5.322   5.029
  552SOL    HW1 2555   5.208   5.324   5.004
  552SOL    HW2 2556   5.088   5.234   5.069
  553SOL     OW 2557   3.773   0.705   4.070
  553SOL    HW1 2558   3.798   0.673   4.162
  553SOL    HW2 2559   3.734   0.630   4.018
  554SOL     OW 2560   5.729   5.469   6.937
  554SOL    HW1 2561   5.783   5.527   6.876
  554SOL    HW2 2562   5.696   5.523   7.014
  555SOL     OW 2563   3.487   5.276   5.275
  555SOL    HW1 2564   3.491   5.292   5.374
  555SOL    HW2 2565   3.574   5.302   5.234
  556SOL     OW 2566   5.362   1.635   4.391
  556SOL    HW1 2567   5.276   1.634   4.443
  556SOL    HW2 2568   5.429   1.575   4.435
  557SOL     OW 2569   6.869   4.887   6.503
  557SOL    HW1 2570   6.817   4.961   6.459
  557SOL    HW2 2571   6.807   4.832   6.559
  558SOL     OW 2572   4.133   3.496   3.792
  558SOL    HW1 2573   4.214   3.537   3.835
  558SOL    HW2 2574   4.070   3.465   3.863
  559SOL     OW 2575   6.283   6.230   5.756
  559SOL    HW1 2576   6.200   6.270   5.717
  559SOL    HW2 2577   6.324   6.293   5.821
  560SOL     OW 2578   6.598   3.655   3.176
  560SOL    HW1 2579   6.595   3.569   3.126
  560SOL    HW2 2580   6.620   3.729   3.113
  561SOL     OW 2581   6.489   2.529   6.716
  561SOL    HW1 2582   6.448   2.571   6.635
  561SOL    HW2 2583   6.571   2.478   6.689
  562SOL     OW 2584   4.702   0.115   6.044
  562SOL    HW1 2585   4.618   0.106   5.991
  562SOL    HW2 2586   4.700   0.050   6.121
  563SOL     OW 2587   2.359   1.288   3.616
  563SOL    HW1 2588   2.322   1.332   3.698
  563SOL    HW2 2589   2.431   1.346   3.577
  564SOL     OW 2590   6.955   1.830   6.571
  564SOL    HW1 2591   6.873   1.817   6.516
  564SOL    HW2 2592   0.002   1.778   6.532
  565SOL     OW 2593   2.925   3.364   3.952
  565SOL    HW1 2594   2.917   3.456   3.989
  565SOL    HW2 2595   2.841   3.340   3.904
  566SOL     OW 2596   2.001   4.678   2.972
  566SOL    HW1 2597   1.984   4.600   3.032
  566SOL    HW2 2598   2.044   4.752   3.024
  567SOL     OW 2599   2.771   2.447   0.623
  567SOL    HW1 2600   2.678   2.419   0.643
  567SOL    HW2 2601   2.772   2.511   0.546
  568SOL     OW 2602   5.784   6.933   0.893
  568SOL    HW1 2603   5.778   6.977   0.804
  568SOL    HW2 2604   5.825   6.997   0.959
  569SOL     OW 2605   0.991   2.843   1.070
  569SOL    HW1 2606   1.056   2.768   1.057
  569SOL    HW2 2607   0.918   2.814   1.132
  570SOL     OW 2608   3.405   6.911   6.744
  570SOL    HW1 2609   3.311   6.887   6.719
  570SOL    HW2 2610   3.407   6.940   6.840
  571SOL     OW 2611   2.738   4.751   3.767
  571SOL    HW1 2612   2.690   4.827   3.722
  571SOL    HW2 2613   2.713   4.665   3.723
  572SOL     OW 2614   2.026   5.591   5.219
  572SOL    HW1 2615   2.064   5.552   5.304
  572SOL    HW2 2616   2.101   5.617   5.159
  573SOL     OW 2617   6.336   1.316   5.400
  573SOL    HW1 2618   6.304   1.239   5.344
  573SOL    HW2 2619   6.282   1.397   5.379
  574SOL     OW 2620   3.744   0.423   5.420
  574SOL    HW1 2621   3.647   0.447   5.428
  574SOL    HW2 2622   3.770   0.363   5.495
  575SOL     OW 2623   4.453   2.759   1.302
  575SOL    HW1 2624   4.377   2.801   1.251
  575SOL    HW2 2625   4.422   2.736   1.394
  576SOL     OW 2626   1.514   3.069   2.885
  576SOL    HW1 2627   1.596   3.116   2.918
  576SOL    HW2 2628   1.466   3.126   2.819
  577SOL     OW 2629   1.385   0.597   2.470
  577SOL    HW1 2630   1.306   0.538   2.483
  577SOL    HW2 2631   1.381   0.637   2.378
  578SOL     OW 2632   1.663   5.894   5.974
  578SOL    HW1 2633   1.596   5.822   5.954
  578SOL    HW2 2634   1.630   5.949   6.051
  579SOL     OW 2635   1.514   4.680   2.689
  579SOL    HW1 2636   1.517   4.612   2.616
  579SOL    HW2 2637   1.560   4.645   2.771
  580SOL     OW 2638   4.251   4.803   5.370
  580SOL    HW1 2639   4.328   4.794   5.307
  580SOL    HW2 2640   4.268   4.877   5.434
  581SOL     OW 2641   1.217   3.265   3.576
  581SOL    HW1 2642   1.117   3.255   3.569
  581SOL    HW2 2643   1.239   3.335   3.644
  582SOL     OW 2644   4.649   5.746   3.319
  582SOL    HW1 2645   4.673   5.709   3.408
  582SOL    HW2 2646   4.552   5.769   3.318
  583SOL     OW 2647   2.550   5.733   5.114
  583SOL    HW1 2648   2.571   5.709   5.019
  583SOL    HW2 2649   2.614   5.803   5.146
  584SOL     OW 2650   3.701   6.852   6.570
  584SOL    HW1 2651   3.621   6.869   6.629
  584SOL    HW2 2652   3.719   6.754   6.567
  585SOL     OW 2653   4.234   0.453   1.252
  585SOL    HW1 2654   4.168   0.468   1.179
  585SOL    HW2 2655   4.195   0.481   1.340
  586SOL     OW 2656   3.540   0.450   1.105
  586SOL    HW1 2657   3.611   0.464   1.174
  586SOL    HW2 2658   3.581   0.418   1.020
  587SOL     OW 2659   5.176   2.123   2.513
  587SOL    HW1 2660   5.190   2.182   2.592
  587SOL    HW2 2661   5.084   2.135   2.477
  588SOL     OW 2662   1.721   5.125   0.710
  588SOL    HW1 2663   1.714   5.120   0.810
  588SOL    HW2 2664   1.770   5.208   0.684
  589SOL     OW 2665   3.499   5.591   1.620
  589SOL    HW1 2666   3.482   5.516   1.684
  589SOL    HW2 2667   3.597   5.601   1.605
  590SOL     OW 2668   5.529   1.237   0.894
  590SOL    HW1 2669   5.586   1.309   0.933
  590SOL    HW2 2670   5.443   1.232   0.944
  591SOL     OW 2671   3.905   6.187   3.541
  591SOL    HW1 2672   3.885   6.097   3.503
  591SOL    HW2 2673   3.874   6.257   3.477
  592SOL     OW 2674   4.410   0.241   3.322
  592SOL    HW1 2675   4.457   0.314   3.271
  592SOL    HW2 2676   4.344   0.197   3.262
  593SOL     OW 2677   4.718   2.216   4.849
  593SOL    HW1 2678   4.644   2.151   4.866
  593SOL    HW2 2679   4.703   2.299   4.903
  594SOL     OW 2680   6.276   1.399   0.738
  594SOL    HW1 2681   6.246   1.321   0.682
  594SOL    HW2 2682   6.376   1.397   0.746
  595SOL     OW 2683   5.957   6.852   3.194
  595SOL    HW1 2684   5.928   6.759   3.168
  595SOL    HW2 2685   5.886   6.893   3.251
  596SOL     OW 2686   6.952   5.068   3.202
  596SOL    HW1 2687   6.858   5.043   3.223
  596SOL    HW2 2688   7.002   4.987   3.172
  597SOL     OW 2689   2.496   6.569   6.052
  597SOL    HW1 2690   2.498   6.645   5.987
  597SOL    HW2 2691   2.460   6.487   6.007
  598SOL     OW 2692   3.297   4.127   5.092
  598SOL    HW1 2693   3.383   4.174   5.074
  598SOL    HW2 2694   3.276   4.064   5.017
  599SOL     OW 2695   2.155   5.743   2.685
  599SOL    HW1 2696   2.120   5.663   2.733
  599SOL    HW2 2697   2.196   5.806   2.752
  600SOL     OW 2698   6.830   3.343   6.220
  600SOL    HW1 2699   6.734   3.316   6.225
  600SOL    HW2 2700   6.837   3.443   6.218
  601SOL     OW 2701   1.298   1.570   4.504
  601SOL    HW1 2702   1.338   1.513   4.433
  601SOL    HW2 2703   1.335   1.663   4.497
  602SOL     OW 2704   2.915   0.629   5.990
  602SOL    HW1 2705   2.897   0.727   5.978
  602SOL    HW2 2706   2.935   0.588   5.901
  603SOL     OW 2707   1.911   2.088   5.247
  603SOL    HW1 2708   2.003   2.048   5.243
  603SOL    HW2 2709   1.883   2.098   5.342
  604SOL     OW 2710   0.868   2.210   1.606
  604SOL    HW1 2711   0.937   2.165   1.550
  604SOL    HW2 2712   0.826   2.144   1.668
  605SOL     OW 2713   6.851   4.606   1.616
  605SOL    HW1 2714   6.847   4.603   1.516
  605SOL    HW2 2715   6.946   4.614   1.646
  606SOL     OW 2716   4.811   6.427   5.827
  606SOL    HW1 2717   4.848   6.494   5.763
  606SOL    HW2 2718   4.858   6.434   5.915
  607SOL     OW 2719   0.158   4.981   5.346
  607SOL    HW1 2720   0.095   4.920   5.394
  607SOL    HW2 2721   0.242   4.931   5.321
  608SOL     OW 2722   3.933   6.668   6.744
  608SOL    HW1 2723   4.000   6.714   6.686
  608SOL    HW2 2724   3.859   6.632   6.687
  609SOL     OW 2725   3.711   2.619   1.786
  609SOL    HW1 2726   3.626   2.669   1.800
  609SOL    HW2 2727   3.705   2.529   1.830
  610SOL     OW 2728   4.783   2.143   0.324
  610SOL    HW1 2729   4.811   2.238   0.311
  610SOL    HW2 2730   4.715   2.138   0.398
  611SOL     OW 2731   3.340   0.012   2.430
  611SOL    HW1 2732   3.435   0.038   2.411
  611SOL    HW2 2733   3.319   0.028   2.526
  612SOL     OW 2734   2.915   5.821   4.904
  612SOL    HW1 2735   2.995   5.848   4.958
  612SOL    HW2 2736   2.945   5.789   4.814
  613SOL     OW 2737   5.319   4.599   4.924
  613SOL    HW1 2738   5.386   4.583   4.852
  613SOL    HW2 2739   5.309   4.515   4.979
  614SOL     OW 2740   5.768   5.398   4.567
  614SOL    HW1 2741   5.845   5.370   4.624
  614SOL    HW2 2742   5.689   5.417   4.626
  615SOL     OW 2743   6.867   2.102   1.563
  615SOL    HW1 2744   6.874   2.003   1.577
  615SOL    HW2 2745   6.933   2.130   1.493
  616SOL     OW 2746   6.468   2.331   2.629
  616SOL    HW1 2747   6.453   2.278   2.545
  616SOL    HW2 2748   6.379   2.362   2.664
  617SOL     OW 2749   1.298   4.885   6.004
  617SOL    HW1 2750   1.332   4.800   5.964
  617SOL    HW2 2751   1.249   4.865   6.089
  618SOL     OW 2752   1.456   2.425   1.160
  618SOL    HW1 2753   1.518   2.374   1.219
  618SOL    HW2 2754   1.485   2.521   1.156
  619SOL     OW 2755   1.827   1.956   0.592
  619SOL    HW1 2756   1.884   1.969   0.673
  619SOL    HW2 2757   1.786   2.044   0.566
  620SOL     OW 2758   4.337   2.001   0.321
  620SOL    HW1 2759   4.350   2.031   0.227
  620SOL    HW2 2760   4.403   2.047   0.381
  621SOL     OW 2761   4.556   5.174   6.681
  621SOL    HW1 2762   4.639   5.142   6.726
  621SOL    HW2 2763   4.496   5.219   6.748
  622SOL     OW 2764   1.258   1.181   6.822
  622SOL    HW1 2765   1.276   1.167   6.920
  622SOL    HW2 2766   1.240   1.278   6.805
  623SOL     OW 2767   0.705   6.144   5.922
  623SOL    HW1 2768   0.716   6.049   5.895
  623SOL    HW2 2769   0.731   6.204   5.846
  624SOL     OW 2770   0.727   2.542   1.774
  624SOL    HW1 2771   0.797   2.603   1.811
  624SOL    HW2 2772   0.639   2.589   1.773
  625SOL     OW 2773   2.605   2.248   1.186
  625SOL    HW1 2774   2.525   2.210   1.232
  625SOL    HW2 2775   2.674   2.274   1.253
  626SOL     OW 2776   2.748   5.461   3.550
  626SOL    HW1 2777   2.825   5.464   3.613
  626SOL    HW2 2778   2.692   5.543   3.562
  627SOL     OW 2779   5.076   0.338   1.137
  627SOL    HW1 2780   5.072   0.278   1.217
  627SOL    HW2 2781   5.107   0.286   1.057
  628SOL     OW 2782   4.641   4.730   4.900
  628SOL    HW1 2783   4.568   4.662   4.902
  628SOL    HW2 2784   4.706   4.711   4.973
  629SOL     OW 2785   0.222   0.163   0.941
  629SOL    HW1 2786   0.318   0.179   0.964
  629SOL    HW2 2787   0.175   0.126   1.021
  630SOL     OW 2788   5.429   1.991   2.819
  630SOL    HW1 2789   5.468   2.079   2.794
  630SOL    HW2 2790   5.343   1.977   2.771
  631SOL     OW 2791   3.341   0.226   5.585
  631SOL    HW1 2792   3.285   0.236   5.503
  631SOL    HW2 2793   3.397   0.144   5.578
  632SOL     OW 2794   2.798   1.505   0.377
  632SOL    HW1 2795   2.857   1.429   0.402
  632SOL    HW2 2796   2.850   1.570   0.321
  633SOL     OW 2797   3.947   5.086   0.078
  633SOL    HW1 2798   3.995   5.170   0.100
  633SOL    HW2 2799   3.945   5.073   7.007
  634SOL     OW 2800   4.256   4.517   1.764
  634SOL    HW1 2801   4.268   4.420   1.743
  634SOL    HW2 2802   4.204   4.561   1.690
  635SOL     OW 2803   4.788   6.680   2.803
  635SOL    HW1 2804   4.845   6.760   2.821
  635SOL    HW2 2805   4.692   6.703   2.817
  636SOL     OW 2806   5.366   5.651   6.095
  636SOL    HW1 2807   5.314   5.582   6.145
  636SOL    HW2 2808   5.424   5.606   6.027
  637SOL     OW 2809   5.272   4.384   1.602
  637SOL    HW1 2810   5.226   4.383   1.691
  637SOL    HW2 2811   5.360   4.336   1.609
  638SOL     OW 2812   5.197   1.309   2.476
  638SOL    HW1 2813   5.187   1.408   2.467
  638SOL    HW2 2814   5.293   1.286   2.492
  639SOL     OW 2815   5.136   4.332   1.824
  639SOL    HW1 2816   5.052   4.343   1.876
  639SOL    HW2 2817   5.155   4.235   1.812
  640SOL     OW 2818   2.253   4.945   5.260
  640SOL    HW1 2819   2.206   5.026   5.226
  640SOL    HW2 2820   2.210   4.913   5.345
  641SOL     OW 2821   0.520   5.727   4.896
  641SOL    HW1 2822   0.427   5.725   4.861
  641SOL    HW2 2823   0.572   5.798   4.849
  642SOL     OW 2824   0.104   4.022   4.082
  642SOL    HW1 2825   0.128   3.972   4.165
  642SOL    HW2 2826   0.184   4.069   4.046
  643SOL     OW 2827   5.816   5.069   5.103
  643SOL    HW1 2828   5.775   5.007   5.036
  643SOL    HW2 2829   5.913   5.047   5.114
  644SOL     OW 2830   0.858   5.479   2.616
  644SOL    HW1 2831   0.779   5.432   2.655
  644SOL    HW2 2832   0.918   5.413   2.571
  645SOL     OW 2833   5.129   2.611   4.151
  645SOL    HW1 2834   5.091   2.666   4.226
  645SOL    HW2 2835   5.156   2.672   4.076
  646SOL     OW 2836   2.457   2.275   3.195
  646SOL    HW1 2837   2.377   2.304   3.248
  646SOL    HW2 2838   2.432   2.263   3.099
  647SOL     OW 2839   5.859   2.546   5.912
  647SOL    HW1 2840   5.810   2.508   5.990
  647SOL    HW2 2841   5.957   2.543   5.930
  648SOL     OW 2842   6.040   3.587   2.627
  648SOL    HW1 2843   6.014   3.528   2.550
  648SOL    HW2 2844   5.997   3.677   2.615
  649SOL     OW 2845   4.320   4.204   0.276
  649SOL    HW1 2846   4.265   4.274   0.321
  649SOL    HW2 2847   4.268   4.161   0.203
  650SOL     OW 2848   4.799   4.568   0.181
  650SOL    HW1 2849   4.749   4.568   0.094
  650SOL    HW2 2850   4.758   4.502   0.244
  651SOL     OW 2851   0.944   6.667   0.153
  651SOL    HW1 2852   0.862   6.609   0.153
  651SOL    HW2 2853   0.923   6.754   0.198
  652SOL     OW 2854   4.875   6.324   3.326
  652SOL    HW1 2855   4.835   6.400   3.376
  652SOL    HW2 2856   4.814   6.246   3.328
  653SOL     OW 2857   3.655   5.216   5.773
  653SOL    HW1 2858   3.630   5.312   5.771
  653SOL    HW2 2859   3.676   5.185   5.680
  654SOL     OW 2860   6.772   4.375   6.190
  654SOL    HW1 2861   6.815   4.462   6.168
  654SOL    HW2 2862   6.676   4.377   6.161
  655SOL     OW 2863   0.488   6.874   2.110
  655SOL    HW1 2864   0.489   6.932   2.192
  655SOL    HW2 2865   0.574   6.883   2.062
  656SOL     OW 2866   2.266   5.556   1.339
  656SOL    HW1 2867   2.191   5.592   1.394
  656SOL    HW2 2868   2.229   5.498   1.266
  657SOL     OW 2869   2.029   1.721   1.698
  657SOL    HW1 2870   2.112   1.666   1.706
  657SOL    HW2 2871   1.999   1.751   1.788
  658SOL     OW 2872   3.254   3.060   6.120
  658SOL    HW1 2873   3.303   3.112   6.050
  658SOL    HW2 2874   3.239   2.966   6.088
  659SOL     OW 2875   3.269   6.363   6.530
  659SOL    HW1 2876   3.360   6.344   6.494
  659SOL    HW2 2877   3.274   6.369   6.630
  660SOL     OW 2878   4.434   5.194   1.621
  660SOL    HW1 2879   4.425   5.116   1.683
  660SOL    HW2 2880   4.402   5.276   1.668
  661SOL     OW 2881   4.508   6.579   3.682
  661SOL    HW1 2882   4.554   6.537   3.760
  661SOL    HW2 2883   4.420   6.534   3.667
  662SOL     OW 2884   3.821   0.840   5.341
  662SOL    HW1 2885   3.727   0.863   5.363
  662SOL    HW2 2886   3.875   0.834   5.425
  663SOL     OW 2887   2.621   3.897   5.942
  663SOL    HW1 2888   2.636   3.802   5.966
  663SOL    HW2 2889   2.527   3.909   5.912
  664SOL     OW 2890   0.422   6.244   5.895
  664SOL    HW1 2891   0.521   6.236   5.906
  664SOL    HW2 2892   0.402   6.293   5.810
  665SOL     OW 2893   4.145   5.522   2.418
  665SOL    HW1 2894   4.079   5.558   2.483
  665SOL    HW2 2895   4.097   5.473   2.346
  666SOL     OW 2896   4.630   0.786   1.607
  666SOL    HW1 2897   4.723   0.822   1.612
  666SOL    HW2 2898   4.633   0.686   1.614
  667SOL     OW 2899   0.998   5.309   2.447
  667SOL    HW1 2900   1.093   5.337   2.440
  667SOL    HW2 2901   0.952   5.325   2.359
  668SOL     OW 2902   5.233   6.228   5.740
  668SOL    HW1 2903   5.211   6.150   5.682
  668SOL    HW2 2904   5.324   6.214   5.781
  669SOL     OW 2905   6.192   0.657   3.641
  669SOL    HW1 2906   6.103   0.612   3.646
  669SOL    HW2 2907   6.264   0.592   3.666
  670SOL     OW 2908   2.507   2.084   2.181
  670SOL    HW1 2909   2.504   1.986   2.200
  670SOL    HW2 2910   2.560   2.100   2.097
  671SOL     OW 2911   3.189   5.976   0.909
  671SOL    HW1 2912   3.104   5.967   0.857
  671SOL    HW2 2913   3.233   5.886   0.914
  672SOL     OW 2914   6.668   5.460   2.256
  672SOL    HW1 2915   6.713   5.437   2.170
  672SOL    HW2 2916   6.613   5.542   2.245
  673SOL     OW 2917   6.209   6.824   1.165
  673SOL    HW1 2918   6.166   6.806   1.253
  673SOL    HW2 2919   6.304   6.852   1.179
  674SOL     OW 2920   0.612   1.211   4.481
  674SOL    HW1 2921   0.624   1.201   4.580
  674SOL    HW2 2922   0.654   1.132   4.435
  675SOL     OW 2923   5.499   2.260   2.848
  675SOL    HW1 2924   5.537   2.319   2.919
  675SOL    HW2 2925   5.542   2.281   2.760
  676SOL     OW 2926   2.499   5.006   4.403
  676SOL    HW1 2927   2.513   4.960   4.315
  676SOL    HW2 2928   2.497   4.939   4.476
  677SOL     OW 2929   4.858   1.049   1.046
  677SOL    HW1 2930   4.891   0.958   1.072
  677SOL    HW2 2931   4.890   1.071   0.954
  678SOL     OW 2932   2.673   5.621   4.909
  678SOL    HW1 2933   2.743   5.682   4.873
  678SOL    HW2 2934   2.608   5.598   4.836
  679SOL     OW 2935   4.948   1.465   4.550
  679SOL    HW1 2936   4.941   1.521   4.632
  679SOL    HW2 2937   5.044   1.443   4.532
  680SOL     OW 2938   4.404   5.941   4.325
  680SOL    HW1 2939   4.468   5.891   4.266
  680SOL    HW2 2940   4.447   5.957   4.414
  681SOL     OW 2941   4.542   5.921   1.913
  681SOL    HW1 2942   4.639   5.929   1.890
  681SOL    HW2 2943   4.487   5.968   1.845
  682SOL     OW 2944   5.912   1.484   2.229
  682SOL    HW1 2945   5.857   1.520   2.153
  682SOL    HW2 2946   5.933   1.558   2.293
  683SOL     OW 2947   4.526   2.748   0.657
  683SOL    HW1 2948   4.620   2.742   0.623
  683SOL    HW2 2949   4.527   2.750   0.757
  684SOL     OW 2950   6.546   0.897   0.350
  684SOL    HW1 2951   6.611   0.840   0.299
  684SOL    HW2 2952   6.537   0.861   0.443
  685SOL     OW 2953   3.340   2.129   4.157
  685SOL    HW1 2954   3.398   2.103   4.234
  685SOL    HW2 2955   3.344   2.228   4.143
  686SOL     OW 2956   4.591   1.846   4.375
  686SOL    HW1 2957   4.652   1.879   4.303
  686SOL    HW2 2958   4.610   1.895   4.460
  687SOL     OW 2959   1.072   1.997   4.271
  687SOL    HW1 2960   1.015   2.038   4.200
  687SOL    HW2 2961   1.048   2.035   4.360
  688SOL     OW 2962   6.827   1.444   6.390
  688SOL    HW1 2963   6.879   1.407   6.468
  688SOL    HW2 2964   6.732   1.456   6.416
  689SOL     OW 2965   1.516   4.497   6.130
  689SOL    HW1 2966   1.528   4.409   6.084
  689SOL    HW2 2967   1.585   4.562   6.098
  690SOL     OW 2968   0.122   3.783   3.286
  690SOL    HW1 2969   0.153   3.688   3.282
  690SOL    HW2 2970   0.022   3.786   3.281
  691SOL     OW 2971   3.509   1.596   0.681
  691SOL    HW1 2972   3.487   1.505   0.645
  691SOL    HW2 2973   3.609   1.607   0.683
  692SOL     OW 2974   4.447   2.049   4.840
  692SOL    HW1 2975   4.464   2.146   4.859
  692SOL    HW2 2976   4.348   2.035   4.828
  693SOL     OW 2977   4.779   6.853   4.228
  693SOL    HW1 2978   4.686   6.816   4.231
  693SOL    HW2 2979   4.775   6.950   4.202
  694SOL     OW 2980   4.167   6.221   4.947
  694SOL    HW1 2981   4.141   6.293   4.883
  694SOL    HW2 2982   4.101   6.218   5.022
  695SOL     OW 2983   3.723   6.318   4.317
  695SOL    HW1 2984   3.777   6.252   4.369
  695SOL    HW2 2985   3.782   6.394   4.288
  696SOL     OW 2986   4.930   4.590   3.553
  696SOL    HW1 2987   5.013   4.621   3.598
  696SOL    HW2 2988   4.854   4.590   3.619
  697SOL     OW 2989   1.741   3.404   2.271
  697SOL    HW1 2990   1.814   3.339   2.251
  697SOL    HW2 2991   1.774   3.497   2.256
  698SOL     OW 2992   5.507   6.359   0.842
  698SOL    HW1 2993   5.442   6.340   0.769
  698SOL    HW2 2994   5.551   6.448   0.825
  699SOL     OW 2995   1.577   3.270   6.538
  699SOL    HW1 2996   1.642   3.194   6.534
  699SOL    HW2 2997   1.609   3.344   6.479
  700SOL     OW 2998   3.211   6.788   1.822
  700SOL    HW1 2999   3.256   6.872   1.793
  700SOL    HW2 3000   3.235   6.714   1.758
  701SOL     OW 3001   0.037   4.309   6.966
  701SOL    HW1 3002   0.008   4.341   6.876
  701SOL    HW2 3003   0.133   4.281   6.962
  702SOL     OW 3004   2.120   6.760   4.499
  702SOL    HW1 3005   2.133   6.841   4.442
  702SOL    HW2 3006   2.071   6.691   4.446
  703SOL     OW 3007   3.433   2.933   5.334
  703SOL    HW1 3008   3.490   2.887   5.266
  703SOL    HW2 3009   3.409   3.025   5.301
  704SOL     OW 3010   1.712   2.594   6.295
  704SOL    HW1 3011   1.793   2.648   6.320
  704SOL    HW2 3012   1.656   2.646   6.231
  705SOL     OW 3013   6.323   5.589   3.268
  705SOL    HW1 3014   6.340   5.687   3.280
  705SOL    HW2 3015   6.224   5.573   3.266
  706SOL     OW 3016   4.443   2.120   5.512
  706SOL    HW1 3017   4.518   2.182   5.534
  706SOL    HW2 3018   4.386   2.108   5.593
  707SOL     OW 3019   3.996   4.871   2.966
  707SOL    HW1 3020   4.088   4.838   2.941
  707SOL    HW2 3021   3.995   4.971   2.965
  708SOL     OW 3022   2.681   1.401   2.952
  708SOL    HW1 3023   2.646   1.307   2.958
  708SOL    HW2 3024   2.729   1.423   3.037
  709SOL     OW 3025   1.476   5.901   0.815
  709SOL    HW1 3026   1.434   5.894   0.724
  709SOL    HW2 3027   1.417   5.955   0.875
  710SOL     OW 3028   4.857   2.084   1.749
  710SOL    HW1 3029   4.864   2.001   1.694
  710SOL    HW2 3030   4.764   2.093   1.784
  711SOL     OW 3031   0.043   2.639   6.368
  711SOL    HW1 3032   0.126   2.687   6.394
  711SOL    HW2 3033   6.992   2.694   6.395
  712SOL     OW 3034   4.635   2.270   0.675
  712SOL    HW1 3035   4.615   2.206   0.749
  712SOL    HW2 3036   4.733   2.291   0.676
  713SOL     OW 3037   4.297   3.193   5.444
  713SOL    HW1 3038   4.315   3.287   5.416
  713SOL    HW2 3039   4.202   3.170   5.424
  714SOL     OW 3040   6.907   5.332   3.631
  714SOL    HW1 3041   6.969   5.290   3.697
  714SOL    HW2 3042   6.868   5.416   3.669
  715SOL     OW 3043   5.617   5.630   6.400
  715SOL    HW1 3044   5.579   5.556   6.344
  715SOL    HW2 3045   5.585   5.620   6.494
  716SOL     OW 3046   1.282   1.389   2.766
  716SOL    HW1 3047   1.344   1.408   2.689
  716SOL    HW2 3048   1.334   1.393   2.852
  717SOL     OW 3049   6.637   4.924   4.429
  717SOL    HW1 3050   6.612   4.832   4.400
  717SOL    HW2 3051   6.612   4.990   4.357
  718SOL     OW 3052   4.923   2.734   4.895
  718SOL    HW1 3053   4.927   2.740   4.796
  718SOL    HW2 3054   4.962   2.647   4.925
  719SOL     OW 3055   5.724   0.223   2.958
  719SOL    HW1 3056   5.705   0.257   2.866
  719SOL    HW2 3057   5.747   0.125   2.952
  720SOL     OW 3058   1.940   0.427   6.001
  720SOL    HW1 3059   1.888   0.356   5.953
  720SOL    HW2 3060   2.035   0.398   6.010
  721SOL     OW 3061   1.884   0.983   2.078
  721SOL    HW1 3062   1.875   0.901   2.021
  721SOL    HW2 3063   1.981   1.007   2.087
  722SOL     OW 3064   3.184   1.115   5.149
  722SOL    HW1 3065   3.223   1.150   5.234
  722SOL    HW2 3066   3.168   1.190   5.085
  723SOL     OW 3067   1.929   5.423   3.684
  723SOL    HW1 3068   1.969   5.372   3.607
  723SOL    HW2 3069   2.002   5.457   3.742
  724SOL     OW 3070   0.362   1.376   3.682
  724SOL    HW1 3071   0.343   1.422   3.595
  724SOL    HW2 3072   0.359   1.442   3.757
  725SOL     OW 3073   2.001   4.811   2.351
  725SOL    HW1 3074   1.934   4.749   2.392
  725SOL    HW2 3075   1.952   4.883   2.301
  726SOL     OW 3076   2.530   5.053   1.117
  726SOL    HW1 3077   2.476   5.135   1.094
  726SOL    HW2 3078   2.595   5.035   1.044
  727SOL     OW 3079   4.787   4.621   6.278
  727SOL    HW1 3080   4.781   4.678   6.195
  727SOL    HW2 3081   4.704   4.566   6.286
  728SOL     OW 3082   6.754   3.561   4.500
  728SOL    HW1 3083   6.837   3.613   4.521
  728SOL    HW2 3084   6.770   3.505   4.418
  729SOL     OW 3085   0.495   3.011   0.972
  729SOL    HW1 3086   0.541   2.933   0.930
  729SOL    HW2 3087   0.398   3.008   0.949
  730SOL     OW 3088   6.043   0.359   4.050
  730SOL    HW1 3089   6.118   0.293   4.050
  730SOL    HW2 3090   5.957   0.312   4.030
  731SOL     OW 3091   5.074   5.106   0.021
  731SOL    HW1 3092   5.014   5.176   0.059
  731SOL    HW2 3093   5.031   5.016   0.029
  732SOL     OW 3094   6.047   2.643   2.565
  732SOL    HW1 3095   5.992   2.694   2.631
  732SOL    HW2 3096   6.024   2.673   2.473
  733SOL     OW 3097   5.974   0.264   4.791
  733SOL    HW1 3098   5.906   0.204   4.835
  733SOL    HW2 3099   5.927   0.335   4.740
  734SOL     OW 3100   6.226   5.294   3.102
  734SOL    HW1 3101   6.311   5.319   3.150
  734SOL    HW2 3102   6.240   5.210   3.050
  735SOL     OW 3103   4.228   1.278   0.388
  735SOL    HW1 3104   4.291   1.261   0.312
  735SOL    HW2 3105   4.136   1.296   0.351
  736SOL     OW 3106   1.597   1.447   3.847
  736SOL    HW1 3107   1.522   1.390   3.881
  736SOL    HW2 3108   1.673   1.389   3.818
  737SOL     OW 3109   5.696   1.820   6.331
  737SOL    HW1 3110   5.618   1.765   6.299
  737SOL    HW2 3111   5.664   1.912   6.355
  738SOL     OW 3112   2.514   3.906   1.643
  738SOL    HW1 3113   2.591   3.843   1.638
  738SOL    HW2 3114   2.439   3.863   1.693
  739SOL     OW 3115   3.593   0.636   4.918
  739SOL    HW1 3116   3.662   0.703   4.889
  739SOL    HW2 3117   3.638   0.562   4.968
  740SOL     OW 3118   5.819   1.594   2.995
  740SOL    HW1 3119   5.794   1.691   2.988
  740SOL    HW2 3120   5.857   1.563   2.907
  741SOL     OW 3121   2.137   0.515   3.887
  741SOL    HW1 3122   2.048   0.474   3.866
  741SOL    HW2 3123   2.177   0.554   3.804
  742SOL     OW 3124   2.345   5.915   1.656
  742SOL    HW1 3125   2.355   5.995   1.597
  742SOL    HW2 3126   2.435   5.883   1.685
  743SOL     OW 3127   0.225   5.971   3.195
  743SOL    HW1 3128   0.195   5.881   3.163
  743SOL    HW2 3129   0.307   5.998   3.145
  744SOL     OW 3130   6.203   1.177   0.581
  744SOL    HW1 3131   6.117   1.186   0.529
  744SOL    HW2 3132   6.195   1.102   0.646
  745SOL     OW 3133   1.894   5.878   5.314
  745SOL    HW1 3134   1.973   5.880   5.252
  745SOL    HW2 3135   1.913   5.815   5.389
  746SOL     OW 3136   5.649   4.263   5.784
  746SOL    HW1 3137   5.684   4.169   5.792
  746SOL    HW2 3138   5.549   4.261   5.781
  747SOL     OW 3139   4.174   5.651   4.823
  747SOL    HW1 3140   4.209   5.575   4.878
  747SOL    HW2 3141   4.088   5.623   4.780
  748SOL     OW 3142   4.518   5.548   2.209
  748SOL    HW1 3143   4.502   5.575   2.304
  748SOL    HW2 3144   4.614   5.563   2.186
  749SOL     OW 3145   5.994   3.717   4.069
  749SOL    HW1 3146   6.049   3.800   4.056
  749SOL    HW2 3147   5.929   3.731   4.143
  750SOL     OW 3148   2.329   0.846   0.775
  750SOL    HW1 3149   2.268   0.925   0.770
  750SOL    HW2 3150   2.303   0.788   0.853
  751SOL     OW 3151   4.246   1.304   0.904
  751SOL    HW1 3152   4.247   1.313   0.805
  751SOL    HW2 3153   4.322   1.355   0.943
  752SOL     OW 3154   3.197   2.406   0.046
  752SOL    HW1 3155   3.225   2.370   6.985
  752SOL    HW2 3156   3.101   2.383   0.062
  753SOL     OW 3157   2.165   3.505   6.039
  753SOL    HW1 3158   2.088   3.553   5.996
  753SOL    HW2 3159   2.195   3.430   5.979
  754SOL     OW 3160   4.176   1.033   0.212
  754SOL    HW1 3161   4.101   1.098   0.230
  754SOL    HW2 3162   4.263   1.082   0.212
  755SOL     OW 3163   2.940   4.896   5.588
  755SOL    HW1 3164   2.976   4.860   5.674
  755SOL    HW2 3165   2.964   4.834   5.513
  756SOL     OW 3166   3.337   4.636   6.949
  756SOL    HW1 3167   3.288   4.723   6.952
  756SOL    HW2 3168   3.305   4.582   6.872
  757SOL     OW 3169   2.203   6.076   2.701
  757SOL    HW1 3170   2.299   6.051   2.715
  757SOL    HW2 3171   2.198   6.168   2.661
  758SOL     OW 3172   4.330   0.943   4.064
  758SOL    HW1 3173   4.335   0.904   4.155
  758SOL    HW2 3174   4.421   0.968   4.032
  759SOL     OW 3175   6.630   3.288   2.379
  759SOL    HW1 3176   6.620   3.328   2.288
  759SOL    HW2 3177   6.563   3.328   2.440
  760SOL     OW 3178   6.224   6.655   4.118
  760SOL    HW1 3179   6.266   6.566   4.138
  760SOL    HW2 3180   6.266   6.694   4.036
  761SOL     OW 3181   5.917   4.668   6.169
  761SOL    HW1 3182   6.015   4.658   6.185
  761SOL    HW2 3183   5.893   4.630   6.080
  762SOL     OW 3184   2.628   6.970   5.611
  762SOL    HW1 3185   2.699   6.914   5.653
  762SOL    HW2 3186   2.654   6.992   5.517
  763SOL     OW 3187   4.793   6.511   6.784
  763SOL    HW1 3188   4.790   6.546   6.690
  763SOL    HW2 3189   4.746   6.574   6.845
  764SOL     OW 3190   5.634   1.152   5.765
  764SOL    HW1 3191   5.601   1.232   5.814
  764SOL    HW2 3192   5.622   1.070   5.821
  765SOL     OW 3193   1.864   6.265   0.625
  765SOL    HW1 3194   1.864   6.255   0.525
  765SOL    HW2 3195   1.779   6.228   0.662
  766SOL     OW 3196   2.911   2.571   5.315
  766SOL    HW1 3197   2.875   2.506   5.247
  766SOL    HW2 3198   2.981   2.526   5.370
  767SOL     OW 3199   6.286   6.378   3.577
  767SOL    HW1 3200   6.303   6.475   3.594
  767SOL    HW2 3201   6.192   6.356   3.601
  768SOL     OW 3202   2.178   5.671   3.472
  768SOL    HW1 3203   2.208   5.585   3.513
  768SOL    HW2 3204   2.242   5.697   3.400
  769SOL     OW 3205   3.090   1.479   5.218
  769SOL    HW1 3206   3.148   1.448   5.142
  769SOL    HW2 3207   2.995   1.481   5.188
  770SOL     OW 3208   1.627   4.654   4.314
  770SOL    HW1 3209   1.692   4.602   4.258
  770SOL    HW2 3210   1.648   4.751   4.310
  771SOL     OW 3211   1.133   4.652   3.080
  771SOL    HW1 3212   1.196   4.729   3.077
  771SOL    HW2 3213   1.044   4.683   3.113
  772SOL     OW 3214   5.686   4.237   6.066
  772SOL    HW1 3215   5.641   4.223   5.978
  772SOL    HW2 3216   5.763   4.173   6.074
  773SOL     OW 3217   0.577   4.014   2.582
  773SOL    HW1 3218   0.577   3.936   2.519
  773SOL    HW2 3219   0.483   4.037   2.606
  774SOL     OW 3220   1.915   1.112   2.744
  774SOL    HW1 3221   1.857   1.193   2.741
  774SOL    HW2 3222   1.953   1.095   2.654
  775SOL     OW 3223   2.154   1.915   4.598
  775SOL    HW1 3224   2.152   2.003   4.550
  775SOL    HW2 3225   2.063   1.873   4.593
  776SOL     OW 3226   0.110   0.454   6.332
  776SOL    HW1 3227   0.153   0.364   6.326
  776SOL    HW2 3228   0.098   0.492   6.240
  777SOL     OW 3229   1.749   3.829   1.172
  777SOL    HW1 3230   1.708   3.743   1.144
  777SOL    HW2 3231   1.765   3.828   1.271
  778SOL     OW 3232   2.393   0.086   1.502
  778SOL    HW1 3233   2.335   0.005   1.494
  778SOL    HW2 3234   2.454   0.091   1.423
  779SOL     OW 3235   6.534   1.916   1.910
  779SOL    HW1 3236   6.633   1.930   1.914
  779SOL    HW2 3237   6.494   1.941   1.998
  780SOL     OW 3238   0.860   2.476   4.602
  780SOL    HW1 3239   0.960   2.476   4.613
  780SOL    HW2 3240   0.838   2.490   4.505
  781SOL     OW 3241   6.560   5.115   0.495
  781SOL    HW1 3242   6.494   5.136   0.423
  781SOL    HW2 3243   6.650   5.149   0.468
  782SOL     OW 3244   2.169   3.735   5.602
  782SOL    HW1 3245   2.224   3.771   5.527
  782SOL    HW2 3246   2.120   3.810   5.647
  783SOL     OW 3247   5.947   4.538   1.503
  783SOL    HW1 3248   6.009   4.561   1.428
  783SOL    HW2 3249   5.855   4.570   1.480
  784SOL     OW 3250   3.196   5.470   1.729
  784SOL    HW1 3251   3.228   5.509   1.815
  784SOL    HW2 3252   3.096   5.470   1.727
  785SOL     OW 3253   0.347   1.559   3.926
  785SOL    HW1 3254   0.304   1.619   3.858
  785SOL    HW2 3255   0.428   1.603   3.963
  786SOL     OW 3256   0.089   0.941   2.473
  786SOL    HW1 3257   0.100   0.952   2.572
  786SOL    HW2 3258   0.178   0.926   2.431
  787SOL     OW 3259   2.315   6.758   6.695
  787SOL    HW1 3260   2.265   6.813   6.628
  787SOL    HW2 3261   2.382   6.701   6.648
  788SOL     OW 3262   3.811   2.697   1.426
  788SOL    HW1 3263   3.800   2.601   1.453
  788SOL    HW2 3264   3.829   2.702   1.327
  789SOL     OW 3265   4.407   5.629   2.454
  789SOL    HW1 3266   4.329   5.569   2.466
  789SOL    HW2 3267   4.378   5.724   2.460
  790SOL     OW 3268   2.176   1.188   1.557
  790SOL    HW1 3269   2.080   1.201   1.531
  790SOL    HW2 3270   2.229   1.269   1.530
  791SOL     OW 3271   2.531   6.135   5.362
  791SOL    HW1 3272   2.463   6.111   5.432
  791SOL    HW2 3273   2.511   6.227   5.327
  792SOL     OW 3274   0.538   1.112   1.791
  792SOL    HW1 3275   0.568   1.029   1.745
  792SOL    HW2 3276   0.573   1.192   1.743
  793SOL     OW 3277   5.046   5.869   5.014
  793SOL    HW1 3278   5.081   5.776   5.005
  793SOL    HW2 3279   4.948   5.870   4.995
  794SOL     OW 3280   3.523   3.666   5.743
  794SOL    HW1 3281   3.530   3.750   5.690
  794SOL    HW2 3282   3.456   3.605   5.699
  795SOL     OW 3283   3.838   0.493   5.908
  795SOL    HW1 3284   3.790   0.563   5.855
  795SOL    HW2 3285   3.935   0.515   5.913
  796SOL     OW 3286   1.733   2.995   0.445
  796SOL    HW1 3287   1.829   2.970   0.449
  796SOL    HW2 3288   1.676   2.914   0.460
  797SOL     OW 3289   4.400   0.300   0.543
  797SOL    HW1 3290   4.369   0.228   0.481
  797SOL    HW2 3291   4.492   0.329   0.517
  798SOL     OW 3292   2.869   6.595   1.426
  798SOL    HW1 3293   2.784   6.590   1.374
  798SOL    HW2 3294   2.869   6.526   1.498
  799SOL     OW 3295   0.091   1.636   6.427
  799SOL    HW1 3296   0.155   1.639   6.504
  799SOL    HW2 3297   0.114   1.558   6.368
  800SOL     OW 3298   6.650   1.912   2.512
  800SOL    HW1 3299   6.741   1.932   2.547
  800SOL    HW2 3300   6.651   1.912   2.412
  801SOL     OW 3301   2.128   4.192   5.032
  801SOL    HW1 3302   2.138   4.241   5.119
  801SOL    HW2 3303   2.189   4.113   5.031
  802SOL     OW 3304   3.881   2.391   6.869
  802SOL    HW1 3305   3.819   2.321   6.904
  802SOL    HW2 3306   3.879   2.471   6.930
  803SOL     OW 3307   1.966   7.000   6.041
  803SOL    HW1 3308   1.970   0.044   5.971
  803SOL    HW2 3309   1.871   6.971   6.053
  804SOL     OW 3310   6.760   6.664   1.484
  804SOL    HW1 3311   6.852   6.637   1.513
  804SOL    HW2 3312   6.706   6.583   1.464
  805SOL     OW 3313   1.462   0.341   4.252
  805SOL    HW1 3314   1.545   0.368   4.300
  805SOL    HW2 3315   1.481   0.335   4.154
  806SOL     OW 3316   6.764   0.440   5.970
  806SOL    HW1 3317   6.670   0.463   5.994
  806SOL    HW2 3318   6.766   0.391   5.883
  807SOL     OW 3319   0.403   0.043   4.027
  807SOL    HW1 3320   0.326   0.028   3.965
  807SOL    HW2 3321   0.488   0.044   3.975
  808SOL     OW 3322   5.379   2.800   7.002
  808SOL    HW1 3323   5.441   2.728   6.970
  808SOL    HW2 3324   5.284   2.771   6.988
  809SOL     OW 3325   0.805   4.737   0.484
  809SOL    HW1 3326   0.729   4.795   0.458
  809SOL    HW2 3327   0.885   4.759   0.429
  810SOL     OW 3328   2.719   3.412   0.560
  810SOL    HW1 3329   2.799   3.463   0.530
  810SOL    HW2 3330   2.648   3.417   0.489
  811SOL     OW 3331   5.689   5.305   4.305
  811SOL    HW1 3332   5.635   5.385   4.277
  811SOL    HW2 3333   5.714   5.314   4.401
  812SOL     OW 3334   0.482   1.799   1.968
  812SOL    HW1 3335   0.497   1.890   2.005
  812SOL    HW2 3336   0.571   1.755   1.951
  813SOL     OW 3337   2.665   0.083   4.633
  813SOL    HW1 3338   2.727   0.051   4.562
  813SOL    HW2 3339   2.714   0.093   4.720
  814SOL     OW 3340   6.214   5.818   2.480
  814SOL    HW1 3341   6.229   5.887   2.552
  814SOL    HW2 3342   6.284   5.748   2.487
  815SOL     OW 3343   5.377   2.468   3.220
  815SOL    HW1 3344   5.406   2.546   3.276
  815SOL    HW2 3345   5.317   2.410   3.274
  816SOL     OW 3346   4.516   4.715   0.032
  816SOL    HW1 3347   4.518   4.807   7.021
  816SOL    HW2 3348   4.590   4.661   7.021
  817SOL     OW 3349   0.937   5.127   1.634
  817SOL    HW1 3350   0.921   5.081   1.721
  817SOL    HW2 3351   0.850   5.156   1.595
  818SOL     OW 3352   5.718   2.643   3.899
  818SOL    HW1 3353   5.783   2.624   3.973
  818SOL    HW2 3354   5.638   2.691   3.936
  819SOL     OW 3355   5.783   2.890   1.817
  819SOL    HW1 3356   5.685   2.907   1.827
  819SOL    HW2 3357   5.834   2.961   1.865
  820SOL     OW 3358   3.157   2.012   4.766
  820SOL    HW1 3359   3.243   2.059   4.745
  820SOL    HW2 3360   3.135   2.025   4.863
  821SOL     OW 3361   6.027   4.780   5.608
  821SOL    HW1 3362   5.996   4.738   5.693
  821SOL    HW2 3363   5.948   4.808   5.554
  822SOL     OW 3364   0.615   4.297   2.862
  822SOL    HW1 3365   0.665   4.255   2.787
  822SOL    HW2 3366   0.572   4.381   2.830
  823SOL     OW 3367   6.167   4.444   6.134
  823SOL    HW1 3368   6.158   4.397   6.046
  823SOL    HW2 3369   6.120   4.390   6.204
  824SOL     OW 3370   5.384   1.210   5.625
  824SOL    HW1 3371   5.298   1.257   5.607
  824SOL    HW2 3372   5.417   1.235   5.716
  825SOL     OW 3373   6.518   5.783   0.440
  825SOL    HW1 3374   6.488   5.767   0.346
  825SOL    HW2 3375   6.503   5.700   0.494
  826SOL     OW 3376   3.533   2.338   5.673
  826SOL    HW1 3377   3.499   2.389   5.595
  826SOL    HW2 3378   3.470   2.349   5.750
  827SOL     OW 3379   2.989   4.397   5.360
  827SOL    HW1 3380   2.931   4.422   5.438
  827SOL    HW2 3381   2.948   4.431   5.276
  828SOL     OW 3382   6.200   5.879   5.922
  828SOL    HW1 3383   6.297   5.855   5.912
  828SOL    HW2 3384   6.154   5.869   5.834
  829SOL     OW 3385   3.057   3.115   2.002
  829SOL    HW1 3386   3.072   3.056   2.081
  829SOL    HW2 3387   3.141   3.166   1.982
  830SOL     OW 3388   5.846   5.065   6.789
  830SOL    HW1 3389   5.876   5.010   6.711
  830SOL    HW2 3390   5.837   5.161   6.761
  831SOL     OW 3391   6.358   6.740   1.460
  831SOL    HW1 3392   6.390   6.833   1.446
  831SOL    HW2 3393   6.390   6.705   1.548
  832SOL     OW 3394   4.355   1.332   4.542
  832SOL    HW1 3395   4.451   1.347   4.518
  832SOL    HW2 3396   4.301   1.323   4.459
  833SOL     OW 3397   1.907   3.599   6.782
  833SOL    HW1 3398   1.910   3.549   6.696
  833SOL    HW2 3399   1.939   3.693   6.767
  834SOL     OW 3400   5.242   2.938   0.355
  834SOL    HW1 3401   5.172   2.996   0.312
  834SOL    HW2 3402   5.255   2.966   0.450
  835SOL     OW 3403   2.230   0.507   4.964
  835SOL    HW1 3404   2.284   0.557   5.032
  835SOL    HW2 3405   2.279   0.424   4.937
  836SOL     OW 3406   3.003   0.962   5.278
  836SOL    HW1 3407   3.071   1.024   5.238
  836SOL    HW2 3408   3.040   0.922   5.362
  837SOL     OW 3409   1.256   0.033   0.754
  837SOL    HW1 3410   1.189   0.063   0.685
  837SOL    HW2 3411   1.335   7.021   0.708
  838SOL     OW 3412   1.943   5.985   4.092
  838SOL    HW1 3413   1.928   5.930   4.174
  838SOL    HW2 3414   2.023   6.044   4.105
  839SOL     OW 3415   2.329   1.450   1.539
  839SOL    HW1 3416   2.408   1.474   1.483
  839SOL    HW2 3417   2.245   1.463   1.485
  840SOL     OW 3418   6.219   5.506   6.822
  840SOL    HW1 3419   6.198   5.441   6.749
  840SOL    HW2 3420   6.226   5.457   6.909
  841SOL     OW 3421   3.744   5.786   6.100
  841SOL    HW1 3422   3.777   5.753   6.189
  841SOL    HW2 3423   3.813   5.769   6.030
  842SOL     OW 3424   3.507   6.318   6.998
  842SOL    HW1 3425   3.470   6.349   0.057
  842SOL    HW2 3426   3.497   6.219   6.992
  843SOL     OW 3427   1.968   1.756   1.972
  843SOL    HW1 3428   1.965   1.856   1.963
  843SOL    HW2 3429   1.897   1.726   2.036
  844SOL     OW 3430   0.098   6.317   1.317
  844SOL    HW1 3431   0.163   6.335   1.244
  844SOL    HW2 3432   0.072   6.221   1.316
  845SOL     OW 3433   5.118   2.787   3.393
  845SOL    HW1 3434   5.094   2.712   3.455
  845SOL    HW2 3435   5.063   2.868   3.415
  846SOL     OW 3436   3.115   0.749   6.447
  846SOL    HW1 3437   3.081   0.766   6.540
  846SOL    HW2 3438   3.155   0.658   6.442
  847SOL     OW 3439   1.997   3.362   2.099
  847SOL    HW1 3440   2.066   3.431   2.078
  847SOL    HW2 3441   2.011   3.328   2.192
  848SOL     OW 3442   6.644   6.889   5.621
  848SOL    HW1 3443   6.714   6.925   5.558
  848SOL    HW2 3444   6.640   6.947   5.702
  849SOL     OW 3445   6.383   4.023   6.444
  849SOL    HW1 3446   6.338   4.112   6.437
  849SOL    HW2 3447   6.327   3.954   6.399
  850SOL     OW 3448   0.091   0.162   5.022
  850SOL    HW1 3449   0.107   0.260   5.035
  850SOL    HW2 3450   0.113   0.137   4.927
  851SOL     OW 3451   6.516   2.944   6.818
  851SOL    HW1 3452   6.614   2.963   6.813
  851SOL    HW2 3453   6.499   2.878   6.891
  852SOL     OW 3454   0.413   4.602   0.799
  852SOL    HW1 3455   0.356   4.562   0.871
  852SOL    HW2 3456   0.361   4.608   0.714
  853SOL     OW 3457   1.777   4.372   6.467
  853SOL    HW1 3458   1.845   4.301   6.482
  853SOL    HW2 3459   1.728   4.391   6.553
  854SOL     OW 3460   5.573   6.522   0.183
  854SOL    HW1 3461   5.642   6.508   0.254
  854SOL    HW2 3462   5.488   6.555   0.225
  855SOL     OW 3463   6.358   0.375   0.932
  855SOL    HW1 3464   6.321   0.461   0.969
  855SOL    HW2 3465   6.340   0.301   0.997
  856SOL     OW 3466   1.678   0.864   5.746
  856SOL    HW1 3467   1.688   0.783   5.689
  856SOL    HW2 3468   1.749   0.864   5.817
  857SOL     OW 3469   6.619   5.611   1.884
  857SOL    HW1 3470   6.633   5.519   1.848
  857SOL    HW2 3471   6.559   5.662   1.822
  858SOL     OW 3472   3.370   4.317   0.865
  858SOL    HW1 3473   3.339   4.344   0.957
  858SOL    HW2 3474   3.338   4.225   0.845
  859SOL     OW 3475   5.532   6.141   5.305
  859SOL    HW1 3476   5.495   6.069   5.363
  859SOL    HW2 3477   5.538   6.108   5.211
  860SOL     OW 3478   5.912   2.774   6.783
  860SOL    HW1 3479   5.834   2.809   6.731
  860SOL    HW2 3480   5.898   2.794   6.880
  861SOL     OW 3481   2.540   5.465   3.064
  861SOL    HW1 3482   2.541   5.513   3.152
  861SOL    HW2 3483   2.451   5.478   3.021
  862SOL     OW 3484   2.271   4.955   3.399
  862SOL    HW1 3485   2.260   4.889   3.473
  862SOL    HW2 3486   2.230   5.042   3.426
  863SOL     OW 3487   5.898   1.307   5.995
  863SOL    HW1 3488   5.949   1.321   5.910
  863SOL    HW2 3489   5.887   1.209   6.011
  864SOL     OW 3490   3.790   6.853   5.356
  864SOL    HW1 3491   3.808   6.951   5.356
  864SOL    HW2 3492   3.870   6.803   5.389
  865SOL     OW 3493   2.173   0.384   5.735
  865SOL    HW1 3494   2.185   0.481   5.714
  865SOL    HW2 3495   2.176   0.332   5.649
  866SOL     OW 3496   3.650   6.883   0.735
  866SOL    HW1 3497   3.679   6.803   0.788
  866SOL    HW2 3498   3.605   6.852   0.651
  867SOL     OW 3499   5.083   3.160   0.563
  867SOL    HW1 3500   5.154   3.091   0.578
  867SOL    HW2 3501   5.110   3.220   0.488
  868SOL     OW 3502   0.202   1.621   2.382
  868SOL    HW1 3503   0.231   1.705   2.337
  868SOL    HW2 3504   0.153   1.643   2.466
  869SOL     OW 3505   6.661   4.117   3.125
  869SOL    HW1 3506   6.678   4.195   3.065
  869SOL    HW2 3507   6.697   4.136   3.216
  870SOL     OW 3508   4.373   4.602   1.141
  870SOL    HW1 3509   4.408   4.556   1.222
  870SOL    HW2 3510   4.344   4.695   1.165
  871SOL     OW 3511   5.272   2.600   3.695
  871SOL    HW1 3512   5.364   2.605   3.656
  871SOL    HW2 3513   5.209   2.561   3.628
  872SOL     OW 3514   0.027   2.175   4.401
  872SOL    HW1 3515   0.116   2.198   4.361
  872SOL    HW2 3516   0.026   2.079   4.427
  873SOL     OW 3517   4.212   6.112   5.384
  873SOL    HW1 3518   4.173   6.145   5.470
  873SOL    HW2 3519   4.244   6.190   5.330
  874SOL     OW 3520   6.412   4.162   0.573
  874SOL    HW1 3521   6.319   4.195   0.552
  874SOL    HW2 3522   6.428   4.076   0.525
  875SOL     OW 3523   4.930   5.243   0.819
  875SOL    HW1 3524   4.881   5.237   0.732
  875SOL    HW2 3525   4.865   5.245   0.894
  876SOL     OW 3526   0.647   5.592   1.533
  876SOL    HW1 3527   0.651   5.545   1.621
  876SOL    HW2 3528   0.611   5.684   1.546
  877SOL     OW 3529   3.412   4.492   5.633
  877SOL    HW1 3530   3.425   4.420   5.701
  877SOL    HW2 3531   3.330   4.473   5.579
  878SOL     OW 3532   4.609   6.855   3.680
  878SOL    HW1 3533   4.686   6.882   3.737
  878SOL    HW2 3534   4.590   6.758   3.694
  879SOL     OW 3535   3.679   0.446   1.735
  879SOL    HW1 3536   3.644   0.538   1.717
  879SOL    HW2 3537   3.636   0.382   1.671
  880SOL     OW 3538   3.493   3.583   3.801
  880SOL    HW1 3539   3.539   3.586   3.713
  880SOL    HW2 3540   3.486   3.676   3.838
  881SOL     OW 3541   5.265   3.015   4.761
  881SOL    HW1 3542   5.215   3.055   4.685
  881SOL    HW2 3543   5.201   2.987   4.833
  882SOL     OW 3544   0.886   3.432   4.049
  882SOL    HW1 3545   0.921   3.339   4.038
  882SOL    HW2 3546   0.859   3.446   4.144
  883SOL     OW 3547   3.049   0.768   1.490
  883SOL    HW1 3548   3.129   0.724   1.531
  883SOL    HW2 3549   3.029   0.853   1.540
  884SOL     OW 3550   6.026   3.703   5.504
  884SOL    HW1 3551   6.033   3.618   5.451
  884SOL    HW2 3552   5.932   3.714   5.537
  885SOL     OW 3553   3.225   0.855   4.972
  885SOL    HW1 3554   3.213   0.938   5.025
  885SOL    HW2 3555   3.188   0.868   4.880
  886SOL     OW 3556   3.366   6.957   7.017
  886SOL    HW1 3557   3.408   0.008   0.032
  886SOL    HW2 3558   3.373   6.878   0.049
  887SOL     OW 3559   3.872   6.731   3.512
  887SOL    HW1 3560   3.841   6.728   3.607
  887SOL    HW2 3561   3.970   6.712   3.508
  888SOL     OW 3562   6.859   6.130   3.817
  888SOL    HW1 3563   6.841   6.036   3.789
  888SOL    HW2 3564   6.910   6.129   3.904
  889SOL     OW 3565   6.964   2.527   0.466
  889SOL    HW1 3566   0.026   2.569   0.473
  889SOL    HW2 3567   6.917   2.564   0.386
  890SOL     OW 3568   1.469   5.188   2.619
  890SOL    HW1 3569   1.460   5.191   2.719
  890SOL    HW2 3570   1.416   5.111   2.584
  891SOL     OW 3571   5.795   4.295   1.411
  891SOL    HW1 3572   5.699   4.275   1.429
  891SOL    HW2 3573   5.802   4.370   1.345
  892SOL     OW 3574   2.679   3.853   5.232
  892SOL    HW1 3575   2.753   3.898   5.181
  892SOL    HW2 3576   2.591   3.890   5.203
  893SOL     OW 3577   2.019   6.248   3.336
  893SOL    HW1 3578   2.116   6.233   3.319
  893SOL    HW2 3579   1.991   6.335   3.297
  894SOL     OW 3580   0.831   3.186   1.699
  894SOL    HW1 3581   0.916   3.211   1.746
  894SOL    HW2 3582   0.822   3.086   1.697
  895SOL     OW 3583   1.312   5.038   3.950
  895SOL    HW1 3584   1.263   5.007   4.032
  895SOL    HW2 3585   1.405   5.063   3.975
  896SOL     OW 3586   5.219   4.587   1.213
  896SOL    HW1 3587   5.127   4.609   1.180
  896SOL    HW2 3588   5.284   4.655   1.179
  897SOL     OW 3589   4.164   1.473   6.784
  897SOL    HW1 3590   4.233   1.451   6.853
  897SOL    HW2 3591   4.075   1.486   6.829
  898SOL     OW 3592   3.682   6.414   3.065
  898SOL    HW1 3593   3.592   6.416   3.110
  898SOL    HW2 3594   3.671   6.384   2.971
  899SOL     OW 3595   0.450   6.809   0.195
  899SOL    HW1 3596   0.419   6.772   0.107
  899SOL    HW2 3597   0.401   6.894   0.214
  900SOL     OW 3598   6.000   6.969   0.455
  900SOL    HW1 3599   6.058   6.888   0.465
  900SOL    HW2 3600   6.017   7.011   0.365
  901SOL     OW 3601   2.340   6.694   3.820
  901SOL    HW1 3602   2.316   6.791   3.816
  901SOL    HW2 3603   2.263   6.640   3.787
  902SOL     OW 3604   1.022   2.062   0.895
  902SOL    HW1 3605   1.022   2.155   0.857
  902SOL    HW2 3606   1.009   2.067   0.994
  903SOL     OW 3607   0.448   2.552   6.578
  903SOL    HW1 3608   0.373   2.615   6.560
  903SOL    HW2 3609   0.522   2.567   6.513
  904SOL     OW 3610   1.817   1.953   2.370
  904SOL    HW1 3611   1.730   1.925   2.328
  904SOL    HW2 3612   1.863   1.872   2.407
  905SOL     OW 3613   5.016   2.012   6.627
  905SOL    HW1 3614   5.003   2.110   6.614
  905SOL    HW2 3615   5.109   1.995   6.657
  906SOL     OW 3616   6.921   2.102   6.627
  906SOL    HW1 3617   6.947   2.013   6.589
  906SOL    HW2 3618   6.992   2.133   6.690
  907SOL     OW 3619   5.405   3.102   0.815
  907SOL    HW1 3620   5.491   3.054   0.797
  907SOL    HW2 3621   5.387   3.104   0.913
  908SOL     OW 3622   2.797   4.759   3.183
  908SOL    HW1 3623   2.743   4.826   3.131
  908SOL    HW2 3624   2.827   4.800   3.269
  909SOL     OW 3625   4.234   6.162   1.484
  909SOL    HW1 3626   4.222   6.165   1.385
  909SOL    HW2 3627   4.285   6.243   1.514
  910SOL     OW 3628   3.536   1.869   0.730
  910SOL    HW1 3629   3.523   1.772   0.712
  910SOL    HW2 3630   3.542   1.884   0.829
  911SOL     OW 3631   0.970   6.295   6.202
  911SOL    HW1 3632   0.940   6.386   6.176
  911SOL    HW2 3633   0.923   6.267   6.286
  912SOL     OW 3634   6.596   2.687   3.118
  912SOL    HW1 3635   6.677   2.743   3.102
  912SOL    HW2 3636   6.591   2.615   3.049
  913SOL     OW 3637   3.818   0.098   3.161
  913SOL    HW1 3638   3.857   0.032   3.097
  913SOL    HW2 3639   3.882   0.175   3.172
  914SOL     OW 3640   2.373   0.364   6.375
  914SOL    HW1 3641   2.369   0.456   6.412
  914SOL    HW2 3642   2.415   0.366   6.284
  915SOL     OW 3643   6.184   4.170   6.946
  915SOL    HW1 3644   6.117   4.096   6.951
  915SOL    HW2 3645   6.165   4.237   7.017
  916SOL     OW 3646   1.430   2.770   1.908
  916SOL    HW1 3647   1.483   2.768   1.993
  916SOL    HW2 3648   1.372   2.852   1.908
  917SOL     OW 3649   0.407   6.850   1.371
  917SOL    HW1 3650   0.437   6.778   1.308
  917SOL    HW2 3651   0.315   6.829   1.404
  918SOL     OW 3652   3.434   0.634   0.952
  918SOL    HW1 3653   3.486   0.579   1.018
  918SOL    HW2 3654   3.483   0.718   0.932
  919SOL     OW 3655   6.170   1.575   2.581
  919SOL    HW1 3656   6.133   1.540   2.495
  919SOL    HW2 3657   6.221   1.659   2.562
  920SOL     OW 3658   2.359   4.226   1.905
  920SOL    HW1 3659   2.275   4.206   1.854
  920SOL    HW2 3660   2.369   4.160   1.980
  921SOL     OW 3661   4.143   5.866   4.299
  921SOL    HW1 3662   4.099   5.847   4.386
  921SOL    HW2 3663   4.236   5.901   4.315
  922SOL     OW 3664   3.763   3.344   3.948
  922SOL    HW1 3665   3.683   3.297   3.986
  922SOL    HW2 3666   3.837   3.344   4.017
  923SOL     OW 3667   2.184   3.489   6.755
  923SOL    HW1 3668   2.186   3.491   6.655
  923SOL    HW2 3669   2.090   3.481   6.787
  924SOL     OW 3670   6.563   3.839   1.646
  924SOL    HW1 3671   6.546   3.781   1.726
  924SOL    HW2 3672   6.520   3.799   1.565
  925SOL     OW 3673   0.193   2.672   0.373
  925SOL    HW1 3674   0.284   2.702   0.401
  925SOL    HW2 3675   0.137   2.752   0.352
  926SOL     OW 3676   6.347   1.080   1.000
  926SOL    HW1 3677   6.403   1.151   0.958
  926SOL    HW2 3678   6.309   1.113   1.087
  927SOL     OW 3679   5.473   3.469   3.354
  927SOL    HW1 3680   5.521   3.382   3.365
  927SOL    HW2 3681   5.375   3.451   3.341
  928SOL     OW 3682   2.313   5.963   0.490
  928SOL    HW1 3683   2.343   5.942   0.397
  928SOL    HW2 3684   2.214   5.948   0.498
  929SOL     OW 3685   0.508   0.830   7.018
  929SOL    HW1 3686   0.477   0.925   7.016
  929SOL    HW2 3687   0.473   0.783   6.937
  930SOL     OW 3688   5.506   6.943   6.374
  930SOL    HW1 3689   5.585   6.888   6.400
  930SOL    HW2 3690   5.533   0.011   6.370
  931SOL     OW 3691   6.916   1.337   4.505
  931SOL    HW1 3692   6.966   1.252   4.518
  931SOL    HW2 3693   6.818   1.318   4.503
  932SOL     OW 3694   2.672   1.131   2.961
  932SOL    HW1 3695   2.731   1.149   2.883
  932SOL    HW2 3696   2.712   1.059   3.018
  933SOL     OW 3697   1.352   4.854   3.077
  933SOL    HW1 3698   1.443   4.816   3.063
  933SOL    HW2 3699   1.320   4.896   2.992
  934SOL     OW 3700   2.541   5.727   6.424
  934SOL    HW1 3701   2.534   5.681   6.513
  934SOL    HW2 3702   2.637   5.737   6.400
  935SOL     OW 3703   5.258   4.258   4.427
  935SOL    HW1 3704   5.354   4.278   4.447
  935SOL    HW2 3705   5.214   4.340   4.391
  936SOL     OW 3706   0.812   6.827   6.216
  936SOL    HW1 3707   0.762   6.910   6.241
  936SOL    HW2 3708   0.859   6.843   6.129
  937SOL     OW 3709   5.800   1.542   6.487
  937SOL    HW1 3710   5.770   1.586   6.403
  937SOL    HW2 3711   5.879   1.484   6.467
  938SOL     OW 3712   6.273   5.345   5.269
  938SOL    HW1 3713   6.199   5.412   5.261
  938SOL    HW2 3714   6.308   5.345   5.363
  939SOL     OW 3715   0.044   6.767   3.697
  939SOL    HW1 3716   6.982   6.740   3.663
  939SOL    HW2 3717   0.070   6.854   3.657
  940SOL     OW 3718   0.495   3.269   0.502
  940SOL    HW1 3719   0.566   3.300   0.439
  940SOL    HW2 3720   0.405   3.296   0.467
  941SOL     OW 3721   5.455   0.471   0.429
  941SOL    HW1 3722   5.428   0.496   0.522
  941SOL    HW2 3723   5.494   0.379   0.430
  942SOL     OW 3724   5.780   0.261   2.394
  942SOL    HW1 3725   5.761   0.276   2.491
  942SOL    HW2 3726   5.866   0.211   2.385
  943SOL     OW 3727   1.340   4.945   2.532
  943SOL    HW1 3728   1.325   4.850   2.507
  943SOL    HW2 3729   1.284   5.005   2.475
  944SOL     OW 3730   0.228   5.849   5.213
  944SOL    HW1 3731   0.321   5.860   5.178
  944SOL    HW2 3732   0.193   5.759   5.186
  945SOL     OW 3733   0.259   4.920   5.877
  945SOL    HW1 3734   0.328   4.979   5.836
  945SOL    HW2 3735   0.275   4.912   5.976
  946SOL     OW 3736   4.911   4.034   4.816
  946SOL    HW1 3737   4.917   4.087   4.900
  946SOL    HW2 3738   4.921   3.937   4.836
  947SOL     OW 3739   3.459   3.194   3.759
  947SOL    HW1 3740   3.557   3.197   3.735
  947SOL    HW2 3741   3.422   3.104   3.736
  948SOL     OW 3742   4.547   1.154   2.978
  948SOL    HW1 3743   4.554   1.087   3.052
  948SOL    HW2 3744   4.451   1.173   2.958
  949SOL     OW 3745   3.088   5.773   0.263
  949SOL    HW1 3746   2.992   5.749   0.250
  949SOL    HW2 3747   3.107   5.782   0.361
  950SOL     OW 3748   6.374   5.441   2.450
  950SOL    HW1 3749   6.465   5.406   2.427
  950SOL    HW2 3750   6.382   5.531   2.493
  951SOL     OW 3751   1.104   0.088   3.605
  951SOL    HW1 3752   1.039   0.013   3.613
  951SOL    HW2 3753   1.197   0.053   3.610
  952SOL     OW 3754   4.587   2.636   2.782
  952SOL    HW1 3755   4.655   2.683   2.838
  952SOL    HW2 3756   4.632   2.585   2.710
  953SOL     OW 3757   5.899   5.098   4.341
  953SOL    HW1 3758   5.810   5.074   4.380
  953SOL    HW2 3759   5.891   5.182   4.288
  954SOL     OW 3760   3.581   6.131   2.283
  954SOL    HW1 3761   3.595   6.033   2.300
  954SOL    HW2 3762   3.629   6.158   2.200
  955SOL     OW 3763   1.741   4.303   0.310
  955SOL    HW1 3764   1.766   4.230   0.373
  955SOL    HW2 3765   1.796   4.384   0.329
  956SOL     OW 3766   6.546   0.727   1.794
  956SOL    HW1 3767   6.588   0.799   1.851
  956SOL    HW2 3768   6.618   0.667   1.760
  957SOL     OW 3769   5.758   2.260   1.871
  957SOL    HW1 3770   5.763   2.323   1.794
  957SOL    HW2 3771   5.719   2.307   1.950
  958SOL     OW 3772   4.216   6.762   1.614
  958SOL    HW1 3773   4.126   6.722   1.630
  958SOL    HW2 3774   4.237   6.827   1.686
  959SOL     OW 3775   3.227   6.985   5.182
  959SOL    HW1 3776   3.321   6.953   5.173
  959SOL    HW2 3777   3.226   0.054   5.200
  960SOL     OW 3778   1.489   0.085   1.075
  960SOL    HW1 3779   1.515   0.120   0.985
  960SOL    HW2 3780   1.510   7.016   1.080
  961SOL     OW 3781   4.373   6.207   3.098
  961SOL    HW1 3782   4.381   6.306   3.106
  961SOL    HW2 3783   4.332   6.183   3.010
  962SOL     OW 3784   6.664   0.923   4.349
  962SOL    HW1 3785   6.638   1.006   4.299
  962SOL    HW2 3786   6.583   0.882   4.389
  963SOL     OW 3787   4.482   0.958   0.440
  963SOL    HW1 3788   4.429   0.947   0.524
  963SOL    HW2 3789   4.443   0.899   0.369
  964SOL     OW 3790   4.891   5.060   5.610
  964SOL    HW1 3791   4.876   5.149   5.567
  964SOL    HW2 3792   4.986   5.032   5.599
  965SOL     OW 3793   6.370   1.786   2.894
  965SOL    HW1 3794   6.354   1.850   2.968
  965SOL    HW2 3795   6.351   1.830   2.806
  966SOL     OW 3796   5.806   3.146   3.472
  966SOL    HW1 3797   5.820   3.067   3.412
  966SOL    HW2 3798   5.888   3.203   3.469
  967SOL     OW 3799   3.042   4.790   0.236
  967SOL    HW1 3800   3.060   4.699   0.275
  967SOL    HW2 3801   2.983   4.781   0.156
  968SOL     OW 3802   3.856   6.611   1.451
  968SOL    HW1 3803   3.899   6.634   1.364
  968SOL    HW2 3804   3.871   6.514   1.471
  969SOL     OW 3805   2.346   5.014   5.767
  969SOL    HW1 3806   2.367   5.061   5.681
  969SOL    HW2 3807   2.407   4.935   5.778
  970SOL     OW 3808   5.323   0.537   6.396
  970SOL    HW1 3809   5.365   0.467   6.338
  970SOL    HW2 3810   5.300   0.498   6.485
  971SOL     OW 3811   6.956   3.697   2.587
  971SOL    HW1 3812   7.021   3.697   2.663
  971SOL    HW2 3813   6.951   3.606   2.547
  972SOL     OW 3814   6.278   2.151   1.751
  972SOL    HW1 3815   6.261   2.199   1.665
  972SOL    HW2 3816   6.327   2.211   1.814
  973SOL     OW 3817   1.029   5.729   6.741
  973SOL    HW1 3818   0.987   5.697   6.656
  973SOL    HW2 3819   0.968   5.796   6.784
  974SOL     OW 3820   0.354   5.577   2.106
  974SOL    HW1 3821   0.322   5.662   2.064
  974SOL    HW2 3822   0.379   5.594   2.201
  975SOL     OW 3823   2.420   6.947   6.866
  975SOL    HW1 3824   2.504   6.911   6.908
  975SOL    HW2 3825   2.384   6.880   6.801
  976SOL     OW 3826   6.792   3.576   1.508
  976SOL    HW1 3827   6.872   3.535   1.463
  976SOL    HW2 3828   6.806   3.674   1.519
  977SOL     OW 3829   0.498   0.641   2.162
  977SOL    HW1 3830   0.532   0.719   2.109
  977SOL    HW2 3831   0.440   0.584   2.103
  978SOL     OW 3832   5.099   1.645   1.312
  978SOL    HW1 3833   5.152   1.707   1.254
  978SOL    HW2 3834   5.002   1.653   1.290
  979SOL     OW 3835   0.730   3.115   0.080
  979SOL    HW1 3836   0.678   3.134   7.026
  979SOL    HW2 3837   0.688   3.040   0.130
  980SOL     OW 3838   4.646   1.379   4.537
  980SOL    HW1 3839   4.693   1.465   4.518
  980SOL    HW2 3840   4.682   1.339   4.622
  981SOL     OW 3841   0.415   1.007   4.624
  981SOL    HW1 3842   0.482   0.968   4.688
  981SOL    HW2 3843   0.373   0.934   4.571
  982SOL     OW 3844   1.135   1.678   5.462
  982SOL    HW1 3845   1.216   1.716   5.507
  982SOL    HW2 3846   1.160   1.645   5.371
  983SOL     OW 3847   7.017   3.651   2.856
  983SOL    HW1 3848   0.075   3.602   2.849
  983SOL    HW2 3849   6.968   3.621   2.938
  984SOL     OW 3850   1.720   2.456   3.121
  984SOL    HW1 3851   1.729   2.533   3.185
  984SOL    HW2 3852   1.811   2.424   3.095
  985SOL     OW 3853   6.675   3.963   4.297
  985SOL    HW1 3854   6.659   4.053   4.338
  985SOL    HW2 3855   6.751   3.968   4.233
  986SOL     OW 3856   4.384   5.154   1.311
  986SOL    HW1 3857   4.380   5.106   1.399
  986SOL    HW2 3858   4.313   5.225   1.310
  987SOL     OW 3859   4.861   6.178   2.102
  987SOL    HW1 3860   4.901   6.093   2.134
  987SOL    HW2 3861   4.927   6.227   2.044
  988SOL     OW 3862   3.308   4.071   1.763
  988SOL    HW1 3863   3.382   4.105   1.821
  988SOL    HW2 3864   3.221   4.110   1.793
  989SOL     OW 3865   6.429   1.675   0.252
  989SOL    HW1 3866   6.480   1.712   0.329
  989SOL    HW2 3867   6.486   1.611   0.201
  990SOL     OW 3868   3.305   1.107   2.213
  990SOL    HW1 3869   3.339   1.072   2.300
  990SOL    HW2 3870   3.373   1.167   2.171
  991SOL     OW 3871   0.313   4.124   3.939
  991SOL    HW1 3872   0.406   4.150   3.965
  991SOL    HW2 3873   0.275   4.193   3.878
  992SOL     OW 3874   0.112   3.242   1.116
  992SOL    HW1 3875   0.064   3.329   1.105
  992SOL    HW2 3876   0.047   3.171   1.143
  993SOL     OW 3877   0.101   4.109   0.173
  993SOL    HW1 3878   0.032   4.157   0.226
  993SOL    HW2 3879   0.067   4.018   0.148
  994SOL     OW 3880   3.832   5.215   2.043
  994SOL    HW1 3881   3.801   5.121   2.032
  994SOL    HW2 3882   3.754   5.277   2.051
  995SOL     OW 3883   4.320   2.902   6.271
  995SOL    HW1 3884   4.281   2.833   6.333
  995SOL    HW2 3885   4.246   2.960   6.236
  996SOL     OW 3886   3.454   5.060   4.883
  996SOL    HW1 3887   3.539   5.022   4.846
  996SOL    HW2 3888   3.408   4.990   4.938
  997SOL     OW 3889   0.996   6.909   3.323
  997SOL    HW1 3890   1.069   6.878   3.384
  997SOL    HW2 3891   0.929   6.836   3.311
  998SOL     OW 3892   6.468   0.249   5.940
  998SOL    HW1 3893   6.500   0.180   6.006
  998SOL    HW2 3894   6.501   0.225   5.849
  999SOL     OW 3895   5.033   3.668   1.657
  999SOL    HW1 3896   4.956   3.623   1.704
  999SOL    HW2 3897   5.053   3.620   1.572
 1000SOL     OW 3898   4.188   1.534   1.297
 1000SOL    HW1 3899   4.263   1.575   1.244
 1000SOL    HW2 3900   4.190   1.569   1.390
 1001SOL     OW 3901   3.889   5.990   1.726
 1001SOL    HW1 3902   3.806   5.934   1.728
 1001SOL    HW2 3903   3.927   5.990   1.633
 1002SOL     OW 3904   5.445   2.536   1.413
 1002SOL    HW1 3905   5.504   2.568   1.339
 1002SOL    HW2 3906   5.357   2.583   1.407
 1003SOL     OW 3907   1.930   6.031   3.191
 1003SOL    HW1 3908   1.931   6.111   3.250
 1003SOL    HW2 3909   2.015   6.027   3.138
 1004SOL     OW 3910   0.179   0.984   2.142
 1004SOL    HW1 3911   0.111   1.050   2.174
 1004SOL    HW2 3912   0.222   1.020   2.059
 1005SOL     OW 3913   1.474   3.819   3.880
 1005SOL    HW1 3914   1.525   3.798   3.964
 1005SOL    HW2 3915   1.512   3.767   3.804
 1006SOL     OW 3916   1.525   4.102   0.333
 1006SOL    HW1 3917   1.509   4.198   0.352
 1006SOL    HW2 3918   1.462   4.046   0.387
 1007SOL     OW 3919   4.813   0.717   5.842
 1007SOL    HW1 3920   4.834   0.814   5.843
 1007SOL    HW2 3921   4.878   0.668   5.901
 1008SOL     OW 3922   6.906   3.261   5.422
 1008SOL    HW1 3923   6.982   3.211   5.463
 1008SOL    HW2 3924   6.849   3.198   5.369
 1009SOL     OW 3925   5.883   4.415   5.753
 1009SOL    HW1 3926   5.935   4.376   5.677
 1009SOL    HW2 3927   5.790   4.379   5.752
 1010SOL     OW 3928   2.708   2.663   1.584
 1010SOL    HW1 3929   2.656   2.579   1.594
 1010SOL    HW2 3930   2.646   2.742   1.585
 1011SOL     OW 3931   0.714   5.515   3.582
 1011SOL    HW1 3932   0.747   5.440   3.640
 1011SOL    HW2 3933   0.615   5.524   3.592
 1012SOL     OW 3934   6.742   6.275   2.149
 1012SOL    HW1 3935   6.676   6.228   2.208
 1012SOL    HW2 3936   6.826   6.221   2.144
 1013SOL     OW 3937   6.927   1.183   6.634
 1013SOL    HW1 3938   6.856   1.141   6.578
 1013SOL    HW2 3939   6.895   1.188   6.729
 1014SOL     OW 3940   0.649   3.816   5.097
 1014SOL    HW1 3941   0.625   3.879   5.170
 1014SOL    HW2 3942   0.590   3.735   5.101
 1015SOL     OW 3943   2.519   0.608   6.179
 1015SOL    HW1 3944   2.514   0.511   6.154
 1015SOL    HW2 3945   2.550   0.616   6.274
 1016SOL     OW 3946   4.729   5.155   0.983
 1016SOL    HW1 3947   4.715   5.064   0.946
 1016SOL    HW2 3948   4.656   5.176   1.048
 1017SOL     OW 3949   3.042   1.821   1.021
 1017SOL    HW1 3950   3.077   1.847   1.112
 1017SOL    HW2 3951   2.988   1.896   0.984
 1018SOL     OW 3952   0.681   4.893   4.081
 1018SOL    HW1 3953   0.739   4.970   4.108
 1018SOL    HW2 3954   0.736   4.829   4.028
 1019SOL     OW 3955   7.006   5.350   0.656
 1019SOL    HW1 3956   0.069   5.312   0.672
 1019SOL    HW2 3957   7.006   5.447   0.681
 1020SOL     OW 3958   6.206   1.363   1.437
 1020SOL    HW1 3959   6.222   1.288   1.501
 1020SOL    HW2 3960   6.181   1.446   1.488
 1021SOL     OW 3961   6.052   6.394   1.859
 1021SOL    HW1 3962   6.092   6.428   1.944
 1021SOL    HW2 3963   6.020   6.300   1.872
 1022SOL     OW 3964   3.092   5.181   5.692
 1022SOL    HW1 3965   3.147   5.118   5.748
 1022SOL    HW2 3966   3.026   5.228   5.751
 1023SOL     OW 3967   0.222   0.729   3.074
 1023SOL    HW1 3968   0.254   0.741   3.168
 1023SOL    HW2 3969   0.192   0.634   3.062
 1024SOL     OW 3970   0.609   1.751   4.292
 1024SOL    HW1 3971   0.627   1.694   4.373
 1024SOL    HW2 3972   0.523   1.800   4.304
 1025SOL     OW 3973   4.504   2.987   0.480
 1025SOL    HW1 3974   4.450   2.994   0.397
 1025SOL    HW2 3975   4.501   2.894   0.514
 1026SOL     OW 3976   2.727   2.971   1.525
 1026SOL    HW1 3977   2.788   2.948   1.449
 1026SOL    HW2 3978   2.781   2.983   1.608
 1027SOL     OW 3979   2.210   0.036   1.915
 1027SOL    HW1 3980   2.265   0.031   1.999
 1027SOL    HW2 3981   2.184   6.972   1.887
 1028SOL     OW 3982   1.430   6.749   2.933
 1028SOL    HW1 3983   1.524   6.769   2.907
 1028SOL    HW2 3984   1.368   6.785   2.863
 1029SOL     OW 3985   1.124   2.103   6.176
 1029SOL    HW1 3986   1.146   2.039   6.250
 1029SOL    HW2 3987   1.174   2.077   6.094
 1030SOL     OW 3988   3.384   3.162   1.637
 1030SOL    HW1 3989   3.410   3.085   1.579
 1030SOL    HW2 3990   3.340   3.129   1.720
 1031SOL     OW 3991   4.768   3.475   1.051
 1031SOL    HW1 3992   4.819   3.555   1.019
 1031SOL    HW2 3993   4.678   3.473   1.007
 1032SOL     OW 3994   2.378   1.524   5.691
 1032SOL    HW1 3995   2.413   1.565   5.775
 1032SOL    HW2 3996   2.420   1.434   5.679
 1033SOL     OW 3997   1.315   5.643   1.918
 1033SOL    HW1 3998   1.299   5.557   1.872
 1033SOL    HW2 3999   1.341   5.713   1.851
 1034SOL     OW 4000   1.177   5.973   4.135
 1034SOL    HW1 4001   1.150   6.051   4.079
 1034SOL    HW2 4002   1.155   5.888   4.087
 1035SOL     OW 4003   0.171   2.260   6.711
 1035SOL    HW1 4004   0.171   2.160   6.716
 1035SOL    HW2 4005   0.260   2.291   6.677
 1036SOL     OW 4006   4.091   1.200   1.742
 1036SOL    HW1 4007   4.079   1.102   1.760
 1036SOL    HW2 4008   4.011   1.235   1.694
 1037SOL     OW 4009   1.372   1.778   3.262
 1037SOL    HW1 4010   1.425   1.856   3.228
 1037SOL    HW2 4011   1.335   1.727   3.184
 1038SOL     OW 4012   1.674   1.121   5.609
 1038SOL    HW1 4013   1.652   1.027   5.637
 1038SOL    HW2 4014   1.710   1.120   5.516
 1039SOL     OW 4015   3.150   3.681   3.807
 1039SOL    HW1 4016   3.233   3.707   3.856
 1039SOL    HW2 4017   3.140   3.581   3.811
 1040SOL     OW 4018   4.902   1.224   2.036
 1040SOL    HW1 4019   4.809   1.215   2.073
 1040SOL    HW2 4020   4.904   1.189   1.942
 1041SOL     OW 4021   0.216   6.408   3.286
 1041SOL    HW1 4022   0.247   6.405   3.381
 1041SOL    HW2 4023   0.293   6.433   3.227
 1042SOL     OW 4024   4.459   5.425   2.859
 1042SOL    HW1 4025   4.413   5.340   2.885
 1042SOL    HW2 4026   4.393   5.487   2.817
 1043SOL     OW 4027   3.867   2.118   3.647
 1043SOL    HW1 4028   3.862   2.027   3.607
 1043SOL    HW2 4029   3.775   2.148   3.674
 1044SOL     OW 4030   5.735   5.444   2.095
 1044SOL    HW1 4031   5.786   5.471   2.014
 1044SOL    HW2 4032   5.747   5.512   2.167
 1045SOL     OW 4033   3.856   0.827   2.924
 1045SOL    HW1 4034   3.948   0.864   2.921
 1045SOL    HW2 4035   3.800   0.871   2.854
 1046SOL     OW 4036   1.937   1.954   6.819
 1046SOL    HW1 4037   2.028   1.990   6.800
 1046SOL    HW2 4038   1.923   1.949   6.918
 1047SOL     OW 4039   3.392   0.500   3.574
 1047SOL    HW1 4040   3.373   0.461   3.664
 1047SOL    HW2 4041   3.321   0.566   3.550
 1048SOL     OW 4042   2.813   5.573   2.115
 1048SOL    HW1 4043   2.840   5.585   2.211
 1048SOL    HW2 4044   2.857   5.491   2.078
 1049SOL     OW 4045   5.545   0.060   3.803
 1049SOL    HW1 4046   5.495   0.012   3.732
 1049SOL    HW2 4047   5.484   0.125   3.848
 1050SOL     OW 4048   3.597   5.846   2.336
 1050SOL    HW1 4049   3.625   5.757   2.299
 1050SOL    HW2 4050   3.553   5.833   2.425
 1051SOL     OW 4051   0.327   5.915   0.225
 1051SOL    HW1 4052   0.241   5.946   0.185
 1051SOL    HW2 4053   0.370   5.991   0.275
 1052SOL     OW 4054   4.706   0.922   5.565
 1052SOL    HW1 4055   4.803   0.896   5.558
 1052SOL    HW2 4056   4.650   0.855   5.516
 1053SOL     OW 4057   5.756   4.018   2.709
 1053SOL    HW1 4058   5.681   3.951   2.710
 1053SOL    HW2 4059   5.790   4.032   2.802
 1054SOL     OW 4060   2.677   3.612   0.738
 1054SOL    HW1 4061   2.710   3.532   0.688
 1054SOL    HW2 4062   2.621   3.582   0.816
 1055SOL     OW 4063   4.847   5.975   5.532
 1055SOL    HW1 4064   4.791   6.013   5.459
 1055SOL    HW2 4065   4.842   6.034   5.612
 1056SOL     OW 4066   1.036   3.430   7.003
 1056SOL    HW1 4067   1.080   3.508   0.020
 1056SOL    HW2 4068   1.100   3.386   6.941
 1057SOL     OW 4069   3.528   2.723   1.496
 1057SOL    HW1 4070   3.508   2.635   1.454
 1057SOL    HW2 4071   3.611   2.762   1.455
 1058SOL     OW 4072   5.163   3.017   3.624
 1058SOL    HW1 4073   5.085   3.054   3.575
 1058SOL    HW2 4074   5.150   2.918   3.637
 1059SOL     OW 4075   2.461   6.684   1.952
 1059SOL    HW1 4076   2.419   6.717   2.037
 1059SOL    HW2 4077   2.483   6.761   1.893
 1060SOL     OW 4078   0.491   4.858   4.469
 1060SOL    HW1 4079   0.461   4.791   4.401
 1060SOL    HW2 4080   0.414   4.886   4.526
 1061SOL     OW 4081   6.541   3.818   6.145
 1061SOL    HW1 4082   6.526   3.786   6.051
 1061SOL    HW2 4083   6.525   3.917   6.149
 1062SOL     OW 4084   4.370   5.932   5.547
 1062SOL    HW1 4085   4.422   6.005   5.590
 1062SOL    HW2 4086   4.306   5.971   5.481
 1063SOL     OW 4087   0.162   6.664   0.224
 1063SOL    HW1 4088   0.106   6.618   0.292
 1063SOL    HW2 4089   0.153   6.763   0.235
 1064SOL     OW 4090   1.372   4.432   1.710
 1064SOL    HW1 4091   1.414   4.514   1.669
 1064SOL    HW2 4092   1.349   4.367   1.637
 1065SOL     OW 4093   4.034   0.287   3.209
 1065SOL    HW1 4094   4.102   0.238   3.155
 1065SOL    HW2 4095   4.059   0.282   3.306
 1066SOL     OW 4096   4.419   6.887   2.382
 1066SOL    HW1 4097   4.509   6.862   2.345
 1066SOL    HW2 4098   4.349   6.872   2.312
 1067SOL     OW 4099   1.853   1.189   6.903
 1067SOL    HW1 4100   1.843   1.144   6.992
 1067SOL    HW2 4101   1.922   1.142   6.849
 1068SOL     OW 4102   6.396   3.995   1.433
 1068SOL    HW1 4103   6.385   4.029   1.527
 1068SOL    HW2 4104   6.342   4.050   1.370
 1069SOL     OW 4105   5.499   5.620   0.846
 1069SOL    HW1 4106   5.579   5.607   0.904
 1069SOL    HW2 4107   5.505   5.559   0.767
 1070SOL     OW 4108   1.939   6.828   2.675
 1070SOL    HW1 4109   2.036   6.837   2.653
 1070SOL    HW2 4110   1.890   6.909   2.643
 1071SOL     OW 4111   2.101   2.038   4.150
 1071SOL    HW1 4112   2.175   2.081   4.098
 1071SOL    HW2 4113   2.080   1.949   4.111
 1072SOL     OW 4114   2.463   1.007   1.196
 1072SOL    HW1 4115   2.482   1.092   1.244
 1072SOL    HW2 4116   2.385   1.020   1.135
 1073SOL     OW 4117   4.962   1.726   3.377
 1073SOL    HW1 4118   4.968   1.647   3.316
 1073SOL    HW2 4119   5.053   1.765   3.389
 1074SOL     OW 4120   2.554   4.825   2.013
 1074SOL    HW1 4121   2.553   4.731   2.045
 1074SOL    HW2 4122   2.586   4.885   2.086
 1075SOL     OW 4123   6.119   1.079   3.451
 1075SOL    HW1 4124   6.144   0.983   3.439
 1075SOL    HW2 4125   6.019   1.088   3.448
 1076SOL     OW 4126   0.411   2.551   5.375
 1076SOL    HW1 4127   0.391   2.553   5.473
 1076SOL    HW2 4128   0.425   2.645   5.343
 1077SOL     OW 4129   6.947   6.388   0.671
 1077SOL    HW1 4130   6.914   6.427   0.585
 1077SOL    HW2 4131   6.892   6.423   0.747
 1078SOL     OW 4132   6.498   0.750   2.719
 1078SOL    HW1 4133   6.489   0.658   2.760
 1078SOL    HW2 4134   6.493   0.819   2.791
 1079SOL     OW 4135   1.031   4.998   1.978
 1079SOL    HW1 4136   1.055   4.914   2.025
 1079SOL    HW2 4137   0.953   4.982   1.918
 1080SOL     OW 4138   2.564   5.693   3.537
 1080SOL    HW1 4139   2.644   5.751   3.552
 1080SOL    HW2 4140   2.511   5.687   3.622
 1081SOL     OW 4141   6.643   5.095   5.340
 1081SOL    HW1 4142   6.678   5.081   5.433
 1081SOL    HW2 4143   6.599   5.185   5.335
 1082SOL     OW 4144   5.709   2.079   6.163
 1082SOL    HW1 4145   5.691   2.049   6.070
 1082SOL    HW2 4146   5.800   2.046   6.191
 1083SOL     OW 4147   4.425   2.972   7.001
 1083SOL    HW1 4148   4.366   2.921   0.035
 1083SOL    HW2 4149   4.482   2.908   6.949
 1084SOL     OW 4150   6.690   6.929   6.524
 1084SOL    HW1 4151   6.708   6.832   6.508
 1084SOL    HW2 4152   6.592   6.945   6.529
 1085SOL     OW 4153   2.068   3.212   3.862
 1085SOL    HW1 4154   2.122   3.130   3.844
 1085SOL    HW2 4155   2.107   3.260   3.941
 1086SOL     OW 4156   6.692   5.245   6.634
 1086SOL    HW1 4157   6.762   5.181   6.668
 1086SOL    HW2 4158   6.656   5.298   6.711
 1087SOL     OW 4159   0.991   2.048   5.378
 1087SOL    HW1 4160   0.980   1.976   5.446
 1087SOL    HW2 4161   1.024   2.008   5.292
 1088SOL     OW 4162   0.413   4.700   3.403
 1088SOL    HW1 4163   0.404   4.601   3.408
 1088SOL    HW2 4164   0.356   4.743   3.473
 1089SOL     OW 4165   0.899   5.835   4.563
 1089SOL    HW1 4166   0.969   5.876   4.622
 1089SOL    HW2 4167   0.928   5.743   4.537
 1090SOL     OW 4168   4.243   2.000   2.457
 1090SOL    HW1 4169   4.241   1.986   2.556
 1090SOL    HW2 4170   4.308   1.937   2.415
 1091SOL     OW 4171   1.779   3.443   3.570
 1091SOL    HW1 4172   1.752   3.520   3.628
 1091SOL    HW2 4173   1.877   3.429   3.577
 1092SOL     OW 4174   1.047   5.487   0.520
 1092SOL    HW1 4175   0.999   5.505   0.434
 1092SOL    HW2 4176   0.984   5.448   0.587
 1093SOL     OW 4177   2.495   6.524   1.596
 1093SOL    HW1 4178   2.452   6.614   1.587
 1093SOL    HW2 4179   2.491   6.494   1.691
 1094SOL     OW 4180   0.781   6.866   2.760
 1094SOL    HW1 4181   0.685   6.840   2.746
 1094SOL    HW2 4182   0.799   6.874   2.858
 1095SOL     OW 4183   0.578   2.639   6.821
 1095SOL    HW1 4184   0.528   2.693   6.889
 1095SOL    HW2 4185   0.517   2.620   6.743
 1096SOL     OW 4186   3.482   4.249   1.180
 1096SOL    HW1 4187   3.552   4.317   1.160
 1096SOL    HW2 4188   3.415   4.287   1.243
 1097SOL     OW 4189   1.637   4.902   3.041
 1097SOL    HW1 4190   1.723   4.931   3.083
 1097SOL    HW2 4191   1.648   4.809   3.005
 1098SOL     OW 4192   5.904   3.722   6.037
 1098SOL    HW1 4193   5.995   3.681   6.043
 1098SOL    HW2 4194   5.863   3.726   6.128
 1099SOL     OW 4195   4.428   0.636   6.492
 1099SOL    HW1 4196   4.445   0.616   6.589
 1099SOL    HW2 4197   4.361   0.571   6.456
 1100SOL     OW 4198   4.106   1.399   4.692
 1100SOL    HW1 4199   4.170   1.355   4.756
 1100SOL    HW2 4200   4.141   1.391   4.599
 1101SOL     OW 4201   5.217   3.685   5.337
 1101SOL    HW1 4202   5.123   3.699   5.307
 1101SOL    HW2 4203   5.278   3.742   5.282
 1102SOL     OW 4204   2.185   1.150   4.500
 1102SOL    HW1 4205   2.267   1.094   4.511
 1102SOL    HW2 4206   2.208   1.232   4.447
 1103SOL     OW 4207   2.432   1.966   0.099
 1103SOL    HW1 4208   2.531   1.976   0.110
 1103SOL    HW2 4209   2.401   2.024   0.024
 1104SOL     OW 4210   1.868   4.056   3.424
 1104SOL    HW1 4211   1.920   4.134   3.388
 1104SOL    HW2 4212   1.839   3.998   3.348
 1105SOL     OW 4213   5.214   3.041   4.166
 1105SOL    HW1 4214   5.138   3.105   4.176
 1105SOL    HW2 4215   5.282   3.080   4.103
 1106SOL     OW 4216   0.558   1.746   1.495
 1106SOL    HW1 4217   0.609   1.670   1.535
 1106SOL    HW2 4218   0.487   1.710   1.435
 1107SOL     OW 4219   1.132   0.371   0.066
 1107SOL    HW1 4220   1.231   0.382   0.072
 1107SOL    HW2 4221   1.107   0.282   0.104
 1108SOL     OW 4222   3.213   6.465   5.441
 1108SOL    HW1 4223   3.278   6.411   5.387
 1108SOL    HW2 4224   3.212   6.560   5.409
 1109SOL     OW 4225   5.797   1.049   4.018
 1109SOL    HW1 4226   5.805   0.986   4.095
 1109SOL    HW2 4227   5.799   1.144   4.052
 1110SOL     OW 4228   3.752   1.364   3.114
 1110SOL    HW1 4229   3.750   1.282   3.057
 1110SOL    HW2 4230   3.660   1.381   3.150
 1111SOL     OW 4231   5.558   4.856   6.301
 1111SOL    HW1 4232   5.610   4.771   6.297
 1111SOL    HW2 4233   5.462   4.838   6.280
 1112SOL     OW 4234   6.335   0.420   3.129
 1112SOL    HW1 4235   6.352   0.514   3.159
 1112SOL    HW2 4236   6.422   0.375   3.109
 1113SOL     OW 4237   6.239   4.469   1.485
 1113SOL    HW1 4238   6.167   4.409   1.452
 1113SOL    HW2 4239   6.282   4.429   1.566
 1114SOL     OW 4240   2.934   2.144   6.338
 1114SOL    HW1 4241   2.879   2.111   6.262
 1114SOL    HW2 4242   2.907   2.097   6.422
 1115SOL     OW 4243   4.115   3.639   5.405
 1115SOL    HW1 4244   4.023   3.666   5.433
 1115SOL    HW2 4245   4.144   3.694   5.327
 1116SOL     OW 4246   5.986   0.107   0.222
 1116SOL    HW1 4247   6.057   0.158   0.174
 1116SOL    HW2 4248   5.915   0.170   0.255
 1117SOL     OW 4249   0.790   1.774   1.883
 1117SOL    HW1 4250   0.881   1.807   1.907
 1117SOL    HW2 4251   0.790   1.674   1.881
 1118SOL     OW 4252   2.534   5.001   0.494
 1118SOL    HW1 4253   2.520   5.096   0.468
 1118SOL    HW2 4254   2.631   4.978   0.486
 1119SOL     OW 4255   4.399   4.378   1.490
 1119SOL    HW1 4256   4.375   4.333   1.404
 1119SOL    HW2 4257   4.496   4.400   1.491
 1120SOL     OW 4258   6.678   5.589   1.214
 1120SOL    HW1 4259   6.667   5.609   1.116
 1120SOL    HW2 4260   6.643   5.497   1.233
 1121SOL     OW 4261   7.012   4.797   4.816
 1121SOL    HW1 4262   6.927   4.743   4.821
 1121SOL    HW2 4263   0.058   4.745   4.856
 1122SOL     OW 4264   5.917   3.032   2.092
 1122SOL    HW1 4265   5.827   3.006   2.125
 1122SOL    HW2 4266   5.966   2.950   2.061
 1123SOL     OW 4267   5.113   2.348   3.783
 1123SOL    HW1 4268   5.165   2.434   3.777
 1123SOL    HW2 4269   5.153   2.281   3.720
 1124SOL     OW 4270   6.993   4.557   5.917
 1124SOL    HW1 4271   6.999   4.502   5.834
 1124SOL    HW2 4272   0.056   4.571   5.954
 1125SOL     OW 4273   1.736   2.319   3.657
 1125SOL    HW1 4274   1.740   2.419   3.658
 1125SOL    HW2 4275   1.687   2.288   3.576
 1126SOL     OW 4276   6.001   6.228   5.532
 1126SOL    HW1 4277   6.073   6.161   5.511
 1126SOL    HW2 4278   5.914   6.197   5.494
 1127SOL     OW 4279   5.548   6.219   4.553
 1127SOL    HW1 4280   5.517   6.124   4.552
 1127SOL    HW2 4281   5.470   6.280   4.536
 1128SOL     OW 4282   6.398   1.629   4.962
 1128SOL    HW1 4283   6.429   1.559   5.026
 1128SOL    HW2 4284   6.303   1.652   4.982
 1129SOL     OW 4285   2.061   6.559   0.675
 1129SOL    HW1 4286   2.018   6.536   0.587
 1129SOL    HW2 4287   2.013   6.512   0.749
 1130SOL     OW 4288   1.842   4.696   1.035
 1130SOL    HW1 4289   1.750   4.719   1.005
 1130SOL    HW2 4290   1.838   4.636   1.115
 1131SOL     OW 4291   2.050   0.518   5.199
 1131SOL    HW1 4292   2.116   0.494   5.127
 1131SOL    HW2 4293   2.088   0.493   5.288
 1132SOL     OW 4294   3.886   0.518   3.441
 1132SOL    HW1 4295   3.961   0.453   3.454
 1132SOL    HW2 4296   3.865   0.524   3.343
 1133SOL     OW 4297   0.858   0.674   6.812
 1133SOL    HW1 4298   0.844   0.714   6.903
 1133SOL    HW2 4299   0.944   0.623   6.812
 1134SOL     OW 4300   5.130   0.062   3.036
 1134SOL    HW1 4301   5.221   0.092   3.064
 1134SOL    HW2 4302   5.097   7.021   3.099
 1135SOL     OW 4303   2.373   6.199   3.639
 1135SOL    HW1 4304   2.326   6.279   3.601
 1135SOL    HW2 4305   2.315   6.118   3.628
 1136SOL     OW 4306   4.029   4.901   2.689
 1136SOL    HW1 4307   4.019   4.885   2.787
 1136SOL    HW2 4308   4.090   4.979   2.674
 1137SOL     OW 4309   1.034   6.236   0.411
 1137SOL    HW1 4310   1.002   6.243   0.505
 1137SOL    HW2 4311   1.104   6.306   0.394
 1138SOL     OW 4312   0.506   1.564   5.182
 1138SOL    HW1 4313   0.507   1.507   5.264
 1138SOL    HW2 4314   0.416   1.558   5.138
 1139SOL     OW 4315   2.416   4.893   3.868
 1139SOL    HW1 4316   2.463   4.904   3.781
 1139SOL    HW2 4317   2.368   4.806   3.869
 1140SOL     OW 4318   2.882   0.516   2.411
 1140SOL    HW1 4319   2.911   0.574   2.335
 1140SOL    HW2 4320   2.924   0.426   2.402
 1141SOL     OW 4321   0.013   6.273   6.841
 1141SOL    HW1 4322   6.961   6.329   6.862
 1141SOL    HW2 4323   0.001   6.231   6.752
 1142SOL     OW 4324   3.415   0.429   4.072
 1142SOL    HW1 4325   3.436   0.507   4.130
 1142SOL    HW2 4326   3.462   0.348   4.107
 1143SOL     OW 4327   1.787   3.187   2.508
 1143SOL    HW1 4328   1.761   3.250   2.435
 1143SOL    HW2 4329   1.802   3.239   2.592
 1144SOL     OW 4330   5.876   4.214   3.712
 1144SOL    HW1 4331   5.905   4.255   3.625
 1144SOL    HW2 4332   5.875   4.284   3.783
 1145SOL     OW 4333   1.032   3.003   0.804
 1145SOL    HW1 4334   0.964   3.006   0.877
 1145SOL    HW2 4335   1.120   2.976   0.842
 1146SOL     OW 4336   0.694   2.077   1.813
 1146SOL    HW1 4337   0.743   2.000   1.853
 1146SOL    HW2 4338   0.611   2.045   1.768
 1147SOL     OW 4339   2.879   5.955   0.856
 1147SOL    HW1 4340   2.791   5.962   0.808
 1147SOL    HW2 4341   2.924   5.869   0.830
 1148SOL     OW 4342   4.385   6.151   0.976
 1148SOL    HW1 4343   4.340   6.181   1.060
 1148SOL    HW2 4344   4.478   6.123   0.997
 1149SOL     OW 4345   5.285   2.747   2.326
 1149SOL    HW1 4346   5.214   2.767   2.260
 1149SOL    HW2 4347   5.245   2.701   2.406
 1150SOL     OW 4348   0.794   3.755   0.084
 1150SOL    HW1 4349   0.789   3.827   0.154
 1150SOL    HW2 4350   0.834   3.793   0.001
 1151SOL     OW 4351   5.758   5.006   4.601
 1151SOL    HW1 4352   5.748   4.907   4.593
 1151SOL    HW2 4353   5.668   5.049   4.589
 1152SOL     OW 4354   5.418   6.453   6.275
 1152SOL    HW1 4355   5.508   6.495   6.278
 1152SOL    HW2 4356   5.356   6.503   6.336
 1153SOL     OW 4357   6.230   0.048   1.436
 1153SOL    HW1 4358   6.174   6.996   1.420
 1153SOL    HW2 4359   6.326   0.025   1.423
 1154SOL     OW 4360   0.360   4.028   0.296
 1154SOL    HW1 4361   0.270   4.051   0.259
 1154SOL    HW2 4362   0.364   4.055   0.392
 1155SOL     OW 4363   3.354   5.114   5.845
 1155SOL    HW1 4364   3.370   5.068   5.932
 1155SOL    HW2 4365   3.440   5.122   5.795
 1156SOL     OW 4366   4.624   2.473   4.921
 1156SOL    HW1 4367   4.716   2.513   4.916
 1156SOL    HW2 4368   4.562   2.539   4.964
 1157SOL     OW 4369   4.966   0.938   5.932
 1157SOL    HW1 4370   4.990   1.035   5.929
 1157SOL    HW2 4371   4.926   0.916   6.022
 1158SOL     OW 4372   6.679   5.685   4.761
 1158SOL    HW1 4373   6.597   5.641   4.798
 1158SOL    HW2 4374   6.675   5.783   4.780
 1159SOL     OW 4375   6.176   0.003   3.179
 1159SOL    HW1 4376   6.263   6.993   3.211
 1159SOL    HW2 4377   6.105   6.962   3.183
 1160SOL     OW 4378   4.329   5.422   1.734
 1160SOL    HW1 4379   4.312   5.466   1.646
 1160SOL    HW2 4380   4.270   5.462   1.804
 1161SOL     OW 4381   0.424   5.867   6.595
 1161SOL    HW1 4382   0.521   5.864   6.620
 1161SOL    HW2 4383   0.415   5.872   6.496
 1162SOL     OW 4384   2.321   2.666   5.620
 1162SOL    HW1 4385   2.399   2.728   5.626
 1162SOL    HW2 4386   2.349   2.583   5.572
 1163SOL     OW 4387   5.503   4.892   2.154
 1163SOL    HW1 4388   5.555   4.895   2.069
 1163SOL    HW2 4389   5.406   4.880   2.134
 1164SOL     OW 4390   4.895   2.262   5.146
 1164SOL    HW1 4391   4.798   2.237   5.151
 1164SOL    HW2 4392   4.949   2.179   5.127
 1165SOL     OW 4393   3.908   5.905   3.349
 1165SOL    HW1 4394   3.840   5.880   3.418
 1165SOL    HW2 4395   3.864   5.903   3.259
 1166SOL     OW 4396   2.587   5.570   0.123
 1166SOL    HW1 4397   2.648   5.506   0.075
 1166SOL    HW2 4398   2.539   5.626   0.056
 1167SOL     OW 4399   5.063   5.403   0.554
 1167SOL    HW1 4400   5.021   5.317   0.525
 1167SOL    HW2 4401   5.129   5.384   0.627
 1168SOL     OW 4402   6.037   2.616   1.326
 1168SOL    HW1 4403   5.969   2.685   1.350
 1168SOL    HW2 4404   6.118   2.662   1.289
 1169SOL     OW 4405   4.369   1.594   5.596
 1169SOL    HW1 4406   4.450   1.650   5.575
 1169SOL    HW2 4407   4.347   1.603   5.693
 1170SOL     OW 4408   5.672   0.349   3.198
 1170SOL    HW1 4409   5.709   0.302   3.119
 1170SOL    HW2 4410   5.611   0.423   3.168
 1171SOL     OW 4411   2.931   6.712   0.090
 1171SOL    HW1 4412   2.898   6.773   0.162
 1171SOL    HW2 4413   2.987   6.764   0.026
 1172SOL     OW 4414   5.475   4.197   0.542
 1172SOL    HW1 4415   5.574   4.199   0.535
 1172SOL    HW2 4416   5.445   4.109   0.576
 1173SOL     OW 4417   3.332   1.409   1.023
 1173SOL    HW1 4418   3.249   1.465   1.011
 1173SOL    HW2 4419   3.394   1.455   1.087
 1174SOL     OW 4420   3.529   3.876   2.028
 1174SOL    HW1 4421   3.612   3.864   2.083
 1174SOL    HW2 4422   3.515   3.973   2.009
 1175SOL     OW 4423   4.992   3.465   6.743
 1175SOL    HW1 4424   4.957   3.387   6.691
 1175SOL    HW2 4425   4.997   3.545   6.683
 1176SOL     OW 4426   5.060   3.475   0.252
 1176SOL    HW1 4427   4.961   3.458   0.249
 1176SOL    HW2 4428   5.076   3.568   0.286
 1177SOL     OW 4429   6.847   3.899   5.006
 1177SOL    HW1 4430   6.936   3.852   5.013
 1177SOL    HW2 4431   6.797   3.864   4.926
 1178SOL     OW 4432   2.746   4.286   0.503
 1178SOL    HW1 4433   2.787   4.240   0.424
 1178SOL    HW2 4434   2.686   4.360   0.471
 1179SOL     OW 4435   2.357   5.805   0.714
 1179SOL    HW1 4436   2.342   5.840   0.621
 1179SOL    HW2 4437   2.334   5.707   0.716
 1180SOL     OW 4438   2.684   6.623   4.073
 1180SOL    HW1 4439   2.591   6.587   4.071
 1180SOL    HW2 4440   2.692   6.697   4.007
 1181SOL     OW 4441   0.340   5.328   5.654
 1181SOL    HW1 4442   0.328   5.412   5.601
 1181SOL    HW2 4443   0.281   5.256   5.617
 1182SOL     OW 4444   4.191   5.061   3.349
 1182SOL    HW1 4445   4.253   5.072   3.427
 1182SOL    HW2 4446   4.148   4.971   3.352
 1183SOL     OW 4447   2.193   3.861   0.137
 1183SOL    HW1 4448   2.199   3.794   0.211
 1183SOL    HW2 4449   2.281   3.866   0.089
 1184SOL     OW 4450   0.053   0.888   4.614
 1184SOL    HW1 4451   6.992   0.843   4.618
 1184SOL    HW2 4452   0.125   0.820   4.629
 1185SOL     OW 4453   0.666   0.604   1.015
 1185SOL    HW1 4454   0.710   0.627   0.928
 1185SOL    HW2 4455   0.572   0.575   0.998
 1186SOL     OW 4456   5.701   6.649   5.770
 1186SOL    HW1 4457   5.779   6.680   5.824
 1186SOL    HW2 4458   5.617   6.686   5.809
 1187SOL     OW 4459   5.905   0.069   6.844
 1187SOL    HW1 4460   5.873   0.061   6.750
 1187SOL    HW2 4461   5.829   0.051   6.907
 1188SOL     OW 4462   3.705   5.847   5.617
 1188SOL    HW1 4463   3.694   5.935   5.571
 1188SOL    HW2 4464   3.650   5.778   5.571
 1189SOL     OW 4465   6.341   2.483   1.454
 1189SOL    HW1 4466   6.343   2.386   1.428
 1189SOL    HW2 4467   6.303   2.537   1.380
 1190SOL     OW 4468   3.167   5.250   3.595
 1190SOL    HW1 4469   3.219   5.290   3.670
 1190SOL    HW2 4470   3.137   5.322   3.532
 1191SOL     OW 4471   4.549   5.315   4.151
 1191SOL    HW1 4472   4.553   5.274   4.060
 1191SOL    HW2 4473   4.479   5.386   4.154
 1192SOL     OW 4474   4.520   5.191   2.195
 1192SOL    HW1 4475   4.532   5.177   2.293
 1192SOL    HW2 4476   4.495   5.286   2.177
 1193SOL     OW 4477   6.278   2.738   5.191
 1193SOL    HW1 4478   6.292   2.767   5.096
 1193SOL    HW2 4479   6.216   2.660   5.193
 1194SOL     OW 4480   5.950   0.202   1.738
 1194SOL    HW1 4481   6.008   0.124   1.760
 1194SOL    HW2 4482   6.006   0.279   1.711
 1195SOL     OW 4483   6.590   4.043   0.756
 1195SOL    HW1 4484   6.593   4.118   0.823
 1195SOL    HW2 4485   6.561   4.079   0.667
 1196SOL     OW 4486   0.367   5.583   2.941
 1196SOL    HW1 4487   0.333   5.589   2.847
 1196SOL    HW2 4488   0.298   5.616   3.004
 1197SOL     OW 4489   4.560   0.446   5.055
 1197SOL    HW1 4490   4.582   0.364   5.001
 1197SOL    HW2 4491   4.478   0.490   5.017
 1198SOL     OW 4492   1.090   2.674   2.626
 1198SOL    HW1 4493   1.117   2.683   2.721
 1198SOL    HW2 4494   1.171   2.671   2.568
 1199SOL     OW 4495   4.111   3.627   1.294
 1199SOL    HW1 4496   4.120   3.726   1.307
 1199SOL    HW2 4497   4.099   3.582   1.382
 1200SOL     OW 4498   3.387   3.695   4.401
 1200SOL    HW1 4499   3.338   3.741   4.476
 1200SOL    HW2 4500   3.321   3.646   4.344
 1201SOL     OW 4501   1.197   0.879   4.354
 1201SOL    HW1 4502   1.190   0.783   4.326
 1201SOL    HW2 4503   1.263   0.885   4.430
 1202SOL     OW 4504   0.307   5.578   5.565
 1202SOL    HW1 4505   0.242   5.633   5.617
 1202SOL    HW2 4506   0.359   5.636   5.502
 1203SOL     OW 4507   6.774   6.420   6.713
 1203SOL    HW1 4508   6.791   6.341   6.656
 1203SOL    HW2 4509   6.784   6.395   6.809
 1204SOL     OW 4510   3.575   6.922   1.310
 1204SOL    HW1 4511   3.555   6.847   1.373
 1204SOL    HW2 4512   3.497   6.985   1.307
 1205SOL     OW 4513   4.945   3.593   0.619
 1205SOL    HW1 4514   4.889   3.573   0.539
 1205SOL    HW2 4515   4.985   3.508   0.653
 1206SOL     OW 4516   2.596   3.079   5.639
 1206SOL    HW1 4517   2.658   3.102   5.564
 1206SOL    HW2 4518   2.503   3.108   5.615
 1207SOL     OW 4519   2.269   6.265   1.031
 1207SOL    HW1 4520   2.253   6.347   1.086
 1207SOL    HW2 4521   2.356   6.272   0.983
 1208SOL     OW 4522   3.504   3.762   1.313
 1208SOL    HW1 4523   3.409   3.740   1.336
 1208SOL    HW2 4524   3.563   3.684   1.336
 1209SOL     OW 4525   4.638   0.979   4.878
 1209SOL    HW1 4526   4.607   0.904   4.937
 1209SOL    HW2 4527   4.646   1.063   4.932
 1210SOL     OW 4528   3.032   0.960   3.413
 1210SOL    HW1 4529   3.122   0.993   3.387
 1210SOL    HW2 4530   3.004   1.003   3.499
 1211SOL     OW 4531   0.563   3.956   2.092
 1211SOL    HW1 4532   0.587   3.864   2.124
 1211SOL    HW2 4533   0.512   3.950   2.007
 1212SOL     OW 4534   6.026   0.476   0.316
 1212SOL    HW1 4535   6.078   0.560   0.333
 1212SOL    HW2 4536   5.967   0.458   0.395
 1213SOL     OW 4537   6.569   2.365   0.386
 1213SOL    HW1 4538   6.656   2.349   0.431
 1213SOL    HW2 4539   6.495   2.325   0.440
 1214SOL     OW 4540   0.841   2.856   6.591
 1214SOL    HW1 4541   0.856   2.936   6.533
 1214SOL    HW2 4542   0.900   2.781   6.561
 1215SOL     OW 4543   0.628   4.827   3.297
 1215SOL    HW1 4544   0.540   4.807   3.340
 1215SOL    HW2 4545   0.702   4.810   3.363
 1216SOL     OW 4546   4.916   0.500   0.958
 1216SOL    HW1 4547   4.961   0.450   1.032
 1216SOL    HW2 4548   4.846   0.561   0.996
 1217SOL     OW 4549   2.218   4.556   0.195
 1217SOL    HW1 4550   2.173   4.467   0.195
 1217SOL    HW2 4551   2.179   4.613   0.267
 1218SOL     OW 4552   2.322   4.335   4.590
 1218SOL    HW1 4553   2.315   4.267   4.517
 1218SOL    HW2 4554   2.409   4.323   4.638
 1219SOL     OW 4555   5.429   6.315   1.476
 1219SOL    HW1 4556   5.376   6.370   1.541
 1219SOL    HW2 4557   5.479   6.376   1.415
 1220SOL     OW 4558   1.070   4.637   3.459
 1220SOL    HW1 4559   1.004   4.710   3.439
 1220SOL    HW2 4560   1.073   4.572   3.384
 1221SOL     OW 4561   5.681   3.571   6.272
 1221SOL    HW1 4562   5.650   3.666   6.269
 1221SOL    HW2 4563   5.685   3.541   6.368
 1222SOL     OW 4564   6.252   0.103   6.618
 1222SOL    HW1 4565   6.258   0.140   6.526
 1222SOL    HW2 4566   6.342   0.072   6.648
 1223SOL     OW 4567   4.110   1.173   0.603
 1223SOL    HW1 4568   4.146   1.219   0.522
 1223SOL    HW2 4569   4.175   1.103   0.633
 1224SOL     OW 4570   3.781   5.526   0.267
 1224SOL    HW1 4571   3.691   5.482   0.265
 1224SOL    HW2 4572   3.788   5.590   0.190
 1225SOL     OW 4573   3.367   3.513   6.461
 1225SOL    HW1 4574   3.430   3.500   6.538
 1225SOL    HW2 4575   3.284   3.460   6.477
 1226SOL     OW 4576   2.484   5.018   1.481
 1226SOL    HW1 4577   2.430   5.095   1.514
 1226SOL    HW2 4578   2.461   4.936   1.534
 1227SOL     OW 4579   6.573   3.680   0.017
 1227SOL    HW1 4580   6.616   3.743   6.980
 1227SOL    HW2 4581   6.529   3.606   6.995
 1228SOL     OW 4582   3.872   1.770   6.602
 1228SOL    HW1 4583   3.802   1.705   6.628
 1228SOL    HW2 4584   3.832   1.861   6.594
 1229SOL     OW 4585   4.044   4.989   5.985
 1229SOL    HW1 4586   3.986   4.929   5.930
 1229SOL    HW2 4587   4.099   4.933   6.047
 1230SOL     OW 4588   4.671   0.273   2.955
 1230SOL    HW1 4589   4.687   0.246   2.860
 1230SOL    HW2 4590   4.756   0.264   3.007
 1231SOL     OW 4591   1.889   3.275   4.479
 1231SOL    HW1 4592   1.854   3.333   4.405
 1231SOL    HW2 4593   1.903   3.330   4.561
 1232SOL     OW 4594   0.678   2.144   5.501
 1232SOL    HW1 4595   0.716   2.121   5.591
 1232SOL    HW2 4596   0.674   2.244   5.491
 1233SOL     OW 4597   1.070   3.966   4.454
 1233SOL    HW1 4598   1.010   3.908   4.399
 1233SOL    HW2 4599   1.138   4.009   4.395
 1234SOL     OW 4600   6.749   4.172   4.928
 1234SOL    HW1 4601   6.746   4.217   5.017
 1234SOL    HW2 4602   6.729   4.074   4.939
 1235SOL     OW 4603   6.757   6.040   2.469
 1235SOL    HW1 4604   6.856   6.051   2.460
 1235SOL    HW2 4605   6.732   5.945   2.447
 1236SOL     OW 4606   4.972   1.251   0.540
 1236SOL    HW1 4607   4.876   1.238   0.566
 1236SOL    HW2 4608   5.005   1.337   0.577
 1237SOL     OW 4609   1.597   4.724   5.744
 1237SOL    HW1 4610   1.498   4.718   5.756
 1237SOL    HW2 4611   1.632   4.635   5.713
 1238SOL     OW 4612   2.915   0.370   0.299
 1238SOL    HW1 4613   2.986   0.398   0.235
 1238SOL    HW2 4614   2.845   0.317   0.251
 1239SOL     OW 4615   6.835   6.900   6.155
 1239SOL    HW1 4616   6.881   6.876   6.241
 1239SOL    HW2 4617   6.898   6.886   6.078
 1240SOL     OW 4618   5.456   5.987   2.074
 1240SOL    HW1 4619   5.504   5.909   2.033
 1240SOL    HW2 4620   5.458   6.064   2.010
 1241SOL     OW 4621   6.398   4.228   4.109
 1241SOL    HW1 4622   6.482   4.228   4.055
 1241SOL    HW2 4623   6.419   4.206   4.204
 1242SOL     OW 4624   6.485   3.241   1.388
 1242SOL    HW1 4625   6.423   3.304   1.434
 1242SOL    HW2 4626   6.452   3.223   1.296
 1243SOL     OW 4627   0.081   6.917   5.528
 1243SOL    HW1 4628   0.109   6.847   5.594
 1243SOL    HW2 4629   0.157   6.981   5.513
 1244SOL     OW 4630   6.823   6.724   4.275
 1244SOL    HW1 4631   6.748   6.745   4.212
 1244SOL    HW2 4632   6.882   6.805   4.285
 1245SOL     OW 4633   4.809   4.350   6.356
 1245SOL    HW1 4634   4.853   4.428   6.311
 1245SOL    HW2 4635   4.714   4.374   6.378
 1246SOL     OW 4636   2.357   6.118   1.483
 1246SOL    HW1 4637   2.430   6.122   1.415
 1246SOL    HW2 4638   2.353   6.204   1.533
 1247SOL     OW 4639   2.066   0.883   6.517
 1247SOL    HW1 4640   2.000   0.873   6.442
 1247SOL    HW2 4641   2.052   0.811   6.584
 1248SOL     OW 4642   2.483   0.245   4.453
 1248SOL    HW1 4643   2.444   0.330   4.487
 1248SOL    HW2 4644   2.549   0.209   4.519
 1249SOL     OW 4645   5.457   2.578   2.146
 1249SOL    HW1 4646   5.461   2.481   2.124
 1249SOL    HW2 4647   5.395   2.593   2.224
 1250SOL     OW 4648   6.482   5.291   4.796
 1250SOL    HW1 4649   6.404   5.343   4.760
 1250SOL    HW2 4650   6.457   5.249   4.883
 1251SOL     OW 4651   3.077   0.095   4.132
 1251SOL    HW1 4652   3.111   0.185   4.160
 1251SOL    HW2 4653   3.043   0.100   4.038
 1252SOL     OW 4654   3.770   3.599   5.283
 1252SOL    HW1 4655   3.797   3.681   5.231
 1252SOL    HW2 4656   3.798   3.517   5.232
 1253SOL     OW 4657   3.279   4.979   1.678
 1253SOL    HW1 4658   3.359   4.920   1.673
 1253SOL    HW2 4659   3.309   5.075   1.675
 1254SOL     OW 4660   7.027   3.072   2.476
 1254SOL    HW1 4661   0.062   3.126   2.420
 1254SOL    HW2 4662   0.050   3.019   2.543
 1255SOL     OW 4663   6.711   2.101   4.729
 1255SOL    HW1 4664   6.749   2.022   4.681
 1255SOL    HW2 4665   6.753   2.185   4.695
 1256SOL     OW 4666   6.806   6.233   3.149
 1256SOL    HW1 4667   6.799   6.330   3.124
 1256SOL    HW2 4668   6.903   6.206   3.150
 1257SOL     OW 4669   0.108   6.749   4.292
 1257SOL    HW1 4670   0.066   6.660   4.310
 1257SOL    HW2 4671   0.207   6.742   4.299
 1258SOL     OW 4672   1.438   5.131   3.476
 1258SOL    HW1 4673   1.521   5.076   3.489
 1258SOL    HW2 4674   1.379   5.086   3.409
 1259SOL     OW 4675   3.924   1.231   4.193
 1259SOL    HW1 4676   3.940   1.308   4.130
 1259SOL    HW2 4677   3.872   1.160   4.146
 1260SOL     OW 4678   1.473   1.357   6.755
 1260SOL    HW1 4679   1.435   1.309   6.833
 1260SOL    HW2 4680   1.569   1.380   6.773
 1261SOL     OW 4681   0.166   5.542   6.432
 1261SOL    HW1 4682   0.194   5.455   6.474
 1261SOL    HW2 4683   0.093   5.525   6.367
 1262SOL     OW 4684   4.970   5.288   1.173
 1262SOL    HW1 4685   4.956   5.243   1.262
 1262SOL    HW2 4686   4.897   5.261   1.110
 1263SOL     OW 4687   0.459   1.382   2.496
 1263SOL    HW1 4688   0.436   1.418   2.406
 1263SOL    HW2 4689   0.444   1.452   2.565
 1264SOL     OW 4690   0.225   4.636   5.946
 1264SOL    HW1 4691   0.244   4.607   5.852
 1264SOL    HW2 4692   0.307   4.677   5.985
 1265SOL     OW 4693   6.069   5.488   4.467
 1265SOL    HW1 4694   6.165   5.518   4.468
 1265SOL    HW2 4695   6.032   5.494   4.560
 1266SOL     OW 4696   0.605   0.746   4.312
 1266SOL    HW1 4697   0.529   0.727   4.374
 1266SOL    HW2 4698   0.691   0.725   4.357
 1267SOL     OW 4699   5.079   1.376   1.353
 1267SOL    HW1 4700   5.102   1.473   1.361
 1267SOL    HW2 4701   4.981   1.363   1.369
 1268SOL     OW 4702   2.793   3.293   7.028
 1268SOL    HW1 4703   2.770   3.201   0.033
 1268SOL    HW2 4704   2.806   3.290   6.929
 1269SOL     OW 4705   5.975   3.172   3.849
 1269SOL    HW1 4706   6.007   3.132   3.934
 1269SOL    HW2 4707   6.014   3.264   3.837
 1270SOL     OW 4708   2.169   4.966   2.689
 1270SOL    HW1 4709   2.232   4.953   2.765
 1270SOL    HW2 4710   2.106   4.888   2.684
 1271SOL     OW 4711   3.440   1.396   1.853
 1271SOL    HW1 4712   3.363   1.414   1.792
 1271SOL    HW2 4713   3.500   1.326   1.812
 1272SOL     OW 4714   5.839   4.462   6.640
 1272SOL    HW1 4715   5.828   4.371   6.680
 1272SOL    HW2 4716   5.821   4.457   6.541
 1273SOL     OW 4717   1.558   3.981   5.627
 1273SOL    HW1 4718   1.627   3.909   5.615
 1273SOL    HW2 4719   1.470   3.939   5.650
 1274SOL     OW 4720   0.198   4.339   0.460
 1274SOL    HW1 4721   0.099   4.328   0.454
 1274SOL    HW2 4722   0.237   4.268   0.518
 1275SOL     OW 4723   3.629   1.041   3.044
 1275SOL    HW1 4724   3.729   1.043   3.046
 1275SOL    HW2 4725   3.597   1.040   2.949
 1276SOL     OW 4726   5.335   5.297   4.731
 1276SOL    HW1 4727   5.413   5.354   4.704
 1276SOL    HW2 4728   5.250   5.347   4.718
 1277SOL     OW 4729   1.839   5.335   6.433
 1277SOL    HW1 4730   1.756   5.348   6.488
 1277SOL    HW2 4731   1.815   5.288   6.348
 1278SOL     OW 4732   1.782   0.172   4.488
 1278SOL    HW1 4733   1.734   0.095   4.445
 1278SOL    HW2 4734   1.717   0.245   4.509
 1279SOL     OW 4735   2.314   4.632   6.183
 1279SOL    HW1 4736   2.366   4.548   6.199
 1279SOL    HW2 4737   2.378   4.706   6.159
 1280SOL     OW 4738   4.401   0.006   3.694
 1280SOL    HW1 4739   4.364   7.007   3.783
 1280SOL    HW2 4740   4.486   6.985   3.676
 1281SOL     OW 4741   2.475   6.009   3.437
 1281SOL    HW1 4742   2.429   5.978   3.520
 1281SOL    HW2 4743   2.477   6.109   3.436
 1282SOL     OW 4744   6.982   2.538   6.934
 1282SOL    HW1 4745   6.907   2.533   6.869
 1282SOL    HW2 4746   6.993   2.449   6.979
 1283SOL     OW 4747   6.545   3.512   5.611
 1283SOL    HW1 4748   6.639   3.537   5.637
 1283SOL    HW2 4749   6.490   3.595   5.604
 1284SOL     OW 4750   4.120   0.821   1.327
 1284SOL    HW1 4751   4.125   0.744   1.391
 1284SOL    HW2 4752   4.028   0.860   1.329
 1285SOL     OW 4753   4.729   1.111   5.382
 1285SOL    HW1 4754   4.736   1.049   5.460
 1285SOL    HW2 4755   4.742   1.060   5.297
 1286SOL     OW 4756   4.430   2.457   0.719
 1286SOL    HW1 4757   4.374   2.422   0.794
 1286SOL    HW2 4758   4.501   2.390   0.698
 1287SOL     OW 4759   5.151   4.520   5.597
 1287SOL    HW1 4760   5.110   4.431   5.613
 1287SOL    HW2 4761   5.085   4.592   5.618
 1288SOL     OW 4762   4.047   4.761   5.823
 1288SOL    HW1 4763   4.147   4.766   5.823
 1288SOL    HW2 4764   4.017   4.678   5.869
 1289SOL     OW 4765   0.383   0.520   1.891
 1289SOL    HW1 4766   0.428   0.478   1.812
 1289SOL    HW2 4767   0.338   0.605   1.863
 1290SOL     OW 4768   1.478   6.865   0.496
 1290SOL    HW1 4769   1.557   6.867   0.435
 1290SOL    HW2 4770   1.480   6.782   0.551
 1291SOL     OW 4771   0.212   4.671   4.449
 1291SOL    HW1 4772   0.119   4.662   4.415
 1291SOL    HW2 4773   0.277   4.649   4.376
 1292SOL     OW 4774   0.753   5.657   2.415
 1292SOL    HW1 4775   0.706   5.733   2.460
 1292SOL    HW2 4776   0.773   5.585   2.481
 1293SOL     OW 4777   2.772   2.144   7.002
 1293SOL    HW1 4778   2.838   2.090   6.949
 1293SOL    HW2 4779   2.748   2.095   0.057
 1294SOL     OW 4780   1.145   3.996   6.007
 1294SOL    HW1 4781   1.229   3.972   6.056
 1294SOL    HW2 4782   1.085   4.046   6.068
 1295SOL     OW 4783   0.219   2.948   0.885
 1295SOL    HW1 4784   0.174   2.937   0.797
 1295SOL    HW2 4785   0.182   3.029   0.932
 1296SOL     OW 4786   4.788   6.790   5.081
 1296SOL    HW1 4787   4.763   6.831   5.169
 1296SOL    HW2 4788   4.733   6.831   5.009
 1297SOL     OW 4789   1.286   6.287   1.853
 1297SOL    HW1 4790   1.259   6.362   1.913
 1297SOL    HW2 4791   1.333   6.323   1.773
 1298SOL     OW 4792   5.151   6.349   3.399
 1298SOL    HW1 4793   5.057   6.318   3.384
 1298SOL    HW2 4794   5.197   6.359   3.311
 1299SOL     OW 4795   2.190   2.535   3.572
 1299SOL    HW1 4796   2.136   2.520   3.489
 1299SOL    HW2 4797   2.285   2.508   3.556
 1300SOL     OW 4798   1.633   3.219   1.750
 1300SOL    HW1 4799   1.692   3.269   1.686
 1300SOL    HW2 4800   1.614   3.128   1.713
 1301SOL     OW 4801   0.768   6.757   1.872
 1301SOL    HW1 4802   0.769   6.803   1.961
 1301SOL    HW2 4803   0.689   6.696   1.867
 1302SOL     OW 4804   5.670   0.192   5.328
 1302SOL    HW1 4805   5.695   0.254   5.402
 1302SOL    HW2 4806   5.587   0.225   5.283
 1303SOL     OW 4807   4.071   0.919   1.726
 1303SOL    HW1 4808   3.979   0.901   1.761
 1303SOL    HW2 4809   4.072   0.905   1.627
 1304SOL     OW 4810   2.062   0.458   1.179
 1304SOL    HW1 4811   2.129   0.422   1.114
 1304SOL    HW2 4812   1.980   0.486   1.130
 1305SOL     OW 4813   5.420   4.291   6.861
 1305SOL    HW1 4814   5.500   4.237   6.887
 1305SOL    HW2 4815   5.338   4.234   6.865
 1306SOL     OW 4816   1.840   5.844   4.303
 1306SOL    HW1 4817   1.763   5.808   4.250
 1306SOL    HW2 4818   1.845   5.797   4.391
 1307SOL     OW 4819   2.137   3.380   4.078
 1307SOL    HW1 4820   2.171   3.388   4.171
 1307SOL    HW2 4821   2.083   3.462   4.055
 1308SOL     OW 4822   0.154   6.850   6.181
 1308SOL    HW1 4823   0.101   6.918   6.232
 1308SOL    HW2 4824   0.093   6.800   6.119
 1309SOL     OW 4825   5.334   4.282   5.379
 1309SOL    HW1 4826   5.333   4.213   5.451
 1309SOL    HW2 4827   5.366   4.369   5.417
 1310SOL     OW 4828   0.442   4.402   3.038
 1310SOL    HW1 4829   0.373   4.433   2.973
 1310SOL    HW2 4830   0.494   4.327   2.998
 1311SOL     OW 4831   6.701   5.924   6.428
 1311SOL    HW1 4832   6.602   5.925   6.411
 1311SOL    HW2 4833   6.749   5.960   6.349
 1312SOL     OW 4834   1.856   6.986   6.852
 1312SOL    HW1 4835   1.879   6.889   6.858
 1312SOL    HW2 4836   1.777   6.999   6.792
 1313SOL     OW 4837   6.969   4.866   2.457
 1313SOL    HW1 4838   0.030   4.910   2.463
 1313SOL    HW2 4839   6.910   4.919   2.397
 1314SOL     OW 4840   3.407   2.116   4.741
 1314SOL    HW1 4841   3.430   2.208   4.773
 1314SOL    HW2 4842   3.414   2.113   4.642
 1315SOL     OW 4843   7.020   0.889   3.171
 1315SOL    HW1 4844   0.060   0.830   3.128
 1315SOL    HW2 4845   0.034   0.975   3.199
 1316SOL     OW 4846   3.028   0.455   5.542
 1316SOL    HW1 4847   3.066   0.381   5.487
 1316SOL    HW2 4848   3.075   0.460   5.630
 1317SOL     OW 4849   1.488   4.198   5.033
 1317SOL    HW1 4850   1.532   4.150   5.108
 1317SOL    HW2 4851   1.389   4.181   5.035
 1318SOL     OW 4852   1.629   2.780   0.081
 1318SOL    HW1 4853   1.665   2.730   0.002
 1318SOL    HW2 4854   1.696   2.849   0.110
 1319SOL     OW 4855   0.338   5.337   0.364
 1319SOL    HW1 4856   0.251   5.383   0.346
 1319SOL    HW2 4857   0.355   5.268   0.294
 1320SOL     OW 4858   3.254   3.201   6.946
 1320SOL    HW1 4859   3.337   3.211   6.891
 1320SOL    HW2 4860   3.179   3.172   6.886
 1321SOL     OW 4861   4.774   2.301   6.773
 1321SOL    HW1 4862   4.864   2.260   6.788
 1321SOL    HW2 4863   4.745   2.348   6.856
 1322SOL     OW 4864   4.118   1.891   4.564
 1322SOL    HW1 4865   4.190   1.838   4.609
 1322SOL    HW2 4866   4.029   1.859   4.596
 1323SOL     OW 4867   3.376   6.446   0.169
 1323SOL    HW1 4868   3.287   6.471   0.131
 1323SOL    HW2 4869   3.377   6.467   0.267
 1324SOL     OW 4870   0.618   3.355   0.288
 1324SOL    HW1 4871   0.586   3.421   0.220
 1324SOL    HW2 4872   0.706   3.317   0.259
 1325SOL     OW 4873   3.992   6.327   5.319
 1325SOL    HW1 4874   3.925   6.352   5.389
 1325SOL    HW2 4875   3.947   6.276   5.246
 1326SOL     OW 4876   4.844   3.910   5.155
 1326SOL    HW1 4877   4.871   3.861   5.238
 1326SOL    HW2 4878   4.842   3.846   5.078
 1327SOL     OW 4879   1.260   6.244   0.821
 1327SOL    HW1 4880   1.211   6.173   0.771
 1327SOL    HW2 4881   1.199   6.287   0.888
 1328SOL     OW 4882   2.110   3.241   0.028
 1328SOL    HW1 4883   2.101   3.222   6.959
 1328SOL    HW2 4884   2.090   3.158   0.080
 1329SOL     OW 4885   0.109   2.469   2.332
 1329SOL    HW1 4886   0.100   2.569   2.329
 1329SOL    HW2 4887   0.132   2.441   2.426
 1330SOL     OW 4888   1.038   1.962   1.157
 1330SOL    HW1 4889   1.085   1.941   1.242
 1330SOL    HW2 4890   0.961   2.023   1.175
 1331SOL     OW 4891   4.656   2.609   3.155
 1331SOL    HW1 4892   4.679   2.666   3.234
 1331SOL    HW2 4893   4.563   2.574   3.165
 1332SOL     OW 4894   3.127   6.911   0.769
 1332SOL    HW1 4895   3.123   6.846   0.694
 1332SOL    HW2 4896   3.153   6.864   0.853
 1333SOL     OW 4897   2.952   3.338   3.170
 1333SOL    HW1 4898   3.000   3.259   3.208
 1333SOL    HW2 4899   2.921   3.317   3.077
 1334SOL     OW 4900   6.733   1.472   4.135
 1334SOL    HW1 4901   6.760   1.537   4.207
 1334SOL    HW2 4902   6.804   1.470   4.064
 1335SOL     OW 4903   1.962   2.108   2.167
 1335SOL    HW1 4904   2.006   2.032   2.216
 1335SOL    HW2 4905   1.972   2.192   2.220
 1336SOL     OW 4906   3.750   1.532   5.217
 1336SOL    HW1 4907   3.676   1.465   5.223
 1336SOL    HW2 4908   3.717   1.615   5.173
 1337SOL     OW 4909   0.154   1.361   3.103
 1337SOL    HW1 4910   0.128   1.338   3.009
 1337SOL    HW2 4911   0.186   1.456   3.106
 1338SOL     OW 4912   0.161   3.322   3.957
 1338SOL    HW1 4913   0.147   3.416   3.987
 1338SOL    HW2 4914   0.083   3.293   3.902
 1339SOL     OW 4915   6.027   1.316   7.007
 1339SOL    HW1 4916   6.071   1.234   6.970
 1339SOL    HW2 4917   6.000   1.299   0.073
 1340SOL     OW 4918   5.418   1.256   2.750
 1340SOL    HW1 4919   5.390   1.240   2.655
 1340SOL    HW2 4920   5.462   1.174   2.786
 1341SOL     OW 4921   4.514   6.413   0.214
 1341SOL    HW1 4922   4.469   6.333   0.174
 1341SOL    HW2 4923   4.457   6.494   0.197
 1342SOL     OW 4924   2.822   5.665   6.447
 1342SOL    HW1 4925   2.823   5.675   6.546
 1342SOL    HW2 4926   2.825   5.568   6.423
 1343SOL     OW 4927   5.338   5.419   2.779
 1343SOL    HW1 4928   5.262   5.426   2.845
 1343SOL    HW2 4929   5.389   5.505   2.779
 1344SOL     OW 4930   0.936   6.745   4.128
 1344SOL    HW1 4931   0.851   6.775   4.085
 1344SOL    HW2 4932   1.012   6.801   4.096
 1345SOL     OW 4933   0.749   4.998   1.842
 1345SOL    HW1 4934   0.680   5.067   1.818
 1345SOL    HW2 4935   0.733   4.967   1.936
 1346SOL     OW 4936   2.446   5.607   5.628
 1346SOL    HW1 4937   2.357   5.627   5.586
 1346SOL    HW2 4938   2.448   5.510   5.655
 1347SOL     OW 4939   0.585   6.875   6.929
 1347SOL    HW1 4940   0.537   6.790   6.949
 1347SOL    HW2 4941   0.676   6.854   6.892
 1348SOL     OW 4942   7.026   6.495   5.360
 1348SOL    HW1 4943   0.075   6.550   5.329
 1348SOL    HW2 4944   6.959   6.554   5.405
 1349SOL     OW 4945   5.213   2.441   4.507
 1349SOL    HW1 4946   5.169   2.481   4.588
 1349SOL    HW2 4947   5.277   2.508   4.469
 1350SOL     OW 4948   5.119   5.162   5.382
 1350SOL    HW1 4949   5.137   5.250   5.427
 1350SOL    HW2 4950   5.187   5.095   5.412
 1351SOL     OW 4951   5.258   2.769   3.928
 1351SOL    HW1 4952   5.250   2.698   3.858
 1351SOL    HW2 4953   5.192   2.842   3.909
 1352SOL     OW 4954   6.510   6.208   4.253
 1352SOL    HW1 4955   6.604   6.240   4.236
 1352SOL    HW2 4956   6.472   6.259   4.330
 1353SOL     OW 4957   0.762   2.359   0.533
 1353SOL    HW1 4958   0.743   2.372   0.436
 1353SOL    HW2 4959   0.706   2.422   0.587
 1354SOL     OW 4960   6.957   4.611   1.993
 1354SOL    HW1 4961   6.912   4.525   1.971
 1354SOL    HW2 4962   6.914   4.652   2.073
 1355SOL     OW 4963   6.376   4.494   4.132
 1355SOL    HW1 4964   6.378   4.394   4.126
 1355SOL    HW2 4965   6.313   4.521   4.205
 1356SOL     OW 4966   3.410   2.880   2.178
 1356SOL    HW1 4967   3.445   2.861   2.270
 1356SOL    HW2 4968   3.478   2.931   2.126
 1357SOL     OW 4969   6.770   4.626   6.494
 1357SOL    HW1 4970   6.868   4.642   6.487
 1357SOL    HW2 4971   6.754   4.531   6.523
 1358SOL     OW 4972   6.337   6.504   0.036
 1358SOL    HW1 4973   6.306   6.593   0.003
 1358SOL    HW2 4974   6.333   6.437   6.990
 1359SOL     OW 4975   6.059   4.617   2.395
 1359SOL    HW1 4976   5.971   4.575   2.420
 1359SOL    HW2 4977   6.114   4.552   2.343
 1360SOL     OW 4978   2.213   3.403   0.403
 1360SOL    HW1 4979   2.240   3.335   0.335
 1360SOL    HW2 4980   2.224   3.366   0.495
 1361SOL     OW 4981   6.516   4.430   4.775
 1361SOL    HW1 4982   6.538   4.428   4.872
 1361SOL    HW2 4983   6.417   4.436   4.763
 1362SOL     OW 4984   3.976   3.772   2.770
 1362SOL    HW1 4985   4.027   3.774   2.857
 1362SOL    HW2 4986   4.025   3.716   2.704
 1363SOL     OW 4987   0.666   5.528   4.645
 1363SOL    HW1 4988   0.652   5.585   4.726
 1363SOL    HW2 4989   0.667   5.432   4.672
 1364SOL     OW 4990   5.325   4.307   0.327
 1364SOL    HW1 4991   5.378   4.257   0.396
 1364SOL    HW2 4992   5.249   4.354   0.372
 1365SOL     OW 4993   0.877   4.411   6.113
 1365SOL    HW1 4994   0.959   4.358   6.088
 1365SOL    HW2 4995   0.901   4.474   6.187
 1366SOL     OW 4996   1.686   6.478   6.263
 1366SOL    HW1 4997   1.684   6.511   6.357
 1366SOL    HW2 4998   1.673   6.378   6.263
 1367SOL     OW 4999   2.392   0.291   2.307
 1367SOL    HW1 5000   2.489   0.312   2.319
 1367SOL    HW2 5001   2.343   0.374   2.281
 1368SOL     OW 5002   5.163   6.787   4.733
 1368SOL    HW1 5003   5.191   6.756   4.642
 1368SOL    HW2 5004   5.068   6.762   4.749
 1369SOL     OW 5005   1.525   6.376   3.111
 1369SOL    HW1 5006   1.588   6.304   3.083
 1369SOL    HW2 5007   1.557   6.416   3.197
 1370SOL     OW 5008   3.491   0.952   1.983
 1370SOL    HW1 5009   3.514   0.923   1.890
 1370SOL    HW2 5010   3.446   1.041   1.979
 1371SOL     OW 5011   4.843   1.270   4.319
 1371SOL    HW1 5012   4.859   1.325   4.401
 1371SOL    HW2 5013   4.909   1.295   4.248
 1372SOL     OW 5014   1.832   3.304   1.327
 1372SOL    HW1 5015   1.766   3.230   1.315
 1372SOL    HW2 5016   1.785   3.392   1.321
 1373SOL     OW 5017   6.480   4.467   0.517
 1373SOL    HW1 5018   6.520   4.520   0.592
 1373SOL    HW2 5019   6.424   4.393   0.555
 1374SOL     OW 5020   4.227   2.148   0.677
 1374SOL    HW1 5021   4.264   2.205   0.750
 1374SOL    HW2 5022   4.253   2.053   0.692
 1375SOL     OW 5023   6.989   4.957   6.206
 1375SOL    HW1 5024   0.002   4.961   6.297
 1375SOL    HW2 5025   0.008   5.019   6.144
 1376SOL     OW 5026   4.856   2.938   3.401
 1376SOL    HW1 5027   4.802   2.983   3.330
 1376SOL    HW2 5028   4.853   2.992   3.485
 1377SOL     OW 5029   6.753   4.100   6.159
 1377SOL    HW1 5030   6.784   4.195   6.155
 1377SOL    HW2 5031   6.784   4.051   6.077
 1378SOL     OW 5032   0.052   2.381   4.939
 1378SOL    HW1 5033   0.143   2.422   4.935
 1378SOL    HW2 5034   0.052   2.296   4.886
 1379SOL     OW 5035   3.262   6.773   2.527
 1379SOL    HW1 5036   3.313   6.771   2.614
 1379SOL    HW2 5037   3.289   6.854   2.475
 1380SOL     OW 5038   7.001   6.864   2.397
 1380SOL    HW1 5039   6.986   6.913   2.312
 1380SOL    HW2 5040   6.913   6.838   2.437
 1381SOL     OW 5041   5.136   2.593   0.089
 1381SOL    HW1 5042   5.072   2.653   0.137
 1381SOL    HW2 5043   5.213   2.571   0.150
 1382SOL     OW 5044   5.838   4.899   6.326
 1382SOL    HW1 5045   5.896   4.981   6.330
 1382SOL    HW2 5046   5.875   4.835   6.259
 1383SOL     OW 5047   0.805   1.181   0.185
 1383SOL    HW1 5048   0.864   1.101   0.172
 1383SOL    HW2 5049   0.745   1.192   0.106
 1384SOL     OW 5050   3.282   1.446   3.391
 1384SOL    HW1 5051   3.300   1.508   3.467
 1384SOL    HW2 5052   3.213   1.379   3.418
 1385SOL     OW 5053   0.028   2.998   2.952
 1385SOL    HW1 5054   7.024   2.962   3.039
 1385SOL    HW2 5055   0.077   3.084   2.967
 1386SOL     OW 5056   2.215   2.938   4.072
 1386SOL    HW1 5057   2.239   2.999   3.997
 1386SOL    HW2 5058   2.252   2.847   4.054
 1387SOL     OW 5059   3.286   0.886   3.989
 1387SOL    HW1 5060   3.383   0.861   3.980
 1387SOL    HW2 5061   3.264   0.894   4.086
 1388SOL     OW 5062   6.459   6.982   3.858
 1388SOL    HW1 5063   6.421   6.898   3.897
 1388SOL    HW2 5064   6.539   6.960   3.803
 1389SOL     OW 5065   0.060   0.660   4.278
 1389SOL    HW1 5066   0.085   0.745   4.323
 1389SOL    HW2 5067   6.990   0.658   4.262
 1390SOL     OW 5068   3.901   1.536   6.917
 1390SOL    HW1 5069   3.869   1.551   7.010
 1390SOL    HW2 5070   3.956   1.614   6.887
 1391SOL     OW 5071   6.200   1.368   5.112
 1391SOL    HW1 5072   6.113   1.341   5.154
 1391SOL    HW2 5073   6.260   1.288   5.105
 1392SOL     OW 5074   4.978   5.754   5.624
 1392SOL    HW1 5075   4.914   5.819   5.583
 1392SOL    HW2 5076   4.935   5.710   5.702
 1393SOL     OW 5077   6.116   1.933   6.744
 1393SOL    HW1 5078   6.061   1.980   6.674
 1393SOL    HW2 5079   6.209   1.968   6.741
 1394SOL     OW 5080   4.039   6.237   3.281
 1394SOL    HW1 5081   4.083   6.161   3.329
 1394SOL    HW2 5082   4.068   6.323   3.322
 1395SOL     OW 5083   0.196   3.842   2.296
 1395SOL    HW1 5084   0.106   3.879   2.322
 1395SOL    HW2 5085   0.184   3.754   2.251
 1396SOL     OW 5086   1.517   1.016   4.291
 1396SOL    HW1 5087   1.436   1.064   4.325
 1396SOL    HW2 5088   1.567   1.075   4.228
 1397SOL     OW 5089   0.250   5.713   4.857
 1397SOL    HW1 5090   0.175   5.756   4.806
 1397SOL    HW2 5091   0.213   5.657   4.931
 1398SOL     OW 5092   1.813   1.316   0.353
 1398SOL    HW1 5093   1.764   1.389   0.305
 1398SOL    HW2 5094   1.851   1.351   0.438
 1399SOL     OW 5095   4.562   0.009   0.597
 1399SOL    HW1 5096   4.596   0.055   0.679
 1399SOL    HW2 5097   4.462   0.008   0.598
 1400SOL     OW 5098   6.670   0.563   4.063
 1400SOL    HW1 5099   6.741   0.615   4.109
 1400SOL    HW2 5100   6.581   0.606   4.079
 1401SOL     OW 5101   5.446   6.947   4.483
 1401SOL    HW1 5102   5.360   6.897   4.469
 1401SOL    HW2 5103   5.523   6.887   4.461
 1402SOL     OW 5104   5.679   3.888   0.512
 1402SOL    HW1 5105   5.702   3.803   0.559
 1402SOL    HW2 5106   5.616   3.941   0.568
 1403SOL     OW 5107   3.409   3.377   0.685
 1403SOL    HW1 5108   3.418   3.283   0.654
 1403SOL    HW2 5109   3.359   3.379   0.772
 1404SOL     OW 5110   4.837   0.436   1.446
 1404SOL    HW1 5111   4.825   0.355   1.388
 1404SOL    HW2 5112   4.913   0.421   1.508
 1405SOL     OW 5113   1.723   3.574   1.059
 1405SOL    HW1 5114   1.788   3.528   0.998
 1405SOL    HW2 5115   1.630   3.555   1.029
 1406SOL     OW 5116   2.307   3.512   1.475
 1406SOL    HW1 5117   2.270   3.479   1.561
 1406SOL    HW2 5118   2.237   3.507   1.404
 1407SOL     OW 5119   0.559   3.618   1.717
 1407SOL    HW1 5120   0.605   3.691   1.767
 1407SOL    HW2 5121   0.462   3.642   1.705
 1408SOL     OW 5122   6.013   5.696   6.558
 1408SOL    HW1 5123   6.004   5.745   6.472
 1408SOL    HW2 5124   6.030   5.762   6.632
 1409SOL     OW 5125   0.059   1.590   5.865
 1409SOL    HW1 5126   7.020   1.610   5.794
 1409SOL    HW2 5127   0.066   1.667   5.927
 1410SOL     OW 5128   2.740   2.865   6.072
 1410SOL    HW1 5129   2.783   2.804   6.007
 1410SOL    HW2 5130   2.666   2.916   6.028
 1411SOL     OW 5131   3.827   6.062   6.968
 1411SOL    HW1 5132   3.844   6.003   0.018
 1411SOL    HW2 5133   3.885   6.034   6.891
 1412SOL     OW 5134   0.770   2.928   0.722
 1412SOL    HW1 5135   0.697   2.997   0.723
 1412SOL    HW2 5136   0.820   2.934   0.636
 1413SOL     OW 5137   2.125   1.977   5.362
 1413SOL    HW1 5138   2.202   2.032   5.329
 1413SOL    HW2 5139   2.142   1.948   5.456
 1414SOL     OW 5140   0.793   3.312   2.419
 1414SOL    HW1 5141   0.742   3.226   2.426
 1414SOL    HW2 5142   0.873   3.308   2.479
 1415SOL     OW 5143   2.569   2.474   4.617
 1415SOL    HW1 5144   2.628   2.411   4.668
 1415SOL    HW2 5145   2.577   2.456   4.519
 1416SOL     OW 5146   4.445   0.042   5.496
 1416SOL    HW1 5147   4.448   0.065   5.398
 1416SOL    HW2 5148   4.368   7.008   5.512
 1417SOL     OW 5149   2.916   3.079   6.025
 1417SOL    HW1 5150   2.857   3.007   6.062
 1417SOL    HW2 5151   2.985   3.103   6.093
 1418SOL     OW 5152   3.472   3.641   0.527
 1418SOL    HW1 5153   3.442   3.574   0.596
 1418SOL    HW2 5154   3.421   3.726   0.539
 1419SOL     OW 5155   1.800   4.711   3.845
 1419SOL    HW1 5156   1.710   4.748   3.870
 1419SOL    HW2 5157   1.862   4.722   3.922
 1420SOL     OW 5158   3.771   4.890   2.538
 1420SOL    HW1 5159   3.866   4.896   2.568
 1420SOL    HW2 5160   3.725   4.976   2.557
 1421SOL     OW 5161   1.185   4.686   5.001
 1421SOL    HW1 5162   1.168   4.775   5.044
 1421SOL    HW2 5163   1.203   4.618   5.072
 1422SOL     OW 5164   2.316   4.045   5.819
 1422SOL    HW1 5165   2.343   4.140   5.805
 1422SOL    HW2 5166   2.223   4.031   5.787
 1423SOL     OW 5167   4.181   2.005   4.879
 1423SOL    HW1 5168   4.117   1.947   4.829
 1423SOL    HW2 5169   4.183   1.977   4.975
 1424SOL     OW 5170   6.286   2.873   6.623
 1424SOL    HW1 5171   6.320   2.811   6.552
 1424SOL    HW2 5172   6.361   2.901   6.683
 1425SOL     OW 5173   3.796   6.132   4.703
 1425SOL    HW1 5174   3.784   6.229   4.722
 1425SOL    HW2 5175   3.710   6.083   4.717
 1426SOL     OW 5176   2.520   1.869   6.555
 1426SOL    HW1 5177   2.477   1.783   6.526
 1426SOL    HW2 5178   2.460   1.946   6.531
 1427SOL     OW 5179   1.211   1.042   3.078
 1427SOL    HW1 5180   1.184   1.079   3.167
 1427SOL    HW2 5181   1.132   1.038   3.018
 1428SOL     OW 5182   0.256   2.875   2.388
 1428SOL    HW1 5183   0.322   2.804   2.412
 1428SOL    HW2 5184   0.170   2.833   2.360
 1429SOL     OW 5185   6.149   1.800   0.330
 1429SOL    HW1 5186   6.233   1.808   0.384
 1429SOL    HW2 5187   6.169   1.752   0.244
 1430SOL     OW 5188   2.313   4.246   4.069
 1430SOL    HW1 5189   2.371   4.270   3.992
 1430SOL    HW2 5190   2.223   4.217   4.036
 1431SOL     OW 5191   2.690   1.854   5.863
 1431SOL    HW1 5192   2.787   1.850   5.840
 1431SOL    HW2 5193   2.680   1.888   5.957
 1432SOL     OW 5194   2.247   1.053   1.067
 1432SOL    HW1 5195   2.182   1.113   1.114
 1432SOL    HW2 5196   2.199   0.976   1.026
 1433SOL     OW 5197   3.263   0.885   3.697
 1433SOL    HW1 5198   3.190   0.950   3.675
 1433SOL    HW2 5199   3.303   0.908   3.786
 1434SOL     OW 5200   0.030   2.386   6.279
 1434SOL    HW1 5201   0.125   2.360   6.295
 1434SOL    HW2 5202   0.019   2.483   6.301
 1435SOL     OW 5203   0.701   0.661   3.550
 1435SOL    HW1 5204   0.711   0.671   3.649
 1435SOL    HW2 5205   0.649   0.738   3.514
 1436SOL     OW 5206   5.904   2.437   0.612
 1436SOL    HW1 5207   5.846   2.427   0.531
 1436SOL    HW2 5208   5.935   2.532   0.619
 1437SOL     OW 5209   4.613   1.101   6.001
 1437SOL    HW1 5210   4.663   1.027   6.046
 1437SOL    HW2 5211   4.604   1.081   5.904
 1438SOL     OW 5212   2.599   1.002   1.600
 1438SOL    HW1 5213   2.537   1.072   1.565
 1438SOL    HW2 5214   2.654   0.965   1.524
 1439SOL     OW 5215   0.276   5.548   6.941
 1439SOL    HW1 5216   0.296   5.542   6.843
 1439SOL    HW2 5217   0.229   5.464   6.970
 1440SOL     OW 5218   3.182   2.996   4.013
 1440SOL    HW1 5219   3.110   2.975   4.080
 1440SOL    HW2 5220   3.165   3.087   3.974
 1441SOL     OW 5221   6.229   3.174   4.243
 1441SOL    HW1 5222   6.262   3.141   4.331
 1441SOL    HW2 5223   6.295   3.238   4.205
 1442SOL     OW 5224   5.958   4.419   0.256
 1442SOL    HW1 5225   5.898   4.351   0.300
 1442SOL    HW2 5226   6.039   4.373   0.220
 1443SOL     OW 5227   0.964   0.715   3.540
 1443SOL    HW1 5228   1.014   0.649   3.484
 1443SOL    HW2 5229   0.865   0.698   3.532
 1444SOL     OW 5230   4.547   0.007   3.341
 1444SOL    HW1 5231   4.616   0.052   3.285
 1444SOL    HW2 5232   4.462   0.059   3.338
 1445SOL     OW 5233   0.164   2.374   1.455
 1445SOL    HW1 5234   0.180   2.279   1.428
 1445SOL    HW2 5235   0.096   2.376   1.528
 1446SOL     OW 5236   3.861   2.037   1.168
 1446SOL    HW1 5237   3.761   2.037   1.175
 1446SOL    HW2 5238   3.900   1.972   1.233
 1447SOL     OW 5239   6.772   0.742   5.246
 1447SOL    HW1 5240   6.697   0.808   5.234
 1447SOL    HW2 5241   6.811   0.721   5.156
 1448SOL     OW 5242   5.694   1.663   0.586
 1448SOL    HW1 5243   5.784   1.669   0.629
 1448SOL    HW2 5244   5.703   1.681   0.488
 1449SOL     OW 5245   5.842   6.468   0.694
 1449SOL    HW1 5246   5.844   6.369   0.710
 1449SOL    HW2 5247   5.751   6.495   0.663
 1450SOL     OW 5248   5.820   3.376   2.800
 1450SOL    HW1 5249   5.890   3.327   2.748
 1450SOL    HW2 5250   5.863   3.425   2.875
 1451SOL     OW 5251   2.294   6.647   2.826
 1451SOL    HW1 5252   2.218   6.710   2.837
 1451SOL    HW2 5253   2.325   6.648   2.731
 1452SOL     OW 5254   5.245   0.561   4.965
 1452SOL    HW1 5255   5.190   0.540   5.046
 1452SOL    HW2 5256   5.201   0.522   4.884
 1453SOL     OW 5257   5.167   4.288   4.905
 1453SOL    HW1 5258   5.188   4.245   4.818
 1453SOL    HW2 5259   5.087   4.244   4.946
 1454SOL     OW 5260   5.707   2.927   2.238
 1454SOL    HW1 5261   5.724   2.830   2.221
 1454SOL    HW2 5262   5.636   2.938   2.308
 1455SOL     OW 5263   1.200   0.957   1.887
 1455SOL    HW1 5264   1.222   0.868   1.849
 1455SOL    HW2 5265   1.190   1.024   1.813
 1456SOL     OW 5266   6.785   6.956   4.527
 1456SOL    HW1 5267   6.745   7.013   4.598
 1456SOL    HW2 5268   6.749   6.863   4.533
 1457SOL     OW 5269   1.355   7.017   3.607
 1457SOL    HW1 5270   1.405   0.044   3.674
 1457SOL    HW2 5271   1.416   6.994   3.531
 1458SOL     OW 5272   5.164   6.960   5.608
 1458SOL    HW1 5273   5.087   6.896   5.596
 1458SOL    HW2 5274   5.172   6.985   5.704
 1459SOL     OW 5275   3.019   6.255   6.835
 1459SOL    HW1 5276   2.926   6.269   6.802
 1459SOL    HW2 5277   3.082   6.318   6.788
 1460SOL     OW 5278   0.735   6.516   0.277
 1460SOL    HW1 5279   0.636   6.506   0.270
 1460SOL    HW2 5280   0.779   6.428   0.256
 1461SOL     OW 5281   6.151   4.478   3.249
 1461SOL    HW1 5282   6.071   4.465   3.308
 1461SOL    HW2 5283   6.171   4.576   3.242
 1462SOL     OW 5284   6.145   1.357   0.974
 1462SOL    HW1 5285   6.196   1.337   1.058
 1462SOL    HW2 5286   6.209   1.361   0.897
 1463SOL     OW 5287   0.599   0.284   5.234
 1463SOL    HW1 5288   0.629   0.193   5.205
 1463SOL    HW2 5289   0.632   0.353   5.169
 1464SOL     OW 5290   0.145   6.926   0.243
 1464SOL    HW1 5291   0.104   6.978   0.168
 1464SOL    HW2 5292   0.109   6.959   0.330
 1465SOL     OW 5293   0.323   0.594   3.788
 1465SOL    HW1 5294   0.285   0.629   3.873
 1465SOL    HW2 5295   0.419   0.623   3.780
 1466SOL     OW 5296   6.740   5.545   2.511
 1466SOL    HW1 5297   6.716   5.522   2.416
 1466SOL    HW2 5298   6.722   5.466   2.570
 1467SOL     OW 5299   1.799   0.850   3.106
 1467SOL    HW1 5300   1.744   0.817   3.182
 1467SOL    HW2 5301   1.743   0.852   3.023
 1468SOL     OW 5302   5.741   5.345   3.720
 1468SOL    HW1 5303   5.767   5.282   3.794
 1468SOL    HW2 5304   5.736   5.294   3.634
 1469SOL     OW 5305   0.386   0.337   3.071
 1469SOL    HW1 5306   0.321   0.364   2.999
 1469SOL    HW2 5307   0.479   0.347   3.036
 1470SOL     OW 5308   1.474   1.023   3.028
 1470SOL    HW1 5309   1.374   1.024   3.030
 1470SOL    HW2 5310   1.505   1.041   2.934
 1471SOL     OW 5311   6.725   0.282   6.862
 1471SOL    HW1 5312   6.638   0.265   6.908
 1471SOL    HW2 5313   6.784   0.336   6.922
 1472SOL     OW 5314   4.662   0.226   4.914
 1472SOL    HW1 5315   4.652   0.264   4.823
 1472SOL    HW2 5316   4.744   0.169   4.918
 1473SOL     OW 5317   6.125   5.944   2.908
 1473SOL    HW1 5318   6.098   5.984   2.995
 1473SOL    HW2 5319   6.224   5.927   2.908
 1474SOL     OW 5320   6.550   5.366   3.789
 1474SOL    HW1 5321   6.530   5.388   3.693
 1474SOL    HW2 5322   6.647   5.382   3.806
 1475SOL     OW 5323   0.205   0.065   2.268
 1475SOL    HW1 5324   0.241   0.104   2.183
 1475SOL    HW2 5325   0.114   0.027   2.252
 1476SOL     OW 5326   1.603   0.648   2.005
 1476SOL    HW1 5327   1.643   0.576   1.947
 1476SOL    HW2 5328   1.520   0.683   1.962
 1477SOL     OW 5329   3.149   0.378   5.770
 1477SOL    HW1 5330   3.207   0.317   5.716
 1477SOL    HW2 5331   3.102   0.325   5.841
 1478SOL     OW 5332   6.268   5.122   0.881
 1478SOL    HW1 5333   6.233   5.029   0.870
 1478SOL    HW2 5334   6.337   5.140   0.810
 1479SOL     OW 5335   1.726   4.608   0.128
 1479SOL    HW1 5336   1.788   4.641   0.056
 1479SOL    HW2 5337   1.651   4.557   0.086
 1480SOL     OW 5338   2.207   1.120   6.514
 1480SOL    HW1 5339   2.154   1.035   6.516
 1480SOL    HW2 5340   2.303   1.099   6.495
 1481SOL     OW 5341   5.693   2.094   5.556
 1481SOL    HW1 5342   5.696   2.152   5.474
 1481SOL    HW2 5343   5.696   2.152   5.637
 1482SOL     OW 5344   5.789   1.039   1.424
 1482SOL    HW1 5345   5.827   1.124   1.462
 1482SOL    HW2 5346   5.736   1.060   1.342
 1483SOL     OW 5347   6.500   2.776   7.010
 1483SOL    HW1 5348   6.477   2.680   6.995
 1483SOL    HW2 5349   6.512   2.793   0.080
 1484SOL     OW 5350   6.293   4.661   2.592
 1484SOL    HW1 5351   6.225   4.594   2.565
 1484SOL    HW2 5352   6.378   4.644   2.542
 1485SOL     OW 5353   5.656   2.918   2.837
 1485SOL    HW1 5354   5.642   3.015   2.858
 1485SOL    HW2 5355   5.576   2.882   2.790
 1486SOL     OW 5356   4.421   2.452   3.159
 1486SOL    HW1 5357   4.417   2.456   3.059
 1486SOL    HW2 5358   4.353   2.387   3.193
 1487SOL     OW 5359   6.244   1.462   6.226
 1487SOL    HW1 5360   6.251   1.518   6.143
 1487SOL    HW2 5361   6.167   1.494   6.281
 1488SOL     OW 5362   4.824   1.217   3.058
 1488SOL    HW1 5363   4.835   1.259   3.148
 1488SOL    HW2 5364   4.731   1.183   3.048
 1489SOL     OW 5365   3.638   4.957   4.654
 1489SOL    HW1 5366   3.731   4.927   4.674
 1489SOL    HW2 5367   3.641   5.035   4.592
 1490SOL     OW 5368   1.050   1.435   0.351
 1490SOL    HW1 5369   1.053   1.335   0.351
 1490SOL    HW2 5370   1.127   1.471   0.405
 1491SOL     OW 5371   6.685   3.855   3.012
 1491SOL    HW1 5372   6.686   3.953   3.033
 1491SOL    HW2 5373   6.697   3.842   2.914
 1492SOL     OW 5374   5.312   1.860   1.875
 1492SOL    HW1 5375   5.352   1.949   1.896
 1492SOL    HW2 5376   5.384   1.796   1.849
 1493SOL     OW 5377   4.687   0.446   4.680
 1493SOL    HW1 5378   4.694   0.390   4.597
 1493SOL    HW2 5379   4.610   0.508   4.672
 1494SOL     OW 5380   3.801   2.412   5.829
 1494SOL    HW1 5381   3.711   2.384   5.796
 1494SOL    HW2 5382   3.823   2.361   5.912
 1495SOL     OW 5383   0.609   3.721   3.290
 1495SOL    HW1 5384   0.626   3.624   3.306
 1495SOL    HW2 5385   0.696   3.769   3.282
 1496SOL     OW 5386   6.618   0.300   1.899
 1496SOL    HW1 5387   6.671   0.257   1.826
 1496SOL    HW2 5388   6.675   0.371   1.943
 1497SOL     OW 5389   0.409   5.324   3.998
 1497SOL    HW1 5390   0.335   5.371   3.950
 1497SOL    HW2 5391   0.445   5.384   4.070
 1498SOL     OW 5392   2.911   4.414   5.939
 1498SOL    HW1 5393   2.859   4.376   6.016
 1498SOL    HW2 5394   2.855   4.482   5.891
 1499SOL     OW 5395   1.120   3.756   5.030
 1499SOL    HW1 5396   1.207   3.783   4.989
 1499SOL    HW2 5397   1.064   3.837   5.047
 1500SOL     OW 5398   5.480   6.946   0.813
 1500SOL    HW1 5399   5.560   6.895   0.843
 1500SOL    HW2 5400   5.467   7.025   0.872
 1501SOL     OW 5401   4.289   0.368   6.733
 1501SOL    HW1 5402   4.379   0.398   6.765
 1501SOL    HW2 5403   4.300   0.296   6.664
 1502SOL     OW 5404   6.593   6.763   6.781
 1502SOL    HW1 5405   6.587   6.861   6.765
 1502SOL    HW2 5406   6.690   6.736   6.782
 1503SOL     OW 5407   1.997   2.921   0.453
 1503SOL    HW1 5408   2.054   2.921   0.371
 1503SOL    HW2 5409   2.055   2.918   0.534
 1504SOL     OW 5410   3.086   0.144   4.857
 1504SOL    HW1 5411   3.027   0.189   4.790
 1504SOL    HW2 5412   3.032   0.078   4.910
 1505SOL     OW 5413   5.788   0.367   5.494
 1505SOL    HW1 5414   5.859   0.307   5.456
 1505SOL    HW2 5415   5.812   0.462   5.476
 1506SOL     OW 5416   1.122   5.188   3.591
 1506SOL    HW1 5417   1.128   5.228   3.683
 1506SOL    HW2 5418   1.197   5.123   3.579
 1507SOL     OW 5419   1.913   1.799   4.545
 1507SOL    HW1 5420   1.921   1.861   4.468
 1507SOL    HW2 5421   1.926   1.705   4.514
 1508SOL     OW 5422   4.663   0.162   0.819
 1508SOL    HW1 5423   4.725   0.229   0.779
 1508SOL    HW2 5424   4.684   0.152   0.917
 1509SOL     OW 5425   4.510   3.087   6.347
 1509SOL    HW1 5426   4.554   3.118   6.263
 1509SOL    HW2 5427   4.447   3.012   6.326
 1510SOL     OW 5428   6.871   2.292   4.629
 1510SOL    HW1 5429   6.876   2.391   4.646
 1510SOL    HW2 5430   6.945   2.265   4.567
 1511SOL     OW 5431   2.691   1.637   6.683
 1511SOL    HW1 5432   2.721   1.601   6.772
 1511SOL    HW2 5433   2.626   1.711   6.697
 1512SOL     OW 5434   0.439   0.100   1.660
 1512SOL    HW1 5435   0.486   0.021   1.620
 1512SOL    HW2 5436   0.447   0.097   1.760
 1513SOL     OW 5437   3.663   6.869   4.058
 1513SOL    HW1 5438   3.715   6.790   4.092
 1513SOL    HW2 5439   3.709   6.906   3.977
 1514SOL     OW 5440   5.472   1.597   5.125
 1514SOL    HW1 5441   5.506   1.510   5.161
 1514SOL    HW2 5442   5.393   1.580   5.067
 1515SOL     OW 5443   6.868   4.037   5.460
 1515SOL    HW1 5444   6.904   4.093   5.385
 1515SOL    HW2 5445   6.768   4.040   5.459
 1516SOL     OW 5446   0.773   0.888   0.916
 1516SOL    HW1 5447   0.760   0.807   0.859
 1516SOL    HW2 5448   0.686   0.912   0.960
 1517SOL     OW 5449   4.552   5.425   3.733
 1517SOL    HW1 5450   4.610   5.486   3.787
 1517SOL    HW2 5451   4.494   5.478   3.673
 1518SOL     OW 5452   6.403   3.929   0.107
 1518SOL    HW1 5453   6.457   3.853   0.071
 1518SOL    HW2 5454   6.446   4.015   0.079
 1519SOL     OW 5455   6.809   4.422   1.078
 1519SOL    HW1 5456   6.795   4.323   1.085
 1519SOL    HW2 5457   6.727   4.469   1.110
 1520SOL     OW 5458   2.030   3.644   2.276
 1520SOL    HW1 5459   2.083   3.595   2.207
 1520SOL    HW2 5460   2.065   3.621   2.367
 1521SOL     OW 5461   1.594   3.217   0.227
 1521SOL    HW1 5462   1.642   3.304   0.218
 1521SOL    HW2 5463   1.565   3.204   0.322
 1522SOL     OW 5464   6.709   1.819   6.478
 1522SOL    HW1 5465   6.677   1.846   6.569
 1522SOL    HW2 5466   6.695   1.894   6.414
 1523SOL     OW 5467   5.689   3.124   6.879
 1523SOL    HW1 5468   5.601   3.082   6.860
 1523SOL    HW2 5469   5.730   3.157   6.794
 1524SOL     OW 5470   0.732   1.551   1.584
 1524SOL    HW1 5471   0.759   1.489   1.512
 1524SOL    HW2 5472   0.795   1.544   1.661
 1525SOL     OW 5473   4.197   1.489   5.945
 1525SOL    HW1 5474   4.280   1.544   5.939
 1525SOL    HW2 5475   4.121   1.538   5.902
 1526SOL     OW 5476   6.902   1.785   1.275
 1526SOL    HW1 5477   6.940   1.878   1.271
 1526SOL    HW2 5478   6.823   1.784   1.336
 1527SOL     OW 5479   3.363   1.905   5.199
 1527SOL    HW1 5480   3.388   1.911   5.102
 1527SOL    HW2 5481   3.267   1.932   5.210
 1528SOL     OW 5482   4.965   6.242   2.692
 1528SOL    HW1 5483   4.949   6.152   2.732
 1528SOL    HW2 5484   4.918   6.312   2.746
 1529SOL     OW 5485   4.735   0.874   6.162
 1529SOL    HW1 5486   4.810   0.809   6.177
 1529SOL    HW2 5487   4.743   0.950   6.227
 1530SOL     OW 5488   3.023   6.504   2.062
 1530SOL    HW1 5489   3.075   6.493   1.977
 1530SOL    HW2 5490   2.959   6.580   2.052
 1531SOL     OW 5491   6.003   0.748   5.083
 1531SOL    HW1 5492   5.968   0.679   5.146
 1531SOL    HW2 5493   6.005   0.711   4.990
 1532SOL     OW 5494   3.453   2.204   5.229
 1532SOL    HW1 5495   3.372   2.234   5.178
 1532SOL    HW2 5496   3.441   2.110   5.259
 1533SOL     OW 5497   6.902   3.022   6.585
 1533SOL    HW1 5498   6.976   3.089   6.577
 1533SOL    HW2 5499   6.869   3.020   6.680
 1534SOL     OW 5500   1.809   5.580   0.399
 1534SOL    HW1 5501   1.807   5.563   0.300
 1534SOL    HW2 5502   1.827   5.495   0.447
 1535SOL     OW 5503   5.380   5.194   4.411
 1535SOL    HW1 5504   5.382   5.146   4.323
 1535SOL    HW2 5505   5.461   5.169   4.464
 1536SOL     OW 5506   2.444   5.240   4.549
 1536SOL    HW1 5507   2.463   5.150   4.510
 1536SOL    HW2 5508   2.397   5.296   4.481
 1537SOL     OW 5509   3.387   5.428   3.730
 1537SOL    HW1 5510   3.452   5.488   3.684
 1537SOL    HW2 5511   3.437   5.358   3.782
 1538SOL     OW 5512   3.034   4.233   6.577
 1538SOL    HW1 5513   3.001   4.231   6.482
 1538SOL    HW2 5514   3.126   4.196   6.581
 1539SOL     OW 5515   3.578   4.324   1.730
 1539SOL    HW1 5516   3.623   4.305   1.642
 1539SOL    HW2 5517   3.597   4.418   1.758
 1540SOL     OW 5518   0.866   0.725   4.404
 1540SOL    HW1 5519   0.910   0.747   4.318
 1540SOL    HW2 5520   0.873   0.626   4.420
 1541SOL     OW 5521   3.653   2.891   1.252
 1541SOL    HW1 5522   3.738   2.909   1.301
 1541SOL    HW2 5523   3.672   2.877   1.155
 1542SOL     OW 5524   0.454   5.861   1.472
 1542SOL    HW1 5525   0.508   5.943   1.489
 1542SOL    HW2 5526   0.447   5.807   1.556
 1543SOL     OW 5527   3.287   3.426   3.797
 1543SOL    HW1 5528   3.362   3.491   3.803
 1543SOL    HW2 5529   3.320   3.341   3.755
 1544SOL     OW 5530   3.033   3.871   2.302
 1544SOL    HW1 5531   3.056   3.951   2.358
 1544SOL    HW2 5532   3.098   3.862   2.227
 1545SOL     OW 5533   5.874   0.843   5.499
 1545SOL    HW1 5534   5.911   0.871   5.587
 1545SOL    HW2 5535   5.892   0.914   5.431
 1546SOL     OW 5536   6.295   0.503   6.395
 1546SOL    HW1 5537   6.243   0.509   6.310
 1546SOL    HW2 5538   6.387   0.470   6.376
 1547SOL     OW 5539   2.671   4.615   2.719
 1547SOL    HW1 5540   2.619   4.595   2.637
 1547SOL    HW2 5541   2.673   4.714   2.734
 1548SOL     OW 5542   3.811   4.517   5.633
 1548SOL    HW1 5543   3.725   4.563   5.610
 1548SOL    HW2 5544   3.843   4.550   5.722
 1549SOL     OW 5545   6.529   1.529   2.091
 1549SOL    HW1 5546   6.578   1.452   2.132
 1549SOL    HW2 5547   6.569   1.550   2.002
 1550SOL     OW 5548   2.604   6.640   5.520
 1550SOL    HW1 5549   2.674   6.699   5.560
 1550SOL    HW2 5550   2.644   6.585   5.447
 1551SOL     OW 5551   1.828   2.821   0.966
 1551SOL    HW1 5552   1.786   2.734   0.989
 1551SOL    HW2 5553   1.757   2.888   0.946
 1552SOL     OW 5554   1.336   6.788   0.899
 1552SOL    HW1 5555   1.262   6.851   0.924
 1552SOL    HW2 5556   1.300   6.716   0.839
 1553SOL     OW 5557   6.197   1.476   6.809
 1553SOL    HW1 5558   6.284   1.520   6.827
 1553SOL    HW2 5559   6.180   1.405   6.877
 1554SOL     OW 5560   4.201   2.237   2.848
 1554SOL    HW1 5561   4.236   2.168   2.784
 1554SOL    HW2 5562   4.268   2.309   2.860
 1555SOL     OW 5563   4.855   1.533   5.224
 1555SOL    HW1 5564   4.897   1.448   5.256
 1555SOL    HW2 5565   4.766   1.545   5.268
 1556SOL     OW 5566   4.102   0.184   0.644
 1556SOL    HW1 5567   4.104   0.283   0.641
 1556SOL    HW2 5568   4.103   0.147   0.551
 1557SOL     OW 5569   2.196   2.597   1.094
 1557SOL    HW1 5570   2.106   2.557   1.078
 1557SOL    HW2 5571   2.203   2.630   1.188
 1558SOL     OW 5572   6.600   2.609   4.826
 1558SOL    HW1 5573   6.502   2.597   4.835
 1558SOL    HW2 5574   6.645   2.583   4.912
 1559SOL     OW 5575   0.647   4.199   2.267
 1559SOL    HW1 5576   0.580   4.158   2.205
 1559SOL    HW2 5577   0.714   4.130   2.293
 1560SOL     OW 5578   3.780   1.608   0.150
 1560SOL    HW1 5579   3.807   1.573   0.240
 1560SOL    HW2 5580   3.701   1.668   0.160
 1561SOL     OW 5581   5.779   6.448   2.111
 1561SOL    HW1 5582   5.845   6.490   2.173
 1561SOL    HW2 5583   5.716   6.518   2.077
 1562SOL     OW 5584   2.592   6.570   2.372
 1562SOL    HW1 5585   2.654   6.588   2.295
 1562SOL    HW2 5586   2.532   6.493   2.348
 1563SOL     OW 5587   2.999   2.255   4.693
 1563SOL    HW1 5588   3.022   2.325   4.760
 1563SOL    HW2 5589   3.041   2.168   4.718
 1564SOL     OW 5590   1.265   1.693   2.601
 1564SOL    HW1 5591   1.319   1.693   2.685
 1564SOL    HW2 5592   1.303   1.759   2.536
 1565SOL     OW 5593   4.044   5.818   4.045
 1565SOL    HW1 5594   3.968   5.753   4.051
 1565SOL    HW2 5595   4.074   5.843   4.136
 1566SOL     OW 5596   5.059   4.836   3.779
 1566SOL    HW1 5597   5.026   4.908   3.719
 1566SOL    HW2 5598   5.132   4.785   3.732
 1567SOL     OW 5599   5.996   5.104   6.420
 1567SOL    HW1 5600   6.074   5.120   6.360
 1567SOL    HW2 5601   6.022   5.039   6.492
 1568SOL     OW 5602   1.896   6.202   3.674
 1568SOL    HW1 5603   1.861   6.240   3.589
 1568SOL    HW2 5604   1.954   6.270   3.719
 1569SOL     OW 5605   3.416   0.685   2.927
 1569SOL    HW1 5606   3.394   0.716   3.020
 1569SOL    HW2 5607   3.415   0.585   2.924
 1570SOL     OW 5608   3.064   6.629   6.812
 1570SOL    HW1 5609   2.994   6.558   6.816
 1570SOL    HW2 5610   3.088   6.658   6.905
 1571SOL     OW 5611   1.209   2.143   3.608
 1571SOL    HW1 5612   1.174   2.220   3.661
 1571SOL    HW2 5613   1.134   2.103   3.555
 1572SOL     OW 5614   1.589   5.310   1.692
 1572SOL    HW1 5615   1.513   5.252   1.663
 1572SOL    HW2 5616   1.645   5.260   1.758
 1573SOL     OW 5617   5.219   5.392   1.740
 1573SOL    HW1 5618   5.159   5.330   1.688
 1573SOL    HW2 5619   5.185   5.485   1.731
 1574SOL     OW 5620   6.302   3.163   2.209
 1574SOL    HW1 5621   6.312   3.178   2.307
 1574SOL    HW2 5622   6.254   3.076   2.193
 1575SOL     OW 5623   1.498   0.719   1.458
 1575SOL    HW1 5624   1.410   0.670   1.454
 1575SOL    HW2 5625   1.569   0.655   1.488
 1576SOL     OW 5626   0.393   6.075   2.513
 1576SOL    HW1 5627   0.356   6.095   2.604
 1576SOL    HW2 5628   0.360   6.143   2.448
 1577SOL     OW 5629   3.198   0.473   6.387
 1577SOL    HW1 5630   3.246   0.393   6.422
 1577SOL    HW2 5631   3.121   0.444   6.331
 1578SOL     OW 5632   4.146   0.757   0.280
 1578SOL    HW1 5633   4.148   0.854   0.257
 1578SOL    HW2 5634   4.065   0.714   0.240
 1579SOL     OW 5635   0.884   2.970   1.406
 1579SOL    HW1 5636   0.879   2.963   1.505
 1579SOL    HW2 5637   0.792   2.957   1.367
 1580SOL     OW 5638   3.195   3.521   3.473
 1580SOL    HW1 5639   3.276   3.462   3.472
 1580SOL    HW2 5640   3.144   3.507   3.558
 1581SOL     OW 5641   0.020   4.807   5.517
 1581SOL    HW1 5642   0.032   4.710   5.539
 1581SOL    HW2 5643   6.990   4.850   5.585
 1582SOL     OW 5644   4.473   5.916   5.155
 1582SOL    HW1 5645   4.394   5.855   5.141
 1582SOL    HW2 5646   4.442   6.011   5.154
 1583SOL     OW 5647   1.182   6.470   5.202
 1583SOL    HW1 5648   1.087   6.438   5.199
 1583SOL    HW2 5649   1.235   6.411   5.264
 1584SOL     OW 5650   1.201   5.190   6.692
 1584SOL    HW1 5651   1.252   5.134   6.628
 1584SOL    HW2 5652   1.143   5.255   6.642
 1585SOL     OW 5653   3.565   1.635   3.563
 1585SOL    HW1 5654   3.587   1.634   3.465
 1585SOL    HW2 5655   3.480   1.586   3.579
 1586SOL     OW 5656   3.508   5.216   3.256
 1586SOL    HW1 5657   3.530   5.121   3.232
 1586SOL    HW2 5658   3.583   5.253   3.311
 1587SOL     OW 5659   2.079   5.777   5.753
 1587SOL    HW1 5660   2.075   5.861   5.806
 1587SOL    HW2 5661   2.112   5.702   5.811
 1588SOL     OW 5662   4.806   0.200   2.711
 1588SOL    HW1 5663   4.891   0.194   2.762
 1588SOL    HW2 5664   4.786   0.295   2.688
 1589SOL     OW 5665   6.320   3.964   2.830
 1589SOL    HW1 5666   6.337   3.953   2.928
 1589SOL    HW2 5667   6.376   4.038   2.794
 1590SOL     OW 5668   5.215   1.815   3.407
 1590SOL    HW1 5669   5.305   1.852   3.384
 1590SOL    HW2 5670   5.220   1.768   3.496
 1591SOL     OW 5671   6.471   5.634   1.396
 1591SOL    HW1 5672   6.560   5.638   1.350
 1591SOL    HW2 5673   6.406   5.694   1.349
 1592SOL     OW 5674   1.204   4.752   6.649
 1592SOL    HW1 5675   1.252   4.732   6.564
 1592SOL    HW2 5676   1.137   4.825   6.634
 1593SOL     OW 5677   0.924   0.089   6.264
 1593SOL    HW1 5678   0.984   0.013   6.238
 1593SOL    HW2 5679   0.899   0.081   6.360
 1594SOL     OW 5680   6.939   6.889   1.736
 1594SOL    HW1 5681   6.955   6.810   1.794
 1594SOL    HW2 5682   7.000   6.963   1.762
 1595SOL     OW 5683   1.605   4.124   6.896
 1595SOL    HW1 5684   1.625   4.207   6.949
 1595SOL    HW2 5685   1.582   4.049   6.958
 1596SOL     OW 5686   5.892   3.438   3.258
 1596SOL    HW1 5687   5.869   3.447   3.355
 1596SOL    HW2 5688   5.815   3.397   3.209
 1597SOL     OW 5689   2.785   5.340   0.678
 1597SOL    HW1 5690   2.825   5.249   0.690
 1597SOL    HW2 5691   2.829   5.386   0.601
 1598SOL     OW 5692   1.403   5.562   6.652
 1598SOL    HW1 5693   1.362   5.520   6.571
 1598SOL    HW2 5694   1.343   5.549   6.731
 1599SOL     OW 5695   3.615   5.167   4.468
 1599SOL    HW1 5696   3.584   5.115   4.388
 1599SOL    HW2 5697   3.695   5.222   4.443
 1600SOL     OW 5698   3.308   0.584   2.536
 1600SOL    HW1 5699   3.230   0.539   2.579
 1600SOL    HW2 5700   3.299   0.578   2.436
 1601SOL     OW 5701   6.575   6.373   3.961
 1601SOL    HW1 5702   6.663   6.383   3.915
 1601SOL    HW2 5703   6.557   6.276   3.977
 1602SOL     OW 5704   4.530   5.174   3.931
 1602SOL    HW1 5705   4.591   5.095   3.929
 1602SOL    HW2 5706   4.543   5.229   3.849
 1603SOL     OW 5707   3.005   5.324   4.408
 1603SOL    HW1 5708   2.911   5.357   4.415
 1603SOL    HW2 5709   3.034   5.324   4.313
 1604SOL     OW 5710   4.181   5.052   1.831
 1604SOL    HW1 5711   4.142   5.144   1.820
 1604SOL    HW2 5712   4.114   4.984   1.800
 1605SOL     OW 5713   5.551   5.546   1.636
 1605SOL    HW1 5714   5.647   5.542   1.664
 1605SOL    HW2 5715   5.501   5.470   1.677
 1606SOL     OW 5716   3.710   5.320   5.158
 1606SOL    HW1 5717   3.703   5.285   5.064
 1606SOL    HW2 5718   3.798   5.294   5.197
 1607SOL     OW 5719   4.122   0.148   1.945
 1607SOL    HW1 5720   4.048   0.099   1.991
 1607SOL    HW2 5721   4.090   0.238   1.916
 1608SOL     OW 5722   0.053   0.503   3.042
 1608SOL    HW1 5723   6.990   0.543   3.035
 1608SOL    HW2 5724   0.046   0.406   3.063
 1609SOL     OW 5725   3.360   6.468   0.770
 1609SOL    HW1 5726   3.283   6.426   0.818
 1609SOL    HW2 5727   3.427   6.502   0.837
 1610SOL     OW 5728   5.370   6.380   0.598
 1610SOL    HW1 5729   5.423   6.315   0.544
 1610SOL    HW2 5730   5.300   6.422   0.540
 1611SOL     OW 5731   1.371   3.919   1.350
 1611SOL    HW1 5732   1.462   3.947   1.382
 1611SOL    HW2 5733   1.325   3.998   1.310
 1612SOL     OW 5734   3.045   5.971   1.505
 1612SOL    HW1 5735   3.023   5.922   1.421
 1612SOL    HW2 5736   3.087   6.059   1.483
 1613SOL     OW 5737   0.770   5.772   2.173
 1613SOL    HW1 5738   0.848   5.832   2.190
 1613SOL    HW2 5739   0.743   5.727   2.258
 1614SOL     OW 5740   5.403   1.987   6.267
 1614SOL    HW1 5741   5.481   2.005   6.208
 1614SOL    HW2 5742   5.381   2.068   6.321
 1615SOL     OW 5743   6.942   5.124   6.654
 1615SOL    HW1 5744   6.935   5.028   6.624
 1615SOL    HW2 5745   6.954   5.182   6.574
 1616SOL     OW 5746   3.817   0.803   4.850
 1616SOL    HW1 5747   3.802   0.872   4.779
 1616SOL    HW2 5748   3.802   0.843   4.940
 1617SOL     OW 5749   4.801   0.143   3.212
 1617SOL    HW1 5750   4.807   0.211   3.286
 1617SOL    HW2 5751   4.864   0.167   3.139
 1618SOL     OW 5752   1.463   5.964   2.598
 1618SOL    HW1 5753   1.543   5.967   2.538
 1618SOL    HW2 5754   1.490   5.991   2.690
 1619SOL     OW 5755   0.923   4.918   6.589
 1619SOL    HW1 5756   0.966   4.955   6.671
 1619SOL    HW2 5757   0.945   4.977   6.511
 1620SOL     OW 5758   2.943   5.174   1.152
 1620SOL    HW1 5759   3.012   5.204   1.219
 1620SOL    HW2 5760   2.982   5.104   1.093
 1621SOL     OW 5761   6.094   6.731   1.427
 1621SOL    HW1 5762   6.072   6.689   1.515
 1621SOL    HW2 5763   6.191   6.715   1.407
 1622SOL     OW 5764   0.379   4.247   6.077
 1622SOL    HW1 5765   0.440   4.170   6.095
 1622SOL    HW2 5766   0.434   4.330   6.066
 1623SOL     OW 5767   0.438   2.458   4.724
 1623SOL    HW1 5768   0.508   2.400   4.682
 1623SOL    HW2 5769   0.355   2.454   4.670
 1624SOL     OW 5770   3.961   1.179   0.295
 1624SOL    HW1 5771   3.893   1.233   0.246
 1624SOL    HW2 5772   3.918   1.096   0.331
 1625SOL     OW 5773   1.491   4.852   6.988
 1625SOL    HW1 5774   1.527   4.762   6.964
 1625SOL    HW2 5775   1.426   4.843   0.035
 1626SOL     OW 5776   2.558   1.752   2.483
 1626SOL    HW1 5777   2.541   1.804   2.399
 1626SOL    HW2 5778   2.585   1.815   2.556
 1627SOL     OW 5779   5.429   3.085   4.013
 1627SOL    HW1 5780   5.492   3.162   4.007
 1627SOL    HW2 5781   5.475   3.007   4.055
 1628SOL     OW 5782   5.086   6.204   6.623
 1628SOL    HW1 5783   5.062   6.169   6.713
 1628SOL    HW2 5784   5.134   6.133   6.571
 1629SOL     OW 5785   2.633   1.948   2.916
 1629SOL    HW1 5786   2.559   1.902   2.966
 1629SOL    HW2 5787   2.698   1.988   2.981
 1630SOL     OW 5788   6.997   4.153   6.395
 1630SOL    HW1 5789   6.965   4.155   6.489
 1630SOL    HW2 5790   6.929   4.197   6.335
 1631SOL     OW 5791   6.350   3.431   1.004
 1631SOL    HW1 5792   6.363   3.345   1.054
 1631SOL    HW2 5793   6.253   3.457   1.008
 1632SOL     OW 5794   4.951   4.311   3.072
 1632SOL    HW1 5795   5.002   4.345   3.151
 1632SOL    HW2 5796   4.982   4.359   2.990
 1633SOL     OW 5797   4.803   4.193   4.459
 1633SOL    HW1 5798   4.766   4.209   4.551
 1633SOL    HW2 5799   4.852   4.107   4.458
 1634SOL     OW 5800   3.858   0.538   4.270
 1634SOL    HW1 5801   3.946   0.492   4.274
 1634SOL    HW2 5802   3.796   0.499   4.338
 1635SOL     OW 5803   2.514   5.107   6.070
 1635SOL    HW1 5804   2.434   5.159   6.041
 1635SOL    HW2 5805   2.501   5.077   6.164
 1636SOL     OW 5806   3.490   5.857   0.713
 1636SOL    HW1 5807   3.458   5.951   0.696
 1636SOL    HW2 5808   3.587   5.850   0.691
 1637SOL     OW 5809   6.888   6.421   3.595
 1637SOL    HW1 5810   6.908   6.434   3.498
 1637SOL    HW2 5811   6.829   6.341   3.607
 1638SOL     OW 5812   0.368   3.065   1.415
 1638SOL    HW1 5813   0.371   3.080   1.316
 1638SOL    HW2 5814   0.365   2.967   1.434
 1639SOL     OW 5815   6.698   4.024   1.820
 1639SOL    HW1 5816   6.631   3.992   1.753
 1639SOL    HW2 5817   6.685   4.122   1.836
 1640SOL     OW 5818   6.530   0.101   0.891
 1640SOL    HW1 5819   6.514   0.169   0.819
 1640SOL    HW2 5820   6.485   0.015   0.867
 1641SOL     OW 5821   0.177   2.402   3.647
 1641SOL    HW1 5822   0.259   2.356   3.613
 1641SOL    HW2 5823   0.132   2.449   3.571
 1642SOL     OW 5824   6.694   2.410   6.579
 1642SOL    HW1 5825   6.794   2.411   6.576
 1642SOL    HW2 5826   6.659   2.367   6.496
 1643SOL     OW 5827   3.346   4.962   3.065
 1643SOL    HW1 5828   3.255   4.923   3.081
 1643SOL    HW2 5829   3.340   5.062   3.066
 1644SOL     OW 5830   5.944   2.821   0.033
 1644SOL    HW1 5831   5.980   2.786   0.119
 1644SOL    HW2 5832   5.850   2.853   0.047
 1645SOL     OW 5833   2.797   0.016   6.172
 1645SOL    HW1 5834   2.712   6.991   6.176
 1645SOL    HW2 5835   2.840   0.017   6.262
 1646SOL     OW 5836   1.881   6.444   6.647
 1646SOL    HW1 5837   1.890   6.542   6.668
 1646SOL    HW2 5838   1.914   6.390   6.724
 1647SOL     OW 5839   5.502   2.729   4.042
 1647SOL    HW1 5840   5.414   2.761   4.007
 1647SOL    HW2 5841   5.488   2.650   4.102
 1648SOL     OW 5842   5.703   6.487   6.981
 1648SOL    HW1 5843   5.771   6.414   6.993
 1648SOL    HW2 5844   5.641   6.487   0.030
 1649SOL     OW 5845   3.324   0.772   3.185
 1649SOL    HW1 5846   3.241   0.808   3.142
 1649SOL    HW2 5847   3.381   0.847   3.216
 1650SOL     OW 5848   1.263   5.689   6.069
 1650SOL    HW1 5849   1.190   5.756   6.054
 1650SOL    HW2 5850   1.224   5.602   6.096
 1651SOL     OW 5851   0.250   2.484   2.940
 1651SOL    HW1 5852   0.341   2.523   2.926
 1651SOL    HW2 5853   0.256   2.412   3.010
 1652SOL     OW 5854   1.110   3.207   1.754
 1652SOL    HW1 5855   1.126   3.169   1.662
 1652SOL    HW2 5856   1.178   3.278   1.773
 1653SOL     OW 5857   0.085   5.654   2.336
 1653SOL    HW1 5858   0.052   5.714   2.263
 1653SOL    HW2 5859   0.127   5.572   2.296
 1654SOL     OW 5860   0.609   3.513   1.452
 1654SOL    HW1 5861   0.583   3.551   1.541
 1654SOL    HW2 5862   0.609   3.413   1.458
 1655SOL     OW 5863   6.951   1.052   4.345
 1655SOL    HW1 5864   6.858   1.029   4.374
 1655SOL    HW2 5865   7.006   1.072   4.425
 1656SOL     OW 5866   2.908   5.492   4.018
 1656SOL    HW1 5867   2.847   5.413   4.018
 1656SOL    HW2 5868   2.992   5.470   3.969
 1657SOL     OW 5869   6.378   1.204   4.950
 1657SOL    HW1 5870   6.475   1.202   4.974
 1657SOL    HW2 5871   6.360   1.285   4.893
 1658SOL     OW 5872   6.917   0.039   0.404
 1658SOL    HW1 5873   6.871   0.050   0.316
 1658SOL    HW2 5874   6.852   0.055   0.478
 1659SOL     OW 5875   4.006   6.834   0.141
 1659SOL    HW1 5876   4.009   6.737   0.161
 1659SOL    HW2 5877   3.979   6.848   0.046
 1660SOL     OW 5878   1.432   0.382   2.224
 1660SOL    HW1 5879   1.381   0.440   2.286
 1660SOL    HW2 5880   1.414   0.286   2.246
 1661SOL     OW 5881   2.604   5.065   2.214
 1661SOL    HW1 5882   2.532   5.069   2.284
 1661SOL    HW2 5883   2.693   5.078   2.258
 1662SOL     OW 5884   6.635   1.017   5.368
 1662SOL    HW1 5885   6.597   0.980   5.283
 1662SOL    HW2 5886   6.560   1.033   5.433
 1663SOL     OW 5887   5.065   5.356   2.606
 1663SOL    HW1 5888   5.157   5.366   2.644
 1663SOL    HW2 5889   5.057   5.267   2.560
 1664SOL     OW 5890   1.707   0.643   5.288
 1664SOL    HW1 5891   1.696   0.732   5.332
 1664SOL    HW2 5892   1.785   0.647   5.224
 1665SOL     OW 5893   0.700   3.793   1.862
 1665SOL    HW1 5894   0.772   3.841   1.811
 1665SOL    HW2 5895   0.724   3.792   1.960
 1666SOL     OW 5896   5.813   6.737   6.943
 1666SOL    HW1 5897   5.759   6.805   6.993
 1666SOL    HW2 5898   5.787   6.645   6.973
 1667SOL     OW 5899   6.928   6.579   1.127
 1667SOL    HW1 5900   6.858   6.646   1.102
 1667SOL    HW2 5901   7.001   6.581   1.059
 1668SOL     OW 5902   5.125   5.028   3.371
 1668SOL    HW1 5903   5.181   4.951   3.342
 1668SOL    HW2 5904   5.184   5.105   3.394
 1669SOL     OW 5905   6.798   4.573   5.553
 1669SOL    HW1 5906   6.756   4.516   5.624
 1669SOL    HW2 5907   6.877   4.525   5.514
 1670SOL     OW 5908   0.951   4.834   5.635
 1670SOL    HW1 5909   0.997   4.807   5.720
 1670SOL    HW2 5910   0.896   4.916   5.652
 1671SOL     OW 5911   5.574   1.667   3.080
 1671SOL    HW1 5912   5.597   1.686   3.175
 1671SOL    HW2 5913   5.636   1.598   3.044
 1672SOL     OW 5914   1.256   3.969   6.495
 1672SOL    HW1 5915   1.223   3.952   6.588
 1672SOL    HW2 5916   1.242   3.886   6.440
 1673SOL     OW 5917   2.185   1.694   4.853
 1673SOL    HW1 5918   2.136   1.705   4.940
 1673SOL    HW2 5919   2.284   1.687   4.871
 1674SOL     OW 5920   6.174   2.877   2.396
 1674SOL    HW1 5921   6.088   2.838   2.363
 1674SOL    HW2 5922   6.231   2.902   2.318
 1675SOL     OW 5923   4.770   0.195   1.296
 1675SOL    HW1 5924   4.800   0.155   1.209
 1675SOL    HW2 5925   4.710   0.131   1.344
 1676SOL     OW 5926   2.032   2.364   2.274
 1676SOL    HW1 5927   2.122   2.348   2.315
 1676SOL    HW2 5928   2.015   2.462   2.267
 1677SOL     OW 5929   3.899   3.957   3.284
 1677SOL    HW1 5930   3.924   4.046   3.321
 1677SOL    HW2 5931   3.886   3.965   3.185
 1678SOL     OW 5932   0.596   6.078   1.529
 1678SOL    HW1 5933   0.673   6.073   1.593
 1678SOL    HW2 5934   0.621   6.135   1.451
 1679SOL     OW 5935   1.565   1.446   5.085
 1679SOL    HW1 5936   1.522   1.386   5.152
 1679SOL    HW2 5937   1.501   1.518   5.058
 1680SOL     OW 5938   5.700   3.220   5.071
 1680SOL    HW1 5939   5.607   3.256   5.081
 1680SOL    HW2 5940   5.706   3.133   5.119
 1681SOL     OW 5941   1.878   5.432   4.930
 1681SOL    HW1 5942   1.938   5.405   4.855
 1681SOL    HW2 5943   1.917   5.511   4.977
 1682SOL     OW 5944   2.213   0.617   6.019
 1682SOL    HW1 5945   2.160   0.634   6.102
 1682SOL    HW2 5946   2.308   0.599   6.043
 1683SOL     OW 5947   5.702   6.318   2.881
 1683SOL    HW1 5948   5.678   6.284   2.791
 1683SOL    HW2 5949   5.742   6.244   2.935
 1684SOL     OW 5950   0.995   4.640   1.465
 1684SOL    HW1 5951   0.896   4.630   1.457
 1684SOL    HW2 5952   1.034   4.557   1.504
 1685SOL     OW 5953   1.849   2.142   5.481
 1685SOL    HW1 5954   1.787   2.087   5.538
 1685SOL    HW2 5955   1.819   2.237   5.483
 1686SOL     OW 5956   3.696   5.885   3.519
 1686SOL    HW1 5957   3.642   5.955   3.472
 1686SOL    HW2 5958   3.639   5.837   3.585
 1687SOL     OW 5959   0.616   4.161   1.783
 1687SOL    HW1 5960   0.541   4.111   1.826
 1687SOL    HW2 5961   0.584   4.204   1.699
 1688SOL     OW 5962   1.456   2.630   3.701
 1688SOL    HW1 5963   1.418   2.573   3.628
 1688SOL    HW2 5964   1.556   2.627   3.698
 1689SOL     OW 5965   6.708   1.122   2.624
 1689SOL    HW1 5966   6.620   1.152   2.662
 1689SOL    HW2 5967   6.704   1.024   2.605
 1690SOL     OW 5968   1.110   3.211   4.216
 1690SOL    HW1 5969   1.182   3.160   4.263
 1690SOL    HW2 5970   1.138   3.307   4.207
 1691SOL     OW 5971   5.099   3.609   4.288
 1691SOL    HW1 5972   5.065   3.670   4.216
 1691SOL    HW2 5973   5.197   3.597   4.277
 1692SOL     OW 5974   5.367   5.361   1.043
 1692SOL    HW1 5975   5.320   5.273   1.058
 1692SOL    HW2 5976   5.390   5.401   1.132
 1693SOL     OW 5977   0.077   1.668   4.671
 1693SOL    HW1 5978   0.032   1.753   4.696
 1693SOL    HW2 5979   0.175   1.684   4.658
 1694SOL     OW 5980   6.047   1.003   4.775
 1694SOL    HW1 5981   6.041   0.932   4.704
 1694SOL    HW2 5982   5.958   1.046   4.788
 1695SOL     OW 5983   3.588   0.563   0.081
 1695SOL    HW1 5984   3.635   0.624   0.144
 1695SOL    HW2 5985   3.615   0.585   7.015
 1696SOL     OW 5986   4.026   5.985   0.959
 1696SOL    HW1 5987   4.009   5.921   1.033
 1696SOL    HW2 5988   4.121   5.975   0.928
 1697SOL     OW 5989   5.726   2.348   0.804
 1697SOL    HW1 5990   5.803   2.405   0.773
 1697SOL    HW2 5991   5.665   2.329   0.726
 1698SOL     OW 5992   3.650   0.726   1.628
 1698SOL    HW1 5993   3.582   0.787   1.670
 1698SOL    HW2 5994   3.664   0.753   1.533
 1699SOL     OW 5995   2.596   1.909   6.128
 1699SOL    HW1 5996   2.661   1.967   6.177
 1699SOL    HW2 5997   2.586   1.823   6.176
 1700SOL     OW 5998   5.571   3.294   3.638
 1700SOL    HW1 5999   5.489   3.337   3.600
 1700SOL    HW2 6000   5.613   3.235   3.570
 1701SOL     OW 6001   6.179   5.245   4.532
 1701SOL    HW1 6002   6.235   5.291   4.602
 1701SOL    HW2 6003   6.123   5.313   4.485
 1702SOL     OW 6004   1.361   1.215   6.257
 1702SOL    HW1 6005   1.404   1.207   6.347
 1702SOL    HW2 6006   1.372   1.309   6.223
 1703SOL     OW 6007   4.234   1.251   6.079
 1703SOL    HW1 6008   4.203   1.333   6.030
 1703SOL    HW2 6009   4.330   1.263   6.106
 1704SOL     OW 6010   1.094   1.805   6.948
 1704SOL    HW1 6011   1.174   1.747   6.935
 1704SOL    HW2 6012   1.014   1.749   6.966
 1705SOL     OW 6013   3.880   1.766   1.925
 1705SOL    HW1 6014   3.850   1.857   1.895
 1705SOL    HW2 6015   3.808   1.700   1.904
 1706SOL     OW 6016   4.441   1.691   1.202
 1706SOL    HW1 6017   4.500   1.665   1.278
 1706SOL    HW2 6018   4.403   1.782   1.218
 1707SOL     OW 6019   5.088   1.908   2.992
 1707SOL    HW1 6020   5.184   1.892   3.016
 1707SOL    HW2 6021   5.078   1.903   2.893
 1708SOL     OW 6022   3.987   5.539   1.861
 1708SOL    HW1 6023   4.014   5.607   1.929
 1708SOL    HW2 6024   3.890   5.550   1.840
 1709SOL     OW 6025   4.531   6.494   0.648
 1709SOL    HW1 6026   4.494   6.439   0.723
 1709SOL    HW2 6027   4.574   6.576   0.686
 1710SOL     OW 6028   4.093   4.794   3.331
 1710SOL    HW1 6029   4.158   4.742   3.276
 1710SOL    HW2 6030   4.001   4.758   3.319
 1711SOL     OW 6031   2.722   5.042   5.644
 1711SOL    HW1 6032   2.817   5.020   5.619
 1711SOL    HW2 6033   2.660   5.006   5.574
 1712SOL     OW 6034   0.182   2.148   4.738
 1712SOL    HW1 6035   0.102   2.098   4.706
 1712SOL    HW2 6036   0.260   2.126   4.679
 1713SOL     OW 6037   3.641   1.086   2.774
 1713SOL    HW1 6038   3.660   1.165   2.715
 1713SOL    HW2 6039   3.579   1.023   2.727
 1714SOL     OW 6040   3.001   1.937   0.098
 1714SOL    HW1 6041   3.015   1.942   7.027
 1714SOL    HW2 6042   3.088   1.948   0.145
 1715SOL     OW 6043   2.070   5.734   2.416
 1715SOL    HW1 6044   2.117   5.656   2.373
 1715SOL    HW2 6045   2.100   5.741   2.511
 1716SOL     OW 6046   4.971   0.288   4.049
 1716SOL    HW1 6047   4.958   0.314   4.144
 1716SOL    HW2 6048   5.064   0.253   4.036
 1717SOL     OW 6049   3.931   5.224   5.226
 1717SOL    HW1 6050   3.995   5.148   5.237
 1717SOL    HW2 6051   3.981   5.310   5.228
 1718SOL     OW 6052   2.385   2.052   2.607
 1718SOL    HW1 6053   2.477   2.016   2.621
 1718SOL    HW2 6054   2.359   2.039   2.511
 1719SOL     OW 6055   1.598   4.915   1.183
 1719SOL    HW1 6056   1.615   5.008   1.214
 1719SOL    HW2 6057   1.610   4.910   1.084
 1720SOL     OW 6058   0.088   2.917   6.177
 1720SOL    HW1 6059   0.027   2.876   6.245
 1720SOL    HW2 6060   0.148   2.982   6.223
 1721SOL     OW 6061   1.099   0.424   2.157
 1721SOL    HW1 6062   1.006   0.402   2.126
 1721SOL    HW2 6063   1.099   0.515   2.198
 1722SOL     OW 6064   3.008   1.807   3.214
 1722SOL    HW1 6065   3.082   1.740   3.203
 1722SOL    HW2 6066   2.927   1.776   3.165
 1723SOL     OW 6067   4.689   1.993   6.917
 1723SOL    HW1 6068   4.786   2.005   6.896
 1723SOL    HW2 6069   4.668   1.895   6.923
 1724SOL     OW 6070   6.385   1.859   1.686
 1724SOL    HW1 6071   6.377   1.943   1.633
 1724SOL    HW2 6072   6.441   1.875   1.767
 1725SOL     OW 6073   1.708   4.454   6.737
 1725SOL    HW1 6074   1.682   4.550   6.744
 1725SOL    HW2 6075   1.797   4.440   6.780
 1726SOL     OW 6076   5.608   4.052   4.069
 1726SOL    HW1 6077   5.513   4.028   4.050
 1726SOL    HW2 6078   5.661   4.048   3.984
 1727SOL     OW 6079   3.769   3.548   2.820
 1727SOL    HW1 6080   3.670   3.557   2.830
 1727SOL    HW2 6081   3.810   3.639   2.814
 1728SOL     OW 6082   4.706   4.041   5.560
 1728SOL    HW1 6083   4.792   3.996   5.534
 1728SOL    HW2 6084   4.640   3.973   5.589
 1729SOL     OW 6085   1.039   3.855   2.816
 1729SOL    HW1 6086   1.077   3.924   2.755
 1729SOL    HW2 6087   0.941   3.871   2.827
 1730SOL     OW 6088   2.909   6.023   5.594
 1730SOL    HW1 6089   2.906   5.928   5.565
 1730SOL    HW2 6090   2.965   6.031   5.676
 1731SOL     OW 6091   5.449   4.856   3.671
 1731SOL    HW1 6092   5.531   4.904   3.640
 1731SOL    HW2 6093   5.462   4.826   3.766
 1732SOL     OW 6094   2.157   4.272   6.494
 1732SOL    HW1 6095   2.222   4.282   6.570
 1732SOL    HW2 6096   2.142   4.362   6.452
 1733SOL     OW 6097   2.390   4.568   0.543
 1733SOL    HW1 6098   2.386   4.527   0.634
 1733SOL    HW2 6099   2.297   4.592   0.514
 1734SOL     OW 6100   6.167   3.058   1.098
 1734SOL    HW1 6101   6.148   3.026   1.190
 1734SOL    HW2 6102   6.085   3.101   1.060
 1735SOL     OW 6103   4.732   5.511   6.586
 1735SOL    HW1 6104   4.694   5.526   6.677
 1735SOL    HW2 6105   4.757   5.599   6.545
 1736SOL     OW 6106   4.461   4.068   1.214
 1736SOL    HW1 6107   4.533   4.036   1.275
 1736SOL    HW2 6108   4.467   4.020   1.127
 1737SOL     OW 6109   5.835   0.595   4.391
 1737SOL    HW1 6110   5.808   0.685   4.359
 1737SOL    HW2 6111   5.755   0.535   4.393
 1738SOL     OW 6112   2.110   3.599   4.468
 1738SOL    HW1 6113   2.147   3.508   4.449
 1738SOL    HW2 6114   2.105   3.613   4.567
 1739SOL     OW 6115   6.158   0.266   4.382
 1739SOL    HW1 6116   6.124   0.360   4.388
 1739SOL    HW2 6117   6.161   0.226   4.474
 1740SOL     OW 6118   0.238   1.948   4.948
 1740SOL    HW1 6119   0.227   2.023   4.883
 1740SOL    HW2 6120   0.281   1.984   5.032
 1741SOL     OW 6121   1.839   1.577   3.582
 1741SOL    HW1 6122   1.779   1.555   3.505
 1741SOL    HW2 6123   1.930   1.600   3.547
 1742SOL     OW 6124   5.952   0.769   6.463
 1742SOL    HW1 6125   5.927   0.861   6.433
 1742SOL    HW2 6126   6.047   0.752   6.439
 1743SOL     OW 6127   1.283   1.652   3.035
 1743SOL    HW1 6128   1.254   1.558   3.020
 1743SOL    HW2 6129   1.241   1.711   2.966
 1744SOL     OW 6130   5.104   2.491   3.506
 1744SOL    HW1 6131   5.137   2.403   3.472
 1744SOL    HW2 6132   5.012   2.508   3.472
 1745SOL     OW 6133   6.297   6.068   1.279
 1745SOL    HW1 6134   6.201   6.091   1.265
 1745SOL    HW2 6135   6.315   6.057   1.377
 1746SOL     OW 6136   2.111   3.640   3.718
 1746SOL    HW1 6137   2.095   3.553   3.671
 1746SOL    HW2 6138   2.146   3.707   3.653
 1747SOL     OW 6139   3.549   1.793   2.013
 1747SOL    HW1 6140   3.617   1.728   1.978
 1747SOL    HW2 6141   3.465   1.743   2.035
 1748SOL     OW 6142   6.492   1.317   4.358
 1748SOL    HW1 6143   6.396   1.291   4.366
 1748SOL    HW2 6144   6.529   1.281   4.272
 1749SOL     OW 6145   2.932   6.236   0.610
 1749SOL    HW1 6146   2.900   6.273   0.523
 1749SOL    HW2 6147   2.989   6.155   0.593
 1750SOL     OW 6148   3.851   0.557   5.031
 1750SOL    HW1 6149   3.892   0.598   4.950
 1750SOL    HW2 6150   3.888   0.600   5.114
 1751SOL     OW 6151   6.066   2.567   4.787
 1751SOL    HW1 6152   6.052   2.665   4.773
 1751SOL    HW2 6153   6.022   2.515   4.713
 1752SOL     OW 6154   6.596   1.090   1.509
 1752SOL    HW1 6155   6.542   1.020   1.465
 1752SOL    HW2 6156   6.554   1.115   1.596
 1753SOL     OW 6157   6.902   1.686   2.015
 1753SOL    HW1 6158   6.917   1.678   1.917
 1753SOL    HW2 6159   6.922   1.598   2.059
 1754SOL     OW 6160   2.734   5.764   5.862
 1754SOL    HW1 6161   2.771   5.703   5.932
 1754SOL    HW2 6162   2.786   5.754   5.778
 1755SOL     OW 6163   6.388   6.572   4.998
 1755SOL    HW1 6164   6.343   6.658   4.975
 1755SOL    HW2 6165   6.333   6.496   4.965
 1756SOL     OW 6166   5.010   0.163   6.062
 1756SOL    HW1 6167   5.015   0.219   6.144
 1756SOL    HW2 6168   4.914   0.140   6.043
 1757SOL     OW 6169   2.251   5.303   4.085
 1757SOL    HW1 6170   2.337   5.271   4.045
 1757SOL    HW2 6171   2.224   5.241   4.159
 1758SOL     OW 6172   1.748   6.869   5.322
 1758SOL    HW1 6173   1.828   6.879   5.382
 1758SOL    HW2 6174   1.726   6.772   5.312
 1759SOL     OW 6175   1.527   6.037   6.163
 1759SOL    HW1 6176   1.448   6.070   6.111
 1759SOL    HW2 6177   1.498   6.007   6.254
 1760SOL     OW 6178   5.979   0.989   5.220
 1760SOL    HW1 6179   5.983   0.920   5.147
 1760SOL    HW2 6180   5.884   1.007   5.243
 1761SOL     OW 6181   6.832   1.191   0.987
 1761SOL    HW1 6182   6.840   1.201   1.086
 1761SOL    HW2 6183   6.903   1.246   0.942
 1762SOL     OW 6184   0.613   1.286   4.955
 1762SOL    HW1 6185   0.669   1.220   4.906
 1762SOL    HW2 6186   0.672   1.343   5.013
 1763SOL     OW 6187   1.214   4.214   5.064
 1763SOL    HW1 6188   1.133   4.204   5.006
 1763SOL    HW2 6189   1.212   4.304   5.107
 1764SOL     OW 6190   0.831   3.987   2.308
 1764SOL    HW1 6191   0.842   3.902   2.358
 1764SOL    HW2 6192   0.884   3.983   2.224
 1765SOL     OW 6193   4.787   2.577   1.764
 1765SOL    HW1 6194   4.876   2.572   1.719
 1765SOL    HW2 6195   4.799   2.594   1.861
 1766SOL     OW 6196   4.775   4.498   3.777
 1766SOL    HW1 6197   4.720   4.580   3.759
 1766SOL    HW2 6198   4.761   4.468   3.872
 1767SOL     OW 6199   0.542   5.321   2.360
 1767SOL    HW1 6200   0.565   5.416   2.343
 1767SOL    HW2 6201   0.498   5.313   2.450
 1768SOL     OW 6202   4.342   6.919   1.126
 1768SOL    HW1 6203   4.366   6.840   1.069
 1768SOL    HW2 6204   4.384   6.908   1.216
 1769SOL     OW 6205   6.155   0.618   6.706
 1769SOL    HW1 6206   6.104   0.543   6.664
 1769SOL    HW2 6207   6.150   0.699   6.647
 1770SOL     OW 6208   0.966   4.476   5.681
 1770SOL    HW1 6209   0.969   4.539   5.604
 1770SOL    HW2 6210   1.045   4.415   5.679
 1771SOL     OW 6211   0.985   4.331   6.952
 1771SOL    HW1 6212   0.997   4.403   7.021
 1771SOL    HW2 6213   1.069   4.276   6.947
 1772SOL     OW 6214   3.865   5.534   3.811
 1772SOL    HW1 6215   3.829   5.441   3.814
 1772SOL    HW2 6216   3.858   5.576   3.901
 1773SOL     OW 6217   0.987   0.937   5.181
 1773SOL    HW1 6218   1.045   0.896   5.252
 1773SOL    HW2 6219   0.893   0.904   5.192
 1774SOL     OW 6220   5.927   6.849   1.933
 1774SOL    HW1 6221   5.876   6.763   1.939
 1774SOL    HW2 6222   5.879   6.920   1.984
 1775SOL     OW 6223   2.326   5.442   6.416
 1775SOL    HW1 6224   2.346   5.508   6.344
 1775SOL    HW2 6225   2.243   5.391   6.393
 1776SOL     OW 6226   5.222   1.009   5.469
 1776SOL    HW1 6227   5.217   1.044   5.375
 1776SOL    HW2 6228   5.281   1.068   5.524
 1777SOL     OW 6229   4.425   6.790   6.210
 1777SOL    HW1 6230   4.362   6.722   6.247
 1777SOL    HW2 6231   4.385   6.881   6.220
 1778SOL     OW 6232   5.546   1.267   4.229
 1778SOL    HW1 6233   5.447   1.258   4.239
 1778SOL    HW2 6234   5.567   1.302   4.138
 1779SOL     OW 6235   4.947   0.104   5.149
 1779SOL    HW1 6236   4.925   0.078   5.055
 1779SOL    HW2 6237   4.913   0.196   5.167
 1780SOL     OW 6238   1.457   5.342   4.450
 1780SOL    HW1 6239   1.426   5.433   4.421
 1780SOL    HW2 6240   1.486   5.346   4.545
 1781SOL     OW 6241   4.708   0.228   4.457
 1781SOL    HW1 6242   4.796   0.229   4.410
 1781SOL    HW2 6243   4.664   0.139   4.446
 1782SOL     OW 6244   1.766   1.337   2.687
 1782SOL    HW1 6245   1.722   1.424   2.711
 1782SOL    HW2 6246   1.800   1.341   2.593
 1783SOL     OW 6247   2.369   3.691   6.003
 1783SOL    HW1 6248   2.301   3.619   6.022
 1783SOL    HW2 6249   2.327   3.780   6.020
 1784SOL     OW 6250   2.441   0.595   1.420
 1784SOL    HW1 6251   2.499   0.519   1.450
 1784SOL    HW2 6252   2.345   0.573   1.439
 1785SOL     OW 6253   0.313   6.434   4.093
 1785SOL    HW1 6254   0.321   6.526   4.053
 1785SOL    HW2 6255   0.400   6.387   4.086
 1786SOL     OW 6256   1.756   5.497   1.074
 1786SOL    HW1 6257   1.757   5.473   1.171
 1786SOL    HW2 6258   1.665   5.482   1.037
 1787SOL     OW 6259   1.330   2.306   5.372
 1787SOL    HW1 6260   1.288   2.331   5.285
 1787SOL    HW2 6261   1.263   2.316   5.446
 1788SOL     OW 6262   4.389   4.080   0.512
 1788SOL    HW1 6263   4.477   4.036   0.498
 1788SOL    HW2 6264   4.360   4.123   0.426
 1789SOL     OW 6265   6.322   3.446   1.804
 1789SOL    HW1 6266   6.344   3.389   1.883
 1789SOL    HW2 6267   6.332   3.393   1.720
 1790SOL     OW 6268   2.857   1.693   4.761
 1790SOL    HW1 6269   2.778   1.634   4.748
 1790SOL    HW2 6270   2.928   1.643   4.811
 1791SOL     OW 6271   6.250   0.890   3.813
 1791SOL    HW1 6272   6.259   0.829   3.734
 1791SOL    HW2 6273   6.212   0.978   3.784
 1792SOL     OW 6274   6.906   1.975   5.668
 1792SOL    HW1 6275   6.997   1.981   5.626
 1792SOL    HW2 6276   6.842   2.030   5.615
 1793SOL     OW 6277   6.943   1.247   5.217
 1793SOL    HW1 6278   6.960   1.247   5.119
 1793SOL    HW2 6279   6.990   1.170   5.259
 1794SOL     OW 6280   6.465   0.316   6.973
 1794SOL    HW1 6281   6.392   0.372   6.933
 1794SOL    HW2 6282   6.429   0.226   6.997
 1795SOL     OW 6283   5.787   4.728   0.036
 1795SOL    HW1 6284   5.691   4.703   0.022
 1795SOL    HW2 6285   5.839   4.709   6.981
 1796SOL     OW 6286   1.797   0.610   5.632
 1796SOL    HW1 6287   1.790   0.511   5.621
 1796SOL    HW2 6288   1.869   0.631   5.699
 1797SOL     OW 6289   1.637   6.778   5.068
 1797SOL    HW1 6290   1.639   6.848   4.997
 1797SOL    HW2 6291   1.670   6.817   5.154
 1798SOL     OW 6292   3.682   3.017   4.190
 1798SOL    HW1 6293   3.604   3.062   4.147
 1798SOL    HW2 6294   3.650   2.965   4.270
 1799SOL     OW 6295   3.610   0.650   6.830
 1799SOL    HW1 6296   3.592   0.582   6.759
 1799SOL    HW2 6297   3.708   0.665   6.838
 1800SOL     OW 6298   5.242   4.197   4.090
 1800SOL    HW1 6299   5.205   4.289   4.091
 1800SOL    HW2 6300   5.231   4.156   4.180
 1801SOL     OW 6301   1.451   1.312   1.637
 1801SOL    HW1 6302   1.538   1.295   1.683
 1801SOL    HW2 6303   1.468   1.336   1.542
 1802SOL     OW 6304   6.471   5.057   3.634
 1802SOL    HW1 6305   6.372   5.064   3.647
 1802SOL    HW2 6306   6.517   5.121   3.696
 1803SOL     OW 6307   6.543   6.169   2.334
 1803SOL    HW1 6308   6.604   6.106   2.383
 1803SOL    HW2 6309   6.450   6.159   2.368
 1804SOL     OW 6310   3.410   3.610   6.018
 1804SOL    HW1 6311   3.448   3.678   5.957
 1804SOL    HW2 6312   3.338   3.559   5.971
 1805SOL     OW 6313   0.967   6.889   5.983
 1805SOL    HW1 6314   0.998   6.830   5.909
 1805SOL    HW2 6315   1.045   6.936   6.024
 1806SOL     OW 6316   6.585   2.641   2.172
 1806SOL    HW1 6317   6.543   2.660   2.260
 1806SOL    HW2 6318   6.517   2.599   2.111
 1807SOL     OW 6319   6.616   3.846   0.951
 1807SOL    HW1 6320   6.705   3.842   0.995
 1807SOL    HW2 6321   6.615   3.920   0.883
 1808SOL     OW 6322   5.123   2.322   5.437
 1808SOL    HW1 6323   5.172   2.400   5.396
 1808SOL    HW2 6324   5.143   2.319   5.535
 1809SOL     OW 6325   3.834   2.303   5.575
 1809SOL    HW1 6326   3.760   2.312   5.508
 1809SOL    HW2 6327   3.805   2.341   5.663
 1810SOL     OW 6328   0.316   0.317   3.727
 1810SOL    HW1 6329   0.285   0.405   3.762
 1810SOL    HW2 6330   0.356   0.329   3.636
 1811SOL     OW 6331   3.943   5.403   2.250
 1811SOL    HW1 6332   3.963   5.460   2.171
 1811SOL    HW2 6333   3.894   5.321   2.222
 1812SOL     OW 6334   4.345   0.054   6.195
 1812SOL    HW1 6335   4.375   0.148   6.213
 1812SOL    HW2 6336   4.354   0.034   6.097
 1813SOL     OW 6337   4.937   4.655   2.632
 1813SOL    HW1 6338   5.031   4.658   2.596
 1813SOL    HW2 6339   4.900   4.564   2.619
 1814SOL     OW 6340   0.168   0.097   0.490
 1814SOL    HW1 6341   0.071   0.103   0.515
 1814SOL    HW2 6342   0.192   0.173   0.430
 1815SOL     OW 6343   5.718   5.832   2.358
 1815SOL    HW1 6344   5.621   5.855   2.353
 1815SOL    HW2 6345   5.729   5.733   2.354
 1816SOL     OW 6346   4.443   6.269   5.458
 1816SOL    HW1 6347   4.405   6.243   5.547
 1816SOL    HW2 6348   4.370   6.306   5.400
 1817SOL     OW 6349   2.857   1.751   2.912
 1817SOL    HW1 6350   2.769   1.783   2.876
 1817SOL    HW2 6351   2.841   1.688   2.988
 1818SOL     OW 6352   1.604   6.629   0.096
 1818SOL    HW1 6353   1.638   6.591   0.011
 1818SOL    HW2 6354   1.634   6.724   0.105
 1819SOL     OW 6355   0.778   4.524   2.652
 1819SOL    HW1 6356   0.758   4.441   2.600
 1819SOL    HW2 6357   0.693   4.560   2.692
 1820SOL     OW 6358   3.564   0.123   3.496
 1820SOL    HW1 6359   3.640   0.057   3.494
 1820SOL    HW2 6360   3.598   0.212   3.527
 1821SOL     OW 6361   3.591   0.989   2.230
 1821SOL    HW1 6362   3.542   0.964   2.147
 1821SOL    HW2 6363   3.616   1.086   2.226
 1822SOL     OW 6364   0.888   2.889   2.247
 1822SOL    HW1 6365   0.933   2.977   2.240
 1822SOL    HW2 6366   0.945   2.819   2.204
 1823SOL     OW 6367   3.616   6.677   2.690
 1823SOL    HW1 6368   3.590   6.588   2.653
 1823SOL    HW2 6369   3.715   6.688   2.686
 1824SOL     OW 6370   4.321   4.302   1.236
 1824SOL    HW1 6371   4.224   4.282   1.224
 1824SOL    HW2 6372   4.373   4.217   1.225
 1825SOL     OW 6373   1.341   2.390   5.103
 1825SOL    HW1 6374   1.426   2.396   5.050
 1825SOL    HW2 6375   1.288   2.474   5.091
 1826SOL     OW 6376   3.723   2.028   1.570
 1826SOL    HW1 6377   3.725   1.929   1.558
 1826SOL    HW2 6378   3.682   2.071   1.489
 1827SOL     OW 6379   5.205   5.359   0.805
 1827SOL    HW1 6380   5.107   5.376   0.820
 1827SOL    HW2 6381   5.256   5.382   0.887
 1828SOL     OW 6382   1.339   3.325   6.027
 1828SOL    HW1 6383   1.338   3.413   6.076
 1828SOL    HW2 6384   1.367   3.253   6.090
 1829SOL     OW 6385   4.169   0.210   4.027
 1829SOL    HW1 6386   4.251   0.203   4.085
 1829SOL    HW2 6387   4.148   0.306   4.011
 1830SOL     OW 6388   5.894   6.961   4.956
 1830SOL    HW1 6389   5.846   6.874   4.972
 1830SOL    HW2 6390   5.952   6.982   5.035
 1831SOL     OW 6391   5.080   5.468   2.909
 1831SOL    HW1 6392   5.066   5.398   2.840
 1831SOL    HW2 6393   4.997   5.480   2.963
 1832SOL     OW 6394   2.048   4.002   0.573
 1832SOL    HW1 6395   1.977   4.063   0.538
 1832SOL    HW2 6396   2.118   3.991   0.502
 1833SOL     OW 6397   4.868   0.303   2.146
 1833SOL    HW1 6398   4.832   0.389   2.109
 1833SOL    HW2 6399   4.794   0.250   2.186
 1834SOL     OW 6400   2.934   2.345   0.061
 1834SOL    HW1 6401   2.887   2.288   7.022
 1834SOL    HW2 6402   2.903   2.320   0.153
 1835SOL     OW 6403   0.477   4.871   1.217
 1835SOL    HW1 6404   0.419   4.916   1.149
 1835SOL    HW2 6405   0.573   4.877   1.188
 1836SOL     OW 6406   5.247   1.499   2.166
 1836SOL    HW1 6407   5.158   1.461   2.139
 1836SOL    HW2 6408   5.306   1.426   2.199
 1837SOL     OW 6409   2.540   0.723   5.907
 1837SOL    HW1 6410   2.458   0.779   5.897
 1837SOL    HW2 6411   2.558   0.706   6.004
 1838SOL     OW 6412   6.514   0.775   0.605
 1838SOL    HW1 6413   6.547   0.779   0.699
 1838SOL    HW2 6414   6.415   0.762   0.604
 1839SOL     OW 6415   5.811   1.801   0.309
 1839SOL    HW1 6416   5.762   1.791   0.222
 1839SOL    HW2 6417   5.898   1.848   0.294
 1840SOL     OW 6418   3.465   0.393   3.322
 1840SOL    HW1 6419   3.454   0.426   3.416
 1840SOL    HW2 6420   3.502   0.466   3.265
 1841SOL     OW 6421   2.402   0.100   2.094
 1841SOL    HW1 6422   2.420   0.171   2.162
 1841SOL    HW2 6423   2.457   0.118   2.012
 1842SOL     OW 6424   1.825   4.563   0.369
 1842SOL    HW1 6425   1.805   4.597   0.277
 1842SOL    HW2 6426   1.791   4.628   0.436
 1843SOL     OW 6427   3.665   1.467   4.727
 1843SOL    HW1 6428   3.674   1.397   4.797
 1843SOL    HW2 6429   3.589   1.444   4.666
 1844SOL     OW 6430   5.029   1.199   5.995
 1844SOL    HW1 6431   5.057   1.230   6.086
 1844SOL    HW2 6432   4.938   1.236   5.974
 1845SOL     OW 6433   2.457   0.553   3.336
 1845SOL    HW1 6434   2.363   0.586   3.343
 1845SOL    HW2 6435   2.519   0.620   3.376
 1846SOL     OW 6436   4.671   0.797   3.463
 1846SOL    HW1 6437   4.721   0.728   3.410
 1846SOL    HW2 6438   4.655   0.762   3.556
 1847SOL     OW 6439   2.265   0.444   4.284
 1847SOL    HW1 6440   2.292   0.530   4.241
 1847SOL    HW2 6441   2.301   0.440   4.377
 1848SOL     OW 6442   2.005   5.629   4.099
 1848SOL    HW1 6443   2.016   5.549   4.159
 1848SOL    HW2 6444   1.908   5.641   4.078
 1849SOL     OW 6445   4.821   2.822   2.548
 1849SOL    HW1 6446   4.784   2.902   2.503
 1849SOL    HW2 6447   4.819   2.835   2.647
 1850SOL     OW 6448   5.431   2.076   1.988
 1850SOL    HW1 6449   5.401   2.074   2.083
 1850SOL    HW2 6450   5.377   2.142   1.936
 1851SOL     OW 6451   0.282   2.749   6.418
 1851SOL    HW1 6452   0.306   2.741   6.321
 1851SOL    HW2 6453   0.276   2.845   6.443
 1852SOL     OW 6454   1.141   4.000   2.150
 1852SOL    HW1 6455   1.088   4.062   2.092
 1852SOL    HW2 6456   1.130   3.906   2.118
 1853SOL     OW 6457   0.014   3.074   4.715
 1853SOL    HW1 6458   0.092   3.070   4.653
 1853SOL    HW2 6459   0.025   3.153   4.776
 1854SOL     OW 6460   0.612   5.703   3.363
 1854SOL    HW1 6461   0.661   5.723   3.448
 1854SOL    HW2 6462   0.638   5.612   3.330
 1855SOL     OW 6463   5.108   3.529   4.553
 1855SOL    HW1 6464   5.197   3.560   4.585
 1855SOL    HW2 6465   5.096   3.554   4.457
 1856SOL     OW 6466   3.577   3.284   7.026
 1856SOL    HW1 6467   3.499   3.302   0.057
 1856SOL    HW2 6468   3.594   3.186   7.022
 1857SOL     OW 6469   5.160   1.140   0.138
 1857SOL    HW1 6470   5.148   1.192   0.053
 1857SOL    HW2 6471   5.153   1.202   0.216
 1858SOL     OW 6472   4.303   1.981   4.348
 1858SOL    HW1 6473   4.220   1.934   4.379
 1858SOL    HW2 6474   4.383   1.923   4.364
 1859SOL     OW 6475   5.609   1.863   5.096
 1859SOL    HW1 6476   5.586   1.798   5.168
 1859SOL    HW2 6477   5.658   1.817   5.023
 1860SOL     OW 6478   0.878   1.736   4.994
 1860SOL    HW1 6479   0.810   1.803   5.022
 1860SOL    HW2 6480   0.959   1.783   4.959
 1861SOL     OW 6481   5.908   0.665   2.637
 1861SOL    HW1 6482   5.961   0.669   2.722
 1861SOL    HW2 6483   5.946   0.594   2.578
 1862SOL     OW 6484   2.239   6.437   6.918
 1862SOL    HW1 6485   2.223   6.402   7.011
 1862SOL    HW2 6486   2.201   6.529   6.911
 1863SOL     OW 6487   0.373   3.210   1.179
 1863SOL    HW1 6488   0.404   3.296   1.138
 1863SOL    HW2 6489   0.273   3.204   1.171
 1864SOL     OW 6490   2.704   5.827   4.318
 1864SOL    HW1 6491   2.693   5.770   4.237
 1864SOL    HW2 6492   2.789   5.803   4.364
 1865SOL     OW 6493   5.020   1.353   0.273
 1865SOL    HW1 6494   4.948   1.371   0.206
 1865SOL    HW2 6495   4.979   1.321   0.359
 1866SOL     OW 6496   0.438   3.864   4.398
 1866SOL    HW1 6497   0.492   3.791   4.440
 1866SOL    HW2 6498   0.500   3.931   4.357
 1867SOL     OW 6499   2.339   2.222   1.382
 1867SOL    HW1 6500   2.246   2.240   1.348
 1867SOL    HW2 6501   2.335   2.159   1.459
 1868SOL     OW 6502   5.299   4.379   5.138
 1868SOL    HW1 6503   5.322   4.322   5.216
 1868SOL    HW2 6504   5.244   4.326   5.073
 1869SOL     OW 6505   4.472   2.201   3.945
 1869SOL    HW1 6506   4.556   2.209   4.000
 1869SOL    HW2 6507   4.407   2.141   3.991
 1870SOL     OW 6508   1.243   4.374   4.166
 1870SOL    HW1 6509   1.290   4.459   4.141
 1870SOL    HW2 6510   1.227   4.319   4.083
 1871SOL     OW 6511   1.001   6.832   0.420
 1871SOL    HW1 6512   0.961   6.818   0.511
 1871SOL    HW2 6513   0.951   6.904   0.372
 1872SOL     OW 6514   3.351   1.864   0.378
 1872SOL    HW1 6515   3.312   1.953   0.358
 1872SOL    HW2 6516   3.288   1.812   0.437
 1873SOL     OW 6517   6.598   0.578   6.856
 1873SOL    HW1 6518   6.562   0.503   6.912
 1873SOL    HW2 6519   6.529   0.607   6.790
 1874SOL     OW 6520   0.859   6.522   6.685
 1874SOL    HW1 6521   0.929   6.452   6.670
 1874SOL    HW2 6522   0.897   6.612   6.667
 1875SOL     OW 6523   6.345   5.738   6.734
 1875SOL    HW1 6524   6.303   5.653   6.766
 1875SOL    HW2 6525   6.410   5.771   6.802
 1876SOL     OW 6526   5.465   6.747   5.910
 1876SOL    HW1 6527   5.419   6.681   5.970
 1876SOL    HW2 6528   5.499   6.823   5.965
 1877SOL     OW 6529   0.328   0.886   2.353
 1877SOL    HW1 6530   0.272   0.886   2.270
 1877SOL    HW2 6531   0.410   0.942   2.338
 1878SOL     OW 6532   0.605   4.281   3.399
 1878SOL    HW1 6533   0.658   4.265   3.316
 1878SOL    HW2 6534   0.666   4.276   3.479
 1879SOL     OW 6535   2.873   5.471   5.033
 1879SOL    HW1 6536   2.787   5.520   5.020
 1879SOL    HW2 6537   2.905   5.435   4.945
 1880SOL     OW 6538   0.091   2.867   3.211
 1880SOL    HW1 6539   0.183   2.901   3.190
 1880SOL    HW2 6540   0.076   2.872   3.310
 1881SOL     OW 6541   0.666   2.210   3.883
 1881SOL    HW1 6542   0.713   2.142   3.828
 1881SOL    HW2 6543   0.731   2.253   3.946
 1882SOL     OW 6544   1.218   5.921   0.207
 1882SOL    HW1 6545   1.304   5.967   0.184
 1882SOL    HW2 6546   1.142   5.984   0.194
 1883SOL     OW 6547   1.151   4.031   2.642
 1883SOL    HW1 6548   1.105   4.058   2.557
 1883SOL    HW2 6549   1.235   4.086   2.653
 1884SOL     OW 6550   3.834   0.939   0.353
 1884SOL    HW1 6551   3.808   0.852   0.312
 1884SOL    HW2 6552   3.797   0.944   0.446
 1885SOL     OW 6553   6.842   2.581   0.693
 1885SOL    HW1 6554   6.870   2.518   0.766
 1885SOL    HW2 6555   6.893   2.560   0.610
 1886SOL     OW 6556   2.390   1.653   6.704
 1886SOL    HW1 6557   2.372   1.573   6.761
 1886SOL    HW2 6558   2.303   1.690   6.670
 1887SOL     OW 6559   0.634   5.526   5.762
 1887SOL    HW1 6560   0.597   5.544   5.671
 1887SOL    HW2 6561   0.564   5.543   5.831
 1888SOL     OW 6562   1.929   1.707   5.822
 1888SOL    HW1 6563   1.938   1.807   5.818
 1888SOL    HW2 6564   2.004   1.665   5.770
 1889SOL     OW 6565   4.556   3.131   0.708
 1889SOL    HW1 6566   4.509   3.099   0.626
 1889SOL    HW2 6567   4.514   3.091   0.789
 1890SOL     OW 6568   1.018   5.814   6.018
 1890SOL    HW1 6569   1.040   5.905   5.983
 1890SOL    HW2 6570   0.969   5.762   5.948
 1891SOL     OW 6571   5.969   3.084   5.629
 1891SOL    HW1 6572   6.035   3.023   5.673
 1891SOL    HW2 6573   5.977   3.176   5.668
 1892SOL     OW 6574   3.756   5.907   1.237
 1892SOL    HW1 6575   3.850   5.875   1.224
 1892SOL    HW2 6576   3.715   5.858   1.315
 1893SOL     OW 6577   3.689   2.099   4.364
 1893SOL    HW1 6578   3.730   2.009   4.345
 1893SOL    HW2 6579   3.741   2.169   4.316
 1894SOL     OW 6580   4.543   3.975   1.661
 1894SOL    HW1 6581   4.456   3.954   1.618
 1894SOL    HW2 6582   4.529   4.038   1.737
 1895SOL     OW 6583   6.397   1.333   2.477
 1895SOL    HW1 6584   6.356   1.301   2.563
 1895SOL    HW2 6585   6.326   1.374   2.420
 1896SOL     OW 6586   6.123   1.561   4.292
 1896SOL    HW1 6587   6.155   1.618   4.368
 1896SOL    HW2 6588   6.150   1.466   4.308
 1897SOL     OW 6589   6.134   5.293   3.418
 1897SOL    HW1 6590   6.207   5.231   3.387
 1897SOL    HW2 6591   6.117   5.361   3.347
 1898SOL     OW 6592   5.339   5.696   1.049
 1898SOL    HW1 6593   5.254   5.643   1.044
 1898SOL    HW2 6594   5.399   5.670   0.973
 1899SOL     OW 6595   0.140   3.227   3.092
 1899SOL    HW1 6596   0.160   3.223   3.190
 1899SOL    HW2 6597   0.104   3.318   3.069
 1900SOL     OW 6598   1.632   6.515   6.528
 1900SOL    HW1 6599   1.701   6.511   6.601
 1900SOL    HW2 6600   1.557   6.452   6.550
 1901SOL     OW 6601   1.811   0.588   6.871
 1901SOL    HW1 6602   1.766   0.592   6.782
 1901SOL    HW2 6603   1.852   0.497   6.883
 1902SOL     OW 6604   0.837   2.895   3.974
 1902SOL    HW1 6605   0.917   2.911   4.033
 1902SOL    HW2 6606   0.848   2.948   3.890
 1903SOL     OW 6607   6.432   4.674   3.642
 1903SOL    HW1 6608   6.449   4.614   3.564
 1903SOL    HW2 6609   6.517   4.717   3.670
 1904SOL     OW 6610   0.399   0.145   4.426
 1904SOL    HW1 6611   0.490   0.178   4.449
 1904SOL    HW2 6612   0.364   0.196   4.348
 1905SOL     OW 6613   6.732   2.289   4.113
 1905SOL    HW1 6614   6.809   2.324   4.166
 1905SOL    HW2 6615   6.688   2.364   4.064
 1906SOL     OW 6616   2.209   6.839   6.015
 1906SOL    HW1 6617   2.212   6.792   5.927
 1906SOL    HW2 6618   2.114   6.866   6.035
 1907SOL     OW 6619   2.915   0.204   3.471
 1907SOL    HW1 6620   2.831   0.239   3.428
 1907SOL    HW2 6621   2.991   0.264   3.449
 1908SOL     OW 6622   4.567   0.720   5.954
 1908SOL    HW1 6623   4.645   0.728   5.891
 1908SOL    HW2 6624   4.596   0.749   6.046
 1909SOL     OW 6625   2.510   4.555   4.702
 1909SOL    HW1 6626   2.485   4.649   4.726
 1909SOL    HW2 6627   2.610   4.547   4.698
 1910SOL     OW 6628   5.264   2.336   6.935
 1910SOL    HW1 6629   5.212   2.421   6.933
 1910SOL    HW2 6630   5.328   2.337   7.012
 1911SOL     OW 6631   6.864   2.438   5.277
 1911SOL    HW1 6632   6.776   2.439   5.325
 1911SOL    HW2 6633   6.918   2.359   5.306
 1912SOL     OW 6634   3.060   6.629   2.408
 1912SOL    HW1 6635   3.123   6.691   2.453
 1912SOL    HW2 6636   2.988   6.601   2.472
 1913SOL     OW 6637   2.115   6.143   5.037
 1913SOL    HW1 6638   2.082   6.197   5.115
 1913SOL    HW2 6639   2.214   6.136   5.040
 1914SOL     OW 6640   2.492   2.757   6.343
 1914SOL    HW1 6641   2.568   2.821   6.353
 1914SOL    HW2 6642   2.490   2.695   6.421
 1915SOL     OW 6643   4.238   0.444   6.419
 1915SOL    HW1 6644   4.203   0.438   6.513
 1915SOL    HW2 6645   4.175   0.500   6.364
 1916SOL     OW 6646   4.023   5.822   1.206
 1916SOL    HW1 6647   4.121   5.827   1.187
 1916SOL    HW2 6648   3.996   5.727   1.220
 1917SOL     OW 6649   3.564   4.061   4.353
 1917SOL    HW1 6650   3.596   3.970   4.327
 1917SOL    HW2 6651   3.537   4.060   4.450
 1918SOL     OW 6652   6.212   6.360   6.150
 1918SOL    HW1 6653   6.288   6.396   6.096
 1918SOL    HW2 6654   6.195   6.264   6.124
 1919SOL     OW 6655   0.611   5.904   2.531
 1919SOL    HW1 6656   0.634   5.930   2.625
 1919SOL    HW2 6657   0.533   5.959   2.500
 1920SOL     OW 6658   0.828   4.594   3.681
 1920SOL    HW1 6659   0.828   4.495   3.667
 1920SOL    HW2 6660   0.818   4.640   3.593
 1921SOL     OW 6661   1.081   5.719   0.051
 1921SOL    HW1 6662   1.103   5.783   0.124
 1921SOL    HW2 6663   1.036   5.768   7.005
 1922SOL     OW 6664   4.478   3.461   1.386
 1922SOL    HW1 6665   4.431   3.470   1.298
 1922SOL    HW2 6666   4.547   3.389   1.380
 1923SOL     OW 6667   2.376   1.385   0.758
 1923SOL    HW1 6668   2.394   1.452   0.686
 1923SOL    HW2 6669   2.459   1.372   0.813
 1924SOL     OW 6670   6.357   4.440   1.995
 1924SOL    HW1 6671   6.290   4.390   2.050
 1924SOL    HW2 6672   6.436   4.464   2.052
 1925SOL     OW 6673   3.424   3.822   1.787
 1925SOL    HW1 6674   3.452   3.829   1.883
 1925SOL    HW2 6675   3.381   3.908   1.758
 1926SOL     OW 6676   1.808   0.862   4.625
 1926SOL    HW1 6677   1.787   0.956   4.600
 1926SOL    HW2 6678   1.754   0.836   4.705
 1927SOL     OW 6679   4.477   3.319   7.025
 1927SOL    HW1 6680   4.381   3.309   6.999
 1927SOL    HW2 6681   4.484   3.332   0.096
 1928SOL     OW 6682   6.827   3.622   6.188
 1928SOL    HW1 6683   6.747   3.661   6.233
 1928SOL    HW2 6684   6.870   3.692   6.130
 1929SOL     OW 6685   1.638   5.968   2.091
 1929SOL    HW1 6686   1.710   6.035   2.079
 1929SOL    HW2 6687   1.570   5.978   2.019
 1930SOL     OW 6688   6.097   4.623   6.597
 1930SOL    HW1 6689   6.029   4.552   6.611
 1930SOL    HW2 6690   6.140   4.611   6.507
 1931SOL     OW 6691   0.421   3.803   3.092
 1931SOL    HW1 6692   0.460   3.849   3.012
 1931SOL    HW2 6693   0.493   3.785   3.159
 1932SOL     OW 6694   5.018   3.980   2.402
 1932SOL    HW1 6695   4.939   4.034   2.376
 1932SOL    HW2 6696   5.002   3.883   2.380
 1933SOL     OW 6697   2.971   4.684   0.820
 1933SOL    HW1 6698   2.932   4.594   0.799
 1933SOL    HW2 6699   3.050   4.672   0.881
 1934SOL     OW 6700   1.157   0.168   5.835
 1934SOL    HW1 6701   1.184   0.090   5.779
 1934SOL    HW2 6702   1.060   0.161   5.857
 1935SOL     OW 6703   2.411   0.018   4.740
 1935SOL    HW1 6704   2.502   0.040   4.705
 1935SOL    HW2 6705   2.377   6.965   4.693
 1936SOL     OW 6706   5.291   5.800   4.448
 1936SOL    HW1 6707   5.323   5.709   4.425
 1936SOL    HW2 6708   5.320   5.824   4.541
 1937SOL     OW 6709   3.679   6.645   1.798
 1937SOL    HW1 6710   3.638   6.577   1.737
 1937SOL    HW2 6711   3.676   6.735   1.754
 1938SOL     OW 6712   3.593   1.705   3.305
 1938SOL    HW1 6713   3.509   1.755   3.285
 1938SOL    HW2 6714   3.667   1.771   3.320
 1939SOL     OW 6715   1.348   1.017   3.674
 1939SOL    HW1 6716   1.373   0.935   3.725
 1939SOL    HW2 6717   1.257   1.047   3.702
 1940SOL     OW 6718   5.375   5.425   6.856
 1940SOL    HW1 6719   5.277   5.415   6.834
 1940SOL    HW2 6720   5.419   5.481   6.786
 1941SOL     OW 6721   6.684   4.528   3.297
 1941SOL    HW1 6722   6.681   4.460   3.370
 1941SOL    HW2 6723   6.693   4.619   3.338
 1942SOL     OW 6724   5.507   5.574   1.987
 1942SOL    HW1 6725   5.554   5.637   1.925
 1942SOL    HW2 6726   5.571   5.540   2.056
 1943SOL     OW 6727   3.123   5.229   2.803
 1943SOL    HW1 6728   3.168   5.198   2.720
 1943SOL    HW2 6729   3.171   5.310   2.839
 1944SOL     OW 6730   5.353   1.747   6.386
 1944SOL    HW1 6731   5.256   1.730   6.402
 1944SOL    HW2 6732   5.364   1.836   6.342
 1945SOL     OW 6733   4.818   5.420   3.016
 1945SOL    HW1 6734   4.827   5.320   3.016
 1945SOL    HW2 6735   4.767   5.449   2.936
 1946SOL     OW 6736   1.138   0.827   0.959
 1946SOL    HW1 6737   1.091   0.838   0.871
 1946SOL    HW2 6738   1.188   0.740   0.958
 1947SOL     OW 6739   5.311   6.700   4.990
 1947SOL    HW1 6740   5.310   6.700   4.890
 1947SOL    HW2 6741   5.340   6.789   5.023
 1948SOL     OW 6742   0.015   5.823   4.777
 1948SOL    HW1 6743   0.042   5.853   4.685
 1948SOL    HW2 6744   6.971   5.755   4.770
 1949SOL     OW 6745   4.071   4.044   5.937
 1949SOL    HW1 6746   4.070   4.143   5.944
 1949SOL    HW2 6747   3.979   4.010   5.917
 1950SOL     OW 6748   3.963   3.426   6.786
 1950SOL    HW1 6749   3.953   3.500   6.719
 1950SOL    HW2 6750   3.892   3.434   6.856
 1951SOL     OW 6751   6.166   2.500   0.425
 1951SOL    HW1 6752   6.218   2.443   0.361
 1951SOL    HW2 6753   6.220   2.514   0.508
 1952SOL     OW 6754   3.288   2.283   0.534
 1952SOL    HW1 6755   3.373   2.260   0.582
 1952SOL    HW2 6756   3.290   2.380   0.508
 1953SOL     OW 6757   6.732   2.251   6.838
 1953SOL    HW1 6758   6.825   2.257   6.874
 1953SOL    HW2 6759   6.735   2.258   6.738
 1954SOL     OW 6760   5.195   1.970   4.015
 1954SOL    HW1 6761   5.237   1.943   4.102
 1954SOL    HW2 6762   5.263   2.018   3.960
 1955SOL     OW 6763   1.497   6.867   2.126
 1955SOL    HW1 6764   1.510   6.966   2.137
 1955SOL    HW2 6765   1.400   6.846   2.135
 1956SOL     OW 6766   5.239   6.281   2.827
 1956SOL    HW1 6767   5.177   6.221   2.878
 1956SOL    HW2 6768   5.222   6.272   2.729
 1957SOL     OW 6769   6.607   5.806   5.023
 1957SOL    HW1 6770   6.676   5.825   5.092
 1957SOL    HW2 6771   6.536   5.748   5.062
 1958SOL     OW 6772   5.817   3.421   4.352
 1958SOL    HW1 6773   5.848   3.372   4.271
 1958SOL    HW2 6774   5.806   3.355   4.428
 1959SOL     OW 6775   0.571   2.900   5.688
 1959SOL    HW1 6776   0.490   2.869   5.738
 1959SOL    HW2 6777   0.584   2.844   5.606
 1960SOL     OW 6778   6.341   4.823   0.893
 1960SOL    HW1 6779   6.353   4.724   0.896
 1960SOL    HW2 6780   6.268   4.845   0.828
 1961SOL     OW 6781   5.795   4.619   4.915
 1961SOL    HW1 6782   5.756   4.559   4.986
 1961SOL    HW2 6783   5.893   4.632   4.933
 1962SOL     OW 6784   1.423   6.011   4.316
 1962SOL    HW1 6785   1.421   6.070   4.397
 1962SOL    HW2 6786   1.335   6.017   4.268
 1963SOL     OW 6787   0.866   0.753   1.864
 1963SOL    HW1 6788   0.895   0.666   1.824
 1963SOL    HW2 6789   0.852   0.741   1.963
 1964SOL     OW 6790   4.400   2.690   1.578
 1964SOL    HW1 6791   4.307   2.715   1.606
 1964SOL    HW2 6792   4.466   2.744   1.631
 1965SOL     OW 6793   0.400   2.768   2.939
 1965SOL    HW1 6794   0.481   2.825   2.952
 1965SOL    HW2 6795   0.330   2.793   3.005
 1966SOL     OW 6796   0.650   5.235   5.097
 1966SOL    HW1 6797   0.651   5.328   5.060
 1966SOL    HW2 6798   0.577   5.183   5.054
 1967SOL     OW 6799   4.692   2.056   6.025
 1967SOL    HW1 6800   4.714   2.088   6.117
 1967SOL    HW2 6801   4.617   2.111   5.988
 1968SOL     OW 6802   3.216   6.077   6.796
 1968SOL    HW1 6803   3.143   6.129   6.840
 1968SOL    HW2 6804   3.186   6.047   6.705
 1969SOL     OW 6805   6.597   1.639   1.831
 1969SOL    HW1 6806   6.589   1.659   1.733
 1969SOL    HW2 6807   6.579   1.722   1.884
 1970SOL     OW 6808   2.304   0.843   5.892
 1970SOL    HW1 6809   2.262   0.760   5.927
 1970SOL    HW2 6810   2.246   0.922   5.913
 1971SOL     OW 6811   6.753   0.148   6.318
 1971SOL    HW1 6812   6.795   0.082   6.256
 1971SOL    HW2 6813   6.726   0.101   6.402
 1972SOL     OW 6814   0.583   3.183   2.932
 1972SOL    HW1 6815   0.501   3.143   2.893
 1972SOL    HW2 6816   0.569   3.201   3.029
 1973SOL     OW 6817   3.556   2.861   1.853
 1973SOL    HW1 6818   3.462   2.834   1.873
 1973SOL    HW2 6819   3.563   2.961   1.855
 1974SOL     OW 6820   6.437   6.148   3.903
 1974SOL    HW1 6821   6.484   6.062   3.922
 1974SOL    HW2 6822   6.340   6.131   3.886
 1975SOL     OW 6823   2.535   0.974   3.605
 1975SOL    HW1 6824   2.522   0.878   3.626
 1975SOL    HW2 6825   2.526   0.989   3.507
 1976SOL     OW 6826   0.460   6.119   0.333
 1976SOL    HW1 6827   0.552   6.118   0.374
 1976SOL    HW2 6828   0.447   6.204   0.283
 1977SOL     OW 6829   1.155   2.974   3.662
 1977SOL    HW1 6830   1.113   3.052   3.616
 1977SOL    HW2 6831   1.096   2.894   3.655
 1978SOL     OW 6832   1.689   1.435   4.171
 1978SOL    HW1 6833   1.712   1.339   4.188
 1978SOL    HW2 6834   1.701   1.456   4.074
 1979SOL     OW 6835   6.950   4.434   5.016
 1979SOL    HW1 6836   6.896   4.517   4.999
 1979SOL    HW2 6837   6.989   4.401   4.930
 1980SOL     OW 6838   3.196   6.975   0.267
 1980SOL    HW1 6839   3.251   6.894   0.245
 1980SOL    HW2 6840   3.107   6.945   0.300
 1981SOL     OW 6841   5.523   2.247   2.418
 1981SOL    HW1 6842   5.458   2.288   2.354
 1981SOL    HW2 6843   5.505   2.149   2.427
 1982SOL     OW 6844   6.053   4.789   4.839
 1982SOL    HW1 6845   6.134   4.779   4.897
 1982SOL    HW2 6846   6.047   4.883   4.806
 1983SOL     OW 6847   0.855   2.311   3.228
 1983SOL    HW1 6848   0.791   2.346   3.159
 1983SOL    HW2 6849   0.871   2.381   3.298
 1984SOL     OW 6850   4.790   1.295   5.981
 1984SOL    HW1 6851   4.752   1.384   6.006
 1984SOL    HW2 6852   4.717   1.236   5.946
 1985SOL     OW 6853   1.471   1.272   2.308
 1985SOL    HW1 6854   1.383   1.259   2.263
 1985SOL    HW2 6855   1.540   1.216   2.262
 1986SOL     OW 6856   1.266   1.581   6.966
 1986SOL    HW1 6857   1.350   1.635   6.965
 1986SOL    HW2 6858   1.282   1.496   7.017
 1987SOL     OW 6859   2.531   3.110   1.707
 1987SOL    HW1 6860   2.604   3.063   1.657
 1987SOL    HW2 6861   2.565   3.198   1.740
 1988SOL     OW 6862   4.861   4.347   0.604
 1988SOL    HW1 6863   4.927   4.390   0.542
 1988SOL    HW2 6864   4.905   4.270   0.650
 1989SOL     OW 6865   2.055   0.687   4.888
 1989SOL    HW1 6866   2.119   0.622   4.929
 1989SOL    HW2 6867   1.987   0.637   4.835
 1990SOL     OW 6868   3.139   0.204   2.122
 1990SOL    HW1 6869   3.075   0.234   2.193
 1990SOL    HW2 6870   3.105   0.121   2.078
 1991SOL     OW 6871   3.518   5.452   5.769
 1991SOL    HW1 6872   3.521   5.483   5.864
 1991SOL    HW2 6873   3.434   5.485   5.726
 1992SOL     OW 6874   2.780   6.722   6.007
 1992SOL    HW1 6875   2.841   6.794   6.040
 1992SOL    HW2 6876   2.723   6.690   6.083
 1993SOL     OW 6877   3.848   3.734   5.513
 1993SOL    HW1 6878   3.799   3.667   5.457
 1993SOL    HW2 6879   3.826   3.719   5.610
 1994SOL     OW 6880   0.853   2.146   2.272
 1994SOL    HW1 6881   0.791   2.085   2.223
 1994SOL    HW2 6882   0.904   2.094   2.341
 1995SOL     OW 6883   6.444   2.250   2.374
 1995SOL    HW1 6884   6.521   2.248   2.309
 1995SOL    HW2 6885   6.400   2.339   2.370
 1996SOL     OW 6886   2.998   2.959   1.399
 1996SOL    HW1 6887   3.061   3.026   1.361
 1996SOL    HW2 6888   3.041   2.912   1.477
 1997SOL     OW 6889   5.017   0.872   5.562
 1997SOL    HW1 6890   5.087   0.941   5.545
 1997SOL    HW2 6891   5.023   0.842   5.658
 1998SOL     OW 6892   3.188   3.870   6.066
 1998SOL    HW1 6893   3.195   3.811   6.146
 1998SOL    HW2 6894   3.102   3.853   6.019
 1999SOL     OW 6895   2.885   0.487   1.887
 1999SOL    HW1 6896   2.975   0.501   1.929
 1999SOL    HW2 6897   2.867   0.561   1.822
 2000SOL     OW 6898   4.143   1.870   5.115
 2000SOL    HW1 6899   4.181   1.838   5.202
 2000SOL    HW2 6900   4.092   1.795   5.072
 2001SOL     OW 6901   3.548   2.331   1.635
 2001SOL    HW1 6902   3.608   2.356   1.711
 2001SOL    HW2 6903   3.499   2.247   1.657
 2002SOL     OW 6904   1.412   5.938   6.453
 2002SOL    HW1 6905   1.336   5.983   6.500
 2002SOL    HW2 6906   1.379   5.855   6.408
 2003SOL     OW 6907   4.348   6.960   3.993
 2003SOL    HW1 6908   4.379   0.016   4.037
 2003SOL    HW2 6909   4.374   6.882   4.050
 2004SOL     OW 6910   5.214   1.050   4.478
 2004SOL    HW1 6911   5.143   1.090   4.535
 2004SOL    HW2 6912   5.257   1.122   4.422
 2005SOL     OW 6913   1.863   5.870   0.205
 2005SOL    HW1 6914   1.820   5.831   0.123
 2005SOL    HW2 6915   1.870   5.799   0.276
 2006SOL     OW 6916   4.997   4.297   3.770
 2006SOL    HW1 6917   4.966   4.267   3.680
 2006SOL    HW2 6918   4.957   4.387   3.791
 2007SOL     OW 6919   4.482   5.791   0.695
 2007SOL    HW1 6920   4.417   5.785   0.771
 2007SOL    HW2 6921   4.478   5.883   0.655
 2008SOL     OW 6922   0.300   5.725   3.817
 2008SOL    HW1 6923   0.292   5.626   3.825
 2008SOL    HW2 6924   0.215   5.768   3.849
 2009SOL     OW 6925   6.754   0.115   1.664
 2009SOL    HW1 6926   6.851   0.106   1.685
 2009SOL    HW2 6927   6.728   0.048   1.594
 2010SOL     OW 6928   1.791   0.959   0.913
 2010SOL    HW1 6929   1.821   1.038   0.967
 2010SOL    HW2 6930   1.825   0.875   0.955
 2011SOL     OW 6931   6.309   2.331   4.974
 2011SOL    HW1 6932   6.340   2.422   4.946
 2011SOL    HW2 6933   6.370   2.262   4.935
 2012SOL     OW 6934   0.688   3.836   1.354
 2012SOL    HW1 6935   0.644   3.747   1.364
 2012SOL    HW2 6936   0.755   3.832   1.280
 2013SOL     OW 6937   5.964   1.204   3.150
 2013SOL    HW1 6938   6.052   1.235   3.186
 2013SOL    HW2 6939   5.950   1.243   3.059
 2014SOL     OW 6940   1.282   5.689   3.353
 2014SOL    HW1 6941   1.333   5.774   3.367
 2014SOL    HW2 6942   1.345   5.612   3.356
 2015SOL     OW 6943   2.881   1.425   6.825
 2015SOL    HW1 6944   2.862   1.418   6.922
 2015SOL    HW2 6945   2.828   1.356   6.775
 2016SOL     OW 6946   0.400   6.114   4.972
 2016SOL    HW1 6947   0.338   6.050   5.016
 2016SOL    HW2 6948   0.468   6.146   5.038
 2017SOL     OW 6949   3.327   0.025   3.477
 2017SOL    HW1 6950   3.308   6.995   3.556
 2017SOL    HW2 6951   3.407   0.082   3.496
 2018SOL     OW 6952   6.822   5.829   5.637
 2018SOL    HW1 6953   6.748   5.852   5.574
 2018SOL    HW2 6954   6.783   5.789   5.721
 2019SOL     OW 6955   5.213   2.955   1.876
 2019SOL    HW1 6956   5.265   3.035   1.903
 2019SOL    HW2 6957   5.218   2.886   1.948
 2020SOL     OW 6958   1.361   5.565   5.091
 2020SOL    HW1 6959   1.442   5.556   5.033
 2020SOL    HW2 6960   1.316   5.476   5.100
 2021SOL     OW 6961   2.424   6.928   3.252
 2021SOL    HW1 6962   2.346   6.953   3.196
 2021SOL    HW2 6963   2.509   6.958   3.208
 2022SOL     OW 6964   1.803   3.830   1.933
 2022SOL    HW1 6965   1.883   3.771   1.945
 2022SOL    HW2 6966   1.757   3.806   1.847
 2023SOL     OW 6967   0.063   2.049   0.375
 2023SOL    HW1 6968   7.006   2.101   0.372
 2023SOL    HW2 6969   0.074   1.997   0.290
 2024SOL     OW 6970   6.977   0.634   2.704
 2024SOL    HW1 6971   6.969   0.713   2.765
 2024SOL    HW2 6972   6.956   0.662   2.611
 2025SOL     OW 6973   1.589   2.413   1.521
 2025SOL    HW1 6974   1.623   2.326   1.555
 2025SOL    HW2 6975   1.489   2.410   1.517
 2026SOL     OW 6976   1.644   2.254   6.093
 2026SOL    HW1 6977   1.738   2.278   6.118
 2026SOL    HW2 6978   1.587   2.336   6.096
 2027SOL     OW 6979   0.932   1.577   1.167
 2027SOL    HW1 6980   0.986   1.511   1.219
 2027SOL    HW2 6981   0.992   1.649   1.131
 2028SOL     OW 6982   3.471   1.524   0.244
 2028SOL    HW1 6983   3.543   1.459   0.219
 2028SOL    HW2 6984   3.511   1.611   0.270
 2029SOL     OW 6985   0.393   0.421   6.823
 2029SOL    HW1 6986   0.438   0.343   6.778
 2029SOL    HW2 6987   0.295   0.400   6.834
 2030SOL     OW 6988   1.866   1.971   3.417
 2030SOL    HW1 6989   1.877   2.062   3.378
 2030SOL    HW2 6990   1.861   1.904   3.343
 2031SOL     OW 6991   5.201   6.193   2.124
 2031SOL    HW1 6992   5.206   6.210   2.026
 2031SOL    HW2 6993   5.225   6.276   2.174
 2032SOL     OW 6994   5.563   5.923   1.254
 2032SOL    HW1 6995   5.613   5.848   1.298
 2032SOL    HW2 6996   5.465   5.915   1.275
 2033SOL     OW 6997   3.901   4.006   0.033
 2033SOL    HW1 6998   3.842   3.954   7.000
 2033SOL    HW2 6999   3.847   4.078   0.078
 2034SOL     OW 7000   2.088   6.473   3.758
 2034SOL    HW1 7001   2.022   6.541   3.726
 2034SOL    HW2 7002   2.151   6.450   3.683
 2035SOL     OW 7003   6.982   1.468   2.762
 2035SOL    HW1 7004   6.921   1.439   2.836
 2035SOL    HW2 7005   0.040   1.419   2.769
 2036SOL     OW 7006   0.010   5.824   2.132
 2036SOL    HW1 7007   6.962   5.787   2.080
 2036SOL    HW2 7008   0.083   5.851   2.070
 2037SOL     OW 7009   6.312   2.139   5.927
 2037SOL    HW1 7010   6.378   2.200   5.884
 2037SOL    HW2 7011   6.322   2.047   5.889
 2038SOL     OW 7012   0.611   1.885   0.036
 2038SOL    HW1 7013   0.687   1.822   0.024
 2038SOL    HW2 7014   0.580   1.883   0.131
 2039SOL     OW 7015   0.203   5.884   3.486
 2039SOL    HW1 7016   0.229   5.926   3.399
 2039SOL    HW2 7017   0.213   5.950   3.560
 2040SOL     OW 7018   3.312   2.904   5.003
 2040SOL    HW1 7019   3.272   2.812   5.010
 2040SOL    HW2 7020   3.240   2.970   4.980
 2041SOL     OW 7021   6.721   6.179   6.571
 2041SOL    HW1 7022   6.749   6.114   6.501
 2041SOL    HW2 7023   6.637   6.146   6.615
 2042SOL     OW 7024   5.842   5.332   6.717
 2042SOL    HW1 7025   5.774   5.314   6.647
 2042SOL    HW2 7026   5.797   5.364   6.801
 2043SOL     OW 7027   6.448   4.905   2.343
 2043SOL    HW1 7028   6.537   4.885   2.301
 2043SOL    HW2 7029   6.404   4.979   2.292
 2044SOL     OW 7030   4.883   0.556   2.372
 2044SOL    HW1 7031   4.822   0.526   2.298
 2044SOL    HW2 7032   4.849   0.642   2.411
 2045SOL     OW 7033   1.819   4.269   5.116
 2045SOL    HW1 7034   1.828   4.202   5.042
 2045SOL    HW2 7035   1.891   4.338   5.108
 2046SOL     OW 7036   0.124   0.337   4.027
 2046SOL    HW1 7037   0.045   0.348   4.087
 2046SOL    HW2 7038   0.095   0.293   3.941
 2047SOL     OW 7039   4.096   1.992   0.462
 2047SOL    HW1 7040   4.171   2.012   0.399
 2047SOL    HW2 7041   4.098   2.057   0.538
 2048SOL     OW 7042   4.415   6.021   7.005
 2048SOL    HW1 7043   4.500   5.968   6.996
 2048SOL    HW2 7044   4.374   6.032   6.914
 2049SOL     OW 7045   4.594   1.988   6.362
 2049SOL    HW1 7046   4.505   1.957   6.328
 2049SOL    HW2 7047   4.591   2.086   6.378
 2050SOL     OW 7048   6.064   2.957   3.690
 2050SOL    HW1 7049   6.035   3.049   3.716
 2050SOL    HW2 7050   6.040   2.893   3.762
 2051SOL     OW 7051   6.488   4.685   6.860
 2051SOL    HW1 7052   6.392   4.658   6.866
 2051SOL    HW2 7053   6.516   4.689   6.765
 2052SOL     OW 7054   0.190   3.368   0.192
 2052SOL    HW1 7055   0.237   3.395   0.108
 2052SOL    HW2 7056   0.091   3.377   0.179
 2053SOL     OW 7057   6.476   0.650   1.113
 2053SOL    HW1 7058   6.455   0.748   1.105
 2053SOL    HW2 7059   6.397   0.603   1.153
 2054SOL     OW 7060   5.526   2.687   1.654
 2054SOL    HW1 7061   5.471   2.693   1.738
 2054SOL    HW2 7062   5.479   2.628   1.588
 2055SOL     OW 7063   6.034   3.186   2.678
 2055SOL    HW1 7064   6.048   3.133   2.761
 2055SOL    HW2 7065   6.111   3.249   2.664
 2056SOL     OW 7066   2.036   1.518   2.430
 2056SOL    HW1 7067   2.046   1.566   2.517
 2056SOL    HW2 7068   1.951   1.548   2.385
 2057SOL     OW 7069   5.352   2.281   3.659
 2057SOL    HW1 7070   5.447   2.311   3.653
 2057SOL    HW2 7071   5.336   2.208   3.593
 2058SOL     OW 7072   1.077   1.422   3.277
 2058SOL    HW1 7073   1.123   1.334   3.285
 2058SOL    HW2 7074   0.996   1.413   3.219
 2059SOL     OW 7075   2.687   6.456   6.265
 2059SOL    HW1 7076   2.634   6.508   6.199
 2059SOL    HW2 7077   2.729   6.377   6.220
 2060SOL     OW 7078   6.557   4.217   0.975
 2060SOL    HW1 7079   6.645   4.211   1.022
 2060SOL    HW2 7080   6.496   4.277   1.026
 2061SOL     OW 7081   0.838   1.836   3.285
 2061SOL    HW1 7082   0.875   1.925   3.257
 2061SOL    HW2 7083   0.912   1.780   3.324
 2062SOL     OW 7084   5.667   0.832   3.413
 2062SOL    HW1 7085   5.760   0.810   3.382
 2062SOL    HW2 7086   5.635   0.914   3.366
 2063SOL     OW 7087   0.657   1.329   6.559
 2063SOL    HW1 7088   0.657   1.249   6.619
 2063SOL    HW2 7089   0.741   1.381   6.573
 2064SOL     OW 7090   0.729   1.758   5.478
 2064SOL    HW1 7091   0.703   1.795   5.388
 2064SOL    HW2 7092   0.816   1.798   5.506
 2065SOL     OW 7093   6.318   4.049   2.194
 2065SOL    HW1 7094   6.402   4.038   2.142
 2065SOL    HW2 7095   6.274   3.960   2.205
 2066SOL     OW 7096   0.889   6.102   4.443
 2066SOL    HW1 7097   0.914   6.006   4.428
 2066SOL    HW2 7098   0.963   6.161   4.411
 2067SOL     OW 7099   0.472   6.589   0.745
 2067SOL    HW1 7100   0.554   6.593   0.687
 2067SOL    HW2 7101   0.415   6.669   0.728
 2068SOL     OW 7102   0.967   1.376   5.756
 2068SOL    HW1 7103   1.059   1.371   5.794
 2068SOL    HW2 7104   0.972   1.393   5.657
 2069SOL     OW 7105   0.640   2.782   3.693
 2069SOL    HW1 7106   0.584   2.712   3.738
 2069SOL    HW2 7107   0.616   2.872   3.729
 2070SOL     OW 7108   2.042   6.839   2.121
 2070SOL    HW1 7109   2.097   6.914   2.158
 2070SOL    HW2 7110   1.985   6.874   2.047
 2071SOL     OW 7111   6.941   6.313   4.734
 2071SOL    HW1 7112   6.941   6.252   4.813
 2071SOL    HW2 7113   7.000   6.392   4.751
 2072SOL     OW 7114   4.668   6.465   2.082
 2072SOL    HW1 7115   4.691   6.389   2.142
 2072SOL    HW2 7116   4.688   6.440   1.987
 2073SOL     OW 7117   3.739   0.090   4.910
 2073SOL    HW1 7118   3.677   0.015   4.892
 2073SOL    HW2 7119   3.708   0.141   4.990
 2074SOL     OW 7120   0.748   2.846   6.845
 2074SOL    HW1 7121   0.798   2.871   6.762
 2074SOL    HW2 7122   0.696   2.763   6.828
 2075SOL     OW 7123   4.982   2.180   1.506
 2075SOL    HW1 7124   5.045   2.250   1.539
 2075SOL    HW2 7125   4.910   2.165   1.574
 2076SOL     OW 7126   5.208   6.283   0.020
 2076SOL    HW1 7127   5.156   6.351   0.071
 2076SOL    HW2 7128   5.287   6.254   0.075
 2077SOL     OW 7129   4.795   2.853   2.214
 2077SOL    HW1 7130   4.779   2.914   2.292
 2077SOL    HW2 7131   4.763   2.896   2.130
 2078SOL     OW 7132   2.060   6.016   6.592
 2078SOL    HW1 7133   2.130   6.049   6.528
 2078SOL    HW2 7134   1.981   5.983   6.540
 2079SOL     OW 7135   6.148   1.115   3.729
 2079SOL    HW1 7136   6.049   1.106   3.715
 2079SOL    HW2 7137   6.191   1.143   3.644
 2080SOL     OW 7138   2.002   1.280   4.888
 2080SOL    HW1 7139   2.044   1.327   4.811
 2080SOL    HW2 7140   2.052   1.196   4.908
 2081SOL     OW 7141   1.758   5.869   5.037
 2081SOL    HW1 7142   1.773   5.898   5.132
 2081SOL    HW2 7143   1.660   5.857   5.021
 2082SOL     OW 7144   6.595   0.104   2.426
 2082SOL    HW1 7145   6.597   0.151   2.338
 2082SOL    HW2 7146   6.687   0.103   2.465
 2083SOL     OW 7147   4.233   4.106   6.184
 2083SOL    HW1 7148   4.195   4.024   6.226
 2083SOL    HW2 7149   4.193   4.120   6.094
 2084SOL     OW 7150   6.982   4.352   4.007
 2084SOL    HW1 7151   6.976   4.405   3.922
 2084SOL    HW2 7152   0.049   4.327   4.024
 2085SOL     OW 7153   5.396   1.041   0.049
 2085SOL    HW1 7154   5.472   1.102   0.067
 2085SOL    HW2 7155   5.312   1.078   0.089
 2086SOL     OW 7156   3.051   6.042   5.832
 2086SOL    HW1 7157   3.072   6.138   5.850
 2086SOL    HW2 7158   2.987   6.009   5.902
 2087SOL     OW 7159   4.410   0.176   1.886
 2087SOL    HW1 7160   4.442   0.081   1.892
 2087SOL    HW2 7161   4.316   0.183   1.920
 2088SOL     OW 7162   2.500   5.280   0.780
 2088SOL    HW1 7163   2.472   5.270   0.876
 2088SOL    HW2 7164   2.595   5.310   0.776
 2089SOL     OW 7165   4.078   1.299   7.023
 2089SOL    HW1 7166   4.105   1.215   6.975
 2089SOL    HW2 7167   3.980   1.298   0.011
 2090SOL     OW 7168   4.098   3.733   4.620
 2090SOL    HW1 7169   4.019   3.793   4.608
 2090SOL    HW2 7170   4.135   3.746   4.712
 2091SOL     OW 7171   0.082   5.965   0.027
 2091SOL    HW1 7172   0.077   5.873   0.067
 2091SOL    HW2 7173   0.058   5.961   6.959
 2092SOL     OW 7174   5.117   5.806   0.490
 2092SOL    HW1 7175   5.157   5.790   0.580
 2092SOL    HW2 7176   5.178   5.864   0.436
 2093SOL     OW 7177   1.508   2.345   1.833
 2093SOL    HW1 7178   1.564   2.266   1.860
 2093SOL    HW2 7179   1.569   2.419   1.803
 2094SOL     OW 7180   5.802   1.839   1.716
 2094SOL    HW1 7181   5.821   1.872   1.808
 2094SOL    HW2 7182   5.766   1.914   1.660
 2095SOL     OW 7183   5.631   0.384   4.361
 2095SOL    HW1 7184   5.695   0.312   4.385
 2095SOL    HW2 7185   5.599   0.371   4.267
 2096SOL     OW 7186   4.782   4.075   3.080
 2096SOL    HW1 7187   4.719   4.086   3.004
 2096SOL    HW2 7188   4.860   4.137   3.069
 2097SOL     OW 7189   1.208   2.904   0.409
 2097SOL    HW1 7190   1.220   2.984   0.350
 2097SOL    HW2 7191   1.247   2.824   0.365
 2098SOL     OW 7192   3.999   5.604   3.138
 2098SOL    HW1 7193   4.085   5.652   3.119
 2098SOL    HW2 7194   3.988   5.593   3.237
 2099SOL     OW 7195   2.536   2.518   5.064
 2099SOL    HW1 7196   2.505   2.565   4.981
 2099SOL    HW2 7197   2.574   2.585   5.128
 2100SOL     OW 7198   3.792   3.259   5.694
 2100SOL    HW1 7199   3.866   3.320   5.665
 2100SOL    HW2 7200   3.721   3.311   5.741
 2101SOL     OW 7201   1.457   6.368   2.510
 2101SOL    HW1 7202   1.426   6.434   2.442
 2101SOL    HW2 7203   1.393   6.292   2.515
 2102SOL     OW 7204   0.218   5.492   1.848
 2102SOL    HW1 7205   0.258   5.427   1.785
 2102SOL    HW2 7206   0.280   5.508   1.925
 2103SOL     OW 7207   3.058   3.637   6.249
 2103SOL    HW1 7208   3.093   3.588   6.169
 2103SOL    HW2 7209   2.967   3.603   6.272
 2104SOL     OW 7210   1.152   3.672   6.478
 2104SOL    HW1 7211   1.232   3.613   6.464
 2104SOL    HW2 7212   1.109   3.692   6.390
 2105SOL     OW 7213   4.958   5.197   4.007
 2105SOL    HW1 7214   5.044   5.181   3.958
 2105SOL    HW2 7215   4.890   5.129   3.978
 2106SOL     OW 7216   4.379   4.748   0.283
 2106SOL    HW1 7217   4.448   4.724   0.215
 2106SOL    HW2 7218   4.305   4.799   0.238
 2107SOL     OW 7219   4.396   2.957   5.560
 2107SOL    HW1 7220   4.465   3.016   5.603
 2107SOL    HW2 7221   4.345   3.011   5.493
 2108SOL     OW 7222   0.081   6.271   5.679
 2108SOL    HW1 7223   0.179   6.260   5.692
 2108SOL    HW2 7224   0.057   6.368   5.687
 2109SOL     OW 7225   4.737   6.832   3.321
 2109SOL    HW1 7226   4.711   6.760   3.256
 2109SOL    HW2 7227   4.667   6.903   3.322
 2110SOL     OW 7228   3.007   2.980   5.784
 2110SOL    HW1 7229   2.970   3.010   5.872
 2110SOL    HW2 7230   2.984   3.047   5.713
 2111SOL     OW 7231   0.895   2.110   6.509
 2111SOL    HW1 7232   0.913   2.017   6.540
 2111SOL    HW2 7233   0.907   2.173   6.585
 2112SOL     OW 7234   4.551   2.184   1.208
 2112SOL    HW1 7235   4.584   2.162   1.299
 2112SOL    HW2 7236   4.527   2.281   1.203
 2113SOL     OW 7237   1.635   0.432   4.444
 2113SOL    HW1 7238   1.589   0.423   4.532
 2113SOL    HW2 7239   1.654   0.528   4.425
 2114SOL     OW 7240   1.542   2.901   0.742
 2114SOL    HW1 7241   1.516   2.866   0.831
 2114SOL    HW2 7242   1.478   2.972   0.713
 2115SOL     OW 7243   2.153   4.014   2.576
 2115SOL    HW1 7244   2.226   4.033   2.510
 2115SOL    HW2 7245   2.073   4.070   2.555
 2116SOL     OW 7246   6.980   4.747   3.466
 2116SOL    HW1 7247   7.026   4.785   3.386
 2116SOL    HW2 7248   6.887   4.719   3.442
 2117SOL     OW 7249   0.029   4.362   1.001
 2117SOL    HW1 7250   0.053   4.353   0.904
 2117SOL    HW2 7251   6.962   4.390   1.010
 2118SOL     OW 7252   6.912   3.863   1.899
 2118SOL    HW1 7253   6.901   3.801   1.976
 2118SOL    HW2 7254   6.829   3.919   1.889
 2119SOL     OW 7255   2.385   5.295   1.038
 2119SOL    HW1 7256   2.303   5.288   1.094
 2119SOL    HW2 7257   2.422   5.388   1.044
 2120SOL     OW 7258   0.325   5.105   4.126
 2120SOL    HW1 7259   0.326   5.018   4.075
 2120SOL    HW2 7260   0.346   5.180   4.063
 2121SOL     OW 7261   0.589   4.744   5.759
 2121SOL    HW1 7262   0.631   4.656   5.738
 2121SOL    HW2 7263   0.583   4.755   5.858
 2122SOL     OW 7264   6.091   4.313   5.473
 2122SOL    HW1 7265   6.130   4.269   5.392
 2122SOL    HW2 7266   6.059   4.242   5.536
 2123SOL     OW 7267   0.108   4.844   2.010
 2123SOL    HW1 7268   0.069   4.932   1.979
 2123SOL    HW2 7269   0.057   4.769   1.968
 2124SOL     OW 7270   2.274   1.595   1.767
 2124SOL    HW1 7271   2.338   1.644   1.826
 2124SOL    HW2 7272   2.325   1.549   1.694
 2125SOL     OW 7273   1.713   0.144   0.313
 2125SOL    HW1 7274   1.741   0.150   0.218
 2125SOL    HW2 7275   1.745   0.224   0.363
 2126SOL     OW 7276   2.833   1.160   1.361
 2126SOL    HW1 7277   2.814   1.190   1.267
 2126SOL    HW2 7278   2.790   1.071   1.377
 2127SOL     OW 7279   6.379   3.409   4.179
 2127SOL    HW1 7280   6.282   3.434   4.176
 2127SOL    HW2 7281   6.417   3.435   4.268
 2128SOL     OW 7282   6.408   4.040   4.394
 2128SOL    HW1 7283   6.331   3.976   4.386
 2128SOL    HW2 7284   6.493   3.988   4.397
 2129SOL     OW 7285   4.626   2.912   5.225
 2129SOL    HW1 7286   4.586   2.821   5.236
 2129SOL    HW2 7287   4.674   2.916   5.137
 2130SOL     OW 7288   4.200   0.305   2.620
 2130SOL    HW1 7289   4.286   0.258   2.604
 2130SOL    HW2 7290   4.185   0.315   2.718
 2131SOL     OW 7291   6.846   0.848   1.533
 2131SOL    HW1 7292   6.813   0.766   1.579
 2131SOL    HW2 7293   6.808   0.852   1.441
 2132SOL     OW 7294   4.220   2.291   1.610
 2132SOL    HW1 7295   4.209   2.193   1.629
 2132SOL    HW2 7296   4.150   2.321   1.545
 2133SOL     OW 7297   2.527   2.950   5.900
 2133SOL    HW1 7298   2.530   2.986   5.807
 2133SOL    HW2 7299   2.463   2.874   5.905
 2134SOL     OW 7300   0.288   2.667   0.964
 2134SOL    HW1 7301   0.263   2.758   0.931
 2134SOL    HW2 7302   0.379   2.671   1.006
 2135SOL     OW 7303   0.983   3.886   4.718
 2135SOL    HW1 7304   1.066   3.941   4.728
 2135SOL    HW2 7305   0.963   3.874   4.620
 2136SOL     OW 7306   2.010   4.728   2.713
 2136SOL    HW1 7307   2.085   4.685   2.661
 2136SOL    HW2 7308   2.018   4.703   2.810
 2137SOL     OW 7309   2.773   5.317   5.463
 2137SOL    HW1 7310   2.801   5.396   5.409
 2137SOL    HW2 7311   2.839   5.243   5.450
 2138SOL     OW 7312   6.371   0.052   2.917
 2138SOL    HW1 7313   6.435   7.005   2.903
 2138SOL    HW2 7314   6.323   0.039   3.004
 2139SOL     OW 7315   4.308   0.568   4.242
 2139SOL    HW1 7316   4.322   0.486   4.186
 2139SOL    HW2 7317   4.394   0.620   4.245
 2140SOL     OW 7318   2.851   6.706   4.274
 2140SOL    HW1 7319   2.890   6.626   4.320
 2140SOL    HW2 7320   2.786   6.675   4.204
 2141SOL     OW 7321   6.586   2.712   2.445
 2141SOL    HW1 7322   6.504   2.744   2.494
 2141SOL    HW2 7323   6.667   2.753   2.486
 2142SOL     OW 7324   0.657   1.504   3.338
 2142SOL    HW1 7325   0.626   1.446   3.414
 2142SOL    HW2 7326   0.618   1.595   3.346
 2143SOL     OW 7327   2.817   5.027   1.490
 2143SOL    HW1 7328   2.896   4.968   1.503
 2143SOL    HW2 7329   2.759   5.023   1.572
 2144SOL     OW 7330   0.625   5.499   5.026
 2144SOL    HW1 7331   0.680   5.552   5.090
 2144SOL    HW2 7332   0.595   5.557   4.951
 2145SOL     OW 7333   3.878   6.623   4.782
 2145SOL    HW1 7334   3.921   6.650   4.869
 2145SOL    HW2 7335   3.827   6.701   4.745
 2146SOL     OW 7336   2.408   2.379   0.925
 2146SOL    HW1 7337   2.343   2.409   0.994
 2146SOL    HW2 7338   2.496   2.424   0.940
 2147SOL     OW 7339   5.909   1.021   6.724
 2147SOL    HW1 7340   5.845   0.968   6.668
 2147SOL    HW2 7341   5.926   0.973   6.810
 2148SOL     OW 7342   6.165   3.601   6.074
 2148SOL    HW1 7343   6.237   3.554   6.124
 2148SOL    HW2 7344   6.184   3.596   5.976
 2149SOL     OW 7345   1.965   1.677   1.229
 2149SOL    HW1 7346   1.952   1.751   1.163
 2149SOL    HW2 7347   1.944   1.589   1.186
 2150SOL     OW 7348   2.111   2.423   1.914
 2150SOL    HW1 7349   2.176   2.457   1.983
 2150SOL    HW2 7350   2.090   2.496   1.849
 2151SOL     OW 7351   1.408   6.333   6.511
 2151SOL    HW1 7352   1.349   6.380   6.577
 2151SOL    HW2 7353   1.358   6.319   6.426
 2152SOL     OW 7354   4.434   4.481   2.729
 2152SOL    HW1 7355   4.441   4.387   2.698
 2152SOL    HW2 7356   4.352   4.523   2.689
 2153SOL     OW 7357   4.569   1.816   1.918
 2153SOL    HW1 7358   4.629   1.744   1.882
 2153SOL    HW2 7359   4.625   1.887   1.961
 2154SOL     OW 7360   3.472   0.250   4.474
 2154SOL    HW1 7361   3.517   0.251   4.385
 2154SOL    HW2 7362   3.445   0.156   4.496
 2155SOL     OW 7363   3.991   0.228   1.107
 2155SOL    HW1 7364   4.069   0.177   1.072
 2155SOL    HW2 7365   4.005   0.326   1.093
 2156SOL     OW 7366   0.098   0.442   5.017
 2156SOL    HW1 7367   0.155   0.466   5.096
 2156SOL    HW2 7368   0.152   0.446   4.934
 2157SOL     OW 7369   5.238   6.135   3.575
 2157SOL    HW1 7370   5.217   6.162   3.669
 2157SOL    HW2 7371   5.201   6.203   3.512
 2158SOL     OW 7372   3.914   5.900   0.415
 2158SOL    HW1 7373   3.954   5.977   0.367
 2158SOL    HW2 7374   3.962   5.816   0.391
 2159SOL     OW 7375   1.580   0.665   5.043
 2159SOL    HW1 7376   1.617   0.644   5.133
 2159SOL    HW2 7377   1.497   0.721   5.054
 2160SOL     OW 7378   4.724   4.598   6.932
 2160SOL    HW1 7379   4.818   4.564   6.938
 2160SOL    HW2 7380   4.695   4.598   6.837
 2161SOL     OW 7381   6.411   4.603   1.761
 2161SOL    HW1 7382   6.385   4.561   1.848
 2161SOL    HW2 7383   6.500   4.648   1.771
 2162SOL     OW 7384   2.895   0.031   2.726
 2162SOL    HW1 7385   2.898   6.989   2.656
 2162SOL    HW2 7386   2.987   0.066   2.742
 2163SOL     OW 7387   1.315   4.831   0.666
 2163SOL    HW1 7388   1.252   4.863   0.736
 2163SOL    HW2 7389   1.363   4.750   0.698
 2164SOL     OW 7390   2.104   2.242   6.585
 2164SOL    HW1 7391   2.123   2.223   6.489
 2164SOL    HW2 7392   2.046   2.323   6.593
 2165SOL     OW 7393   0.404   2.380   3.924
 2165SOL    HW1 7394   0.488   2.327   3.915
 2165SOL    HW2 7395   0.326   2.319   3.928
 2166SOL     OW 7396   0.403   3.527   4.187
 2166SOL    HW1 7397   0.322   3.548   4.132
 2166SOL    HW2 7398   0.374   3.500   4.279
 2167SOL     OW 7399   0.408   3.432   3.794
 2167SOL    HW1 7400   0.351   3.418   3.874
 2167SOL    HW2 7401   0.489   3.374   3.800
 2168SOL     OW 7402   1.039   1.430   2.919
 2168SOL    HW1 7403   1.026   1.376   3.002
 2168SOL    HW2 7404   1.114   1.391   2.865
 2169SOL     OW 7405   6.167   0.712   1.638
 2169SOL    HW1 7406   6.106   0.764   1.578
 2169SOL    HW2 7407   6.262   0.737   1.620
 2170SOL     OW 7408   6.934   4.188   5.245
 2170SOL    HW1 7409   6.883   4.272   5.228
 2170SOL    HW2 7410   6.977   4.157   5.160
 2171SOL     OW 7411   1.101   5.691   1.346
 2171SOL    HW1 7412   1.156   5.671   1.427
 2171SOL    HW2 7413   1.158   5.686   1.264
 2172SOL     OW 7414   2.401   2.330   5.888
 2172SOL    HW1 7415   2.375   2.272   5.811
 2172SOL    HW2 7416   2.387   2.280   5.974
 2173SOL     OW 7417   4.858   0.331   5.265
 2173SOL    HW1 7418   4.906   0.318   5.352
 2173SOL    HW2 7419   4.854   0.429   5.244
 2174SOL     OW 7420   6.503   6.170   4.710
 2174SOL    HW1 7421   6.533   6.091   4.763
 2174SOL    HW2 7422   6.583   6.225   4.684
 2175SOL     OW 7423   1.679   3.624   4.421
 2175SOL    HW1 7424   1.584   3.654   4.414
 2175SOL    HW2 7425   1.739   3.704   4.415
 2176SOL     OW 7426   5.456   1.886   1.540
 2176SOL    HW1 7427   5.503   1.806   1.503
 2176SOL    HW2 7428   5.508   1.923   1.618
 2177SOL     OW 7429   6.962   0.284   2.184
 2177SOL    HW1 7430   6.999   0.312   2.272
 2177SOL    HW2 7431   6.880   0.338   2.164
 2178SOL     OW 7432   1.781   1.007   1.700
 2178SOL    HW1 7433   1.821   0.949   1.770
 2178SOL    HW2 7434   1.739   1.087   1.743
 2179SOL     OW 7435   2.016   3.945   6.325
 2179SOL    HW1 7436   1.960   4.002   6.385
 2179SOL    HW2 7437   1.961   3.867   6.292
 2180SOL     OW 7438   1.331   2.765   2.485
 2180SOL    HW1 7439   1.262   2.831   2.516
 2180SOL    HW2 7440   1.310   2.737   2.391
 2181SOL     OW 7441   4.272   5.261   3.817
 2181SOL    HW1 7442   4.351   5.249   3.877
 2181SOL    HW2 7443   4.266   5.184   3.754
 2182SOL     OW 7444   1.265   4.942   3.703
 2182SOL    HW1 7445   1.273   4.975   3.797
 2182SOL    HW2 7446   1.185   4.882   3.695
 2183SOL     OW 7447   2.101   4.316   0.259
 2183SOL    HW1 7448   2.063   4.227   0.282
 2183SOL    HW2 7449   2.107   4.372   0.341
 2184SOL     OW 7450   4.161   6.791   5.945
 2184SOL    HW1 7451   4.123   6.717   5.891
 2184SOL    HW2 7452   4.261   6.785   5.945
 2185SOL     OW 7453   0.648   1.310   7.013
 2185SOL    HW1 7454   0.712   1.375   6.972
 2185SOL    HW2 7455   0.597   1.354   0.058
 2186SOL     OW 7456   6.771   5.987   6.836
 2186SOL    HW1 7457   6.701   6.018   6.771
 2186SOL    HW2 7458   6.852   5.958   6.785
 2187SOL     OW 7459   0.401   5.664   2.360
 2187SOL    HW1 7460   0.322   5.722   2.379
 2187SOL    HW2 7461   0.462   5.663   2.439
 2188SOL     OW 7462   1.640   5.693   5.424
 2188SOL    HW1 7463   1.657   5.638   5.341
 2188SOL    HW2 7464   1.722   5.691   5.482
 2189SOL     OW 7465   1.299   6.933   1.492
 2189SOL    HW1 7466   1.305   6.913   1.590
 2189SOL    HW2 7467   1.386   6.972   1.461
 2190SOL     OW 7468   6.697   3.070   1.352
 2190SOL    HW1 7469   6.679   2.987   1.404
 2190SOL    HW2 7470   6.614   3.126   1.350
 2191SOL     OW 7471   2.138   1.628   5.609
 2191SOL    HW1 7472   2.220   1.578   5.639
 2191SOL    HW2 7473   2.161   1.725   5.599
 2192SOL     OW 7474   5.371   0.664   2.941
 2192SOL    HW1 7475   5.300   0.728   2.910
 2192SOL    HW2 7476   5.356   0.642   3.037
 2193SOL     OW 7477   6.605   0.396   6.294
 2193SOL    HW1 7478   6.669   0.470   6.272
 2193SOL    HW2 7479   6.648   0.308   6.277
 2194SOL     OW 7480   1.855   4.109   6.808
 2194SOL    HW1 7481   1.766   4.111   6.855
 2194SOL    HW2 7482   1.895   4.200   6.810
 2195SOL     OW 7483   6.856   6.645   5.490
 2195SOL    HW1 7484   6.775   6.666   5.435
 2195SOL    HW2 7485   6.877   6.723   5.549
 2196SOL     OW 7486   3.209   6.722   4.414
 2196SOL    HW1 7487   3.200   6.812   4.374
 2196SOL    HW2 7488   3.133   6.705   4.477
 2197SOL     OW 7489   3.270   3.482   5.834
 2197SOL    HW1 7490   3.265   3.559   5.771
 2197SOL    HW2 7491   3.199   3.415   5.810
 2198SOL     OW 7492   5.943   0.445   1.968
 2198SOL    HW1 7493   5.901   0.475   1.883
 2198SOL    HW2 7494   6.026   0.498   1.986
 2199SOL     OW 7495   5.084   6.951   3.972
 2199SOL    HW1 7496   5.075   6.932   3.874
 2199SOL    HW2 7497   5.108   0.018   3.985
 2200SOL     OW 7498   2.496   1.510   4.111
 2200SOL    HW1 7499   2.491   1.586   4.176
 2200SOL    HW2 7500   2.554   1.437   4.149
 2201SOL     OW 7501   6.580   2.963   2.893
 2201SOL    HW1 7502   6.543   2.997   2.807
 2201SOL    HW2 7503   6.521   2.888   2.927
 2202SOL     OW 7504   3.616   5.845   1.810
 2202SOL    HW1 7505   3.530   5.844   1.759
 2202SOL    HW2 7506   3.597   5.869   1.905
 2203SOL     OW 7507   2.539   3.394   1.312
 2203SOL    HW1 7508   2.526   3.297   1.292
 2203SOL    HW2 7509   2.479   3.421   1.387
 2204SOL     OW 7510   4.228   2.429   1.177
 2204SOL    HW1 7511   4.166   2.373   1.232
 2204SOL    HW2 7512   4.176   2.496   1.125
 2205SOL     OW 7513   1.450   0.274   6.834
 2205SOL    HW1 7514   1.359   0.236   6.854
 2205SOL    HW2 7515   1.440   0.354   6.774
 2206SOL     OW 7516   3.165   4.336   5.969
 2206SOL    HW1 7517   3.072   4.370   5.957
 2206SOL    HW2 7518   3.230   4.399   5.925
 2207SOL     OW 7519   3.381   4.057   6.866
 2207SOL    HW1 7520   3.375   4.148   6.825
 2207SOL    HW2 7521   3.301   4.002   6.840
 2208SOL     OW 7522   1.290   5.036   3.271
 2208SOL    HW1 7523   1.329   4.962   3.216
 2208SOL    HW2 7524   1.272   5.115   3.213
 2209SOL     OW 7525   2.756   6.865   5.104
 2209SOL    HW1 7526   2.712   6.801   5.040
 2209SOL    HW2 7527   2.841   6.899   5.064
 2210SOL     OW 7528   0.587   4.465   3.781
 2210SOL    HW1 7529   0.677   4.472   3.737
 2210SOL    HW2 7530   0.545   4.377   3.758
 2211SOL     OW 7531   6.896   0.740   0.843
 2211SOL    HW1 7532   6.977   0.788   0.809
 2211SOL    HW2 7533   6.885   0.654   0.794
 2212SOL     OW 7534   2.052   5.738   0.535
 2212SOL    HW1 7535   2.058   5.781   0.626
 2212SOL    HW2 7536   1.961   5.698   0.524
 2213SOL     OW 7537   3.817   2.009   5.441
 2213SOL    HW1 7538   3.749   2.018   5.513
 2213SOL    HW2 7539   3.824   2.095   5.390
 2214SOL     OW 7540   2.951   3.998   5.075
 2214SOL    HW1 7541   2.944   4.045   5.163
 2214SOL    HW2 7542   2.968   3.901   5.091
 2215SOL     OW 7543   5.609   0.335   0.084
 2215SOL    HW1 7544   5.649   0.296   0.168
 2215SOL    HW2 7545   5.634   0.431   0.077
 2216SOL     OW 7546   0.873   1.068   6.032
 2216SOL    HW1 7547   0.962   1.064   5.987
 2216SOL    HW2 7548   0.806   1.018   5.978
 2217SOL     OW 7549   4.091   0.165   2.400
 2217SOL    HW1 7550   4.132   0.235   2.459
 2217SOL    HW2 7551   4.080   0.202   2.308
 2218SOL     OW 7552   0.118   5.047   0.003
 2218SOL    HW1 7553   0.125   4.985   0.082
 2218SOL    HW2 7554   0.133   4.995   6.948
 2219SOL     OW 7555   5.948   1.744   0.690
 2219SOL    HW1 7556   5.937   1.785   0.780
 2219SOL    HW2 7557   6.039   1.703   0.682
 2220SOL     OW 7558   2.382   6.013   5.561
 2220SOL    HW1 7559   2.379   5.938   5.495
 2220SOL    HW2 7560   2.289   6.034   5.592
 2221SOL     OW 7561   5.790   1.691   5.385
 2221SOL    HW1 7562   5.824   1.639   5.464
 2221SOL    HW2 7563   5.798   1.635   5.302
 2222SOL     OW 7564   6.262   0.540   1.287
 2222SOL    HW1 7565   6.206   0.491   1.354
 2222SOL    HW2 7566   6.251   0.638   1.301
 2223SOL     OW 7567   6.189   1.139   6.128
 2223SOL    HW1 7568   6.207   1.235   6.149
 2223SOL    HW2 7569   6.221   1.118   6.035
 2224SOL     OW 7570   6.189   3.663   0.797
 2224SOL    HW1 7571   6.257   3.686   0.866
 2224SOL    HW2 7572   6.228   3.680   0.706
 2225SOL     OW 7573   5.912   6.791   4.014
 2225SOL    HW1 7574   5.959   6.873   4.046
 2225SOL    HW2 7575   5.897   6.729   4.090
 2226SOL     OW 7576   3.820   5.087   1.103
 2226SOL    HW1 7577   3.735   5.122   1.064
 2226SOL    HW2 7578   3.806   4.993   1.134
 2227SOL     OW 7579   5.703   2.694   0.544
 2227SOL    HW1 7580   5.731   2.601   0.520
 2227SOL    HW2 7581   5.643   2.731   0.473
 2228SOL     OW 7582   4.171   5.168   0.835
 2228SOL    HW1 7583   4.137   5.252   0.877
 2228SOL    HW2 7584   4.260   5.184   0.794
 2229SOL     OW 7585   3.832   2.980   5.231
 2229SOL    HW1 7586   3.847   2.974   5.132
 2229SOL    HW2 7587   3.756   2.921   5.256
 2230SOL     OW 7588   6.278   6.231   0.825
 2230SOL    HW1 7589   6.363   6.265   0.863
 2230SOL    HW2 7590   6.266   6.266   0.732
 2231SOL     OW 7591   0.052   1.033   1.096
 2231SOL    HW1 7592   0.043   1.112   1.036
 2231SOL    HW2 7593   0.145   1.030   1.134
 2232SOL     OW 7594   1.075   1.667   4.659
 2232SOL    HW1 7595   1.117   1.726   4.727
 2232SOL    HW2 7596   1.146   1.619   4.607
 2233SOL     OW 7597   2.440   2.940   0.754
 2233SOL    HW1 7598   2.433   2.866   0.821
 2233SOL    HW2 7599   2.526   2.989   0.768
 2234SOL     OW 7600   3.580   1.619   1.113
 2234SOL    HW1 7601   3.673   1.582   1.112
 2234SOL    HW2 7602   3.581   1.711   1.074
 2235SOL     OW 7603   2.796   0.283   2.041
 2235SOL    HW1 7604   2.760   0.319   2.127
 2235SOL    HW2 7605   2.834   0.358   1.986
 2236SOL     OW 7606   2.071   3.978   5.755
 2236SOL    HW1 7607   2.023   3.945   5.836
 2236SOL    HW2 7608   2.045   4.073   5.737
 2237SOL     OW 7609   5.253   4.728   4.132
 2237SOL    HW1 7610   5.334   4.785   4.118
 2237SOL    HW2 7611   5.220   4.738   4.225
 2238SOL     OW 7612   4.561   5.541   1.860
 2238SOL    HW1 7613   4.519   5.613   1.915
 2238SOL    HW2 7614   4.490   5.486   1.817
 2239SOL     OW 7615   3.817   5.645   4.067
 2239SOL    HW1 7616   3.742   5.706   4.092
 2239SOL    HW2 7617   3.823   5.570   4.134
 2240SOL     OW 7618   3.510   5.238   2.423
 2240SOL    HW1 7619   3.500   5.178   2.343
 2240SOL    HW2 7620   3.577   5.198   2.486
 2241SOL     OW 7621   6.958   6.131   2.754
 2241SOL    HW1 7622   6.955   6.063   2.681
 2241SOL    HW2 7623   6.875   6.186   2.752
 2242SOL     OW 7624   5.147   2.935   2.510
 2242SOL    HW1 7625   5.204   3.004   2.554
 2242SOL    HW2 7626   5.155   2.848   2.559
 2243SOL     OW 7627   1.503   0.065   6.202
 2243SOL    HW1 7628   1.458   0.121   6.133
 2243SOL    HW2 7629   1.435   0.010   6.250
 2244SOL     OW 7630   2.941   6.591   0.936
 2244SOL    HW1 7631   2.939   6.617   1.033
 2244SOL    HW2 7632   2.847   6.581   0.903
 2245SOL     OW 7633   0.992   1.558   1.768
 2245SOL    HW1 7634   0.987   1.462   1.794
 2245SOL    HW2 7635   1.061   1.569   1.696
 2246SOL     OW 7636   2.368   1.005   4.279
 2246SOL    HW1 7637   2.330   0.967   4.195
 2246SOL    HW2 7638   2.368   1.105   4.274
 2247SOL     OW 7639   3.723   2.942   3.199
 2247SOL    HW1 7640   3.662   3.009   3.154
 2247SOL    HW2 7641   3.756   2.877   3.131
 2248SOL     OW 7642   6.662   3.784   5.188
 2248SOL    HW1 7643   6.716   3.728   5.250
 2248SOL    HW2 7644   6.723   3.835   5.127
 2249SOL     OW 7645   5.699   7.018   3.197
 2249SOL    HW1 7646   5.644   0.013   3.116
 2249SOL    HW2 7647   5.639   7.012   3.277
 2250SOL     OW 7648   3.519   4.223   5.036
 2250SOL    HW1 7649   3.564   4.258   5.118
 2250SOL    HW2 7650   3.588   4.202   4.967
 2251SOL     OW 7651   5.410   0.145   6.576
 2251SOL    HW1 7652   5.378   0.073   6.638
 2251SOL    HW2 7653   5.504   0.170   6.600
 2252SOL     OW 7654   4.769   1.444   3.289
 2252SOL    HW1 7655   4.753   1.441   3.388
 2252SOL    HW2 7656   4.867   1.459   3.272
 2253SOL     OW 7657   6.759   3.162   0.145
 2253SOL    HW1 7658   6.822   3.239   0.132
 2253SOL    HW2 7659   6.803   3.078   0.113
 2254SOL     OW 7660   3.211   3.372   4.561
 2254SOL    HW1 7661   3.230   3.467   4.583
 2254SOL    HW2 7662   3.291   3.331   4.517
 2255SOL     OW 7663   3.872   2.985   6.261
 2255SOL    HW1 7664   3.787   3.038   6.267
 2255SOL    HW2 7665   3.913   2.979   6.351
 2256SOL     OW 7666   4.995   6.334   1.917
 2256SOL    HW1 7667   4.992   6.430   1.889
 2256SOL    HW2 7668   5.072   6.289   1.872
 2257SOL     OW 7669   0.942   2.117   4.729
 2257SOL    HW1 7670   0.928   2.079   4.820
 2257SOL    HW2 7671   0.955   2.042   4.663
 2258SOL     OW 7672   1.696   5.191   4.351
 2258SOL    HW1 7673   1.709   5.224   4.257
 2258SOL    HW2 7674   1.614   5.233   4.390
 2259SOL     OW 7675   5.429   2.533   5.618
 2259SOL    HW1 7676   5.434   2.437   5.592
 2259SOL    HW2 7677   5.339   2.552   5.658
 2260SOL     OW 7678   6.950   4.568   1.289
 2260SOL    HW1 7679   6.928   4.548   1.193
 2260SOL    HW2 7680   7.012   4.499   1.325
 2261SOL     OW 7681   6.124   5.082   0.418
 2261SOL    HW1 7682   6.077   5.098   0.331
 2261SOL    HW2 7683   6.161   5.168   0.452
 2262SOL     OW 7684   6.076   0.332   3.328
 2262SOL    HW1 7685   6.168   0.353   3.360
 2262SOL    HW2 7686   6.074   0.335   3.228
 2263SOL     OW 7687   3.319   5.538   0.397
 2263SOL    HW1 7688   3.364   5.627   0.400
 2263SOL    HW2 7689   3.220   5.551   0.398
 2264SOL     OW 7690   2.781   5.283   6.712
 2264SOL    HW1 7691   2.724   5.358   6.678
 2264SOL    HW2 7692   2.729   5.198   6.713
 2265SOL     OW 7693   2.601   0.735   3.950
 2265SOL    HW1 7694   2.617   0.825   3.992
 2265SOL    HW2 7695   2.614   0.664   4.019
 2266SOL     OW 7696   5.219   1.395   0.706
 2266SOL    HW1 7697   5.301   1.408   0.651
 2266SOL    HW2 7698   5.177   1.484   0.725
 2267SOL     OW 7699   4.915   3.168   4.972
 2267SOL    HW1 7700   4.931   3.262   5.000
 2267SOL    HW2 7701   5.002   3.118   4.971
 2268SOL     OW 7702   5.682   4.004   6.450
 2268SOL    HW1 7703   5.753   4.036   6.513
 2268SOL    HW2 7704   5.676   3.904   6.455
 2269SOL     OW 7705   6.980   4.362   5.711
 2269SOL    HW1 7706   6.975   4.401   5.619
 2269SOL    HW2 7707   7.014   4.268   5.705
 2270SOL     OW 7708   3.994   2.303   6.058
 2270SOL    HW1 7709   3.999   2.204   6.062
 2270SOL    HW2 7710   4.073   2.339   6.007
 2271SOL     OW 7711   5.821   4.644   0.296
 2271SOL    HW1 7712   5.878   4.563   0.283
 2271SOL    HW2 7713   5.798   4.683   0.206
 2272SOL     OW 7714   5.686   1.825   0.058
 2272SOL    HW1 7715   5.771   1.858   0.017
 2272SOL    HW2 7716   5.610   1.840   7.024
 2273SOL     OW 7717   1.665   1.207   1.831
 2273SOL    HW1 7718   1.578   1.200   1.880
 2273SOL    HW2 7719   1.711   1.292   1.857
 2274SOL     OW 7720   0.824   1.741   6.193
 2274SOL    HW1 7721   0.825   1.678   6.271
 2274SOL    HW2 7722   0.837   1.689   6.108
 2275SOL     OW 7723   6.277   6.387   4.024
 2275SOL    HW1 7724   6.373   6.406   4.003
 2275SOL    HW2 7725   6.244   6.313   3.965
 2276SOL     OW 7726   2.311   5.536   2.018
 2276SOL    HW1 7727   2.325   5.616   1.959
 2276SOL    HW2 7728   2.394   5.521   2.073
 2277SOL     OW 7729   3.682   4.086   3.864
 2277SOL    HW1 7730   3.732   4.001   3.850
 2277SOL    HW2 7731   3.739   4.151   3.915
 2278SOL     OW 7732   6.171   3.893   4.373
 2278SOL    HW1 7733   6.120   3.815   4.408
 2278SOL    HW2 7734   6.120   3.977   4.391
 2279SOL     OW 7735   5.947   6.973   5.720
 2279SOL    HW1 7736   5.906   6.886   5.747
 2279SOL    HW2 7737   5.977   7.022   5.802
 2280SOL     OW 7738   6.975   0.517   4.716
 2280SOL    HW1 7739   6.928   0.600   4.685
 2280SOL    HW2 7740   6.910   0.441   4.718
 2281SOL     OW 7741   3.275   0.745   2.044
 2281SOL    HW1 7742   3.371   0.773   2.034
 2281SOL    HW2 7743   3.221   0.824   2.072
 2282SOL     OW 7744   5.650   6.963   5.226
 2282SOL    HW1 7745   5.721   6.917   5.279
 2282SOL    HW2 7746   5.656   0.033   5.241
 2283SOL     OW 7747   1.285   6.519   2.018
 2283SOL    HW1 7748   1.194   6.558   2.033
 2283SOL    HW2 7749   1.338   6.580   1.960
 2284SOL     OW 7750   1.456   3.072   6.999
 2284SOL    HW1 7751   1.397   3.125   0.032
 2284SOL    HW2 7752   1.523   3.022   0.025
 2285SOL     OW 7753   1.701   2.558   1.296
 2285SOL    HW1 7754   1.797   2.532   1.297
 2285SOL    HW2 7755   1.657   2.528   1.381
 2286SOL     OW 7756   5.645   6.818   3.712
 2286SOL    HW1 7757   5.713   6.878   3.669
 2286SOL    HW2 7758   5.555   6.861   3.707
 2287SOL     OW 7759   2.237   6.940   3.759
 2287SOL    HW1 7760   2.274   7.007   3.694
 2287SOL    HW2 7761   2.141   6.960   3.776
 2288SOL     OW 7762   5.774   4.669   3.752
 2288SOL    HW1 7763   5.783   4.644   3.655
 2288SOL    HW2 7764   5.843   4.737   3.775
 2289SOL     OW 7765   0.411   5.070   0.755
 2289SOL    HW1 7766   0.349   5.083   0.833
 2289SOL    HW2 7767   0.370   5.004   0.691
 2290SOL     OW 7768   0.223   3.619   0.878
 2290SOL    HW1 7769   0.280   3.542   0.849
 2290SOL    HW2 7770   0.169   3.592   0.958
 2291SOL     OW 7771   1.809   2.316   5.163
 2291SOL    HW1 7772   1.747   2.373   5.217
 2291SOL    HW2 7773   1.849   2.245   5.221
 2292SOL     OW 7774   0.997   1.926   4.560
 2292SOL    HW1 7775   0.940   1.931   4.478
 2292SOL    HW2 7776   1.026   1.831   4.574
 2293SOL     OW 7777   5.285   6.514   1.150
 2293SOL    HW1 7778   5.316   6.422   1.176
 2293SOL    HW2 7779   5.253   6.563   1.231
 2294SOL     OW 7780   3.398   0.251   6.755
 2294SOL    HW1 7781   3.312   0.203   6.743
 2294SOL    HW2 7782   3.426   0.291   6.667
 2295SOL     OW 7783   0.845   1.922   2.900
 2295SOL    HW1 7784   0.803   1.862   2.967
 2295SOL    HW2 7785   0.786   2.001   2.883
 2296SOL     OW 7786   4.426   5.063   0.602
 2296SOL    HW1 7787   4.438   5.157   0.636
 2296SOL    HW2 7788   4.334   5.053   0.564
 2297SOL     OW 7789   4.325   3.880   5.342
 2297SOL    HW1 7790   4.385   3.856   5.419
 2297SOL    HW2 7791   4.260   3.950   5.372
 2298SOL     OW 7792   4.111   3.109   1.828
 2298SOL    HW1 7793   4.036   3.094   1.764
 2298SOL    HW2 7794   4.189   3.053   1.801
 2299SOL     OW 7795   4.691   6.177   5.375
 2299SOL    HW1 7796   4.736   6.264   5.394
 2299SOL    HW2 7797   4.599   6.178   5.414
 2300SOL     OW 7798   2.553   5.219   2.469
 2300SOL    HW1 7799   2.626   5.208   2.536
 2300SOL    HW2 7800   2.483   5.150   2.484
 2301SOL     OW 7801   3.273   2.971   2.663
 2301SOL    HW1 7802   3.271   3.016   2.574
 2301SOL    HW2 7803   3.195   3.002   2.718
 2302SOL     OW 7804   3.683   0.114   0.849
 2302SOL    HW1 7805   3.690   0.079   0.943
 2302SOL    HW2 7806   3.654   0.040   0.788
 2303SOL     OW 7807   1.976   3.068   6.270
 2303SOL    HW1 7808   1.979   3.034   6.177
 2303SOL    HW2 7809   2.018   3.159   6.274
 2304SOL     OW 7810   4.075   6.979   4.002
 2304SOL    HW1 7811   4.164   6.940   3.983
 2304SOL    HW2 7812   4.084   0.049   4.019
 2305SOL     OW 7813   2.589   6.572   2.799
 2305SOL    HW1 7814   2.641   6.595   2.881
 2305SOL    HW2 7815   2.509   6.518   2.824
 2306SOL     OW 7816   2.892   5.005   2.167
 2306SOL    HW1 7817   2.855   4.916   2.139
 2306SOL    HW2 7818   2.922   5.055   2.086
 2307SOL     OW 7819   0.371   4.295   2.418
 2307SOL    HW1 7820   0.464   4.331   2.420
 2307SOL    HW2 7821   0.367   4.215   2.359
 2308SOL     OW 7822   1.511   6.506   0.337
 2308SOL    HW1 7823   1.539   6.567   0.263
 2308SOL    HW2 7824   1.524   6.411   0.309
 2309SOL     OW 7825   2.824   6.455   6.704
 2309SOL    HW1 7826   2.746   6.499   6.660
 2309SOL    HW2 7827   2.816   6.466   6.803
 2310SOL     OW 7828   6.003   6.458   1.050
 2310SOL    HW1 7829   5.917   6.486   1.093
 2310SOL    HW2 7830   5.986   6.382   0.987
 2311SOL     OW 7831   2.328   5.889   2.195
 2311SOL    HW1 7832   2.310   5.841   2.109
 2311SOL    HW2 7833   2.242   5.927   2.231
 2312SOL     OW 7834   3.457   6.348   4.218
 2312SOL    HW1 7835   3.554   6.348   4.243
 2312SOL    HW2 7836   3.426   6.442   4.204
 2313SOL     OW 7837   5.127   5.604   1.353
 2313SOL    HW1 7838   5.094   5.674   1.417
 2313SOL    HW2 7839   5.117   5.514   1.394
 2314SOL     OW 7840   5.854   0.502   5.182
 2314SOL    HW1 7841   5.760   0.536   5.178
 2314SOL    HW2 7842   5.864   0.421   5.124
 2315SOL     OW 7843   5.225   3.450   5.150
 2315SOL    HW1 7844   5.181   3.385   5.213
 2315SOL    HW2 7845   5.265   3.525   5.202
 2316SOL     OW 7846   3.079   0.670   4.369
 2316SOL    HW1 7847   3.123   0.582   4.389
 2316SOL    HW2 7848   3.145   0.731   4.325
 2317SOL     OW 7849   6.697   5.988   3.136
 2317SOL    HW1 7850   6.675   5.936   3.219
 2317SOL    HW2 7851   6.734   6.077   3.162
 2318SOL     OW 7852   1.944   3.003   4.155
 2318SOL    HW1 7853   2.039   2.999   4.122
 2318SOL    HW2 7854   1.944   3.015   4.254
 2319SOL     OW 7855   2.936   5.684   4.656
 2319SOL    HW1 7856   3.028   5.656   4.685
 2319SOL    HW2 7857   2.941   5.724   4.565
 2320SOL     OW 7858   0.833   3.274   4.333
 2320SOL    HW1 7859   0.798   3.309   4.420
 2320SOL    HW2 7860   0.928   3.244   4.345
 2321SOL     OW 7861   2.119   5.709   0.064
 2321SOL    HW1 7862   2.162   5.666   0.144
 2321SOL    HW2 7863   2.022   5.685   0.061
 2322SOL     OW 7864   1.667   4.335   3.171
 2322SOL    HW1 7865   1.764   4.312   3.172
 2322SOL    HW2 7866   1.654   4.431   3.197
 2323SOL     OW 7867   3.344   4.589   1.638
 2323SOL    HW1 7868   3.428   4.602   1.690
 2323SOL    HW2 7869   3.265   4.614   1.695
 2324SOL     OW 7870   6.683   6.042   0.421
 2324SOL    HW1 7871   6.675   6.112   0.350
 2324SOL    HW2 7872   6.614   5.971   0.406
 2325SOL     OW 7873   1.102   4.389   1.134
 2325SOL    HW1 7874   1.115   4.482   1.100
 2325SOL    HW2 7875   1.005   4.374   1.153
 2326SOL     OW 7876   3.167   5.782   6.828
 2326SOL    HW1 7877   3.194   5.877   6.817
 2326SOL    HW2 7878   3.179   5.733   6.741
 2327SOL     OW 7879   6.493   1.574   4.051
 2327SOL    HW1 7880   6.582   1.541   4.081
 2327SOL    HW2 7881   6.443   1.500   4.005
 2328SOL     OW 7882   1.601   1.809   2.980
 2328SOL    HW1 7883   1.526   1.821   2.915
 2328SOL    HW2 7884   1.603   1.886   3.043
 2329SOL     OW 7885   1.645   4.534   4.643
 2329SOL    HW1 7886   1.696   4.596   4.584
 2329SOL    HW2 7887   1.665   4.555   4.739
 2330SOL     OW 7888   0.051   3.432   1.432
 2330SOL    HW1 7889   0.057   3.461   1.527
 2330SOL    HW2 7890   0.108   3.491   1.375
 2331SOL     OW 7891   4.221   5.611   6.625
 2331SOL    HW1 7892   4.163   5.558   6.563
 2331SOL    HW2 7893   4.173   5.623   6.712
 2332SOL     OW 7894   5.499   1.393   5.864
 2332SOL    HW1 7895   5.412   1.394   5.913
 2332SOL    HW2 7896   5.544   1.481   5.875
 2333SOL     OW 7897   0.255   4.466   2.784
 2333SOL    HW1 7898   0.207   4.500   2.703
 2333SOL    HW2 7899   0.188   4.433   2.851
 2334SOL     OW 7900   2.290   0.508   6.946
 2334SOL    HW1 7901   2.383   0.515   6.982
 2334SOL    HW2 7902   2.245   0.428   6.985
 2335SOL     OW 7903   6.681   1.133   3.789
 2335SOL    HW1 7904   6.621   1.195   3.740
 2335SOL    HW2 7905   6.776   1.153   3.766
 2336SOL     OW 7906   4.267   2.300   4.595
 2336SOL    HW1 7907   4.284   2.302   4.694
 2336SOL    HW2 7908   4.354   2.296   4.546
 2337SOL     OW 7909   4.319   0.824   1.785
 2337SOL    HW1 7910   4.398   0.885   1.774
 2337SOL    HW2 7911   4.235   0.879   1.779
 2338SOL     OW 7912   1.130   3.002   5.418
 2338SOL    HW1 7913   1.189   2.961   5.487
 2338SOL    HW2 7914   1.158   2.970   5.327
 2339SOL     OW 7915   3.124   3.213   3.865
 2339SOL    HW1 7916   3.185   3.292   3.856
 2339SOL    HW2 7917   3.037   3.243   3.903
 2340SOL     OW 7918   6.225   4.611   6.868
 2340SOL    HW1 7919   6.163   4.636   6.941
 2340SOL    HW2 7920   6.181   4.627   6.779
 2341SOL     OW 7921   3.766   4.951   2.004
 2341SOL    HW1 7922   3.820   4.939   2.087
 2341SOL    HW2 7923   3.718   4.865   1.984
 2342SOL     OW 7924   0.444   6.784   5.389
 2342SOL    HW1 7925   0.414   6.734   5.469
 2342SOL    HW2 7926   0.502   6.861   5.418
 2343SOL     OW 7927   1.621   5.716   3.299
 2343SOL    HW1 7928   1.691   5.759   3.242
 2343SOL    HW2 7929   1.583   5.784   3.361
 2344SOL     OW 7930   1.750   5.782   6.968
 2344SOL    HW1 7931   1.779   5.865   6.922
 2344SOL    HW2 7932   1.717   5.716   6.900
 2345SOL     OW 7933   3.374   5.550   4.890
 2345SOL    HW1 7934   3.419   5.595   4.967
 2345SOL    HW2 7935   3.349   5.457   4.916
 2346SOL     OW 7936   3.968   3.182   5.366
 2346SOL    HW1 7937   3.936   3.089   5.351
 2346SOL    HW2 7938   3.985   3.226   5.278
 2347SOL     OW 7939   2.909   2.657   1.385
 2347SOL    HW1 7940   2.962   2.741   1.397
 2347SOL    HW2 7941   2.835   2.654   1.453
 2348SOL     OW 7942   2.418   0.154   3.372
 2348SOL    HW1 7943   2.407   0.071   3.318
 2348SOL    HW2 7944   2.376   0.231   3.324
 2349SOL     OW 7945   1.123   4.514   6.558
 2349SOL    HW1 7946   1.155   4.542   6.649
 2349SOL    HW2 7947   1.198   4.472   6.508
 2350SOL     OW 7948   5.281   0.217   6.339
 2350SOL    HW1 7949   5.318   0.193   6.428
 2350SOL    HW2 7950   5.260   0.134   6.287
 2351SOL     OW 7951   3.204   5.008   3.900
 2351SOL    HW1 7952   3.116   4.963   3.892
 2351SOL    HW2 7953   3.194   5.093   3.952
 2352SOL     OW 7954   0.649   4.473   2.231
 2352SOL    HW1 7955   0.742   4.508   2.223
 2352SOL    HW2 7956   0.652   4.373   2.234
 2353SOL     OW 7957   3.038   4.772   5.813
 2353SOL    HW1 7958   2.986   4.815   5.887
 2353SOL    HW2 7959   3.129   4.749   5.847
 2354SOL     OW 7960   3.291   1.342   5.652
 2354SOL    HW1 7961   3.336   1.429   5.630
 2354SOL    HW2 7962   3.226   1.357   5.727
 2355SOL     OW 7963   2.386   5.907   0.255
 2355SOL    HW1 7964   2.345   5.816   0.255
 2355SOL    HW2 7965   2.403   5.935   0.161
 2356SOL     OW 7966   1.455   3.073   6.264
 2356SOL    HW1 7967   1.526   3.143   6.256
 2356SOL    HW2 7968   1.430   3.039   6.174
 2357SOL     OW 7969   4.087   6.947   2.796
 2357SOL    HW1 7970   4.160   6.991   2.849
 2357SOL    HW2 7971   4.050   7.011   2.730
 2358SOL     OW 7972   3.953   5.051   4.754
 2358SOL    HW1 7973   3.932   5.054   4.852
 2358SOL    HW2 7974   3.964   5.144   4.720
 2359SOL     OW 7975   6.287   0.834   5.725
 2359SOL    HW1 7976   6.339   0.795   5.800
 2359SOL    HW2 7977   6.280   0.767   5.651
 2360SOL     OW 7978   5.408   4.559   6.784
 2360SOL    HW1 7979   5.422   4.562   6.685
 2360SOL    HW2 7980   5.425   4.466   6.817
 2361SOL     OW 7981   2.392   1.252   5.334
 2361SOL    HW1 7982   2.353   1.310   5.262
 2361SOL    HW2 7983   2.445   1.178   5.292
 2362SOL     OW 7984   2.140   7.004   4.952
 2362SOL    HW1 7985   2.202   0.053   4.939
 2362SOL    HW2 7986   2.049   7.028   4.919
 2363SOL     OW 7987   4.543   2.467   5.274
 2363SOL    HW1 7988   4.534   2.528   5.195
 2363SOL    HW2 7989   4.599   2.388   5.249
 2364SOL     OW 7990   1.262   2.001   2.983
 2364SOL    HW1 7991   1.341   2.060   2.995
 2364SOL    HW2 7992   1.185   2.038   3.036
 2365SOL     OW 7993   6.453   2.699   6.443
 2365SOL    HW1 7994   6.407   2.756   6.376
 2365SOL    HW2 7995   6.552   2.706   6.431
 2366SOL     OW 7996   2.096   5.763   6.545
 2366SOL    HW1 7997   2.091   5.848   6.597
 2366SOL    HW2 7998   2.163   5.773   6.471
 2367SOL     OW 7999   2.621   4.716   0.512
 2367SOL    HW1 8000   2.608   4.726   0.413
 2367SOL    HW2 8001   2.540   4.672   0.551
 2368SOL     OW 8002   4.356   0.266   3.599
 2368SOL    HW1 8003   4.377   0.276   3.501
 2368SOL    HW2 8004   4.378   0.172   3.628
 2369SOL     OW 8005   1.113   2.257   5.518
 2369SOL    HW1 8006   1.073   2.181   5.468
 2369SOL    HW2 8007   1.043   2.328   5.531
 2370SOL     OW 8008   5.009   3.810   0.072
 2370SOL    HW1 8009   4.939   3.872   0.037
 2370SOL    HW2 8010   4.981   3.716   0.056
 2371SOL     OW 8011   0.698   0.009   2.521
 2371SOL    HW1 8012   0.689   6.964   2.588
 2371SOL    HW2 8013   0.793   0.039   2.517
 2372SOL     OW 8014   0.002   2.751   2.351
 2372SOL    HW1 8015   6.988   2.746   2.442
 2372SOL    HW2 8016   6.959   2.771   2.283
 2373SOL     OW 8017   0.494   1.925   0.308
 2373SOL    HW1 8018   0.440   1.840   0.305
 2373SOL    HW2 8019   0.551   1.924   0.390
 2374SOL     OW 8020   6.160   0.823   3.433
 2374SOL    HW1 8021   6.173   0.778   3.521
 2374SOL    HW2 8022   6.215   0.776   3.364
 2375SOL     OW 8023   2.980   6.711   4.616
 2375SOL    HW1 8024   2.901   6.759   4.578
 2375SOL    HW2 8025   2.954   6.619   4.644
 2376SOL     OW 8026   6.544   2.736   4.244
 2376SOL    HW1 8027   6.553   2.834   4.228
 2376SOL    HW2 8028   6.447   2.712   4.251
 2377SOL     OW 8029   3.191   3.969   3.236
 2377SOL    HW1 8030   3.149   3.928   3.155
 2377SOL    HW2 8031   3.216   3.896   3.300
 2378SOL     OW 8032   4.635   1.825   0.509
 2378SOL    HW1 8033   4.596   1.840   0.418
 2378SOL    HW2 8034   4.725   1.784   0.500
 2379SOL     OW 8035   5.794   2.240   6.530
 2379SOL    HW1 8036   5.782   2.177   6.607
 2379SOL    HW2 8037   5.728   2.218   6.458
 2380SOL     OW 8038   0.754   0.796   6.409
 2380SOL    HW1 8039   0.741   0.847   6.495
 2380SOL    HW2 8040   0.804   0.854   6.344
 2381SOL     OW 8041   2.196   3.844   4.400
 2381SOL    HW1 8042   2.227   3.860   4.493
 2381SOL    HW2 8043   2.168   3.748   4.390
 2382SOL     OW 8044   2.383   4.379   3.459
 2382SOL    HW1 8045   2.347   4.292   3.425
 2382SOL    HW2 8046   2.448   4.416   3.394
 2383SOL     OW 8047   5.621   6.515   1.332
 2383SOL    HW1 8048   5.702   6.558   1.292
 2383SOL    HW2 8049   5.586   6.572   1.406
 2384SOL     OW 8050   5.949   0.444   2.814
 2384SOL    HW1 8051   6.015   0.387   2.765
 2384SOL    HW2 8052   5.990   0.477   2.899
 2385SOL     OW 8053   0.839   6.602   1.538
 2385SOL    HW1 8054   0.882   6.607   1.629
 2385SOL    HW2 8055   0.760   6.540   1.542
 2386SOL     OW 8056   5.534   5.110   4.158
 2386SOL    HW1 8057   5.584   5.182   4.208
 2386SOL    HW2 8058   5.588   5.026   4.158
 2387SOL     OW 8059   1.356   1.332   3.956
 2387SOL    HW1 8060   1.320   1.410   4.008
 2387SOL    HW2 8061   1.307   1.325   3.869
 2388SOL     OW 8062   0.846   2.341   4.025
 2388SOL    HW1 8063   0.940   2.329   4.055
 2388SOL    HW2 8064   0.828   2.437   4.006
 2389SOL     OW 8065   4.896   3.775   3.017
 2389SOL    HW1 8066   4.979   3.829   3.005
 2389SOL    HW2 8067   4.868   3.778   3.113
 2390SOL     OW 8068   4.066   3.584   2.599
 2390SOL    HW1 8069   3.996   3.513   2.605
 2390SOL    HW2 8070   4.145   3.557   2.654
 2391SOL     OW 8071   4.725   4.307   5.674
 2391SOL    HW1 8072   4.655   4.342   5.736
 2391SOL    HW2 8073   4.695   4.218   5.638
 2392SOL     OW 8074   3.544   6.728   5.368
 2392SOL    HW1 8075   3.639   6.745   5.395
 2392SOL    HW2 8076   3.488   6.717   5.450
 2393SOL     OW 8077   5.209   3.780   6.102
 2393SOL    HW1 8078   5.114   3.792   6.128
 2393SOL    HW2 8079   5.241   3.690   6.132
 2394SOL     OW 8080   1.776   3.411   4.280
 2394SOL    HW1 8081   1.727   3.482   4.331
 2394SOL    HW2 8082   1.731   3.397   4.191
 2395SOL     OW 8083   5.933   2.476   6.836
 2395SOL    HW1 8084   5.931   2.576   6.834
 2395SOL    HW2 8085   6.016   2.444   6.789
 2396SOL     OW 8086   3.577   5.099   1.802
 2396SOL    HW1 8087   3.651   5.083   1.867
 2396SOL    HW2 8088   3.552   5.014   1.757
 2397SOL     OW 8089   7.002   3.976   6.747
 2397SOL    HW1 8090   0.037   3.918   6.698
 2397SOL    HW2 8091   6.970   4.050   6.687
 2398SOL     OW 8092   2.454   3.559   6.669
 2398SOL    HW1 8093   2.509   3.478   6.651
 2398SOL    HW2 8094   2.362   3.531   6.698
 2399SOL     OW 8095   4.391   1.694   2.087
 2399SOL    HW1 8096   4.460   1.727   2.022
 2399SOL    HW2 8097   4.300   1.710   2.049
 2400SOL     OW 8098   3.323   4.611   0.201
 2400SOL    HW1 8099   3.224   4.602   0.216
 2400SOL    HW2 8100   3.341   4.622   0.104
 2401SOL     OW 8101   3.704   6.359   6.072
 2401SOL    HW1 8102   3.729   6.291   6.141
 2401SOL    HW2 8103   3.780   6.370   6.007
 2402SOL     OW 8104   6.936   1.175   3.704
 2402SOL    HW1 8105   7.023   1.179   3.655
 2402SOL    HW2 8106   6.947   1.215   3.795
 2403SOL     OW 8107   1.892   2.555   0.126
 2403SOL    HW1 8108   1.851   2.565   0.217
 2403SOL    HW2 8109   1.979   2.506   0.134
 2404SOL     OW 8110   3.944   1.094   1.157
 2404SOL    HW1 8111   3.900   1.184   1.159
 2404SOL    HW2 8112   4.023   1.096   1.095
 2405SOL     OW 8113   3.818   3.269   2.752
 2405SOL    HW1 8114   3.805   3.367   2.762
 2405SOL    HW2 8115   3.733   3.227   2.718
 2406SOL     OW 8116   2.872   6.680   2.820
 2406SOL    HW1 8117   2.849   6.682   2.722
 2406SOL    HW2 8118   2.971   6.668   2.830
 2407SOL     OW 8119   4.940   1.821   2.285
 2407SOL    HW1 8120   5.033   1.809   2.250
 2407SOL    HW2 8121   4.939   1.805   2.383
 2408SOL     OW 8122   3.842   5.144   3.210
 2408SOL    HW1 8123   3.803   5.052   3.210
 2408SOL    HW2 8124   3.917   5.149   3.276
 2409SOL     OW 8125   1.313   3.912   2.355
 2409SOL    HW1 8126   1.215   3.931   2.357
 2409SOL    HW2 8127   1.347   3.923   2.262
 2410SOL     OW 8128   4.439   2.485   5.886
 2410SOL    HW1 8129   4.492   2.556   5.840
 2410SOL    HW2 8130   4.434   2.504   5.984
 2411SOL     OW 8131   4.025   5.302   4.734
 2411SOL    HW1 8132   3.962   5.358   4.786
 2411SOL    HW2 8133   4.046   5.346   4.647
 2412SOL     OW 8134   4.620   5.332   1.497
 2412SOL    HW1 8135   4.548   5.277   1.539
 2412SOL    HW2 8136   4.700   5.274   1.479
 2413SOL     OW 8137   6.075   2.055   1.088
 2413SOL    HW1 8138   6.166   2.014   1.095
 2413SOL    HW2 8139   6.077   2.147   1.130
 2414SOL     OW 8140   4.597   4.511   2.459
 2414SOL    HW1 8141   4.680   4.485   2.507
 2414SOL    HW2 8142   4.566   4.436   2.401
 2415SOL     OW 8143   0.155   6.487   2.125
 2415SOL    HW1 8144   0.114   6.507   2.215
 2415SOL    HW2 8145   0.082   6.473   2.058
 2416SOL     OW 8146   4.332   2.260   5.282
 2416SOL    HW1 8147   4.242   2.218   5.271
 2416SOL    HW2 8148   4.385   2.208   5.350
 2417SOL     OW 8149   4.113   3.146   5.726
 2417SOL    HW1 8150   4.101   3.069   5.663
 2417SOL    HW2 8151   4.106   3.232   5.676
 2418SOL     OW 8152   3.020   3.886   4.465
 2418SOL    HW1 8153   3.051   3.972   4.506
 2418SOL    HW2 8154   3.015   3.897   4.365
 2419SOL     OW 8155   0.878   6.427   4.792
 2419SOL    HW1 8156   0.897   6.330   4.783
 2419SOL    HW2 8157   0.960   6.475   4.822
 2420SOL     OW 8158   2.616   1.394   2.068
 2420SOL    HW1 8159   2.711   1.375   2.092
 2420SOL    HW2 8160   2.569   1.436   2.146
 2421SOL     OW 8161   2.628   1.842   5.111
 2421SOL    HW1 8162   2.557   1.912   5.114
 2421SOL    HW2 8163   2.711   1.880   5.069
 2422SOL     OW 8164   5.242   1.220   1.499
 2422SOL    HW1 8165   5.252   1.126   1.468
 2422SOL    HW2 8166   5.181   1.270   1.437
 2423SOL     OW 8167   0.665   6.513   2.949
 2423SOL    HW1 8168   0.749   6.557   2.980
 2423SOL    HW2 8169   0.626   6.565   2.873
 2424SOL     OW 8170   5.946   6.779   6.177
 2424SOL    HW1 8171   5.906   6.816   6.260
 2424SOL    HW2 8172   5.931   6.680   6.173
 2425SOL     OW 8173   5.818   0.172   3.985
 2425SOL    HW1 8174   5.844   0.081   4.017
 2425SOL    HW2 8175   5.813   0.172   3.885
 2426SOL     OW 8176   0.887   5.665   4.997
 2426SOL    HW1 8177   0.954   5.636   4.929
 2426SOL    HW2 8178   0.854   5.757   4.973
 2427SOL     OW 8179   5.936   5.626   5.171
 2427SOL    HW1 8180   5.995   5.629   5.251
 2427SOL    HW2 8181   5.988   5.595   5.091
 2428SOL     OW 8182   6.016   0.221   3.015
 2428SOL    HW1 8183   6.047   0.140   3.066
 2428SOL    HW2 8184   5.916   0.220   3.008
 2429SOL     OW 8185   5.450   5.534   3.364
 2429SOL    HW1 8186   5.496   5.520   3.277
 2429SOL    HW2 8187   5.408   5.448   3.393
 2430SOL     OW 8188   6.105   1.608   1.542
 2430SOL    HW1 8189   6.036   1.596   1.613
 2430SOL    HW2 8190   6.196   1.597   1.581
 2431SOL     OW 8191   4.488   0.960   2.400
 2431SOL    HW1 8192   4.409   0.902   2.423
 2431SOL    HW2 8193   4.528   0.996   2.485
 2432SOL     OW 8194   3.115   6.767   3.261
 2432SOL    HW1 8195   3.096   6.844   3.322
 2432SOL    HW2 8196   3.164   6.799   3.180
 2433SOL     OW 8197   3.614   0.773   1.368
 2433SOL    HW1 8198   3.544   0.803   1.303
 2433SOL    HW2 8199   3.666   0.697   1.328
 2434SOL     OW 8200   4.420   0.620   4.892
 2434SOL    HW1 8201   4.397   0.642   4.797
 2434SOL    HW2 8202   4.482   0.690   4.928
 2435SOL     OW 8203   4.659   4.586   6.647
 2435SOL    HW1 8204   4.743   4.538   6.672
 2435SOL    HW2 8205   4.586   4.558   6.709
 2436SOL     OW 8206   1.600   5.744   1.121
 2436SOL    HW1 8207   1.642   5.696   1.044
 2436SOL    HW2 8208   1.671   5.780   1.181
 2437SOL     OW 8209   5.084   6.471   6.770
 2437SOL    HW1 8210   4.987   6.485   6.790
 2437SOL    HW2 8211   5.097   6.383   6.725
 2438SOL     OW 8212   3.302   1.010   6.650
 2438SOL    HW1 8213   3.212   1.029   6.688
 2438SOL    HW2 8214   3.370   1.007   6.723
 2439SOL     OW 8215   1.130   4.166   6.265
 2439SOL    HW1 8216   1.227   4.145   6.272
 2439SOL    HW2 8217   1.114   4.228   6.188
 2440SOL     OW 8218   4.487   6.144   5.712
 2440SOL    HW1 8219   4.586   6.147   5.728
 2440SOL    HW2 8220   4.439   6.133   5.799
 2441SOL     OW 8221   1.009   0.920   0.653
 2441SOL    HW1 8222   0.917   0.912   0.616
 2441SOL    HW2 8223   1.029   1.017   0.671
 2442SOL     OW 8224   0.534   4.308   5.601
 2442SOL    HW1 8225   0.523   4.260   5.515
 2442SOL    HW2 8226   0.551   4.242   5.674
 2443SOL     OW 8227   4.172   5.212   5.872
 2443SOL    HW1 8228   4.130   5.131   5.913
 2443SOL    HW2 8229   4.255   5.186   5.824
 2444SOL     OW 8230   3.495   4.186   6.016
 2444SOL    HW1 8231   3.579   4.139   6.046
 2444SOL    HW2 8232   3.441   4.212   6.096
 2445SOL     OW 8233   0.264   0.730   1.766
 2445SOL    HW1 8234   0.276   0.827   1.744
 2445SOL    HW2 8235   0.213   0.685   1.694
 2446SOL     OW 8236   6.585   5.052   4.206
 2446SOL    HW1 8237   6.677   5.088   4.220
 2446SOL    HW2 8238   6.519   5.115   4.247
 2447SOL     OW 8239   2.123   2.956   0.932
 2447SOL    HW1 8240   2.136   2.869   0.978
 2447SOL    HW2 8241   2.031   2.990   0.950
 2448SOL     OW 8242   0.492   0.643   4.068
 2448SOL    HW1 8243   0.395   0.622   4.077
 2448SOL    HW2 8244   0.513   0.727   4.118
 2449SOL     OW 8245   0.011   4.708   0.624
 2449SOL    HW1 8246   0.000   4.788   0.683
 2449SOL    HW2 8247   6.961   4.647   0.635
 2450SOL     OW 8248   2.926   4.854   3.427
 2450SOL    HW1 8249   3.002   4.804   3.469
 2450SOL    HW2 8250   2.963   4.935   3.379
 2451SOL     OW 8251   0.937   0.794   3.223
 2451SOL    HW1 8252   0.974   0.865   3.282
 2451SOL    HW2 8253   1.011   0.751   3.171
 2452SOL     OW 8254   1.817   3.770   2.837
 2452SOL    HW1 8255   1.786   3.841   2.901
 2452SOL    HW2 8256   1.798   3.798   2.743
 2453SOL     OW 8257   6.275   4.563   1.212
 2453SOL    HW1 8258   6.281   4.662   1.224
 2453SOL    HW2 8259   6.290   4.519   1.300
 2454SOL     OW 8260   2.916   0.443   1.258
 2454SOL    HW1 8261   2.923   0.435   1.357
 2454SOL    HW2 8262   2.918   0.540   1.233
 2455SOL     OW 8263   5.877   5.817   0.404
 2455SOL    HW1 8264   5.833   5.728   0.396
 2455SOL    HW2 8265   5.832   5.871   0.476
 2456SOL     OW 8266   5.222   6.600   1.710
 2456SOL    HW1 8267   5.237   6.692   1.673
 2456SOL    HW2 8268   5.149   6.604   1.779
 2457SOL     OW 8269   6.207   6.180   0.511
 2457SOL    HW1 8270   6.175   6.266   0.551
 2457SOL    HW2 8271   6.208   6.187   0.411
 2458SOL     OW 8272   1.836   5.458   3.192
 2458SOL    HW1 8273   1.781   5.413   3.263
 2458SOL    HW2 8274   1.825   5.557   3.200
 2459SOL     OW 8275   2.561   6.668   0.600
 2459SOL    HW1 8276   2.547   6.742   0.667
 2459SOL    HW2 8277   2.472   6.631   0.573
 2460SOL     OW 8278   1.943   0.750   1.021
 2460SOL    HW1 8279   1.963   0.818   1.092
 2460SOL    HW2 8280   1.905   0.668   1.063
 2461SOL     OW 8281   5.564   1.019   2.866
 2461SOL    HW1 8282   5.662   1.013   2.850
 2461SOL    HW2 8283   5.520   0.933   2.842
 2462SOL     OW 8284   2.839   5.425   0.414
 2462SOL    HW1 8285   2.799   5.341   0.376
 2462SOL    HW2 8286   2.784   5.504   0.385
 2463SOL     OW 8287   5.642   2.922   4.184
 2463SOL    HW1 8288   5.611   2.843   4.130
 2463SOL    HW2 8289   5.740   2.913   4.204
 2464SOL     OW 8290   0.684   4.601   1.131
 2464SOL    HW1 8291   0.644   4.681   1.085
 2464SOL    HW2 8292   0.610   4.543   1.166
 2465SOL     OW 8293   0.181   5.352   1.245
 2465SOL    HW1 8294   0.112   5.425   1.240
 2465SOL    HW2 8295   0.176   5.308   1.334
 2466SOL     OW 8296   3.320   1.065   2.522
 2466SOL    HW1 8297   3.327   1.141   2.458
 2466SOL    HW2 8298   3.298   1.100   2.613
 2467SOL     OW 8299   5.906   1.192   5.706
 2467SOL    HW1 8300   5.970   1.115   5.706
 2467SOL    HW2 8301   5.813   1.159   5.718
 2468SOL     OW 8302   6.653   6.016   1.891
 2468SOL    HW1 8303   6.676   6.055   1.980
 2468SOL    HW2 8304   6.681   6.079   1.819
 2469SOL     OW 8305   3.472   4.267   5.764
 2469SOL    HW1 8306   3.410   4.216   5.704
 2469SOL    HW2 8307   3.468   4.229   5.856
 2470SOL     OW 8308   2.875   4.008   6.169
 2470SOL    HW1 8309   2.965   4.050   6.165
 2470SOL    HW2 8310   2.818   4.044   6.095
 2471SOL     OW 8311   1.118   6.911   0.981
 2471SOL    HW1 8312   1.152   6.988   0.926
 2471SOL    HW2 8313   1.151   6.921   1.075
 2472SOL     OW 8314   5.482   1.485   4.715
 2472SOL    HW1 8315   5.501   1.580   4.740
 2472SOL    HW2 8316   5.533   1.461   4.632
 2473SOL     OW 8317   1.972   4.999   5.157
 2473SOL    HW1 8318   2.001   5.003   5.061
 2473SOL    HW2 8319   1.937   5.088   5.185
 2474SOL     OW 8320   6.970   4.706   6.789
 2474SOL    HW1 8321   6.897   4.772   6.778
 2474SOL    HW2 8322   7.000   4.706   6.885
 2475SOL     OW 8323   4.064   2.371   0.823
 2475SOL    HW1 8324   4.028   2.380   0.730
 2475SOL    HW2 8325   4.015   2.297   0.870
 2476SOL     OW 8326   1.206   2.378   3.737
 2476SOL    HW1 8327   1.184   2.475   3.727
 2476SOL    HW2 8328   1.235   2.360   3.831
 2477SOL     OW 8329   6.658   6.419   1.736
 2477SOL    HW1 8330   6.694   6.460   1.820
 2477SOL    HW2 8331   6.689   6.324   1.730
 2478SOL     OW 8332   5.650   6.215   2.631
 2478SOL    HW1 8333   5.735   6.231   2.580
 2478SOL    HW2 8334   5.614   6.124   2.608
 2479SOL     OW 8335   0.200   3.608   1.323
 2479SOL    HW1 8336   0.163   3.701   1.329
 2479SOL    HW2 8337   0.297   3.612   1.301
 2480SOL     OW 8338   6.866   2.536   1.357
 2480SOL    HW1 8339   6.957   2.572   1.338
 2480SOL    HW2 8340   6.811   2.605   1.404
 2481SOL     OW 8341   3.637   5.964   0.291
 2481SOL    HW1 8342   3.604   6.039   0.349
 2481SOL    HW2 8343   3.734   5.975   0.274
 2482SOL     OW 8344   4.708   3.445   5.758
 2482SOL    HW1 8345   4.652   3.517   5.716
 2482SOL    HW2 8346   4.700   3.451   5.858
 2483SOL     OW 8347   2.017   0.890   0.555
 2483SOL    HW1 8348   1.982   0.815   0.612
 2483SOL    HW2 8349   1.969   0.974   0.578
 2484SOL     OW 8350   2.303   0.855   0.502
 2484SOL    HW1 8351   2.327   0.870   0.597
 2484SOL    HW2 8352   2.208   0.884   0.486
 2485SOL     OW 8353   5.826   5.113   2.164
 2485SOL    HW1 8354   5.788   5.161   2.085
 2485SOL    HW2 8355   5.856   5.022   2.137
 2486SOL     OW 8356   1.406   5.801   3.883
 2486SOL    HW1 8357   1.475   5.783   3.953
 2486SOL    HW2 8358   1.409   5.897   3.857
 2487SOL     OW 8359   4.484   6.394   6.943
 2487SOL    HW1 8360   4.506   6.410   0.011
 2487SOL    HW2 8361   4.390   6.422   6.925
 2488SOL     OW 8362   2.775   4.077   1.700
 2488SOL    HW1 8363   2.677   4.090   1.719
 2488SOL    HW2 8364   2.803   4.137   1.625
 2489SOL     OW 8365   2.479   5.645   4.679
 2489SOL    HW1 8366   2.517   5.733   4.708
 2489SOL    HW2 8367   2.395   5.626   4.730
 2490SOL     OW 8368   6.976   4.888   0.812
 2490SOL    HW1 8369   6.888   4.844   0.829
 2490SOL    HW2 8370   6.960   4.979   0.774
 2491SOL     OW 8371   2.735   5.843   3.040
 2491SOL    HW1 8372   2.689   5.881   3.121
 2491SOL    HW2 8373   2.826   5.811   3.066
 2492SOL     OW 8374   4.939   3.309   6.492
 2492SOL    HW1 8375   4.861   3.253   6.467
 2492SOL    HW2 8376   4.947   3.385   6.428
 2493SOL     OW 8377   5.498   0.789   2.723
 2493SOL    HW1 8378   5.488   0.718   2.793
 2493SOL    HW2 8379   5.494   0.747   2.632
 2494SOL     OW 8380   4.774   2.886   2.798
 2494SOL    HW1 8381   4.791   2.807   2.857
 2494SOL    HW2 8382   4.795   2.970   2.848
 2495SOL     OW 8383   4.922   1.225   4.982
 2495SOL    HW1 8384   5.018   1.197   4.986
 2495SOL    HW2 8385   4.916   1.324   4.977
 2496SOL     OW 8386   1.150   5.480   0.220
 2496SOL    HW1 8387   1.077   5.443   0.162
 2496SOL    HW2 8388   1.186   5.563   0.178
 2497SOL     OW 8389   6.787   1.651   0.535
 2497SOL    HW1 8390   6.798   1.746   0.564
 2497SOL    HW2 8391   6.856   1.630   0.465
 2498SOL     OW 8392   1.859   3.471   3.299
 2498SOL    HW1 8393   1.806   3.440   3.378
 2498SOL    HW2 8394   1.797   3.508   3.230
 2499SOL     OW 8395   5.626   0.920   5.022
 2499SOL    HW1 8396   5.666   0.831   4.998
 2499SOL    HW2 8397   5.527   0.916   5.010
 2500SOL     OW 8398   4.920   3.334   6.150
 2500SOL    HW1 8399   5.010   3.339   6.108
 2500SOL    HW2 8400   4.912   3.249   6.203
 2501SOL     OW 8401   5.741   3.967   6.832
 2501SOL    HW1 8402   5.840   3.962   6.847
 2501SOL    HW2 8403   5.698   3.882   6.863
 2502SOL     OW 8404   2.279   6.448   3.578
 2502SOL    HW1 8405   2.360   6.502   3.598
 2502SOL    HW2 8406   2.252   6.463   3.483
 2503SOL     OW 8407   4.006   5.621   5.539
 2503SOL    HW1 8408   3.986   5.718   5.526
 2503SOL    HW2 8409   3.924   5.574   5.573
 2504SOL     OW 8410   2.462   4.810   4.789
 2504SOL    HW1 8411   2.526   4.886   4.777
 2504SOL    HW2 8412   2.470   4.773   4.881
 2505SOL     OW 8413   3.552   5.683   4.722
 2505SOL    HW1 8414   3.484   5.628   4.770
 2505SOL    HW2 8415   3.576   5.640   4.635
 2506SOL     OW 8416   6.532   3.225   6.000
 2506SOL    HW1 8417   6.557   3.250   6.093
 2506SOL    HW2 8418   6.479   3.299   5.958
 2507SOL     OW 8419   6.483   5.266   0.083
 2507SOL    HW1 8420   6.499   5.174   0.121
 2507SOL    HW2 8421   6.524   5.334   0.144
 2508SOL     OW 8422   2.958   2.043   1.973
 2508SOL    HW1 8423   2.939   2.049   1.875
 2508SOL    HW2 8424   2.955   2.135   2.013
 2509SOL     OW 8425   5.916   2.187   2.370
 2509SOL    HW1 8426   5.840   2.145   2.419
 2509SOL    HW2 8427   5.974   2.116   2.330
 2510SOL     OW 8428   3.487   4.989   0.810
 2510SOL    HW1 8429   3.494   4.896   0.847
 2510SOL    HW2 8430   3.541   5.051   0.867
 2511SOL     OW 8431   1.341   1.050   4.716
 2511SOL    HW1 8432   1.262   1.021   4.662
 2511SOL    HW2 8433   1.381   1.132   4.675
 2512SOL     OW 8434   5.064   4.013   4.242
 2512SOL    HW1 8435   5.084   4.013   4.340
 2512SOL    HW2 8436   5.042   3.921   4.212
 2513SOL     OW 8437   0.989   2.178   6.772
 2513SOL    HW1 8438   0.926   2.139   6.840
 2513SOL    HW2 8439   1.029   2.263   6.807
 2514SOL     OW 8440   0.599   1.698   4.597
 2514SOL    HW1 8441   0.656   1.624   4.632
 2514SOL    HW2 8442   0.595   1.772   4.663
 2515SOL     OW 8443   1.464   6.617   0.586
 2515SOL    HW1 8444   1.375   6.591   0.622
 2515SOL    HW2 8445   1.494   6.551   0.518
 2516SOL     OW 8446   5.740   5.973   3.760
 2516SOL    HW1 8447   5.650   5.971   3.717
 2516SOL    HW2 8448   5.802   5.911   3.711
 2517SOL     OW 8449   2.591   4.340   5.846
 2517SOL    HW1 8450   2.561   4.434   5.862
 2517SOL    HW2 8451   2.572   4.314   5.752
 2518SOL     OW 8452   2.350   2.970   6.490
 2518SOL    HW1 8453   2.265   2.923   6.467
 2518SOL    HW2 8454   2.382   3.021   6.410
 2519SOL     OW 8455   4.834   5.250   4.624
 2519SOL    HW1 8456   4.789   5.244   4.535
 2519SOL    HW2 8457   4.809   5.171   4.679
 2520SOL     OW 8458   2.193   3.545   1.021
 2520SOL    HW1 8459   2.247   3.612   1.073
 2520SOL    HW2 8460   2.206   3.561   0.923
 2521SOL     OW 8461   0.619   0.374   5.478
 2521SOL    HW1 8462   0.712   0.410   5.483
 2521SOL    HW2 8463   0.603   0.335   5.388
 2522SOL     OW 8464   1.652   3.574   4.704
 2522SOL    HW1 8465   1.675   3.599   4.610
 2522SOL    HW2 8466   1.691   3.485   4.726
 2523SOL     OW 8467   6.387   3.351   0.563
 2523SOL    HW1 8468   6.298   3.337   0.520
 2523SOL    HW2 8469   6.455   3.291   0.520
 2524SOL     OW 8470   0.960   6.517   4.339
 2524SOL    HW1 8471   1.024   6.540   4.411
 2524SOL    HW2 8472   0.931   6.600   4.291
 2525SOL     OW 8473   0.932   4.178   4.542
 2525SOL    HW1 8474   1.001   4.248   4.558
 2525SOL    HW2 8475   0.975   4.095   4.507
 2526SOL     OW 8476   0.542   2.491   4.161
 2526SOL    HW1 8477   0.521   2.423   4.091
 2526SOL    HW2 8478   0.458   2.539   4.186
 2527SOL     OW 8479   5.928   6.593   5.093
 2527SOL    HW1 8480   5.852   6.658   5.086
 2527SOL    HW2 8481   5.898   6.512   5.142
 2528SOL     OW 8482   6.054   5.086   0.159
 2528SOL    HW1 8483   6.133   5.074   0.098
 2528SOL    HW2 8484   5.970   5.076   0.107
 2529SOL     OW 8485   4.850   5.586   4.973
 2529SOL    HW1 8486   4.826   5.491   4.990
 2529SOL    HW2 8487   4.814   5.614   4.884
 2530SOL     OW 8488   1.202   6.209   4.009
 2530SOL    HW1 8489   1.277   6.272   4.026
 2530SOL    HW2 8490   1.134   6.253   3.950
 2531SOL     OW 8491   5.147   0.287   4.815
 2531SOL    HW1 8492   5.058   0.328   4.836
 2531SOL    HW2 8493   5.146   0.191   4.843
 2532SOL     OW 8494   1.262   5.702   0.375
 2532SOL    HW1 8495   1.362   5.700   0.386
 2532SOL    HW2 8496   1.237   5.774   0.311
 2533SOL     OW 8497   5.167   7.016   4.895
 2533SOL    HW1 8498   5.189   6.932   4.845
 2533SOL    HW2 8499   5.246   0.015   4.949
 2534SOL     OW 8500   2.058   0.265   3.303
 2534SOL    HW1 8501   2.146   0.282   3.258
 2534SOL    HW2 8502   2.004   0.349   3.305
 2535SOL     OW 8503   1.665   1.956   4.199
 2535SOL    HW1 8504   1.629   1.872   4.238
 2535SOL    HW2 8505   1.660   1.952   4.099
 2536SOL     OW 8506   6.148   1.049   4.275
 2536SOL    HW1 8507   6.116   1.084   4.187
 2536SOL    HW2 8508   6.105   0.961   4.293
 2537SOL     OW 8509   4.719   6.326   0.926
 2537SOL    HW1 8510   4.771   6.258   0.977
 2537SOL    HW2 8511   4.776   6.363   0.853
 2538SOL     OW 8512   1.770   4.830   5.056
 2538SOL    HW1 8513   1.819   4.763   5.001
 2538SOL    HW2 8514   1.833   4.873   5.120
 2539SOL     OW 8515   4.551   6.829   5.333
 2539SOL    HW1 8516   4.624   6.894   5.313
 2539SOL    HW2 8517   4.464   6.878   5.341
 2540SOL     OW 8518   5.252   0.803   1.860
 2540SOL    HW1 8519   5.275   0.815   1.764
 2540SOL    HW2 8520   5.190   0.725   1.870
 2541SOL     OW 8521   1.574   0.393   5.039
 2541SOL    HW1 8522   1.559   0.490   5.056
 2541SOL    HW2 8523   1.663   0.380   4.996
 2542SOL     OW 8524   4.070   1.790   4.187
 2542SOL    HW1 8525   4.138   1.819   4.120
 2542SOL    HW2 8526   4.113   1.730   4.254
 2543SOL     OW 8527   1.139   0.560   3.397
 2543SOL    HW1 8528   1.124   0.462   3.415
 2543SOL    HW2 8529   1.140   0.576   3.299
 2544SOL     OW 8530   6.892   5.133   1.542
 2544SOL    HW1 8531   6.981   5.099   1.573
 2544SOL    HW2 8532   6.895   5.232   1.533
 2545SOL     OW 8533   2.213   2.133   0.894
 2545SOL    HW1 8534   2.143   2.165   0.958
 2545SOL    HW2 8535   2.293   2.192   0.901
 2546SOL     OW 8536   6.454   3.680   1.828
 2546SOL    HW1 8537   6.401   3.596   1.839
 2546SOL    HW2 8538   6.550   3.662   1.848
 2547SOL     OW 8539   5.841   5.280   0.490
 2547SOL    HW1 8540   5.838   5.281   0.390
 2547SOL    HW2 8541   5.895   5.201   0.520
 2548SOL     OW 8542   1.627   6.982   4.404
 2548SOL    HW1 8543   1.534   7.011   4.383
 2548SOL    HW2 8544   1.624   6.896   4.456
 2549SOL     OW 8545   1.782   2.795   2.007
 2549SOL    HW1 8546   1.844   2.850   2.062
 2549SOL    HW2 8547   1.834   2.727   1.956
 2550SOL     OW 8548   5.751   6.832   0.367
 2550SOL    HW1 8549   5.821   6.896   0.398
 2550SOL    HW2 8550   5.794   6.746   0.339
 2551SOL     OW 8551   3.594   4.439   6.741
 2551SOL    HW1 8552   3.621   4.462   6.834
 2551SOL    HW2 8553   3.616   4.515   6.680
 2552SOL     OW 8554   1.795   5.057   6.533
 2552SOL    HW1 8555   1.842   5.144   6.520
 2552SOL    HW2 8556   1.767   5.048   6.628
 2553SOL     OW 8557   3.478   1.792   6.001
 2553SOL    HW1 8558   3.473   1.877   5.948
 2553SOL    HW2 8559   3.399   1.735   5.979
 2554SOL     OW 8560   1.878   5.545   0.141
 2554SOL    HW1 8561   1.937   5.465   0.153
 2554SOL    HW2 8562   1.793   5.518   0.096
 2555SOL     OW 8563   6.457   5.925   6.294
 2555SOL    HW1 8564   6.402   5.865   6.351
 2555SOL    HW2 8565   6.402   5.960   6.217
 2556SOL     OW 8566   3.680   6.746   1.124
 2556SOL    HW1 8567   3.777   6.735   1.144
 2556SOL    HW2 8568   3.635   6.794   1.199
 2557SOL     OW 8569   3.413   0.124   0.283
 2557SOL    HW1 8570   3.440   0.185   0.208
 2557SOL    HW2 8571   3.323   0.086   0.264
 2558SOL     OW 8572   5.753   4.576   5.926
 2558SOL    HW1 8573   5.803   4.536   5.849
 2558SOL    HW2 8574   5.666   4.529   5.938
 2559SOL     OW 8575   0.051   3.489   3.190
 2559SOL    HW1 8576   0.040   3.479   3.289
 2559SOL    HW2 8577   6.992   3.473   3.145
 2560SOL     OW 8578   5.283   3.323   3.490
 2560SOL    HW1 8579   5.282   3.229   3.456
 2560SOL    HW2 8580   5.213   3.334   3.561
 2561SOL     OW 8581   3.448   1.329   3.804
 2561SOL    HW1 8582   3.527   1.271   3.825
 2561SOL    HW2 8583   3.369   1.299   3.858
 2562SOL     OW 8584   3.446   6.505   3.229
 2562SOL    HW1 8585   3.468   6.544   3.318
 2562SOL    HW2 8586   3.405   6.575   3.171
 2563SOL     OW 8587   3.242   1.222   6.921
 2563SOL    HW1 8588   3.274   1.129   6.940
 2563SOL    HW2 8589   3.188   1.255   6.998
 2564SOL     OW 8590   2.411   0.390   0.379
 2564SOL    HW1 8591   2.417   0.415   0.283
 2564SOL    HW2 8592   2.375   0.467   0.432
 2565SOL     OW 8593   6.976   1.420   6.865
 2565SOL    HW1 8594   6.947   1.516   6.863
 2565SOL    HW2 8595   6.900   1.361   6.839
 2566SOL     OW 8596   2.756   6.884   1.311
 2566SOL    HW1 8597   2.783   6.872   1.216
 2566SOL    HW2 8598   2.825   6.939   1.358
 2567SOL     OW 8599   1.117   1.131   0.372
 2567SOL    HW1 8600   1.091   1.039   0.345
 2567SOL    HW2 8601   1.213   1.148   0.348
 2568SOL     OW 8602   2.926   7.028   0.927
 2568SOL    HW1 8603   2.992   0.003   0.851
 2568SOL    HW2 8604   2.975   7.014   1.013
 2569SOL     OW 8605   2.067   1.047   0.859
 2569SOL    HW1 8606   2.120   1.125   0.826
 2569SOL    HW2 8607   2.000   1.020   0.790
 2570SOL     OW 8608   5.390   5.852   6.651
 2570SOL    HW1 8609   5.352   5.899   6.572
 2570SOL    HW2 8610   5.326   5.857   6.727
 2571SOL     OW 8611   3.610   2.873   4.434
 2571SOL    HW1 8612   3.519   2.889   4.473
 2571SOL    HW2 8613   3.625   2.775   4.423
 2572SOL     OW 8614   2.748   5.535   1.391
 2572SOL    HW1 8615   2.799   5.449   1.391
 2572SOL    HW2 8616   2.674   5.529   1.324
 2573SOL     OW 8617   6.309   2.479   3.485
 2573SOL    HW1 8618   6.288   2.420   3.564
 2573SOL    HW2 8619   6.348   2.565   3.518
 2574SOL     OW 8620   6.192   2.849   0.948
 2574SOL    HW1 8621   6.255   2.859   0.872
 2574SOL    HW2 8622   6.190   2.933   1.002
 2575SOL     OW 8623   5.001   4.128   0.299
 2575SOL    HW1 8624   5.015   4.192   0.223
 2575SOL    HW2 8625   5.083   4.073   0.312
 2576SOL     OW 8626   3.035   0.036   3.690
 2576SOL    HW1 8627   2.995   0.105   3.629
 2576SOL    HW2 8628   3.030   0.069   3.785
 2577SOL     OW 8629   3.718   0.396   3.646
 2577SOL    HW1 8630   3.784   0.459   3.603
 2577SOL    HW2 8631   3.625   0.427   3.627
 2578SOL     OW 8632   4.916   2.729   4.612
 2578SOL    HW1 8633   4.938   2.783   4.531
 2578SOL    HW2 8634   4.859   2.651   4.585
 2579SOL     OW 8635   0.604   1.723   5.946
 2579SOL    HW1 8636   0.553   1.638   5.942
 2579SOL    HW2 8637   0.702   1.703   5.943
 2580SOL     OW 8638   1.732   2.314   5.798
 2580SOL    HW1 8639   1.651   2.328   5.740
 2580SOL    HW2 8640   1.702   2.294   5.891
 2581SOL     OW 8641   5.236   5.629   1.997
 2581SOL    HW1 8642   5.333   5.605   1.999
 2581SOL    HW2 8643   5.213   5.668   1.908
 2582SOL     OW 8644   1.779   5.544   2.651
 2582SOL    HW1 8645   1.875   5.532   2.677
 2582SOL    HW2 8646   1.743   5.627   2.693
 2583SOL     OW 8647   1.109   0.904   1.259
 2583SOL    HW1 8648   1.149   0.855   1.183
 2583SOL    HW2 8649   1.095   0.842   1.336
 2584SOL     OW 8650   3.411   6.149   0.891
 2584SOL    HW1 8651   3.329   6.094   0.906
 2584SOL    HW2 8652   3.487   6.112   0.944
 2585SOL     OW 8653   3.036   0.047   1.177
 2585SOL    HW1 8654   3.046   0.142   1.146
 2585SOL    HW2 8655   3.026   0.046   1.277
 2586SOL     OW 8656   6.128   1.634   5.074
 2586SOL    HW1 8657   6.147   1.536   5.083
 2586SOL    HW2 8658   6.164   1.683   5.153
 2587SOL     OW 8659   6.742   0.488   4.529
 2587SOL    HW1 8660   6.712   0.464   4.621
 2587SOL    HW2 8661   6.781   0.408   4.484
 2588SOL     OW 8662   5.315   0.176   1.486
 2588SOL    HW1 8663   5.390   0.239   1.504
 2588SOL    HW2 8664   5.343   0.111   1.415
 2589SOL     OW 8665   6.607   0.293   5.637
 2589SOL    HW1 8666   6.648   0.383   5.652
 2589SOL    HW2 8667   6.558   0.293   5.550
 2590SOL     OW 8668   3.335   0.015   2.729
 2590SOL    HW1 8669   3.404   0.078   2.765
 2590SOL    HW2 8670   3.350   6.952   2.766
 2591SOL     OW 8671   5.201   6.156   0.891
 2591SOL    HW1 8672   5.241   6.126   0.805
 2591SOL    HW2 8673   5.245   6.108   0.967
 2592SOL     OW 8674   3.006   5.785   1.668
 2592SOL    HW1 8675   3.085   5.725   1.681
 2592SOL    HW2 8676   3.030   5.858   1.604
 2593SOL     OW 8677   3.151   0.210   2.799
 2593SOL    HW1 8678   3.236   0.159   2.785
 2593SOL    HW2 8679   3.124   0.203   2.895
 2594SOL     OW 8680   0.615   0.289   6.113
 2594SOL    HW1 8681   0.577   0.381   6.129
 2594SOL    HW2 8682   0.630   0.276   6.015
 2595SOL     OW 8683   6.853   2.890   5.358
 2595SOL    HW1 8684   6.926   2.917   5.294
 2595SOL    HW2 8685   6.778   2.848   5.307
 2596SOL     OW 8686   3.903   2.228   1.713
 2596SOL    HW1 8687   3.826   2.252   1.772
 2596SOL    HW2 8688   3.870   2.178   1.633
 2597SOL     OW 8689   2.538   3.305   0.735
 2597SOL    HW1 8690   2.554   3.220   0.785
 2597SOL    HW2 8691   2.615   3.321   0.672
 2598SOL     OW 8692   6.776   2.706   4.400
 2598SOL    HW1 8693   6.797   2.788   4.453
 2598SOL    HW2 8694   6.683   2.714   4.363
 2599SOL     OW 8695   3.558   5.574   6.025
 2599SOL    HW1 8696   3.507   5.569   6.111
 2599SOL    HW2 8697   3.607   5.661   6.020
 2600SOL     OW 8698   4.879   3.647   3.750
 2600SOL    HW1 8699   4.875   3.638   3.850
 2600SOL    HW2 8700   4.869   3.744   3.725
 2601SOL     OW 8701   2.977   2.418   6.355
 2601SOL    HW1 8702   3.075   2.416   6.372
 2601SOL    HW2 8703   2.945   2.328   6.327
 2602SOL     OW 8704   6.897   4.836   4.463
 2602SOL    HW1 8705   6.908   4.783   4.548
 2602SOL    HW2 8706   6.808   4.881   4.464
 2603SOL     OW 8707   2.490   2.648   1.902
 2603SOL    HW1 8708   2.421   2.605   1.961
 2603SOL    HW2 8709   2.560   2.581   1.878
 2604SOL     OW 8710   5.320   0.475   1.160
 2604SOL    HW1 8711   5.226   0.444   1.146
 2604SOL    HW2 8712   5.374   0.454   1.079
 2605SOL     OW 8713   4.924   4.855   2.997
 2605SOL    HW1 8714   4.849   4.791   3.014
 2605SOL    HW2 8715   4.906   4.941   3.046
 2606SOL     OW 8716   6.705   4.075   0.257
 2606SOL    HW1 8717   6.728   3.988   0.300
 2606SOL    HW2 8718   6.774   4.098   0.188
 2607SOL     OW 8719   1.631   1.773   4.578
 2607SOL    HW1 8720   1.727   1.799   4.590
 2607SOL    HW2 8721   1.574   1.855   4.575
 2608SOL     OW 8722   4.885   0.451   2.637
 2608SOL    HW1 8723   4.900   0.468   2.540
 2608SOL    HW2 8724   4.965   0.406   2.676
 2609SOL     OW 8725   0.725   2.371   2.129
 2609SOL    HW1 8726   0.793   2.310   2.169
 2609SOL    HW2 8727   0.672   2.322   2.060
 2610SOL     OW 8728   6.783   5.509   4.518
 2610SOL    HW1 8729   6.777   5.502   4.617
 2610SOL    HW2 8730   6.830   5.594   4.494
 2611SOL     OW 8731   6.564   6.386   1.154
 2611SOL    HW1 8732   6.489   6.428   1.205
 2611SOL    HW2 8733   6.542   6.290   1.134
 2612SOL     OW 8734   5.864   6.289   4.489
 2612SOL    HW1 8735   5.804   6.265   4.413
 2612SOL    HW2 8736   5.809   6.319   4.567
 2613SOL     OW 8737   3.261   6.491   2.222
 2613SOL    HW1 8738   3.227   6.529   2.308
 2613SOL    HW2 8739   3.184   6.477   2.160
 2614SOL     OW 8740   6.167   6.485   5.594
 2614SOL    HW1 8741   6.249   6.501   5.539
 2614SOL    HW2 8742   6.110   6.417   5.548
 2615SOL     OW 8743   5.388   5.714   3.580
 2615SOL    HW1 8744   5.357   5.661   3.659
 2615SOL    HW2 8745   5.419   5.652   3.508
 2616SOL     OW 8746   4.068   3.502   4.076
 2616SOL    HW1 8747   4.087   3.600   4.081
 2616SOL    HW2 8748   4.108   3.457   4.156
 2617SOL     OW 8749   3.333   5.078   1.096
 2617SOL    HW1 8750   3.353   5.087   1.194
 2617SOL    HW2 8751   3.262   5.009   1.083
 2618SOL     OW 8752   6.871   6.577   2.912
 2618SOL    HW1 8753   6.953   6.556   2.965
 2618SOL    HW2 8754   6.808   6.631   2.968
 2619SOL     OW 8755   4.573   1.460   2.110
 2619SOL    HW1 8756   4.659   1.502   2.139
 2619SOL    HW2 8757   4.501   1.530   2.108
 2620SOL     OW 8758   1.653   5.460   3.403
 2620SOL    HW1 8759   1.557   5.441   3.427
 2620SOL    HW2 8760   1.662   5.556   3.376
 2621SOL     OW 8761   1.070   5.603   3.621
 2621SOL    HW1 8762   1.107   5.647   3.538
 2621SOL    HW2 8763   1.144   5.559   3.671
 2622SOL     OW 8764   1.858   3.039   6.009
 2622SOL    HW1 8765   1.865   2.946   5.974
 2622SOL    HW2 8766   1.943   3.088   5.990
 2623SOL     OW 8767   4.047   0.979   4.671
 2623SOL    HW1 8768   3.985   1.058   4.671
 2623SOL    HW2 8769   4.066   0.951   4.765
 2624SOL     OW 8770   6.567   3.034   3.299
 2624SOL    HW1 8771   6.494   2.974   3.267
 2624SOL    HW2 8772   6.542   3.130   3.282
 2625SOL     OW 8773   1.772   3.105   4.741
 2625SOL    HW1 8774   1.789   3.045   4.819
 2625SOL    HW2 8775   1.857   3.121   4.692
 2626SOL     OW 8776   0.495   6.122   3.902
 2626SOL    HW1 8777   0.494   6.032   3.946
 2626SOL    HW2 8778   0.408   6.169   3.919
 2627SOL     OW 8779   0.278   0.967   5.051
 2627SOL    HW1 8780   0.363   0.914   5.047
 2627SOL    HW2 8781   0.289   1.053   5.001
 2628SOL     OW 8782   3.840   6.312   6.599
 2628SOL    HW1 8783   3.767   6.245   6.615
 2628SOL    HW2 8784   3.898   6.316   6.680
 2629SOL     OW 8785   3.874   3.800   1.853
 2629SOL    HW1 8786   3.891   3.703   1.869
 2629SOL    HW2 8787   3.939   3.854   1.906
 2630SOL     OW 8788   3.377   2.138   2.232
 2630SOL    HW1 8789   3.469   2.102   2.217
 2630SOL    HW2 8790   3.371   2.231   2.197
 2631SOL     OW 8791   3.997   6.766   4.194
 2631SOL    HW1 8792   4.001   6.864   4.177
 2631SOL    HW2 8793   4.057   6.719   4.129
 2632SOL     OW 8794   3.210   2.155   6.582
 2632SOL    HW1 8795   3.222   2.180   6.486
 2632SOL    HW2 8796   3.230   2.058   6.595
 2633SOL     OW 8797   5.833   2.534   6.579
 2633SOL    HW1 8798   5.839   2.439   6.610
 2633SOL    HW2 8799   5.741   2.570   6.599
 2634SOL     OW 8800   1.848   3.863   2.575
 2634SOL    HW1 8801   1.759   3.840   2.535
 2634SOL    HW2 8802   1.908   3.900   2.504
 2635SOL     OW 8803   5.021   6.043   4.197
 2635SOL    HW1 8804   4.949   6.020   4.131
 2635SOL    HW2 8805   5.030   6.142   4.202
 2636SOL     OW 8806   5.996   0.314   6.876
 2636SOL    HW1 8807   5.963   0.220   6.874
 2636SOL    HW2 8808   6.016   0.345   6.782
 2637SOL     OW 8809   6.454   0.962   3.575
 2637SOL    HW1 8810   6.379   0.978   3.640
 2637SOL    HW2 8811   6.530   0.917   3.622
 2638SOL     OW 8812   5.796   0.201   2.135
 2638SOL    HW1 8813   5.763   0.246   2.218
 2638SOL    HW2 8814   5.841   0.269   2.076
 2639SOL     OW 8815   6.242   6.916   2.290
 2639SOL    HW1 8816   6.207   6.823   2.289
 2639SOL    HW2 8817   6.223   6.960   2.202
 2640SOL     OW 8818   6.728   6.401   5.614
 2640SOL    HW1 8819   6.661   6.390   5.540
 2640SOL    HW2 8820   6.790   6.476   5.592
 2641SOL     OW 8821   5.714   3.329   0.903
 2641SOL    HW1 8822   5.805   3.289   0.914
 2641SOL    HW2 8823   5.662   3.276   0.836
 2642SOL     OW 8824   5.978   0.637   4.843
 2642SOL    HW1 8825   5.882   0.638   4.872
 2642SOL    HW2 8826   5.985   0.672   4.750
 2643SOL     OW 8827   0.281   5.392   3.280
 2643SOL    HW1 8828   0.304   5.475   3.330
 2643SOL    HW2 8829   0.230   5.331   3.340
 2644SOL     OW 8830   0.696   4.509   5.707
 2644SOL    HW1 8831   0.645   4.439   5.658
 2644SOL    HW2 8832   0.794   4.494   5.694
 2645SOL     OW 8833   4.499   6.564   5.281
 2645SOL    HW1 8834   4.552   6.647   5.298
 2645SOL    HW2 8835   4.539   6.515   5.203
 2646SOL     OW 8836   6.407   0.039   6.158
 2646SOL    HW1 8837   6.342   6.996   6.183
 2646SOL    HW2 8838   6.412   0.106   6.231
 2647SOL     OW 8839   5.202   0.738   1.044
 2647SOL    HW1 8840   5.271   0.810   1.046
 2647SOL    HW2 8841   5.247   0.649   1.052
 2648SOL     OW 8842   6.379   6.979   3.493
 2648SOL    HW1 8843   6.310   6.987   3.566
 2648SOL    HW2 8844   6.415   0.041   3.472
 2649SOL     OW 8845   4.112   1.356   5.581
 2649SOL    HW1 8846   4.044   1.284   5.597
 2649SOL    HW2 8847   4.202   1.323   5.609
 2650SOL     OW 8848   0.937   4.982   3.830
 2650SOL    HW1 8849   0.922   4.900   3.885
 2650SOL    HW2 8850   0.851   5.010   3.787
 2651SOL     OW 8851   0.996   1.459   0.734
 2651SOL    HW1 8852   1.083   1.475   0.781
 2651SOL    HW2 8853   0.948   1.546   0.723
 2652SOL     OW 8854   3.334   2.946   3.659
 2652SOL    HW1 8855   3.238   2.972   3.671
 2652SOL    HW2 8856   3.354   2.935   3.562
 2653SOL     OW 8857   4.945   6.804   5.503
 2653SOL    HW1 8858   4.887   6.831   5.580
 2653SOL    HW2 8859   4.894   6.813   5.418
 2654SOL     OW 8860   4.893   3.233   0.008
 2654SOL    HW1 8861   4.813   3.206   6.984
 2654SOL    HW2 8862   4.974   3.227   6.979
 2655SOL     OW 8863   4.211   4.722   4.391
 2655SOL    HW1 8864   4.310   4.717   4.401
 2655SOL    HW2 8865   4.172   4.775   4.467
 2656SOL     OW 8866   4.812   4.811   4.154
 2656SOL    HW1 8867   4.892   4.759   4.122
 2656SOL    HW2 8868   4.794   4.787   4.249
 2657SOL     OW 8869   2.703   4.158   6.019
 2657SOL    HW1 8870   2.693   4.227   5.947
 2657SOL    HW2 8871   2.674   4.069   5.984
 2658SOL     OW 8872   5.843   4.862   6.595
 2658SOL    HW1 8873   5.870   4.830   6.504
 2658SOL    HW2 8874   5.744   4.876   6.597
 2659SOL     OW 8875   6.681   2.081   4.276
 2659SOL    HW1 8876   6.697   2.162   4.219
 2659SOL    HW2 8877   6.603   2.098   4.336
 2660SOL     OW 8878   0.257   1.886   1.307
 2660SOL    HW1 8879   0.224   1.908   1.216
 2660SOL    HW2 8880   0.285   1.790   1.311
 2661SOL     OW 8881   2.528   6.910   1.806
 2661SOL    HW1 8882   2.559   6.912   1.711
 2661SOL    HW2 8883   2.528   7.003   1.843
 2662SOL     OW 8884   4.420   6.686   4.936
 2662SOL    HW1 8885   4.433   6.593   4.970
 2662SOL    HW2 8886   4.322   6.703   4.922
 2663SOL     OW 8887   2.296   4.400   1.547
 2663SOL    HW1 8888   2.235   4.327   1.517
 2663SOL    HW2 8889   2.387   4.361   1.566
 2664SOL     OW 8890   3.588   3.987   3.307
 2664SOL    HW1 8891   3.555   4.021   3.395
 2664SOL    HW2 8892   3.687   3.978   3.309
 2665SOL     OW 8893   3.829   2.236   5.244
 2665SOL    HW1 8894   3.810   2.329   5.276
 2665SOL    HW2 8895   3.749   2.201   5.196
 2666SOL     OW 8896   4.754   4.278   1.226
 2666SOL    HW1 8897   4.696   4.245   1.152
 2666SOL    HW2 8898   4.714   4.360   1.266
 2667SOL     OW 8899   1.931   5.915   4.704
 2667SOL    HW1 8900   1.841   5.951   4.728
 2667SOL    HW2 8901   1.922   5.852   4.626
 2668SOL     OW 8902   6.458   3.962   4.083
 2668SOL    HW1 8903   6.414   4.050   4.101
 2668SOL    HW2 8904   6.505   3.930   4.165
 2669SOL     OW 8905   3.385   4.887   5.551
 2669SOL    HW1 8906   3.394   4.943   5.469
 2669SOL    HW2 8907   3.307   4.919   5.605
 2670SOL     OW 8908   6.025   1.663   6.729
 2670SOL    HW1 8909   6.062   1.753   6.753
 2670SOL    HW2 8910   6.090   1.592   6.756
 2671SOL     OW 8911   2.468   4.142   0.365
 2671SOL    HW1 8912   2.529   4.093   0.303
 2671SOL    HW2 8913   2.387   4.086   0.385
 2672SOL     OW 8914   1.061   5.363   6.991
 2672SOL    HW1 8915   1.096   5.432   6.928
 2672SOL    HW2 8916   1.134   5.299   7.016
 2673SOL     OW 8917   5.604   2.457   3.706
 2673SOL    HW1 8918   5.627   2.507   3.789
 2673SOL    HW2 8919   5.607   2.518   3.627
 2674SOL     OW 8920   1.772   4.283   4.221
 2674SOL    HW1 8921   1.751   4.242   4.132
 2674SOL    HW2 8922   1.690   4.327   4.258
 2675SOL     OW 8923   1.149   4.469   5.195
 2675SOL    HW1 8924   1.060   4.513   5.191
 2675SOL    HW2 8925   1.163   4.429   5.285
 2676SOL     OW 8926   4.481   1.031   2.690
 2676SOL    HW1 8927   4.563   1.021   2.746
 2676SOL    HW2 8928   4.403   0.988   2.736
 2677SOL     OW 8929   3.341   5.234   1.661
 2677SOL    HW1 8930   3.425   5.253   1.713
 2677SOL    HW2 8931   3.274   5.306   1.680
 2678SOL     OW 8932   0.439   4.624   0.403
 2678SOL    HW1 8933   0.378   4.605   0.479
 2678SOL    HW2 8934   0.386   4.638   0.320
 2679SOL     OW 8935   3.816   5.506   1.515
 2679SOL    HW1 8936   3.851   5.415   1.492
 2679SOL    HW2 8937   3.800   5.511   1.614
 2680SOL     OW 8938   1.807   1.665   0.599
 2680SOL    HW1 8939   1.751   1.747   0.601
 2680SOL    HW2 8940   1.816   1.628   0.692
 2681SOL     OW 8941   1.606   3.186   4.237
 2681SOL    HW1 8942   1.675   3.243   4.282
 2681SOL    HW2 8943   1.570   3.234   4.157
 2682SOL     OW 8944   5.574   3.145   2.605
 2682SOL    HW1 8945   5.669   3.131   2.577
 2682SOL    HW2 8946   5.570   3.156   2.704
 2683SOL     OW 8947   1.228   4.174   1.267
 2683SOL    HW1 8948   1.251   4.244   1.200
 2683SOL    HW2 8949   1.151   4.120   1.234
 2684SOL     OW 8950   3.710   5.602   2.371
 2684SOL    HW1 8951   3.677   5.561   2.456
 2684SOL    HW2 8952   3.694   5.538   2.295
 2685SOL     OW 8953   6.016   6.881   4.727
 2685SOL    HW1 8954   6.054   6.796   4.765
 2685SOL    HW2 8955   5.980   6.938   4.802
 2686SOL     OW 8956   1.757   2.410   4.096
 2686SOL    HW1 8957   1.658   2.405   4.106
 2686SOL    HW2 8958   1.782   2.496   4.050
 2687SOL     OW 8959   4.246   4.676   2.618
 2687SOL    HW1 8960   4.284   4.727   2.540
 2687SOL    HW2 8961   4.155   4.711   2.640
 2688SOL     OW 8962   4.315   5.793   6.068
 2688SOL    HW1 8963   4.272   5.869   6.020
 2688SOL    HW2 8964   4.291   5.707   6.022
 2689SOL     OW 8965   2.096   1.810   3.970
 2689SOL    HW1 8966   2.008   1.837   3.929
 2689SOL    HW2 8967   2.169   1.820   3.903
 2690SOL     OW 8968   3.717   2.875   3.761
 2690SOL    HW1 8969   3.630   2.835   3.787
 2690SOL    HW2 8970   3.763   2.911   3.842
 2691SOL     OW 8971   1.554   5.220   2.052
 2691SOL    HW1 8972   1.590   5.312   2.041
 2691SOL    HW2 8973   1.522   5.208   2.146
 2692SOL     OW 8974   5.752   5.847   4.196
 2692SOL    HW1 8975   5.682   5.904   4.240
 2692SOL    HW2 8976   5.822   5.905   4.156
 2693SOL     OW 8977   2.378   4.740   3.062
 2693SOL    HW1 8978   2.470   4.701   3.072
 2693SOL    HW2 8979   2.383   4.825   3.011
 2694SOL     OW 8980   3.098   1.018   2.815
 2694SOL    HW1 8981   3.144   1.101   2.784
 2694SOL    HW2 8982   3.126   0.941   2.758
 2695SOL     OW 8983   5.310   1.627   2.704
 2695SOL    HW1 8984   5.315   1.563   2.780
 2695SOL    HW2 8985   5.291   1.719   2.738
 2696SOL     OW 8986   3.405   2.512   5.510
 2696SOL    HW1 8987   3.441   2.576   5.442
 2696SOL    HW2 8988   3.373   2.562   5.590
 2697SOL     OW 8989   4.092   2.226   3.999
 2697SOL    HW1 8990   4.154   2.175   4.059
 2697SOL    HW2 8991   4.138   2.247   3.913
 2698SOL     OW 8992   1.667   4.974   0.126
 2698SOL    HW1 8993   1.619   4.935   0.048
 2698SOL    HW2 8994   1.761   4.997   0.100
 2699SOL     OW 8995   4.149   5.490   6.378
 2699SOL    HW1 8996   4.141   5.578   6.332
 2699SOL    HW2 8997   4.146   5.416   6.310
 2700SOL     OW 8998   1.747   3.725   2.229
 2700SOL    HW1 8999   1.757   3.783   2.148
 2700SOL    HW2 9000   1.837   3.698   2.262
 2701SOL     OW 9001   3.950   6.919   6.911
 2701SOL    HW1 9002   3.913   6.838   6.866
 2701SOL    HW2 9003   3.982   6.984   6.842
 2702SOL     OW 9004   6.963   1.585   3.080
 2702SOL    HW1 9005   6.921   1.531   3.153
 2702SOL    HW2 9006   6.942   1.681   3.093
 2703SOL     OW 9007   2.484   0.804   3.116
 2703SOL    HW1 9008   2.558   0.736   3.117
 2703SOL    HW2 9009   2.399   0.760   3.088
 2704SOL     OW 9010   1.383   5.411   1.344
 2704SOL    HW1 9011   1.343   5.328   1.307
 2704SOL    HW2 9012   1.343   5.431   1.433
 2705SOL     OW 9013   0.865   5.469   4.427
 2705SOL    HW1 9014   0.891   5.508   4.516
 2705SOL    HW2 9015   0.782   5.415   4.437
 2706SOL     OW 9016   0.295   0.980   1.688
 2706SOL    HW1 9017   0.358   1.050   1.722
 2706SOL    HW2 9018   0.202   1.017   1.683
 2707SOL     OW 9019   2.383   0.594   5.666
 2707SOL    HW1 9020   2.447   0.521   5.691
 2707SOL    HW2 9021   2.434   0.676   5.639
 2708SOL     OW 9022   2.308   2.784   1.480
 2708SOL    HW1 9023   2.361   2.793   1.395
 2708SOL    HW2 9024   2.370   2.789   1.558
 2709SOL     OW 9025   5.034   6.706   1.258
 2709SOL    HW1 9026   5.053   6.745   1.168
 2709SOL    HW2 9027   4.938   6.725   1.282
 2710SOL     OW 9028   6.459   4.085   2.451
 2710SOL    HW1 9029   6.387   4.078   2.382
 2710SOL    HW2 9030   6.544   4.046   2.415
 2711SOL     OW 9031   1.899   0.270   2.860
 2711SOL    HW1 9032   1.871   0.272   2.763
 2711SOL    HW2 9033   1.883   0.360   2.900
 2712SOL     OW 9034   4.217   5.257   6.547
 2712SOL    HW1 9035   4.125   5.223   6.566
 2712SOL    HW2 9036   4.213   5.330   6.479
 2713SOL     OW 9037   1.731   2.508   4.491
 2713SOL    HW1 9038   1.806   2.444   4.505
 2713SOL    HW2 9039   1.766   2.601   4.486
 2714SOL     OW 9040   5.108   1.574   6.799
 2714SOL    HW1 9041   5.114   1.523   6.714
 2714SOL    HW2 9042   5.021   1.625   6.802
 2715SOL     OW 9043   6.517   0.361   0.271
 2715SOL    HW1 9044   6.491   0.292   0.204
 2715SOL    HW2 9045   6.581   0.426   0.230
 2716SOL     OW 9046   6.600   5.323   1.794
 2716SOL    HW1 9047   6.600   5.274   1.707
 2716SOL    HW2 9048   6.526   5.288   1.852
 2717SOL     OW 9049   0.852   5.624   1.946
 2717SOL    HW1 9050   0.795   5.653   1.869
 2717SOL    HW2 9051   0.818   5.666   2.030
 2718SOL     OW 9052   1.733   4.066   3.952
 2718SOL    HW1 9053   1.758   4.027   3.863
 2718SOL    HW2 9054   1.748   4.165   3.950
 2719SOL     OW 9055   4.587   4.837   1.961
 2719SOL    HW1 9056   4.517   4.825   2.031
 2719SOL    HW2 9057   4.656   4.766   1.970
 2720SOL     OW 9058   1.929   5.938   3.663
 2720SOL    HW1 9059   1.946   6.037   3.663
 2720SOL    HW2 9060   1.928   5.905   3.569
 2721SOL     OW 9061   2.855   0.612   5.338
 2721SOL    HW1 9062   2.939   0.612   5.393
 2721SOL    HW2 9063   2.878   0.634   5.243
 2722SOL     OW 9064   6.733   5.370   2.729
 2722SOL    HW1 9065   6.683   5.289   2.760
 2722SOL    HW2 9066   6.811   5.386   2.790
 2723SOL     OW 9067   1.768   1.170   6.198
 2723SOL    HW1 9068   1.730   1.101   6.259
 2723SOL    HW2 9069   1.699   1.196   6.130
 2724SOL     OW 9070   2.743   5.958   5.060
 2724SOL    HW1 9071   2.801   5.887   5.019
 2724SOL    HW2 9072   2.761   5.962   5.158
 2725SOL     OW 9073   6.364   5.140   3.405
 2725SOL    HW1 9074   6.441   5.175   3.350
 2725SOL    HW2 9075   6.400   5.091   3.485
 2726SOL     OW 9076   5.109   4.809   1.756
 2726SOL    HW1 9077   5.118   4.752   1.674
 2726SOL    HW2 9078   5.195   4.808   1.807
 2727SOL     OW 9079   0.884   4.732   3.162
 2727SOL    HW1 9080   0.831   4.673   3.224
 2727SOL    HW2 9081   0.821   4.781   3.101
 2728SOL     OW 9082   2.912   0.641   4.679
 2728SOL    HW1 9083   2.886   0.656   4.774
 2728SOL    HW2 9084   2.854   0.570   4.639
 2729SOL     OW 9085   6.576   5.687   2.135
 2729SOL    HW1 9086   6.528   5.772   2.115
 2729SOL    HW2 9087   6.590   5.636   2.050
 2730SOL     OW 9088   1.944   6.910   0.710
 2730SOL    HW1 9089   2.035   6.870   0.700
 2730SOL    HW2 9090   1.875   6.843   0.683
 2731SOL     OW 9091   3.009   3.546   1.306
 2731SOL    HW1 9092   2.963   3.485   1.370
 2731SOL    HW2 9093   3.027   3.634   1.350
 2732SOL     OW 9094   6.012   3.173   2.364
 2732SOL    HW1 9095   5.978   3.160   2.271
 2732SOL    HW2 9096   5.944   3.140   2.430
 2733SOL     OW 9097   0.732   6.833   5.436
 2733SOL    HW1 9098   0.746   6.775   5.517
 2733SOL    HW2 9099   0.820   6.869   5.405
 2734SOL     OW 9100   1.578   5.527   2.917
 2734SOL    HW1 9101   1.575   5.605   2.979
 2734SOL    HW2 9102   1.528   5.549   2.833
 2735SOL     OW 9103   0.032   3.152   2.090
 2735SOL    HW1 9104   6.975   3.145   2.039
 2735SOL    HW2 9105   0.102   3.098   2.045
 2736SOL     OW 9106   4.901   0.640   5.028
 2736SOL    HW1 9107   4.979   0.642   5.091
 2736SOL    HW2 9108   4.916   0.706   4.955
 2737SOL     OW 9109   3.291   3.105   6.470
 2737SOL    HW1 9110   3.206   3.068   6.506
 2737SOL    HW2 9111   3.313   3.059   6.384
 2738SOL     OW 9112   4.788   6.018   4.548
 2738SOL    HW1 9113   4.744   6.048   4.463
 2738SOL    HW2 9114   4.849   6.091   4.581
 2739SOL     OW 9115   5.732   4.152   0.550
 2739SOL    HW1 9116   5.731   4.055   0.525
 2739SOL    HW2 9117   5.762   4.162   0.645
 2740SOL     OW 9118   5.271   2.009   2.221
 2740SOL    HW1 9119   5.269   2.016   2.321
 2740SOL    HW2 9120   5.253   1.915   2.194
 2741SOL     OW 9121   0.180   2.088   6.120
 2741SOL    HW1 9122   0.120   2.166   6.136
 2741SOL    HW2 9123   0.138   2.005   6.155
 2742SOL     OW 9124   1.765   6.188   6.272
 2742SOL    HW1 9125   1.778   6.147   6.362
 2742SOL    HW2 9126   1.681   6.150   6.231
 2743SOL     OW 9127   6.332   5.385   1.407
 2743SOL    HW1 9128   6.408   5.451   1.412
 2743SOL    HW2 9129   6.274   5.408   1.329
 2744SOL     OW 9130   4.096   1.881   0.138
 2744SOL    HW1 9131   4.193   1.906   0.127
 2744SOL    HW2 9132   4.087   1.821   0.218
 2745SOL     OW 9133   2.216   6.399   0.193
 2745SOL    HW1 9134   2.131   6.397   0.246
 2745SOL    HW2 9135   2.247   6.306   0.176
 2746SOL     OW 9136   2.216   3.102   4.498
 2746SOL    HW1 9137   2.220   3.036   4.422
 2746SOL    HW2 9138   2.276   3.070   4.571
 2747SOL     OW 9139   5.391   4.550   5.492
 2747SOL    HW1 9140   5.370   4.641   5.455
 2747SOL    HW2 9141   5.311   4.514   5.539
 2748SOL     OW 9142   3.458   1.465   2.569
 2748SOL    HW1 9143   3.358   1.460   2.577
 2748SOL    HW2 9144   3.483   1.541   2.509
 2749SOL     OW 9145   4.921   5.172   4.285
 2749SOL    HW1 9146   4.947   5.189   4.189
 2749SOL    HW2 9147   4.941   5.077   4.308
 2750SOL     OW 9148   1.144   5.223   1.475
 2750SOL    HW1 9149   1.094   5.232   1.561
 2750SOL    HW2 9150   1.079   5.212   1.400
 2751SOL     OW 9151   1.766   0.127   0.041
 2751SOL    HW1 9152   1.774   0.226   0.049
 2751SOL    HW2 9153   1.841   0.091   7.014
 2752SOL     OW 9154   5.249   5.785   5.239
 2752SOL    HW1 9155   5.164   5.828   5.268
 2752SOL    HW2 9156   5.228   5.700   5.189
 2753SOL     OW 9157   2.929   5.843   6.258
 2753SOL    HW1 9158   2.882   5.814   6.342
 2753SOL    HW2 9159   3.015   5.889   6.282
 2754SOL     OW 9160   6.712   0.215   4.373
 2754SOL    HW1 9161   6.630   0.251   4.416
 2754SOL    HW2 9162   6.686   0.154   4.298
 2755SOL     OW 9163   2.826   6.776   3.255
 2755SOL    HW1 9164   2.922   6.750   3.258
 2755SOL    HW2 9165   2.810   6.853   3.318
 2756SOL     OW 9166   6.524   4.621   3.951
 2756SOL    HW1 9167   6.492   4.570   4.031
 2756SOL    HW2 9168   6.573   4.559   3.889
 2757SOL     OW 9169   3.105   1.333   6.687
 2757SOL    HW1 9170   3.164   1.274   6.742
 2757SOL    HW2 9171   3.021   1.354   6.738
 2758SOL     OW 9172   5.178   5.860   3.454
 2758SOL    HW1 9173   5.174   5.952   3.492
 2758SOL    HW2 9174   5.264   5.816   3.481
 2759SOL     OW 9175   3.577   4.701   5.635
 2759SOL    HW1 9176   3.527   4.614   5.638
 2759SOL    HW2 9177   3.513   4.775   5.615
 2760SOL     OW 9178   6.479   5.539   2.748
 2760SOL    HW1 9179   6.422   5.543   2.830
 2760SOL    HW2 9180   6.566   5.494   2.769
 2761SOL     OW 9181   1.252   4.103   3.035
 2761SOL    HW1 9182   1.251   4.203   3.032
 2761SOL    HW2 9183   1.324   4.068   2.976
 2762SOL     OW 9184   1.463   2.018   7.002
 2762SOL    HW1 9185   1.459   2.056   6.910
 2762SOL    HW2 9186   1.371   2.018   0.014
 2763SOL     OW 9187   4.900   1.648   5.980
 2763SOL    HW1 9188   4.934   1.644   5.886
 2763SOL    HW2 9189   4.946   1.578   6.035
 2764SOL     OW 9190   0.501   4.551   2.710
 2764SOL    HW1 9191   0.486   4.648   2.730
 2764SOL    HW2 9192   0.418   4.500   2.733
 2765SOL     OW 9193   6.764   0.063   1.023
 2765SOL    HW1 9194   6.699   0.103   0.958
 2765SOL    HW2 9195   6.740   0.092   1.116
 2766SOL     OW 9196   4.108   0.763   6.775
 2766SOL    HW1 9197   4.149   0.782   6.686
 2766SOL    HW2 9198   4.133   0.837   6.839
 2767SOL     OW 9199   6.156   6.044   6.347
 2767SOL    HW1 9200   6.225   6.112   6.371
 2767SOL    HW2 9201   6.137   5.986   6.426
 2768SOL     OW 9202   3.786   0.601   0.787
 2768SOL    HW1 9203   3.827   0.610   0.696
 2768SOL    HW2 9204   3.726   0.521   0.788
 2769SOL     OW 9205   1.414   3.942   6.086
 2769SOL    HW1 9206   1.441   3.848   6.107
 2769SOL    HW2 9207   1.467   3.976   6.008
 2770SOL     OW 9208   3.824   6.073   5.931
 2770SOL    HW1 9209   3.905   6.083   5.989
 2770SOL    HW2 9210   3.802   5.976   5.921
 2771SOL     OW 9211   5.650   6.621   3.936
 2771SOL    HW1 9212   5.736   6.614   3.988
 2771SOL    HW2 9213   5.650   6.706   3.884
 2772SOL     OW 9214   3.469   0.847   2.438
 2772SOL    HW1 9215   3.508   0.899   2.363
 2772SOL    HW2 9216   3.391   0.897   2.476
 2773SOL     OW 9217   0.339   3.006   4.007
 2773SOL    HW1 9218   0.330   3.097   4.046
 2773SOL    HW2 9219   0.342   2.939   4.081
 2774SOL     OW 9220   5.179   2.231   2.783
 2774SOL    HW1 9221   5.081   2.224   2.799
 2774SOL    HW2 9222   5.229   2.198   2.863
 2775SOL     OW 9223   6.858   3.749   3.262
 2775SOL    HW1 9224   6.782   3.686   3.247
 2775SOL    HW2 9225   6.851   3.827   3.199
 2776SOL     OW 9226   5.397   5.557   0.071
 2776SOL    HW1 9227   5.321   5.521   0.125
 2776SOL    HW2 9228   5.399   5.511   7.010
 2777SOL     OW 9229   2.546   2.048   5.710
 2777SOL    HW1 9230   2.595   1.978   5.762
 2777SOL    HW2 9231   2.543   2.022   5.614
 2778SOL     OW 9232   2.436   5.987   6.454
 2778SOL    HW1 9233   2.468   6.060   6.394
 2778SOL    HW2 9234   2.476   5.900   6.424
 2779SOL     OW 9235   5.710   6.305   1.664
 2779SOL    HW1 9236   5.749   6.392   1.695
 2779SOL    HW2 9237   5.768   6.266   1.594
 2780SOL     OW 9238   0.743   0.524   6.372
 2780SOL    HW1 9239   0.833   0.482   6.375
 2780SOL    HW2 9240   0.752   0.624   6.373
 2781SOL     OW 9241   6.511   0.809   2.312
 2781SOL    HW1 9242   6.552   0.862   2.386
 2781SOL    HW2 9243   6.418   0.782   2.337
 2782SOL     OW 9244   4.334   0.687   5.819
 2782SOL    HW1 9245   4.414   0.720   5.868
 2782SOL    HW2 9246   4.299   0.760   5.760
 2783SOL     OW 9247   6.093   3.455   1.089
 2783SOL    HW1 9248   6.074   3.431   0.994
 2783SOL    HW2 9249   6.081   3.374   1.147
 2784SOL     OW 9250   2.670   1.683   2.039
 2784SOL    HW1 9251   2.756   1.729   2.061
 2784SOL    HW2 9252   2.683   1.584   2.046
 2785SOL     OW 9253   5.042   2.597   1.677
 2785SOL    HW1 9254   5.082   2.548   1.599
 2785SOL    HW2 9255   5.110   2.657   1.718
 2786SOL     OW 9256   6.810   5.854   1.264
 2786SOL    HW1 9257   6.745   5.884   1.333
 2786SOL    HW2 9258   6.793   5.757   1.243
 2787SOL     OW 9259   6.463   5.916   5.709
 2787SOL    HW1 9260   6.446   5.969   5.626
 2787SOL    HW2 9261   6.502   5.976   5.780
 2788SOL     OW 9262   3.579   6.557   5.893
 2788SOL    HW1 9263   3.607   6.464   5.872
 2788SOL    HW2 9264   3.500   6.555   5.954
 2789SOL     OW 9265   0.873   2.602   3.920
 2789SOL    HW1 9266   0.972   2.600   3.928
 2789SOL    HW2 9267   0.840   2.695   3.938
 2790SOL     OW 9268   2.823   5.050   0.390
 2790SOL    HW1 9269   2.898   5.112   0.369
 2790SOL    HW2 9270   2.776   5.024   0.305
 2791SOL     OW 9271   0.175   4.194   2.091
 2791SOL    HW1 9272   0.191   4.137   2.011
 2791SOL    HW2 9273   0.227   4.158   2.169
 2792SOL     OW 9274   3.177   0.521   4.745
 2792SOL    HW1 9275   3.122   0.593   4.703
 2792SOL    HW2 9276   3.273   0.548   4.744
 2793SOL     OW 9277   4.596   4.550   1.304
 2793SOL    HW1 9278   4.624   4.518   1.395
 2793SOL    HW2 9279   4.645   4.634   1.281
 2794SOL     OW 9280   6.737   0.949   6.755
 2794SOL    HW1 9281   6.716   0.954   6.658
 2794SOL    HW2 9282   6.765   1.040   6.788
 2795SOL     OW 9283   0.560   4.815   0.926
 2795SOL    HW1 9284   0.519   4.731   0.890
 2795SOL    HW2 9285   0.487   4.877   0.956
 2796SOL     OW 9286   0.827   5.847   5.423
 2796SOL    HW1 9287   0.877   5.793   5.491
 2796SOL    HW2 9288   0.868   5.939   5.418
 2797SOL     OW 9289   5.708   5.490   5.206
 2797SOL    HW1 9290   5.739   5.397   5.222
 2797SOL    HW2 9291   5.783   5.554   5.220
 2798SOL     OW 9292   6.276   6.172   2.428
 2798SOL    HW1 9293   6.268   6.095   2.490
 2798SOL    HW2 9294   6.197   6.173   2.366
 2799SOL     OW 9295   5.049   5.633   5.403
 2799SOL    HW1 9296   5.018   5.688   5.480
 2799SOL    HW2 9297   4.981   5.637   5.330
 2800SOL     OW 9298   5.897   0.933   0.518
 2800SOL    HW1 9299   5.895   0.896   0.425
 2800SOL    HW2 9300   5.824   0.891   0.572
 2801SOL     OW 9301   0.512   5.330   5.923
 2801SOL    HW1 9302   0.442   5.319   5.852
 2801SOL    HW2 9303   0.602   5.314   5.882
 2802SOL     OW 9304   6.389   6.566   5.411
 2802SOL    HW1 9305   6.463   6.527   5.357
 2802SOL    HW2 9306   6.395   6.666   5.410
 2803SOL     OW 9307   3.492   3.370   6.140
 2803SOL    HW1 9308   3.453   3.295   6.086
 2803SOL    HW2 9309   3.486   3.455   6.089
 2804SOL     OW 9310   0.416   2.845   4.205
 2804SOL    HW1 9311   0.364   2.775   4.156
 2804SOL    HW2 9312   0.378   2.857   4.297
 2805SOL     OW 9313   4.955   3.747   2.285
 2805SOL    HW1 9314   4.913   3.701   2.208
 2805SOL    HW2 9315   4.958   3.686   2.364
 2806SOL     OW 9316   2.482   3.821   6.254
 2806SOL    HW1 9317   2.423   3.801   6.176
 2806SOL    HW2 9318   2.425   3.836   6.335
 2807SOL     OW 9319   2.807   0.943   3.111
 2807SOL    HW1 9320   2.763   0.857   3.135
 2807SOL    HW2 9321   2.901   0.925   3.082
 2808SOL     OW 9322   6.042   5.567   0.845
 2808SOL    HW1 9323   6.030   5.662   0.817
 2808SOL    HW2 9324   5.982   5.509   0.791
 2809SOL     OW 9325   5.704   3.894   2.144
 2809SOL    HW1 9326   5.790   3.854   2.175
 2809SOL    HW2 9327   5.670   3.843   2.065
 2810SOL     OW 9328   2.312   6.217   3.264
 2810SOL    HW1 9329   2.387   6.272   3.301
 2810SOL    HW2 9330   2.349   6.146   3.203
 2811SOL     OW 9331   0.885   0.432   2.677
 2811SOL    HW1 9332   0.802   0.381   2.657
 2811SOL    HW2 9333   0.912   0.485   2.597
 2812SOL     OW 9334   0.514   3.008   0.424
 2812SOL    HW1 9335   0.499   3.104   0.449
 2812SOL    HW2 9336   0.601   2.978   0.463
 2813SOL     OW 9337   1.117   1.727   1.039
 2813SOL    HW1 9338   1.141   1.814   1.082
 2813SOL    HW2 9339   1.091   1.742   0.944
 2814SOL     OW 9340   2.874   3.870   6.918
 2814SOL    HW1 9341   2.892   3.899   6.824
 2814SOL    HW2 9342   2.961   3.852   6.965
 2815SOL     OW 9343   7.014   6.011   5.128
 2815SOL    HW1 9344   6.924   5.973   5.150
 2815SOL    HW2 9345   0.057   5.946   5.154
 2816SOL     OW 9346   6.664   5.991   4.833
 2816SOL    HW1 9347   6.640   5.942   4.917
 2816SOL    HW2 9348   6.755   6.031   4.844
 2817SOL     OW 9349   3.762   0.742   2.072
 2817SOL    HW1 9350   3.754   0.643   2.074
 2817SOL    HW2 9351   3.779   0.776   2.165
 2818SOL     OW 9352   1.295   0.558   1.022
 2818SOL    HW1 9353   1.383   0.572   0.976
 2818SOL    HW2 9354   1.298   0.472   1.073
 2819SOL     OW 9355   0.752   0.234   0.782
 2819SOL    HW1 9356   0.702   0.149   0.794
 2819SOL    HW2 9357   0.689   0.311   0.783
 2820SOL     OW 9358   0.752   2.383   2.426
 2820SOL    HW1 9359   0.816   2.385   2.349
 2820SOL    HW2 9360   0.759   2.294   2.472
 2821SOL     OW 9361   4.134   5.251   6.256
 2821SOL    HW1 9362   4.160   5.162   6.294
 2821SOL    HW2 9363   4.034   5.255   6.247
 2822SOL     OW 9364   3.612   3.311   1.213
 2822SOL    HW1 9365   3.643   3.366   1.291
 2822SOL    HW2 9366   3.688   3.257   1.178
 2823SOL     OW 9367   4.870   0.988   0.716
 2823SOL    HW1 9368   4.792   1.035   0.676
 2823SOL    HW2 9369   4.917   0.935   0.645
 2824SOL     OW 9370   1.541   3.719   5.956
 2824SOL    HW1 9371   1.491   3.686   5.876
 2824SOL    HW2 9372   1.611   3.653   5.981
 2825SOL     OW 9373   5.181   0.617   6.803
 2825SOL    HW1 9374   5.149   0.606   6.897
 2825SOL    HW2 9375   5.244   0.695   6.798
 2826SOL     OW 9376   1.709   3.178   6.203
 2826SOL    HW1 9377   1.749   3.133   6.123
 2826SOL    HW2 9378   1.770   3.167   6.282
 2827SOL     OW 9379   0.415   0.712   6.771
 2827SOL    HW1 9380   0.409   0.616   6.741
 2827SOL    HW2 9381   0.323   0.751   6.776
 2828SOL     OW 9382   1.463   3.347   1.309
 2828SOL    HW1 9383   1.383   3.314   1.259
 2828SOL    HW2 9384   1.494   3.433   1.269
 2829SOL     OW 9385   2.913   3.713   3.396
 2829SOL    HW1 9386   2.975   3.659   3.338
 2829SOL    HW2 9387   2.903   3.805   3.357
 2830SOL     OW 9388   3.849   4.485   5.363
 2830SOL    HW1 9389   3.940   4.519   5.339
 2830SOL    HW2 9390   3.839   4.484   5.462
 2831SOL     OW 9391   6.648   2.333   1.960
 2831SOL    HW1 9392   6.642   2.275   2.041
 2831SOL    HW2 9393   6.558   2.373   1.941
 2832SOL     OW 9394   0.952   3.402   1.470
 2832SOL    HW1 9395   0.866   3.388   1.420
 2832SOL    HW2 9396   1.001   3.316   1.478
 2833SOL     OW 9397   2.245   0.579   1.904
 2833SOL    HW1 9398   2.325   0.582   1.844
 2833SOL    HW2 9399   2.214   0.672   1.923
 2834SOL     OW 9400   4.420   6.132   4.937
 2834SOL    HW1 9401   4.345   6.195   4.917
 2834SOL    HW2 9402   4.392   6.039   4.914
 2835SOL     OW 9403   1.441   6.333   0.631
 2835SOL    HW1 9404   1.527   6.286   0.615
 2835SOL    HW2 9405   1.398   6.298   0.714
 2836SOL     OW 9406   3.639   6.720   3.368
 2836SOL    HW1 9407   3.583   6.665   3.431
 2836SOL    HW2 9408   3.727   6.740   3.411
 2837SOL     OW 9409   5.896   4.281   2.282
 2837SOL    HW1 9410   5.873   4.228   2.364
 2837SOL    HW2 9411   5.977   4.241   2.239
 2838SOL     OW 9412   4.933   3.945   6.254
 2838SOL    HW1 9413   4.872   3.985   6.323
 2838SOL    HW2 9414   5.026   3.944   6.289
 2839SOL     OW 9415   6.543   3.246   4.010
 2839SOL    HW1 9416   6.493   3.317   4.060
 2839SOL    HW2 9417   6.623   3.286   3.967
 2840SOL     OW 9418   0.637   5.387   2.752
 2840SOL    HW1 9419   0.626   5.407   2.849
 2840SOL    HW2 9420   0.641   5.288   2.738
 2841SOL     OW 9421   5.903   2.287   1.052
 2841SOL    HW1 9422   5.837   2.323   0.986
 2841SOL    HW2 9423   5.981   2.349   1.058
 2842SOL     OW 9424   1.156   5.989   4.496
 2842SOL    HW1 9425   1.107   5.926   4.435
 2842SOL    HW2 9426   1.142   6.083   4.465
 2843SOL     OW 9427   2.008   3.302   3.140
 2843SOL    HW1 9428   2.045   3.347   3.058
 2843SOL    HW2 9429   1.946   3.365   3.186
 2844SOL     OW 9430   5.006   4.391   1.183
 2844SOL    HW1 9431   4.995   4.470   1.124
 2844SOL    HW2 9432   4.922   4.336   1.182
 2845SOL     OW 9433   4.904   3.135   3.574
 2845SOL    HW1 9434   4.888   3.197   3.497
 2845SOL    HW2 9435   4.872   3.178   3.658
 2846SOL     OW 9436   4.477   0.380   0.155
 2846SOL    HW1 9437   4.556   0.342   0.203
 2846SOL    HW2 9438   4.493   0.478   0.137
 2847SOL     OW 9439   4.656   4.332   2.219
 2847SOL    HW1 9440   4.678   4.241   2.255
 2847SOL    HW2 9441   4.606   4.323   2.133
 2848SOL     OW 9442   0.699   3.158   4.998
 2848SOL    HW1 9443   0.734   3.199   5.082
 2848SOL    HW2 9444   0.678   3.061   5.014
 2849SOL     OW 9445   3.832   0.858   2.331
 2849SOL    HW1 9446   3.893   0.927   2.293
 2849SOL    HW2 9447   3.738   0.892   2.329
 2850SOL     OW 9448   2.477   6.663   3.578
 2850SOL    HW1 9449   2.575   6.680   3.582
 2850SOL    HW2 9450   2.434   6.695   3.662
 2851SOL     OW 9451   4.713   3.283   0.485
 2851SOL    HW1 9452   4.736   3.204   0.428
 2851SOL    HW2 9453   4.783   3.294   0.556
 2852SOL     OW 9454   6.258   4.257   6.486
 2852SOL    HW1 9455   6.198   4.267   6.407
 2852SOL    HW2 9456   6.203   4.244   6.569
 2853SOL     OW 9457   0.255   3.413   0.443
 2853SOL    HW1 9458   0.241   3.397   0.345
 2853SOL    HW2 9459   0.272   3.510   0.458
 2854SOL     OW 9460   2.849   1.059   6.921
 2854SOL    HW1 9461   2.895   1.104   6.845
 2854SOL    HW2 9462   2.751   1.076   6.916
 2855SOL     OW 9463   1.007   2.202   4.457
 2855SOL    HW1 9464   1.008   2.291   4.412
 2855SOL    HW2 9465   0.948   2.206   4.538
 2856SOL     OW 9466   1.635   3.973   2.982
 2856SOL    HW1 9467   1.715   4.032   2.990
 2856SOL    HW2 9468   1.610   3.937   3.072
 2857SOL     OW 9469   0.182   3.043   0.489
 2857SOL    HW1 9470   0.166   3.128   0.540
 2857SOL    HW2 9471   0.179   3.063   0.391
 2858SOL     OW 9472   5.158   5.901   3.137
 2858SOL    HW1 9473   5.198   5.812   3.113
 2858SOL    HW2 9474   5.154   5.909   3.236
 2859SOL     OW 9475   5.329   6.050   0.662
 2859SOL    HW1 9476   5.387   5.976   0.695
 2859SOL    HW2 9477   5.377   6.102   0.592
 2860SOL     OW 9478   1.590   6.144   1.637
 2860SOL    HW1 9479   1.599   6.049   1.606
 2860SOL    HW2 9480   1.558   6.201   1.561
 2861SOL     OW 9481   3.880   5.169   6.131
 2861SOL    HW1 9482   3.787   5.131   6.123
 2861SOL    HW2 9483   3.941   5.120   6.069
 2862SOL     OW 9484   4.501   3.114   1.282
 2862SOL    HW1 9485   4.533   3.035   1.229
 2862SOL    HW2 9486   4.580   3.162   1.320
 2863SOL     OW 9487   5.188   0.625   6.163
 2863SOL    HW1 9488   5.243   0.584   6.236
 2863SOL    HW2 9489   5.250   0.661   6.092
 2864SOL     OW 9490   4.289   3.456   1.595
 2864SOL    HW1 9491   4.328   3.376   1.641
 2864SOL    HW2 9492   4.352   3.486   1.522
 2865SOL     OW 9493   4.632   6.321   4.138
 2865SOL    HW1 9494   4.542   6.312   4.180
 2865SOL    HW2 9495   4.702   6.327   4.209
 2866SOL     OW 9496   5.413   4.539   6.497
 2866SOL    HW1 9497   5.368   4.615   6.450
 2866SOL    HW2 9498   5.482   4.498   6.436
 2867SOL     OW 9499   6.183   6.654   2.331
 2867SOL    HW1 9500   6.244   6.630   2.407
 2867SOL    HW2 9501   6.215   6.610   2.247
 2868SOL     OW 9502   1.400   1.512   5.983
 2868SOL    HW1 9503   1.374   1.464   5.900
 2868SOL    HW2 9504   1.441   1.600   5.960
 2869SOL     OW 9505   5.574   6.760   4.186
 2869SOL    HW1 9506   5.586   6.678   4.130
 2869SOL    HW2 9507   5.597   6.841   4.131
 2870SOL     OW 9508   1.269   1.399   0.803
 2870SOL    HW1 9509   1.325   1.356   0.732
 2870SOL    HW2 9510   1.211   1.330   0.846
 2871SOL     OW 9511   6.801   1.066   1.700
 2871SOL    HW1 9512   6.807   0.998   1.627
 2871SOL    HW2 9513   6.738   1.139   1.672
 2872SOL     OW 9514   2.386   1.784   2.772
 2872SOL    HW1 9515   2.338   1.787   2.684
 2872SOL    HW2 9516   2.455   1.711   2.770
 2873SOL     OW 9517   0.572   5.748   1.047
 2873SOL    HW1 9518   0.625   5.670   1.079
 2873SOL    HW2 9519   0.593   5.828   1.102
 2874SOL     OW 9520   3.360   0.416   2.963
 2874SOL    HW1 9521   3.268   0.378   2.951
 2874SOL    HW2 9522   3.428   0.346   2.942
 2875SOL     OW 9523   2.683   6.904   2.849
 2875SOL    HW1 9524   2.758   6.941   2.795
 2875SOL    HW2 9525   2.674   6.806   2.831
 2876SOL     OW 9526   1.664   5.923   2.400
 2876SOL    HW1 9527   1.663   5.975   2.314
 2876SOL    HW2 9528   1.699   5.831   2.383
 2877SOL     OW 9529   1.939   1.903   6.060
 2877SOL    HW1 9530   1.964   1.986   6.111
 2877SOL    HW2 9531   1.853   1.866   6.095
 2878SOL     OW 9532   3.466   3.065   4.870
 2878SOL    HW1 9533   3.436   2.993   4.932
 2878SOL    HW2 9534   3.440   3.154   4.907
 2879SOL     OW 9535   4.955   4.296   5.845
 2879SOL    HW1 9536   4.884   4.316   5.777
 2879SOL    HW2 9537   4.971   4.198   5.849
 2880SOL     OW 9538   0.751   1.980   4.325
 2880SOL    HW1 9539   0.714   1.890   4.300
 2880SOL    HW2 9540   0.812   2.012   4.253
 2881SOL     OW 9541   3.611   5.596   6.714
 2881SOL    HW1 9542   3.656   5.512   6.685
 2881SOL    HW2 9543   3.663   5.638   6.789
 2882SOL     OW 9544   5.873   6.204   0.681
 2882SOL    HW1 9545   5.934   6.150   0.623
 2882SOL    HW2 9546   5.905   6.200   0.776
 2883SOL     OW 9547   6.565   6.188   2.913
 2883SOL    HW1 9548   6.585   6.133   2.832
 2883SOL    HW2 9549   6.611   6.149   2.992
 2884SOL     OW 9550   0.219   5.151   2.839
 2884SOL    HW1 9551   0.224   5.053   2.855
 2884SOL    HW2 9552   0.271   5.199   2.910
 2885SOL     OW 9553   1.387   3.030   3.497
 2885SOL    HW1 9554   1.316   3.057   3.561
 2885SOL    HW2 9555   1.463   3.096   3.502
 2886SOL     OW 9556   2.415   4.516   6.732
 2886SOL    HW1 9557   2.334   4.519   6.790
 2886SOL    HW2 9558   2.407   4.584   6.660
 2887SOL     OW 9559   0.393   5.950   4.489
 2887SOL    HW1 9560   0.482   5.906   4.477
 2887SOL    HW2 9561   0.403   6.028   4.550
 2888SOL     OW 9562   0.075   6.269   0.156
 2888SOL    HW1 9563   0.046   6.226   0.070
 2888SOL    HW2 9564   0.174   6.279   0.156
 2889SOL     OW 9565   2.702   7.007   3.385
 2889SOL    HW1 9566   2.743   0.064   3.418
 2889SOL    HW2 9567   2.602   7.015   3.385
 2890SOL     OW 9568   2.160   5.993   1.165
 2890SOL    HW1 9569   2.218   5.951   1.234
 2890SOL    HW2 9570   2.212   6.004   1.080
 2891SOL     OW 9571   0.413   3.114   2.502
 2891SOL    HW1 9572   0.350   3.082   2.431
 2891SOL    HW2 9573   0.388   3.073   2.590
 2892SOL     OW 9574   6.313   3.995   1.018
 2892SOL    HW1 9575   6.316   4.024   1.114
 2892SOL    HW2 9576   6.395   3.943   0.996
 2893SOL     OW 9577   0.837   5.952   4.945
 2893SOL    HW1 9578   0.910   5.961   4.877
 2893SOL    HW2 9579   0.749   5.943   4.897
 2894SOL     OW 9580   1.646   4.440   1.449
 2894SOL    HW1 9581   1.695   4.441   1.537
 2894SOL    HW2 9582   1.604   4.350   1.436
 2895SOL     OW 9583   3.916   0.292   6.380
 2895SOL    HW1 9584   3.886   0.332   6.293
 2895SOL    HW2 9585   3.944   0.197   6.364
 2896SOL     OW 9586   5.634   0.006   5.694
 2896SOL    HW1 9587   5.720   0.041   5.658
 2896SOL    HW2 9588   5.583   6.989   5.621
 2897SOL     OW 9589   3.554   5.476   2.578
 2897SOL    HW1 9590   3.463   5.502   2.547
 2897SOL    HW2 9591   3.572   5.381   2.555
 2898SOL     OW 9592   6.488   3.768   3.384
 2898SOL    HW1 9593   6.389   3.784   3.382
 2898SOL    HW2 9594   6.517   3.726   3.298
 2899SOL     OW 9595   7.011   2.057   1.331
 2899SOL    HW1 9596   0.032   2.035   1.247
 2899SOL    HW2 9597   0.047   2.060   1.408
 2900SOL     OW 9598   3.240   3.553   0.236
 2900SOL    HW1 9599   3.306   3.605   0.181
 2900SOL    HW2 9600   3.227   3.599   0.324
 2901SOL     OW 9601   1.908   4.856   3.634
 2901SOL    HW1 9602   1.919   4.906   3.719
 2901SOL    HW2 9603   1.868   4.766   3.653
 2902SOL     OW 9604   0.588   5.913   4.065
 2902SOL    HW1 9605   0.521   5.898   4.138
 2902SOL    HW2 9606   0.673   5.948   4.104
 2903SOL     OW 9607   4.780   6.201   0.606
 2903SOL    HW1 9608   4.811   6.282   0.655
 2903SOL    HW2 9609   4.844   6.180   0.532
 2904SOL     OW 9610   2.880   4.802   4.794
 2904SOL    HW1 9611   2.862   4.724   4.853
 2904SOL    HW2 9612   2.968   4.844   4.819
 2905SOL     OW 9613   1.062   4.585   2.633
 2905SOL    HW1 9614   0.966   4.564   2.613
 2905SOL    HW2 9615   1.107   4.618   2.551
 2906SOL     OW 9616   5.102   6.104   2.976
 2906SOL    HW1 9617   5.009   6.086   2.942
 2906SOL    HW2 9618   5.128   6.033   3.041
 2907SOL     OW 9619   1.167   0.934   4.066
 2907SOL    HW1 9620   1.080   0.887   4.054
 2907SOL    HW2 9621   1.206   0.910   4.155
 2908SOL     OW 9622   4.912   0.511   3.557
 2908SOL    HW1 9623   5.010   0.502   3.570
 2908SOL    HW2 9624   4.865   0.494   3.644
 2909SOL     OW 9625   1.130   6.362   3.119
 2909SOL    HW1 9626   1.203   6.399   3.060
 2909SOL    HW2 9627   1.119   6.265   3.100
 2910SOL     OW 9628   6.927   1.006   4.063
 2910SOL    HW1 9629   6.972   0.984   4.150
 2910SOL    HW2 9630   6.943   0.931   3.998
 2911SOL     OW 9631   0.470   4.709   3.772
 2911SOL    HW1 9632   0.382   4.713   3.724
 2911SOL    HW2 9633   0.505   4.615   3.769
 2912SOL     OW 9634   0.098   6.703   0.610
 2912SOL    HW1 9635   0.117   6.608   0.586
 2912SOL    HW2 9636   0.002   6.711   0.640
 2913SOL     OW 9637   1.849   4.701   2.098
 2913SOL    HW1 9638   1.870   4.778   2.159
 2913SOL    HW2 9639   1.893   4.716   2.009
 2914SOL     OW 9640   5.394   4.950   0.339
 2914SOL    HW1 9641   5.405   5.033   0.393
 2914SOL    HW2 9642   5.459   4.950   0.263
 2915SOL     OW 9643   3.284   2.181   2.590
 2915SOL    HW1 9644   3.376   2.195   2.554
 2915SOL    HW2 9645   3.223   2.153   2.516
 2916SOL     OW 9646   2.656   5.026   0.167
 2916SOL    HW1 9647   2.591   5.100   0.186
 2916SOL    HW2 9648   2.606   4.941   0.152
 2917SOL     OW 9649   2.675   0.284   3.924
 2917SOL    HW1 9650   2.664   0.295   4.022
 2917SOL    HW2 9651   2.586   0.264   3.882
 2918SOL     OW 9652   6.061   3.975   1.089
 2918SOL    HW1 9653   6.060   3.918   1.171
 2918SOL    HW2 9654   6.154   3.979   1.052
 2919SOL     OW 9655   0.442   6.129   4.688
 2919SOL    HW1 9656   0.490   6.216   4.703
 2919SOL    HW2 9657   0.404   6.097   4.775
 2920SOL     OW 9658   2.017   0.453   1.966
 2920SOL    HW1 9659   2.088   0.521   1.976
 2920SOL    HW2 9660   1.981   0.428   2.056
 2921SOL     OW 9661   0.119   0.071   5.899
 2921SOL    HW1 9662   0.171   0.132   5.840
 2921SOL    HW2 9663   0.120   0.105   5.993
 2922SOL     OW 9664   4.418   0.182   2.854
 2922SOL    HW1 9665   4.500   0.208   2.905
 2922SOL    HW2 9666   4.414   0.234   2.769
 2923SOL     OW 9667   6.620   4.771   4.768
 2923SOL    HW1 9668   6.613   4.702   4.696
 2923SOL    HW2 9669   6.627   4.862   4.726
 2924SOL     OW 9670   0.190   1.852   5.340
 2924SOL    HW1 9671   0.224   1.926   5.281
 2924SOL    HW2 9672   0.153   1.778   5.283
 2925SOL     OW 9673   5.482   1.159   6.081
 2925SOL    HW1 9674   5.537   1.217   6.141
 2925SOL    HW2 9675   5.399   1.207   6.055
 2926SOL     OW 9676   0.113   2.027   5.531
 2926SOL    HW1 9677   0.190   2.090   5.519
 2926SOL    HW2 9678   0.132   1.942   5.483
 2927SOL     OW 9679   2.131   3.386   1.237
 2927SOL    HW1 9680   2.033   3.367   1.244
 2927SOL    HW2 9681   2.147   3.453   1.165
 2928SOL     OW 9682   6.476   1.930   0.491
 2928SOL    HW1 9683   6.466   1.976   0.402
 2928SOL    HW2 9684   6.428   1.983   0.561
 2929SOL     OW 9685   1.285   2.936   4.719
 2929SOL    HW1 9686   1.295   3.032   4.694
 2929SOL    HW2 9687   1.234   2.888   4.648
 2930SOL     OW 9688   6.406   5.398   5.502
 2930SOL    HW1 9689   6.470   5.321   5.506
 2930SOL    HW2 9690   6.369   5.415   5.593
 2931SOL     OW 9691   3.868   4.377   0.255
 2931SOL    HW1 9692   3.962   4.409   0.266
 2931SOL    HW2 9693   3.805   4.454   0.270
 2932SOL     OW 9694   6.735   6.152   1.668
 2932SOL    HW1 9695   6.819   6.198   1.640
 2932SOL    HW2 9696   6.705   6.090   1.596
 2933SOL     OW 9697   0.786   0.252   1.965
 2933SOL    HW1 9698   0.866   0.208   1.925
 2933SOL    HW2 9699   0.706   0.193   1.954
 2934SOL     OW 9700   4.006   3.076   1.418
 2934SOL    HW1 9701   4.105   3.075   1.431
 2934SOL    HW2 9702   3.982   3.141   1.346
 2935SOL     OW 9703   0.543   2.586   6.081
 2935SOL    HW1 9704   0.475   2.530   6.033
 2935SOL    HW2 9705   0.589   2.530   6.149
 2936SOL     OW 9706   4.648   0.444   0.549
 2936SOL    HW1 9707   4.598   0.529   0.568
 2936SOL    HW2 9708   4.723   0.434   0.614
 2937SOL     OW 9709   4.571   5.501   1.281
 2937SOL    HW1 9710   4.549   5.575   1.344
 2937SOL    HW2 9711   4.596   5.419   1.333
 2938SOL     OW 9712   6.042   5.692   6.995
 2938SOL    HW1 9713   6.002   5.749   6.924
 2938SOL    HW2 9714   6.083   5.611   6.954
 2939SOL     OW 9715   0.382   6.081   1.900
 2939SOL    HW1 9716   0.451   6.135   1.948
 2939SOL    HW2 9717   0.379   6.109   1.804
 2940SOL     OW 9718   5.995   6.025   4.445
 2940SOL    HW1 9719   5.960   6.110   4.485
 2940SOL    HW2 9720   5.968   6.020   4.349
 2941SOL     OW 9721   1.903   2.926   3.179
 2941SOL    HW1 9722   1.816   2.972   3.199
 2941SOL    HW2 9723   1.974   2.995   3.164
 2942SOL     OW 9724   2.541   1.878   6.835
 2942SOL    HW1 9725   2.521   1.857   6.740
 2942SOL    HW2 9726   2.495   1.812   6.895
 2943SOL     OW 9727   6.403   4.498   3.412
 2943SOL    HW1 9728   6.418   4.514   3.315
 2943SOL    HW2 9729   6.304   4.502   3.431
 2944SOL     OW 9730   2.462   6.023   3.858
 2944SOL    HW1 9731   2.450   6.106   3.804
 2944SOL    HW2 9732   2.375   5.973   3.862
 2945SOL     OW 9733   5.222   4.102   1.730
 2945SOL    HW1 9734   5.256   4.119   1.637
 2945SOL    HW2 9735   5.174   4.014   1.733
 2946SOL     OW 9736   3.027   4.049   5.803
 2946SOL    HW1 9737   3.105   4.095   5.847
 2946SOL    HW2 9738   2.996   3.974   5.861
 2947SOL     OW 9739   6.791   6.422   0.458
 2947SOL    HW1 9740   6.719   6.471   0.505
 2947SOL    HW2 9741   6.751   6.350   0.400
 2948SOL     OW 9742   5.773   4.665   3.095
 2948SOL    HW1 9743   5.735   4.734   3.034
 2948SOL    HW2 9744   5.873   4.662   3.085
 2949SOL     OW 9745   0.945   6.342   0.654
 2949SOL    HW1 9746   0.944   6.442   0.648
 2949SOL    HW2 9747   0.898   6.313   0.738
 2950SOL     OW 9748   5.286   4.689   2.238
 2950SOL    HW1 9749   5.206   4.648   2.195
 2950SOL    HW2 9750   5.368   4.638   2.212
 2951SOL     OW 9751   5.624   0.587   1.847
 2951SOL    HW1 9752   5.563   0.517   1.810
 2951SOL    HW2 9753   5.697   0.605   1.782
 2952SOL     OW 9754   6.251   0.599   4.895
 2952SOL    HW1 9755   6.151   0.595   4.898
 2952SOL    HW2 9756   6.279   0.657   4.819
 2953SOL     OW 9757   0.168   5.692   3.120
 2953SOL    HW1 9758   0.101   5.700   3.045
 2953SOL    HW2 9759   0.132   5.630   3.190
 2954SOL     OW 9760   0.711   4.696   6.388
 2954SOL    HW1 9761   0.645   4.653   6.328
 2954SOL    HW2 9762   0.748   4.627   6.452
 2955SOL     OW 9763   1.326   4.193   0.101
 2955SOL    HW1 9764   1.245   4.187   0.160
 2955SOL    HW2 9765   1.370   4.103   0.097
 2956SOL     OW 9766   6.966   4.612   4.303
 2956SOL    HW1 9767   7.022   4.643   4.226
 2956SOL    HW2 9768   6.935   4.692   4.355
 2957SOL     OW 9769   3.577   5.374   1.800
 2957SOL    HW1 9770   3.528   5.384   1.887
 2957SOL    HW2 9771   3.596   5.277   1.784
 2958SOL     OW 9772   1.745   5.317   2.949
 2958SOL    HW1 9773   1.770   5.313   3.045
 2958SOL    HW2 9774   1.689   5.399   2.933
 2959SOL     OW 9775   5.628   2.368   3.127
 2959SOL    HW1 9776   5.699   2.385   3.195
 2959SOL    HW2 9777   5.539   2.394   3.165
 2960SOL     OW 9778   3.759   0.683   0.252
 2960SOL    HW1 9779   3.836   0.624   0.229
 2960SOL    HW2 9780   3.718   0.651   0.338
 2961SOL     OW 9781   5.338   4.636   2.867
 2961SOL    HW1 9782   5.361   4.679   2.779
 2961SOL    HW2 9783   5.421   4.623   2.921
 2962SOL     OW 9784   5.361   6.727   2.886
 2962SOL    HW1 9785   5.381   6.636   2.849
 2962SOL    HW2 9786   5.359   6.794   2.812
 2963SOL     OW 9787   1.453   1.021   5.802
 2963SOL    HW1 9788   1.519   0.946   5.808
 2963SOL    HW2 9789   1.412   1.036   5.892
 2964SOL     OW 9790   0.414   2.739   7.010
 2964SOL    HW1 9791   0.385   2.770   0.072
 2964SOL    HW2 9792   0.360   2.659   6.984
 2965SOL     OW 9793   0.518   0.831   5.042
 2965SOL    HW1 9794   0.469   0.746   5.027
 2965SOL    HW2 9795   0.575   0.823   5.123
 2966SOL     OW 9796   4.463   5.818   3.811
 2966SOL    HW1 9797   4.386   5.763   3.845
 2966SOL    HW2 9798   4.443   5.849   3.718
 2967SOL     OW 9799   6.925   1.273   5.517
 2967SOL    HW1 9800   7.009   1.326   5.521
 2967SOL    HW2 9801   6.891   1.272   5.422
 2968SOL     OW 9802   2.297   3.088   1.070
 2968SOL    HW1 9803   2.239   3.081   1.151
 2968SOL    HW2 9804   2.257   3.034   0.996
 2969SOL     OW 9805   4.873   3.680   4.597
 2969SOL    HW1 9806   4.943   3.611   4.576
 2969SOL    HW2 9807   4.782   3.639   4.587
 2970SOL     OW 9808   2.571   2.802   5.628
 2970SOL    HW1 9809   2.572   2.902   5.626
 2970SOL    HW2 9810   2.634   2.766   5.560
 2971SOL     OW 9811   5.699   3.759   0.038
 2971SOL    HW1 9812   5.741   3.845   0.065
 2971SOL    HW2 9813   5.629   3.732   0.104
 2972SOL     OW 9814   6.224   5.089   6.710
 2972SOL    HW1 9815   6.188   5.023   6.645
 2972SOL    HW2 9816   6.189   5.180   6.687
 2973SOL     OW 9817   4.628   6.806   2.254
 2973SOL    HW1 9818   4.595   6.730   2.197
 2973SOL    HW2 9819   4.727   6.816   2.242
 2974SOL     OW 9820   6.268   4.793   3.270
 2974SOL    HW1 9821   6.241   4.806   3.365
 2974SOL    HW2 9822   6.251   4.876   3.218
 2975SOL     OW 9823   4.667   4.703   3.652
 2975SOL    HW1 9824   4.599   4.665   3.589
 2975SOL    HW2 9825   4.658   4.803   3.654
 2976SOL     OW 9826   4.568   1.996   3.270
 2976SOL    HW1 9827   4.588   2.073   3.210
 2976SOL    HW2 9828   4.644   1.982   3.333
 2977SOL     OW 9829   0.806   0.352   2.207
 2977SOL    HW1 9830   0.730   0.397   2.254
 2977SOL    HW2 9831   0.781   0.336   2.111
 2978SOL     OW 9832   4.556   4.179   6.605
 2978SOL    HW1 9833   4.647   4.219   6.600
 2978SOL    HW2 9834   4.520   4.163   6.513
 2979SOL     OW 9835   3.621   1.769   4.762
 2979SOL    HW1 9836   3.682   1.824   4.705
 2979SOL    HW2 9837   3.640   1.672   4.747
 2980SOL     OW 9838   3.811   4.269   6.654
 2980SOL    HW1 9839   3.860   4.319   6.583
 2980SOL    HW2 9840   3.729   4.320   6.679
 2981SOL     OW 9841   1.907   1.643   0.074
 2981SOL    HW1 9842   1.923   1.570   0.007
 2981SOL    HW2 9843   1.819   1.628   0.119
 2982SOL     OW 9844   1.832   6.460   2.245
 2982SOL    HW1 9845   1.772   6.535   2.218
 2982SOL    HW2 9846   1.798   6.419   2.329
 2983SOL     OW 9847   6.970   2.411   6.634
 2983SOL    HW1 9848   0.030   2.368   6.652
 2983SOL    HW2 9849   6.971   2.505   6.670
 2984SOL     OW 9850   6.212   4.985   6.961
 2984SOL    HW1 9851   6.199   5.034   6.875
 2984SOL    HW2 9852   6.197   4.887   6.947
 2985SOL     OW 9853   0.466   0.207   4.773
 2985SOL    HW1 9854   0.537   0.222   4.704
 2985SOL    HW2 9855   0.381   0.180   4.728
 2986SOL     OW 9856   3.229   4.078   2.553
 2986SOL    HW1 9857   3.298   4.088   2.625
 2986SOL    HW2 9858   3.164   4.006   2.579
 2987SOL     OW 9859   1.112   2.323   4.068
 2987SOL    HW1 9860   1.182   2.256   4.044
 2987SOL    HW2 9861   1.149   2.415   4.057
 2988SOL     OW 9862   1.285   0.548   1.429
 2988SOL    HW1 9863   1.195   0.591   1.424
 2988SOL    HW2 9864   1.274   0.449   1.433
 2989SOL     OW 9865   5.434   3.297   5.085
 2989SOL    HW1 9866   5.354   3.346   5.119
 2989SOL    HW2 9867   5.431   3.295   4.985
 2990SOL     OW 9868   5.458   1.942   4.453
 2990SOL    HW1 9869   5.457   1.965   4.550
 2990SOL    HW2 9870   5.457   1.842   4.443
 2991SOL     OW 9871   5.972   3.796   0.882
 2991SOL    HW1 9872   6.044   3.754   0.827
 2991SOL    HW2 9873   6.012   3.866   0.941
 2992SOL     OW 9874   0.692   3.609   4.844
 2992SOL    HW1 9875   0.758   3.584   4.915
 2992SOL    HW2 9876   0.684   3.708   4.838
 2993SOL     OW 9877   0.610   4.207   7.020
 2993SOL    HW1 9878   0.633   4.164   6.932
 2993SOL    HW2 9879   0.511   4.204   0.005
 2994SOL     OW 9880   4.877   6.321   6.472
 2994SOL    HW1 9881   4.924   6.257   6.534
 2994SOL    HW2 9882   4.855   6.405   6.522
 2995SOL     OW 9883   4.541   0.699   0.577
 2995SOL    HW1 9884   4.444   0.719   0.563
 2995SOL    HW2 9885   4.555   0.668   0.672
 2996SOL     OW 9886   1.551   2.173   4.797
 2996SOL    HW1 9887   1.484   2.108   4.834
 2996SOL    HW2 9888   1.641   2.154   4.836
 2997SOL     OW 9889   4.577   0.674   3.694
 2997SOL    HW1 9890   4.597   0.578   3.673
 2997SOL    HW2 9891   4.499   0.680   3.755
 2998SOL     OW 9892   3.017   0.507   3.964
 2998SOL    HW1 9893   2.921   0.489   3.985
 2998SOL    HW2 9894   3.043   0.456   3.882
 2999SOL     OW 9895   3.002   4.310   6.828
 2999SOL    HW1 9896   3.030   4.322   6.733
 2999SOL    HW2 9897   2.912   4.265   6.831
 3000SOL     OW 9898   2.930   3.605   5.771
 3000SOL    HW1 9899   2.984   3.522   5.775
 3000SOL    HW2 9900   2.987   3.681   5.738
 3001SOL     OW 9901   5.736   0.886   6.918
 3001SOL    HW1 9902   5.706   0.805   6.969
 3001SOL    HW2 9903   5.657   0.941   6.892
 3002SOL     OW 9904   2.843   1.546   1.037
 3002SOL    HW1 9905   2.935   1.581   1.018
 3002SOL    HW2 9906   2.849   1.451   1.066
 3003SOL     OW 9907   1.530   6.071   1.163
 3003SOL    HW1 9908   1.468   6.055   1.086
 3003SOL    HW2 9909   1.606   6.007   1.159
 3004SOL     OW 9910   2.348   4.485   4.202
 3004SOL    HW1 9911   2.257   4.525   4.199
 3004SOL    HW2 9912   2.354   4.411   4.135
 3005SOL     OW 9913   1.172   3.062   5.828
 3005SOL    HW1 9914   1.212   2.987   5.776
 3005SOL    HW2 9915   1.221   3.146   5.808
 3006SOL     OW 9916   5.323   1.650   5.721
 3006SOL    HW1 9917   5.382   1.576   5.687
 3006SOL    HW2 9918   5.338   1.663   5.819
 3007SOL     OW 9919   5.070   5.672   0.151
 3007SOL    HW1 9920   5.112   5.628   0.231
 3007SOL    HW2 9921   5.085   5.771   0.156
 3008SOL     OW 9922   4.171   1.950   5.961
 3008SOL    HW1 9923   4.105   1.996   6.020
 3008SOL    HW2 9924   4.182   2.002   5.876
 3009SOL     OW 9925   0.031   2.658   3.056
 3009SOL    HW1 9926   0.072   2.726   3.117
 3009SOL    HW2 9927   0.102   2.597   3.021
 3010SOL     OW 9928   3.984   5.615   5.972
 3010SOL    HW1 9929   3.988   5.528   5.922
 3010SOL    HW2 9930   3.946   5.685   5.912
 3011SOL     OW 9931   6.544   7.021   1.862
 3011SOL    HW1 9932   6.576   6.967   1.784
 3011SOL    HW2 9933   6.596   0.078   1.867
 3012SOL     OW 9934   2.809   3.628   6.595
 3012SOL    HW1 9935   2.799   3.651   6.692
 3012SOL    HW2 9936   2.779   3.705   6.540
 3013SOL     OW 9937   6.973   5.557   3.253
 3013SOL    HW1 9938   6.977   5.468   3.209
 3013SOL    HW2 9939   6.999   5.549   3.349
 3014SOL     OW 9940   5.337   0.934   6.168
 3014SOL    HW1 9941   5.279   0.934   6.086
 3014SOL    HW2 9942   5.409   1.002   6.158
 3015SOL     OW 9943   2.575   1.046   0.670
 3015SOL    HW1 9944   2.478   1.029   0.655
 3015SOL    HW2 9945   2.617   0.963   0.708
 3016SOL     OW 9946   3.393   7.005   4.552
 3016SOL    HW1 9947   3.415   6.971   4.643
 3016SOL    HW2 9948   3.302   6.972   4.525
 3017SOL     OW 9949   6.494   5.162   2.040
 3017SOL    HW1 9950   6.437   5.082   2.022
 3017SOL    HW2 9951   6.452   5.216   2.113
 3018SOL     OW 9952   4.088   7.028   0.342
 3018SOL    HW1 9953   4.110   6.953   0.280
 3018SOL    HW2 9954   3.990   0.018   0.337
 3019SOL     OW 9955   1.372   6.959   0.105
 3019SOL    HW1 9956   1.316   6.971   0.023
 3019SOL    HW2 9957   1.332   6.888   0.163
 3020SOL     OW 9958   5.139   3.170   6.888
 3020SOL    HW1 9959   5.159   3.227   6.808
 3020SOL    HW2 9960   5.225   3.147   6.934
 3021SOL     OW 9961   3.205   6.445   4.414
 3021SOL    HW1 9962   3.228   6.542   4.422
 3021SOL    HW2 9963   3.225   6.414   4.321
 3022SOL     OW 9964   3.768   6.218   3.260
 3022SOL    HW1 9965   3.733   6.285   3.196
 3022SOL    HW2 9966   3.868   6.214   3.254
 3023SOL     OW 9967   3.882   6.914   2.983
 3023SOL    HW1 9968   3.860   6.831   3.033
 3023SOL    HW2 9969   3.968   6.901   2.933
 3024SOL     OW 9970   6.715   6.261   5.051
 3024SOL    HW1 9971   6.706   6.192   4.979
 3024SOL    HW2 9972   6.810   6.292   5.056
 3025SOL     OW 9973   4.260   5.870   0.353
 3025SOL    HW1 9974   4.355   5.840   0.346
 3025SOL    HW2 9975   4.233   5.871   0.450
 3026SOL     OW 9976   5.866   1.170   0.729
 3026SOL    HW1 9977   5.879   1.263   0.696
 3026SOL    HW2 9978   5.814   1.117   0.661
 3027SOL     OW 9979   4.340   1.561   1.778
 3027SOL    HW1 9980   4.273   1.607   1.836
 3027SOL    HW2 9981   4.332   1.462   1.791
 3028SOL     OW 9982   1.918   4.127   6.530
 3028SOL    HW1 9983   2.009   4.168   6.525
 3028SOL    HW2 9984   1.893   4.112   6.626
 3029SOL     OW 9985   0.772   2.514   4.337
 3029SOL    HW1 9986   0.835   2.587   4.314
 3029SOL    HW2 9987   0.705   2.503   4.263
 3030SOL     OW 9988   1.491   4.224   1.117
 3030SOL    HW1 9989   1.407   4.197   1.070
 3030SOL    HW2 9990   1.495   4.324   1.122
 3031SOL     OW 9991   1.617   5.182   1.243
 3031SOL    HW1 9992   1.523   5.155   1.262
 3031SOL    HW2 9993   1.663   5.207   1.329
 3032SOL     OW 9994   2.046   7.004   3.494
 3032SOL    HW1 9995   2.082   6.911   3.494
 3032SOL    HW2 9996   2.081   0.025   3.414
 3033SOL     OW 9997   6.029   2.771   3.909
 3033SOL    HW1 9998   5.969   2.728   3.977
 3033SOL    HW2 9999   6.124   2.748   3.928
 3034SOL     OW10000   0.731   6.198   3.773
 3034SOL    HW110001   0.635   6.198   3.803
 3034SOL    HW210002   0.737   6.164   3.680
 3035SOL     OW10003   1.377   2.576   6.304
 3035SOL    HW110004   1.381   2.478   6.284
 3035SOL    HW210005   1.372   2.627   6.218
 3036SOL     OW10006   1.279   2.281   5.939
 3036SOL    HW110007   1.276   2.198   5.883
 3036SOL    HW210008   1.185   2.311   5.958
 3037SOL     OW10009   0.543   5.147   5.586
 3037SOL    HW110010   0.496   5.222   5.632
 3037SOL    HW210011   0.477   5.075   5.564
 3038SOL     OW10012   4.833   5.265   5.808
 3038SOL    HW110013   4.796   5.337   5.868
 3038SOL    HW210014   4.929   5.284   5.789
 3039SOL     OW10015   6.367   3.407   0.164
 3039SOL    HW110016   6.297   3.406   0.092
 3039SOL    HW210017   6.367   3.496   0.209
 3040SOL     OW10018   3.733   4.051   6.102
 3040SOL    HW110019   3.688   3.991   6.168
 3040SOL    HW210020   3.808   4.099   6.147
 3041SOL     OW10021   1.352   3.864   4.921
 3041SOL    HW110022   1.436   3.868   4.976
 3041SOL    HW210023   1.371   3.816   4.836
 3042SOL     OW10024   0.227   4.898   2.942
 3042SOL    HW110025   0.246   4.897   3.040
 3042SOL    HW210026   0.138   4.855   2.925
 3043SOL     OW10027   2.459   3.655   0.537
 3043SOL    HW110028   2.475   3.586   0.467
 3043SOL    HW210029   2.530   3.648   0.608
 3044SOL     OW10030   3.157   3.465   5.461
 3044SOL    HW110031   3.115   3.555   5.455
 3044SOL    HW210032   3.247   3.472   5.504
 3045SOL     OW10033   5.039   0.842   3.496
 3045SOL    HW110034   4.994   0.786   3.426
 3045SOL    HW210035   4.989   0.928   3.506
 3046SOL     OW10036   5.405   5.731   0.517
 3046SOL    HW110037   5.371   5.673   0.444
 3046SOL    HW210038   5.341   5.729   0.594
 3047SOL     OW10039   6.127   6.425   0.628
 3047SOL    HW110040   6.173   6.502   0.584
 3047SOL    HW210041   6.039   6.456   0.665
 3048SOL     OW10042   4.202   2.995   0.790
 3048SOL    HW110043   4.183   3.065   0.721
 3048SOL    HW210044   4.265   3.031   0.858
 3049SOL     OW10045   0.798   0.592   4.764
 3049SOL    HW110046   0.733   0.651   4.813
 3049SOL    HW210047   0.891   0.610   4.798
 3050SOL     OW10048   1.951   2.515   1.629
 3050SOL    HW110049   1.987   2.595   1.677
 3050SOL    HW210050   1.866   2.485   1.672
 3051SOL     OW10051   3.480   6.879   6.094
 3051SOL    HW110052   3.503   6.929   6.010
 3051SOL    HW210053   3.542   6.907   6.167
 3052SOL     OW10054   5.369   6.028   2.885
 3052SOL    HW110055   5.381   6.042   2.983
 3052SOL    HW210056   5.298   6.090   2.851
 3053SOL     OW10057   1.555   4.678   0.338
 3053SOL    HW110058   1.617   4.655   0.263
 3053SOL    HW210059   1.604   4.732   0.407
 3054SOL     OW10060   5.537   0.728   3.621
 3054SOL    HW110061   5.612   0.754   3.561
 3054SOL    HW210062   5.450   0.761   3.582
 3055SOL     OW10063   6.504   6.459   6.803
 3055SOL    HW110064   6.580   6.451   6.738
 3055SOL    HW210065   6.498   6.553   6.837
 3056SOL     OW10066   5.247   1.822   6.100
 3056SOL    HW110067   5.321   1.885   6.123
 3056SOL    HW210068   5.163   1.853   6.145
 3057SOL     OW10069   5.695   6.330   3.337
 3057SOL    HW110070   5.651   6.246   3.305
 3057SOL    HW210071   5.793   6.314   3.347
 3058SOL     OW10072   6.118   4.424   0.821
 3058SOL    HW110073   6.162   4.334   0.822
 3058SOL    HW210074   6.077   4.440   0.731
 3059SOL     OW10075   2.412   2.626   4.312
 3059SOL    HW110076   2.479   2.555   4.288
 3059SOL    HW210077   2.339   2.627   4.244
 3060SOL     OW10078   2.739   4.836   6.266
 3060SOL    HW110079   2.750   4.782   6.349
 3060SOL    HW210080   2.765   4.931   6.284
 3061SOL     OW10081   5.732   5.011   5.719
 3061SOL    HW110082   5.671   5.002   5.798
 3061SOL    HW210083   5.680   5.036   5.638
 3062SOL     OW10084   4.084   4.776   1.110
 3062SOL    HW110085   4.117   4.703   1.051
 3062SOL    HW210086   3.985   4.770   1.119
 3063SOL     OW10087   0.449   4.173   0.543
 3063SOL    HW110088   0.491   4.182   0.633
 3063SOL    HW210089   0.497   4.231   0.478
 3064SOL     OW10090   4.515   2.632   0.143
 3064SOL    HW110091   4.424   2.671   0.159
 3064SOL    HW210092   4.519   2.592   0.051
 3065SOL     OW10093   0.743   1.528   6.362
 3065SOL    HW110094   0.712   1.579   6.442
 3065SOL    HW210095   0.680   1.452   6.344
 3066SOL     OW10096   5.155   5.404   5.504
 3066SOL    HW110097   5.239   5.440   5.543
 3066SOL    HW210098   5.101   5.479   5.466
 3067SOL     OW10099   2.271   1.531   0.092
 3067SOL    HW110100   2.197   1.590   0.124
 3067SOL    HW210101   2.307   1.478   0.169
 3068SOL     OW10102   0.652   0.883   1.733
 3068SOL    HW110103   0.738   0.848   1.772
 3068SOL    HW210104   0.610   0.810   1.678
 3069SOL     OW10105   5.865   6.928   3.576
 3069SOL    HW110106   5.891   6.979   3.494
 3069SOL    HW210107   5.942   6.870   3.605
 3070SOL     OW10108   3.069   1.343   0.092
 3070SOL    HW110109   2.970   1.352   0.092
 3070SOL    HW210110   3.111   1.430   0.064
 3071SOL     OW10111   6.918   4.358   3.485
 3071SOL    HW110112   6.885   4.277   3.533
 3071SOL    HW210113   6.927   4.337   3.387
 3072SOL     OW10114   2.130   5.939   6.928
 3072SOL    HW110115   2.145   5.844   6.957
 3072SOL    HW210116   2.189   5.960   6.850
 3073SOL     OW10117   6.607   4.850   0.589
 3073SOL    HW110118   6.608   4.949   0.575
 3073SOL    HW210119   6.615   4.804   0.501
 3074SOL     OW10120   0.851   4.052   0.920
 3074SOL    HW110121   0.844   4.150   0.899
 3074SOL    HW210122   0.869   4.001   0.836
 3075SOL     OW10123   2.466   5.123   4.023
 3075SOL    HW110124   2.468   5.026   3.998
 3075SOL    HW210125   2.555   5.151   4.058
 3076SOL     OW10126   0.352   1.172   4.913
 3076SOL    HW110127   0.372   1.139   4.821
 3076SOL    HW210128   0.417   1.244   4.938
 3077SOL     OW10129   6.126   3.827   1.545
 3077SOL    HW110130   6.189   3.896   1.579
 3077SOL    HW210131   6.117   3.753   1.612
 3078SOL     OW10132   6.434   3.240   1.971
 3078SOL    HW110133   6.504   3.221   1.903
 3078SOL    HW210134   6.449   3.182   2.051
 3079SOL     OW10135   2.460   2.648   4.843
 3079SOL    HW110136   2.440   2.733   4.794
 3079SOL    HW210137   2.489   2.578   4.778
 3080SOL     OW10138   4.408   4.680   1.516
 3080SOL    HW110139   4.403   4.581   1.530
 3080SOL    HW210140   4.385   4.726   1.602
 3081SOL     OW10141   0.841   4.173   0.153
 3081SOL    HW110142   0.762   4.199   0.097
 3081SOL    HW210143   0.813   4.164   0.248
 3082SOL     OW10144   3.299   5.367   4.620
 3082SOL    HW110145   3.399   5.372   4.618
 3082SOL    HW210146   3.261   5.459   4.630
 3083SOL     OW10147   2.732   5.145   2.682
 3083SOL    HW110148   2.822   5.125   2.644
 3083SOL    HW210149   2.740   5.221   2.747
 3084SOL     OW10150   0.704   3.631   2.806
 3084SOL    HW110151   0.743   3.578   2.731
 3084SOL    HW210152   0.761   3.621   2.887
 3085SOL     OW10153   4.686   4.912   0.645
 3085SOL    HW110154   4.708   4.862   0.729
 3085SOL    HW210155   4.587   4.913   0.632
 3086SOL     OW10156   5.303   0.742   0.163
 3086SOL    HW110157   5.251   0.790   0.093
 3086SOL    HW210158   5.273   0.773   0.254
 3087SOL     OW10159   2.116   6.454   2.397
 3087SOL    HW110160   2.153   6.523   2.335
 3087SOL    HW210161   2.058   6.497   2.465
 3088SOL     OW10162   0.583   3.218   5.548
 3088SOL    HW110163   0.666   3.189   5.500
 3088SOL    HW210164   0.609   3.273   5.628
 3089SOL     OW10165   4.872   1.030   4.457
 3089SOL    HW110166   4.914   1.106   4.407
 3089SOL    HW210167   4.795   0.993   4.404
 3090SOL     OW10168   0.960   1.792   2.167
 3090SOL    HW110169   1.016   1.732   2.224
 3090SOL    HW210170   1.003   1.803   2.077
 3091SOL     OW10171   0.807   1.124   0.794
 3091SOL    HW110172   0.884   1.126   0.730
 3091SOL    HW210173   0.816   1.045   0.854
 3092SOL     OW10174   5.170   6.965   2.291
 3092SOL    HW110175   5.178   0.034   2.313
 3092SOL    HW210176   5.204   6.911   2.368
 3093SOL     OW10177   5.850   5.800   6.345
 3093SOL    HW110178   5.783   5.727   6.357
 3093SOL    HW210179   5.825   5.879   6.400
 3094SOL     OW10180   2.444   1.166   5.025
 3094SOL    HW110181   2.537   1.160   4.987
 3094SOL    HW210182   2.391   1.234   4.975
 3095SOL     OW10183   2.698   3.098   5.349
 3095SOL    HW110184   2.779   3.041   5.337
 3095SOL    HW210185   2.626   3.069   5.285
 3096SOL     OW10186   0.741   3.237   5.251
 3096SOL    HW110187   0.761   3.160   5.311
 3096SOL    HW210188   0.727   3.319   5.306
 3097SOL     OW10189   6.005   2.766   6.483
 3097SOL    HW110190   5.943   2.696   6.520
 3097SOL    HW210191   6.061   2.802   6.558
 3098SOL     OW10192   1.484   2.070   2.233
 3098SOL    HW110193   1.516   2.160   2.202
 3098SOL    HW210194   1.439   2.023   2.157
 3099SOL     OW10195   0.527   6.325   3.359
 3099SOL    HW110196   0.585   6.262   3.411
 3099SOL    HW210197   0.435   6.323   3.396
 3100SOL     OW10198   6.343   6.390   2.895
 3100SOL    HW110199   6.282   6.327   2.846
 3100SOL    HW210200   6.429   6.342   2.916
 3101SOL     OW10201   5.178   6.999   5.937
 3101SOL    HW110202   5.103   0.013   5.986
 3101SOL    HW210203   5.263   7.010   5.990
 3102SOL     OW10204   0.771   5.357   0.419
 3102SOL    HW110205   0.732   5.413   0.346
 3102SOL    HW210206   0.749   5.397   0.508
 3103SOL     OW10207   3.637   0.388   0.835
 3103SOL    HW110208   3.657   0.291   0.851
 3103SOL    HW210209   3.560   0.397   0.772
 3104SOL     OW10210   4.676   6.977   6.247
 3104SOL    HW110211   4.603   6.914   6.273
 3104SOL    HW210212   4.711   7.023   6.329
 3105SOL     OW10213   5.150   3.237   0.966
 3105SOL    HW110214   5.221   3.230   1.037
 3105SOL    HW210215   5.062   3.259   1.009
 3106SOL     OW10216   5.710   1.049   5.267
 3106SOL    HW110217   5.651   1.052   5.348
 3106SOL    HW210218   5.686   0.968   5.213
 3107SOL     OW10219   4.263   1.636   4.667
 3107SOL    HW110220   4.353   1.652   4.708
 3107SOL    HW210221   4.221   1.556   4.708
 3108SOL     OW10222   2.155   4.527   4.722
 3108SOL    HW110223   2.087   4.457   4.743
 3108SOL    HW210224   2.242   4.484   4.699
 3109SOL     OW10225   6.711   0.423   4.801
 3109SOL    HW110226   6.623   0.375   4.804
 3109SOL    HW210227   6.724   0.473   4.887
 3110SOL     OW10228   2.515   4.535   3.654
 3110SOL    HW110229   2.451   4.483   3.597
 3110SOL    HW210230   2.581   4.581   3.595
 3111SOL     OW10231   6.610   5.024   4.679
 3111SOL    HW110232   6.651   5.013   4.588
 3111SOL    HW210233   6.559   5.110   4.682
 3112SOL     OW10234   3.855   2.652   0.113
 3112SOL    HW110235   3.923   2.654   0.039
 3112SOL    HW210236   3.887   2.591   0.185
 3113SOL     OW10237   2.918   5.647   2.684
 3113SOL    HW110238   2.927   5.744   2.662
 3113SOL    HW210239   2.951   5.593   2.607
 3114SOL     OW10240   3.458   1.064   0.206
 3114SOL    HW110241   3.410   0.976   0.212
 3114SOL    HW210242   3.513   1.066   0.123
 3115SOL     OW10243   4.172   4.073   5.487
 3115SOL    HW110244   4.193   4.092   5.583
 3115SOL    HW210245   4.082   4.030   5.480
 3116SOL     OW10246   0.893   2.482   1.015
 3116SOL    HW110247   0.979   2.511   1.058
 3116SOL    HW210248   0.818   2.493   1.080
 3117SOL     OW10249   4.966   2.367   6.211
 3117SOL    HW110250   4.871   2.378   6.183
 3117SOL    HW210251   4.994   2.272   6.198
 3118SOL     OW10252   1.402   0.243   2.904
 3118SOL    HW110253   1.340   0.223   2.828
 3118SOL    HW210254   1.457   0.324   2.882
 3119SOL     OW10255   3.032   2.715   5.599
 3119SOL    HW110256   2.998   2.787   5.659
 3119SOL    HW210257   2.971   2.635   5.605
 3120SOL     OW10258   3.060   0.455   4.976
 3120SOL    HW110259   3.035   0.541   5.020
 3120SOL    HW210260   3.101   0.475   4.887
 3121SOL     OW10261   4.965   1.879   4.445
 3121SOL    HW110262   4.907   1.944   4.396
 3121SOL    HW210263   4.908   1.815   4.496
 3122SOL     OW10264   4.529   4.475   4.408
 3122SOL    HW110265   4.465   4.430   4.345
 3122SOL    HW210266   4.495   4.467   4.502
 3123SOL     OW10267   2.260   0.623   3.659
 3123SOL    HW110268   2.360   0.627   3.658
 3123SOL    HW210269   2.226   0.621   3.565
 3124SOL     OW10270   5.482   6.443   4.378
 3124SOL    HW110271   5.576   6.420   4.404
 3124SOL    HW210272   5.451   6.380   4.306
 3125SOL     OW10273   0.721   2.855   5.073
 3125SOL    HW110274   0.818   2.879   5.069
 3125SOL    HW210275   0.707   2.789   5.146
 3126SOL     OW10276   5.841   5.476   4.904
 3126SOL    HW110277   5.833   5.384   4.867
 3126SOL    HW210278   5.830   5.473   5.004
 3127SOL     OW10279   1.132   2.521   4.915
 3127SOL    HW110280   1.218   2.572   4.913
 3127SOL    HW210281   1.132   2.453   4.841
 3128SOL     OW10282   3.501   0.302   0.490
 3128SOL    HW110283   3.443   0.304   0.571
 3128SOL    HW210284   3.473   0.225   0.431
 3129SOL     OW10285   5.276   3.273   1.215
 3129SOL    HW110286   5.237   3.361   1.241
 3129SOL    HW210287   5.354   3.252   1.274
 3130SOL     OW10288   1.565   4.470   1.122
 3130SOL    HW110289   1.560   4.494   1.025
 3130SOL    HW210290   1.551   4.552   1.178
 3131SOL     OW10291   6.711   3.609   1.891
 3131SOL    HW110292   6.769   3.547   1.839
 3131SOL    HW210293   6.755   3.632   1.978
 3132SOL     OW10294   4.123   4.469   0.277
 3132SOL    HW110295   4.192   4.468   0.205
 3132SOL    HW210296   4.099   4.563   0.298
 3133SOL     OW10297   3.223   0.696   3.485
 3133SOL    HW110298   3.232   0.772   3.550
 3133SOL    HW210299   3.233   0.731   3.392
 3134SOL     OW10300   3.395   4.899   2.060
 3134SOL    HW110301   3.463   4.863   1.996
 3134SOL    HW210302   3.304   4.885   2.023
 3135SOL     OW10303   5.499   0.222   5.948
 3135SOL    HW110304   5.554   0.253   5.870
 3135SOL    HW210305   5.530   0.132   5.977
 3136SOL     OW10306   6.066   0.870   2.506
 3136SOL    HW110307   6.005   0.810   2.557
 3136SOL    HW210308   6.017   0.910   2.428
 3137SOL     OW10309   6.470   0.395   1.327
 3137SOL    HW110310   6.499   0.333   1.254
 3137SOL    HW210311   6.377   0.427   1.308
 3138SOL     OW10312   5.461   5.217   3.944
 3138SOL    HW110313   5.449   5.316   3.950
 3138SOL    HW210314   5.462   5.178   4.036
 3139SOL     OW10315   3.039   4.886   1.551
 3139SOL    HW110316   3.012   4.795   1.582
 3139SOL    HW210317   3.124   4.912   1.596
 3140SOL     OW10318   6.419   6.114   5.517
 3140SOL    HW110319   6.375   6.160   5.594
 3140SOL    HW210320   6.498   6.168   5.487
 3141SOL     OW10321   0.344   2.391   0.442
 3141SOL    HW110322   0.414   2.449   0.401
 3141SOL    HW210323   0.353   2.298   0.406
 3142SOL     OW10324   4.382   0.581   2.899
 3142SOL    HW110325   4.457   0.646   2.902
 3142SOL    HW210326   4.389   0.525   2.817
 3143SOL     OW10327   5.927   2.243   0.115
 3143SOL    HW110328   5.938   2.186   0.197
 3143SOL    HW210329   5.992   2.213   0.045
 3144SOL     OW10330   4.223   3.563   6.487
 3144SOL    HW110331   4.310   3.579   6.535
 3144SOL    HW210332   4.197   3.467   6.494
 3145SOL     OW10333   2.476   6.434   1.853
 3145SOL    HW110334   2.574   6.412   1.848
 3145SOL    HW210335   2.464   6.521   1.902
 3146SOL     OW10336   0.703   0.876   5.242
 3146SOL    HW110337   0.675   0.972   5.233
 3146SOL    HW210338   0.725   0.856   5.337
 3147SOL     OW10339   3.749   5.372   6.268
 3147SOL    HW110340   3.660   5.360   6.224
 3147SOL    HW210341   3.815   5.307   6.229
 3148SOL     OW10342   0.434   6.955   2.744
 3148SOL    HW110343   0.348   6.982   2.701
 3148SOL    HW210344   0.485   0.008   2.770
 3149SOL     OW10345   3.049   1.015   0.068
 3149SOL    HW110346   2.966   1.025   0.012
 3149SOL    HW210347   3.048   1.086   0.139
 3150SOL     OW10348   6.679   5.516   5.560
 3150SOL    HW110349   6.639   5.444   5.616
 3150SOL    HW210350   6.608   5.557   5.503
 3151SOL     OW10351   0.077   1.841   6.200
 3151SOL    HW110352   7.014   1.837   6.161
 3151SOL    HW210353   0.073   1.817   6.297
 3152SOL     OW10354   1.357   4.382   6.471
 3152SOL    HW110355   1.392   4.318   6.538
 3152SOL    HW210356   1.349   4.336   6.382
 3153SOL     OW10357   6.326   4.872   0.492
 3153SOL    HW110358   6.260   4.936   0.531
 3153SOL    HW210359   6.417   4.894   0.525
 3154SOL     OW10360   5.848   1.159   1.783
 3154SOL    HW110361   5.935   1.201   1.809
 3154SOL    HW210362   5.778   1.230   1.777
 3155SOL     OW10363   6.569   4.470   0.779
 3155SOL    HW110364   6.608   4.389   0.822
 3155SOL    HW210365   6.510   4.517   0.844
 3156SOL     OW10366   3.621   4.155   2.209
 3156SOL    HW110367   3.622   4.200   2.298
 3156SOL    HW210368   3.709   4.113   2.191
 3157SOL     OW10369   0.964   2.058   5.017
 3157SOL    HW110370   1.027   1.999   5.067
 3157SOL    HW210371   0.943   2.139   5.071
 3158SOL     OW10372   2.781   2.223   5.705
 3158SOL    HW110373   2.738   2.135   5.722
 3158SOL    HW210374   2.716   2.283   5.657
 3159SOL     OW10375   5.080   0.202   0.884
 3159SOL    HW110376   5.138   0.239   0.811
 3159SOL    HW210377   5.013   0.139   0.844
 3160SOL     OW10378   1.755   0.065   5.535
 3160SOL    HW110379   1.851   0.064   5.563
 3160SOL    HW210380   1.707   7.017   5.577
 3161SOL     OW10381   1.981   2.747   2.573
 3161SOL    HW110382   2.030   2.787   2.651
 3161SOL    HW210383   1.922   2.817   2.532
 3162SOL     OW10384   2.732   5.400   7.007
 3162SOL    HW110385   2.692   5.346   6.932
 3162SOL    HW210386   2.810   5.351   0.016
 3163SOL     OW10387   4.531   3.342   0.279
 3163SOL    HW110388   4.584   3.343   0.363
 3163SOL    HW210389   4.474   3.259   0.276
 3164SOL     OW10390   3.234   5.861   2.360
 3164SOL    HW110391   3.147   5.856   2.310
 3164SOL    HW210392   3.277   5.949   2.343
 3165SOL     OW10393   0.951   4.842   0.679
 3165SOL    HW110394   0.879   4.808   0.618
 3165SOL    HW210395   0.985   4.767   0.735
 3166SOL     OW10396   3.880   1.211   4.616
 3166SOL    HW110397   3.920   1.278   4.678
 3166SOL    HW210398   3.905   1.234   4.522
 3167SOL     OW10399   5.587   4.666   0.472
 3167SOL    HW110400   5.644   4.634   0.396
 3167SOL    HW210401   5.546   4.587   0.518
 3168SOL     OW10402   5.497   2.307   1.550
 3168SOL    HW110403   5.472   2.387   1.496
 3168SOL    HW210404   5.423   2.240   1.546
 3169SOL     OW10405   1.781   4.757   2.565
 3169SOL    HW110406   1.736   4.669   2.576
 3169SOL    HW210407   1.850   4.769   2.637
 3170SOL     OW10408   3.921   6.357   2.367
 3170SOL    HW110409   4.006   6.340   2.417
 3170SOL    HW210410   3.843   6.329   2.424
 3171SOL     OW10411   5.328   2.324   2.227
 3171SOL    HW110412   5.251   2.387   2.218
 3171SOL    HW210413   5.298   2.232   2.202
 3172SOL     OW10414   0.289   5.280   6.957
 3172SOL    HW110415   0.194   5.258   6.937
 3172SOL    HW210416   0.313   5.246   0.019
 3173SOL     OW10417   2.429   2.602   6.573
 3173SOL    HW110418   2.409   2.662   6.651
 3173SOL    HW210419   2.344   2.581   6.524
 3174SOL     OW10420   2.339   2.766   5.869
 3174SOL    HW110421   2.335   2.707   5.788
 3174SOL    HW210422   2.255   2.756   5.923
 3175SOL     OW10423   6.007   1.321   2.910
 3175SOL    HW110424   6.010   1.234   2.859
 3175SOL    HW210425   5.959   1.389   2.855
 3176SOL     OW10426   0.010   3.680   5.152
 3176SOL    HW110427   7.009   3.612   5.085
 3176SOL    HW210428   0.103   3.710   5.130
 3177SOL     OW10429   5.471   4.242   3.900
 3177SOL    HW110430   5.532   4.317   3.876
 3177SOL    HW210431   5.470   4.230   3.999
 3178SOL     OW10432   5.845   2.055   6.732
 3178SOL    HW110433   5.821   1.971   6.684
 3178SOL    HW210434   5.782   2.070   6.808
 3179SOL     OW10435   1.449   1.817   2.070
 3179SOL    HW110436   1.363   1.866   2.056
 3179SOL    HW210437   1.429   1.721   2.090
 3180SOL     OW10438   6.049   6.340   0.015
 3180SOL    HW110439   6.105   6.324   6.961
 3180SOL    HW210440   6.082   6.282   0.089
 3181SOL     OW10441   0.271   1.468   4.173
 3181SOL    HW110442   0.287   1.496   4.079
 3181SOL    HW210443   0.222   1.381   4.175
 3182SOL     OW10444   3.156   0.485   6.767
 3182SOL    HW110445   3.180   0.439   6.852
 3182SOL    HW210446   3.065   0.456   6.737
 3183SOL     OW10447   4.542   4.767   2.418
 3183SOL    HW110448   4.503   4.790   2.328
 3183SOL    HW210449   4.554   4.668   2.425
 3184SOL     OW10450   0.589   2.218   3.423
 3184SOL    HW110451   0.599   2.249   3.329
 3184SOL    HW210452   0.664   2.253   3.478
 3185SOL     OW10453   6.135   6.573   5.865
 3185SOL    HW110454   6.127   6.531   5.775
 3185SOL    HW210455   6.191   6.515   5.924
 3186SOL     OW10456   2.054   0.905   0.287
 3186SOL    HW110457   2.022   0.899   0.382
 3186SOL    HW210458   2.000   0.844   0.230
 3187SOL     OW10459   3.171   5.252   2.229
 3187SOL    HW110460   3.147   5.228   2.323
 3187SOL    HW210461   3.225   5.336   2.229
 3188SOL     OW10462   2.019   5.381   4.704
 3188SOL    HW110463   2.045   5.449   4.636
 3188SOL    HW210464   2.098   5.325   4.728
 3189SOL     OW10465   1.979   1.231   0.129
 3189SOL    HW110466   1.943   1.139   0.144
 3189SOL    HW210467   1.939   1.294   0.195
 3190SOL     OW10468   6.346   5.238   6.031
 3190SOL    HW110469   6.373   5.170   5.964
 3190SOL    HW210470   6.422   5.300   6.049
 3191SOL     OW10471   4.384   5.766   2.098
 3191SOL    HW110472   4.431   5.718   2.172
 3191SOL    HW210473   4.445   5.836   2.061
 3192SOL     OW10474   6.692   2.786   1.006
 3192SOL    HW110475   6.679   2.715   0.937
 3192SOL    HW210476   6.790   2.799   1.022
 3193SOL     OW10477   4.165   1.209   4.986
 3193SOL    HW110478   4.231   1.258   4.929
 3193SOL    HW210479   4.161   1.113   4.956
 3194SOL     OW10480   0.663   1.298   5.545
 3194SOL    HW110481   0.750   1.316   5.500
 3194SOL    HW210482   0.604   1.379   5.538
 3195SOL     OW10483   0.986   1.137   2.185
 3195SOL    HW110484   0.902   1.101   2.228
 3195SOL    HW210485   1.019   1.215   2.238
 3196SOL     OW10486   0.138   0.782   6.336
 3196SOL    HW110487   0.113   0.695   6.377
 3196SOL    HW210488   0.189   0.837   6.402
 3197SOL     OW10489   2.420   6.822   5.389
 3197SOL    HW110490   2.400   6.883   5.466
 3197SOL    HW210491   2.487   6.754   5.417
 3198SOL     OW10492   6.201   2.339   3.713
 3198SOL    HW110493   6.142   2.419   3.701
 3198SOL    HW210494   6.220   2.327   3.811
 3199SOL     OW10495   5.550   4.795   3.287
 3199SOL    HW110496   5.564   4.894   3.281
 3199SOL    HW210497   5.622   4.748   3.235
 3200SOL     OW10498   6.293   3.680   3.134
 3200SOL    HW110499   6.382   3.653   3.096
 3200SOL    HW210500   6.292   3.779   3.148
 3201SOL     OW10501   5.907   5.109   3.507
 3201SOL    HW110502   5.934   5.014   3.487
 3201SOL    HW210503   5.980   5.170   3.478
 3202SOL     OW10504   1.169   5.273   0.958
 3202SOL    HW110505   1.071   5.291   0.972
 3202SOL    HW210506   1.205   5.224   1.037
 3203SOL     OW10507   5.113   1.128   1.208
 3203SOL    HW110508   5.085   1.126   1.112
 3203SOL    HW210509   5.075   1.209   1.253
 3204SOL     OW10510   2.821   1.577   3.124
 3204SOL    HW110511   2.913   1.536   3.125
 3204SOL    HW210512   2.774   1.555   3.209
 3205SOL     OW10513   4.908   2.612   5.696
 3205SOL    HW110514   4.882   2.536   5.755
 3205SOL    HW210515   4.834   2.631   5.632
 3206SOL     OW10516   2.753   3.489   1.449
 3206SOL    HW110517   2.810   3.410   1.473
 3206SOL    HW210518   2.671   3.458   1.402
 3207SOL     OW10519   1.626   0.919   6.234
 3207SOL    HW110520   1.573   0.844   6.272
 3207SOL    HW210521   1.576   0.961   6.159
 3208SOL     OW10522   6.093   5.592   6.110
 3208SOL    HW110523   6.115   5.588   6.208
 3208SOL    HW210524   6.021   5.659   6.095
 3209SOL     OW10525   3.366   5.314   5.011
 3209SOL    HW110526   3.389   5.306   5.108
 3209SOL    HW210527   3.398   5.232   4.963
 3210SOL     OW10528   0.672   5.154   1.578
 3210SOL    HW110529   0.642   5.064   1.546
 3210SOL    HW210530   0.636   5.225   1.517
 3211SOL     OW10531   1.479   5.055   0.592
 3211SOL    HW110532   1.426   4.978   0.628
 3211SOL    HW210533   1.553   5.077   0.655
 3212SOL     OW10534   3.076   7.006   2.335
 3212SOL    HW110535   3.069   6.990   2.236
 3212SOL    HW210536   3.171   7.020   2.360
 3213SOL     OW10537   1.677   0.064   6.442
 3213SOL    HW110538   1.610   0.065   6.368
 3213SOL    HW210539   1.761   0.022   6.410
 3214SOL     OW10540   4.526   6.730   3.002
 3214SOL    HW110541   4.459   6.802   2.981
 3214SOL    HW210542   4.613   6.771   3.028
 3215SOL     OW10543   0.988   3.714   0.451
 3215SOL    HW110544   0.937   3.629   0.437
 3215SOL    HW210545   0.924   3.791   0.457
 3216SOL     OW10546   5.496   5.038   1.181
 3216SOL    HW110547   5.569   5.066   1.243
 3216SOL    HW210548   5.532   4.976   1.112
 3217SOL     OW10549   0.181   5.368   2.340
 3217SOL    HW110550   0.140   5.428   2.407
 3217SOL    HW210551   0.257   5.318   2.382
 3218SOL     OW10552   5.886   2.370   3.830
 3218SOL    HW110553   5.814   2.359   3.761
 3218SOL    HW210554   5.886   2.290   3.890
 3219SOL     OW10555   6.982   1.019   4.885
 3219SOL    HW110556   7.022   0.993   4.797
 3219SOL    HW210557   0.011   0.984   4.959
 3220SOL     OW10558   0.799   5.867   6.875
 3220SOL    HW110559   0.758   5.776   6.870
 3220SOL    HW210560   0.769   5.912   6.959
 3221SOL     OW10561   3.635   0.175   2.214
 3221SOL    HW110562   3.574   0.097   2.208
 3221SOL    HW210563   3.688   0.170   2.299
 3222SOL     OW10564   2.891   1.359   2.168
 3222SOL    HW110565   2.880   1.261   2.187
 3222SOL    HW210566   2.981   1.374   2.126
 3223SOL     OW10567   2.561   6.192   0.199
 3223SOL    HW110568   2.653   6.164   0.229
 3223SOL    HW210569   2.547   6.288   0.224
 3224SOL     OW10570   5.274   2.293   4.984
 3224SOL    HW110571   5.330   2.375   4.972
 3224SOL    HW210572   5.290   2.256   5.076
 3225SOL     OW10573   4.259   1.394   5.187
 3225SOL    HW110574   4.313   1.458   5.132
 3225SOL    HW210575   4.250   1.307   5.137
 3226SOL     OW10576   1.826   0.342   1.424
 3226SOL    HW110577   1.753   0.317   1.361
 3226SOL    HW210578   1.908   0.369   1.373
 3227SOL     OW10579   3.422   2.868   6.721
 3227SOL    HW110580   3.406   2.835   6.628
 3227SOL    HW210581   3.443   2.965   6.719
 3228SOL     OW10582   6.964   3.882   7.017
 3228SOL    HW110583   6.866   3.893   0.005
 3228SOL    HW210584   6.986   3.920   6.927
 3229SOL     OW10585   3.511   0.492   5.543
 3229SOL    HW110586   3.465   0.418   5.592
 3229SOL    HW210587   3.540   0.563   5.608
 3230SOL     OW10588   1.663   5.477   5.945
 3230SOL    HW110589   1.740   5.492   6.007
 3230SOL    HW210590   1.685   5.402   5.883
 3231SOL     OW10591   2.495   1.056   2.485
 3231SOL    HW110592   2.428   1.068   2.558
 3231SOL    HW210593   2.556   1.135   2.483
 3232SOL     OW10594   4.241   5.704   3.895
 3232SOL    HW110595   4.167   5.754   3.941
 3232SOL    HW210596   4.203   5.624   3.848
 3233SOL     OW10597   6.660   2.906   0.639
 3233SOL    HW110598   6.598   2.956   0.699
 3233SOL    HW210599   6.608   2.837   0.588
 3234SOL     OW10600   1.880   2.683   0.387
 3234SOL    HW110601   1.804   2.721   0.334
 3234SOL    HW210602   1.935   2.757   0.425
 3235SOL     OW10603   6.368   6.383   1.816
 3235SOL    HW110604   6.357   6.318   1.741
 3235SOL    HW210605   6.455   6.432   1.805
 3236SOL     OW10606   1.331   4.320   0.699
 3236SOL    HW110607   1.361   4.224   0.702
 3236SOL    HW210608   1.278   4.335   0.615
 3237SOL     OW10609   6.549   2.053   3.399
 3237SOL    HW110610   6.491   2.057   3.480
 3237SOL    HW210611   6.567   2.145   3.365
 3238SOL     OW10612   6.094   5.301   6.637
 3238SOL    HW110613   6.009   5.330   6.681
 3238SOL    HW210614   6.073   5.264   6.546
 3239SOL     OW10615   6.772   0.169   3.043
 3239SOL    HW110616   6.855   0.225   3.049
 3239SOL    HW210617   6.784   0.100   2.971
 3240SOL     OW10618   7.009   0.320   6.084
 3240SOL    HW110619   6.984   0.320   6.180
 3240SOL    HW210620   6.926   0.320   6.028
 3241SOL     OW10621   4.750   1.419   6.337
 3241SOL    HW110622   4.699   1.415   6.251
 3241SOL    HW210623   4.822   1.350   6.336
 3242SOL     OW10624   5.035   3.788   5.837
 3242SOL    HW110625   4.999   3.722   5.772
 3242SOL    HW210626   5.008   3.762   5.930
 3243SOL     OW10627   4.779   5.450   0.317
 3243SOL    HW110628   4.820   5.483   0.402
 3243SOL    HW210629   4.693   5.499   0.301
 3244SOL     OW10630   6.129   6.130   6.731
 3244SOL    HW110631   6.041   6.175   6.717
 3244SOL    HW210632   6.183   6.135   6.647
 3245SOL     OW10633   4.694   2.263   4.088
 3245SOL    HW110634   4.777   2.264   4.031
 3245SOL    HW210635   4.720   2.262   4.185
 3246SOL     OW10636   6.527   0.291   2.972
 3246SOL    HW110637   6.625   0.274   2.979
 3246SOL    HW210638   6.480   0.207   2.944
 3247SOL     OW10639   6.766   4.995   2.251
 3247SOL    HW110640   6.783   5.008   2.153
 3247SOL    HW210641   6.729   5.079   2.290
 3248SOL     OW10642   5.604   2.425   2.645
 3248SOL    HW110643   5.694   2.420   2.601
 3248SOL    HW210644   5.534   2.393   2.582
 3249SOL     OW10645   3.799   3.852   3.837
 3249SOL    HW110646   3.887   3.819   3.871
 3249SOL    HW210647   3.733   3.776   3.833
 3250SOL     OW10648   5.007   6.928   3.238
 3250SOL    HW110649   5.063   6.845   3.244
 3250SOL    HW210650   4.911   6.903   3.224
 3251SOL     OW10651   2.716   0.897   4.561
 3251SOL    HW110652   2.687   0.821   4.619
 3251SOL    HW210653   2.814   0.914   4.577
 3252SOL     OW10654   2.984   0.667   2.823
 3252SOL    HW110655   3.057   0.701   2.764
 3252SOL    HW210656   2.896   0.680   2.777
 3253SOL     OW10657   4.494   3.512   0.860
 3253SOL    HW110658   4.477   3.608   0.836
 3253SOL    HW210659   4.511   3.459   0.776
 3254SOL     OW10660   5.386   6.944   6.119
 3254SOL    HW110661   5.414   6.966   6.213
 3254SOL    HW210662   5.455   6.977   6.055
 3255SOL     OW10663   5.675   6.346   1.105
 3255SOL    HW110664   5.601   6.345   1.038
 3255SOL    HW210665   5.650   6.407   1.181
 3256SOL     OW10666   3.957   1.800   1.626
 3256SOL    HW110667   3.875   1.784   1.571
 3256SOL    HW210668   3.934   1.792   1.723
 3257SOL     OW10669   2.677   1.795   1.673
 3257SOL    HW110670   2.732   1.878   1.681
 3257SOL    HW210671   2.736   1.718   1.650
 3258SOL     OW10672   3.642   4.974   3.545
 3258SOL    HW110673   3.553   4.962   3.589
 3258SOL    HW210674   3.636   4.950   3.448
 3259SOL     OW10675   4.910   5.443   4.119
 3259SOL    HW110676   4.944   5.431   4.212
 3259SOL    HW210677   4.912   5.355   4.071
 3260SOL     OW10678   1.482   3.567   2.049
 3260SOL    HW110679   1.451   3.509   2.124
 3260SOL    HW210680   1.575   3.541   2.022
 3261SOL     OW10681   4.739   0.569   2.130
 3261SOL    HW110682   4.785   0.612   2.053
 3261SOL    HW210683   4.703   0.639   2.191
 3262SOL     OW10684   3.946   2.170   2.155
 3262SOL    HW110685   3.958   2.259   2.199
 3262SOL    HW210686   3.854   2.163   2.117
 3263SOL     OW10687   3.488   0.993   3.279
 3263SOL    HW110688   3.554   1.036   3.217
 3263SOL    HW210689   3.529   0.982   3.369
 3264SOL     OW10690   2.046   5.136   1.096
 3264SOL    HW110691   2.065   5.188   1.180
 3264SOL    HW210692   2.035   5.040   1.119
 3265SOL     OW10693   5.905   6.262   6.271
 3265SOL    HW110694   5.999   6.255   6.306
 3265SOL    HW210695   5.891   6.194   6.200
 3266SOL     OW10696   2.779   4.177   6.723
 3266SOL    HW110697   2.728   4.189   6.638
 3266SOL    HW210698   2.846   4.103   6.710
 3267SOL     OW10699   3.077   6.953   2.017
 3267SOL    HW110700   2.988   6.996   2.027
 3267SOL    HW210701   3.089   6.920   1.923
 3268SOL     OW10702   1.240   4.609   0.982
 3268SOL    HW110703   1.291   4.632   1.065
 3268SOL    HW210704   1.300   4.613   0.903
 3269SOL     OW10705   0.191   5.183   1.482
 3269SOL    HW110706   0.153   5.104   1.531
 3269SOL    HW210707   0.239   5.242   1.548
 3270SOL     OW10708   1.794   3.111   6.514
 3270SOL    HW110709   1.777   3.100   6.612
 3270SOL    HW210710   1.889   3.137   6.499
 3271SOL     OW10711   6.655   3.356   1.553
 3271SOL    HW110712   6.608   3.321   1.472
 3271SOL    HW210713   6.686   3.449   1.536
 3272SOL     OW10714   2.783   4.498   0.009
 3272SOL    HW110715   2.863   4.442   0.030
 3272SOL    HW210716   2.707   4.438   7.012
 3273SOL     OW10717   5.665   4.972   6.081
 3273SOL    HW110718   5.645   4.946   6.175
 3273SOL    HW210719   5.760   5.005   6.075
 3274SOL     OW10720   6.046   0.479   1.026
 3274SOL    HW110721   6.103   0.414   1.075
 3274SOL    HW210722   6.089   0.569   1.026
 3275SOL     OW10723   4.691   1.135   0.557
 3275SOL    HW110724   4.643   1.200   0.615
 3275SOL    HW210725   4.625   1.075   0.512
 3276SOL     OW10726   4.848   6.077   7.016
 3276SOL    HW110727   4.779   6.007   0.005
 3276SOL    HW210728   4.803   6.165   7.002
 3277SOL     OW10729   3.721   1.291   0.992
 3277SOL    HW110730   3.758   1.336   1.073
 3277SOL    HW210731   3.792   1.288   0.921
 3278SOL     OW10732   0.478   0.424   5.872
 3278SOL    HW110733   0.397   0.427   5.813
 3278SOL    HW210734   0.537   0.349   5.843
 3279SOL     OW10735   5.075   7.019   1.262
 3279SOL    HW110736   5.162   6.971   1.276
 3279SOL    HW210737   5.006   6.980   1.323
 3280SOL     OW10738   4.770   4.394   4.284
 3280SOL    HW110739   4.685   4.426   4.324
 3280SOL    HW210740   4.811   4.323   4.342
 3281SOL     OW10741   0.620   4.413   1.413
 3281SOL    HW110742   0.680   4.489   1.387
 3281SOL    HW210743   0.622   4.343   1.342
 3282SOL     OW10744   6.562   4.660   5.121
 3282SOL    HW110745   6.576   4.736   5.185
 3282SOL    HW210746   6.543   4.577   5.173
 3283SOL     OW10747   3.677   1.080   1.498
 3283SOL    HW110748   3.727   1.003   1.459
 3283SOL    HW210749   3.589   1.089   1.452
 3284SOL     OW10750   1.353   5.860   5.184
 3284SOL    HW110751   1.270   5.915   5.173
 3284SOL    HW210752   1.341   5.772   5.138
 3285SOL     OW10753   5.889   1.597   4.649
 3285SOL    HW110754   5.850   1.676   4.601
 3285SOL    HW210755   5.980   1.578   4.612
 3286SOL     OW10756   3.156   2.469   1.604
 3286SOL    HW110757   3.238   2.515   1.638
 3286SOL    HW210758   3.076   2.525   1.626
 3287SOL     OW10759   0.760   0.731   0.301
 3287SOL    HW110760   0.832   0.662   0.308
 3287SOL    HW210761   0.745   0.754   0.204
 3288SOL     OW10762   2.088   7.010   0.333
 3288SOL    HW110763   2.177   7.001   0.379
 3288SOL    HW210764   2.028   0.039   0.389
 3289SOL     OW10765   2.781   1.973   6.502
 3289SOL    HW110766   2.860   1.917   6.526
 3289SOL    HW210767   2.698   1.919   6.514
 3290SOL     OW10768   7.026   5.349   0.977
 3290SOL    HW110769   0.041   5.415   0.915
 3290SOL    HW210770   0.050   5.344   1.062
 3291SOL     OW10771   2.886   0.919   5.952
 3291SOL    HW110772   2.904   0.996   5.890
 3291SOL    HW210773   2.804   0.938   6.006
 3292SOL     OW10774   0.033   1.354   0.876
 3292SOL    HW110775   0.096   1.388   0.946
 3292SOL    HW210776   7.009   1.429   0.839
 3293SOL     OW10777   6.679   5.034   1.706
 3293SOL    HW110778   6.606   5.100   1.690
 3293SOL    HW210779   6.755   5.052   1.645
 3294SOL     OW10780   4.906   1.932   5.931
 3294SOL    HW110781   4.915   1.836   5.960
 3294SOL    HW210782   4.817   1.966   5.957
 3295SOL     OW10783   1.049   3.526   1.717
 3295SOL    HW110784   1.013   3.490   1.631
 3295SOL    HW210785   1.083   3.619   1.703
 3296SOL     OW10786   0.210   0.602   4.058
 3296SOL    HW110787   0.170   0.631   4.144
 3296SOL    HW210788   0.173   0.513   4.032
 3297SOL     OW10789   3.103   1.964   5.330
 3297SOL    HW110790   3.079   1.921   5.417
 3297SOL    HW210791   3.076   2.060   5.331
 3298SOL     OW10792   6.844   2.374   5.642
 3298SOL    HW110793   6.795   2.456   5.612
 3298SOL    HW210794   6.782   2.296   5.642
 3299SOL     OW10795   3.950   6.069   2.731
 3299SOL    HW110796   3.929   6.070   2.829
 3299SOL    HW210797   3.872   6.033   2.681
 3300SOL     OW10798   1.504   0.480   5.977
 3300SOL    HW110799   1.453   0.526   5.904
 3300SOL    HW210800   1.549   0.549   6.034
 3301SOL     OW10801   1.601   3.758   3.425
 3301SOL    HW110802   1.695   3.724   3.429
 3301SOL    HW210803   1.543   3.703   3.486
 3302SOL     OW10804   1.135   4.770   6.218
 3302SOL    HW110805   1.133   4.733   6.311
 3302SOL    HW210806   1.053   4.825   6.203
 3303SOL     OW10807   3.099   3.346   0.451
 3303SOL    HW110808   3.151   3.273   0.494
 3303SOL    HW210809   3.082   3.419   0.519
 3304SOL     OW10810   2.327   5.598   6.093
 3304SOL    HW110811   2.390   5.610   6.016
 3304SOL    HW210812   2.233   5.593   6.058
 3305SOL     OW10813   3.087   0.825   1.817
 3305SOL    HW110814   3.125   0.909   1.856
 3305SOL    HW210815   3.160   0.761   1.797
 3306SOL     OW10816   1.172   5.984   5.419
 3306SOL    HW110817   1.196   5.932   5.502
 3306SOL    HW210818   1.248   5.980   5.355
 3307SOL     OW10819   0.780   0.059   5.240
 3307SOL    HW110820   0.835   7.013   5.202
 3307SOL    HW210821   0.702   0.021   5.290
 3308SOL     OW10822   3.329   5.461   1.099
 3308SOL    HW110823   3.354   5.452   1.195
 3308SOL    HW210824   3.411   5.466   1.043
 3309SOL     OW10825   6.264   4.576   3.853
 3309SOL    HW110826   6.272   4.632   3.771
 3309SOL    HW210827   6.352   4.573   3.900
 3310SOL     OW10828   0.519   4.018   4.767
 3310SOL    HW110829   0.501   4.072   4.850
 3310SOL    HW210830   0.604   3.967   4.780
 3311SOL     OW10831   3.059   3.513   0.667
 3311SOL    HW110832   3.129   3.496   0.737
 3311SOL    HW210833   2.978   3.553   0.710
 3312SOL     OW10834   4.054   2.907   5.584
 3312SOL    HW110835   4.073   2.893   5.487
 3312SOL    HW210836   4.127   2.867   5.639
 3313SOL     OW10837   0.769   0.155   3.439
 3313SOL    HW110838   0.829   0.130   3.363
 3313SOL    HW210839   0.758   0.077   3.500
 3314SOL     OW10840   3.098   0.955   2.133
 3314SOL    HW110841   3.051   0.919   2.213
 3314SOL    HW210842   3.172   1.016   2.162
 3315SOL     OW10843   0.757   4.431   5.095
 3315SOL    HW110844   0.700   4.446   5.014
 3315SOL    HW210845   0.714   4.363   5.154
 3316SOL     OW10846   4.097   0.933   4.936
 3316SOL    HW110847   4.154   0.880   4.999
 3316SOL    HW210848   4.001   0.917   4.957
 3317SOL     OW10849   5.249   1.831   2.429
 3317SOL    HW110850   5.253   1.731   2.428
 3317SOL    HW210851   5.200   1.861   2.511
 3318SOL     OW10852   1.608   1.011   6.922
 3318SOL    HW110853   1.586   1.101   6.959
 3318SOL    HW210854   1.640   1.021   6.828
 3319SOL     OW10855   5.943   0.482   3.506
 3319SOL    HW110856   5.849   0.471   3.539
 3319SOL    HW210857   5.963   0.410   3.440
 3320SOL     OW10858   6.757   0.457   0.143
 3320SOL    HW110859   6.744   0.555   0.160
 3320SOL    HW210860   6.851   0.432   0.164
 3321SOL     OW10861   5.892   1.904   0.936
 3321SOL    HW110862   5.956   1.947   1.000
 3321SOL    HW210863   5.865   1.814   0.971
 3322SOL     OW10864   6.963   2.814   1.061
 3322SOL    HW110865   6.959   2.895   1.120
 3322SOL    HW210866   0.000   2.749   1.099
 3323SOL     OW10867   2.591   1.909   0.727
 3323SOL    HW110868   2.584   1.958   0.814
 3323SOL    HW210869   2.511   1.929   0.670
 3324SOL     OW10870   4.705   5.484   5.335
 3324SOL    HW110871   4.760   5.557   5.295
 3324SOL    HW210872   4.618   5.522   5.367
 3325SOL     OW10873   0.293   2.986   6.572
 3325SOL    HW110874   0.373   3.045   6.582
 3325SOL    HW210875   0.211   3.042   6.571
 3326SOL     OW10876   4.931   1.387   1.648
 3326SOL    HW110877   4.847   1.364   1.697
 3326SOL    HW210878   4.909   1.410   1.553
 3327SOL     OW10879   2.348   5.255   1.547
 3327SOL    HW110880   2.362   5.226   1.642
 3327SOL    HW210881   2.320   5.351   1.546
 3328SOL     OW10882   3.545   2.044   1.173
 3328SOL    HW110883   3.502   2.101   1.243
 3328SOL    HW210884   3.510   2.069   1.083
 3329SOL     OW10885   6.167   0.149   5.513
 3329SOL    HW110886   6.202   0.211   5.443
 3329SOL    HW210887   6.067   0.145   5.508
 3330SOL     OW10888   6.111   3.618   1.740
 3330SOL    HW110889   6.076   3.654   1.826
 3330SOL    HW210890   6.179   3.547   1.758
 3331SOL     OW10891   2.441   2.883   1.253
 3331SOL    HW110892   2.535   2.893   1.285
 3331SOL    HW210893   2.388   2.962   1.281
 3332SOL     OW10894   5.925   5.375   0.160
 3332SOL    HW110895   5.966   5.285   0.146
 3332SOL    HW210896   5.871   5.401   0.080
 3333SOL     OW10897   4.426   5.667   6.400
 3333SOL    HW110898   4.411   5.628   6.309
 3333SOL    HW210899   4.359   5.629   6.464
 3334SOL     OW10900   3.655   3.490   1.404
 3334SOL    HW110901   3.729   3.555   1.416
 3334SOL    HW210902   3.648   3.432   1.485
 3335SOL     OW10903   4.507   5.682   5.387
 3335SOL    HW110904   4.511   5.765   5.332
 3335SOL    HW210905   4.464   5.702   5.475
 3336SOL     OW10906   3.175   5.132   5.155
 3336SOL    HW110907   3.076   5.146   5.146
 3336SOL    HW210908   3.223   5.203   5.105
 3337SOL     OW10909   3.099   2.794   1.595
 3337SOL    HW110910   3.036   2.738   1.648
 3337SOL    HW210911   3.192   2.763   1.610
 3338SOL     OW10912   6.323   3.448   1.495
 3338SOL    HW110913   6.244   3.451   1.435
 3338SOL    HW210914   6.365   3.539   1.500
 3339SOL     OW10915   0.053   6.687   6.864
 3339SOL    HW110916   0.093   6.658   6.777
 3339SOL    HW210917   0.073   6.618   6.934
 3340SOL     OW10918   3.556   0.318   1.510
 3340SOL    HW110919   3.564   0.218   1.503
 3340SOL    HW210920   3.641   0.360   1.478
 3341SOL     OW10921   1.534   6.998   4.060
 3341SOL    HW110922   1.597   6.952   4.121
 3341SOL    HW210923   1.505   6.934   3.988
 3342SOL     OW10924   2.222   6.416   4.035
 3342SOL    HW110925   2.162   6.436   3.958
 3342SOL    HW210926   2.312   6.457   4.020
 3343SOL     OW10927   4.809   2.750   0.621
 3343SOL    HW110928   4.869   2.737   0.542
 3343SOL    HW210929   4.821   2.842   0.657
 3344SOL     OW10930   5.535   4.280   5.031
 3344SOL    HW110931   5.548   4.187   5.067
 3344SOL    HW210932   5.448   4.316   5.063
 3345SOL     OW10933   2.627   3.638   5.985
 3345SOL    HW110934   2.528   3.640   5.998
 3345SOL    HW210935   2.648   3.631   5.887
 3346SOL     OW10936   1.535   0.925   1.631
 3346SOL    HW110937   1.518   0.854   1.563
 3346SOL    HW210938   1.632   0.946   1.636
 3347SOL     OW10939   0.782   5.294   3.712
 3347SOL    HW110940   0.795   5.240   3.629
 3347SOL    HW210941   0.838   5.257   3.785
 3348SOL     OW10942   3.050   3.120   3.585
 3348SOL    HW110943   3.103   3.168   3.654
 3348SOL    HW210944   2.953   3.124   3.608
 3349SOL     OW10945   0.631   4.510   4.841
 3349SOL    HW110946   0.585   4.525   4.753
 3349SOL    HW210947   0.730   4.502   4.826
 3350SOL     OW10948   1.451   1.962   6.722
 3350SOL    HW110949   1.354   1.986   6.722
 3350SOL    HW210950   1.485   1.960   6.628
 3351SOL     OW10951   5.131   0.171   2.404
 3351SOL    HW110952   5.199   0.164   2.476
 3351SOL    HW210953   5.134   0.262   2.362
 3352SOL     OW10954   0.035   3.632   0.375
 3352SOL    HW110955   0.039   3.724   0.415
 3352SOL    HW210956   0.084   3.632   0.288
 3353SOL     OW10957   1.194   6.856   2.011
 3353SOL    HW110958   1.149   6.937   2.047
 3353SOL    HW210959   1.143   6.774   2.037
 3354SOL     OW10960   6.266   2.642   3.967
 3354SOL    HW110961   6.256   2.652   4.066
 3354SOL    HW210962   6.265   2.544   3.944
 3355SOL     OW10963   0.928   1.427   0.106
 3355SOL    HW110964   0.865   1.358   0.143
 3355SOL    HW210965   1.007   1.435   0.168
 3356SOL     OW10966   2.230   2.959   0.236
 3356SOL    HW110967   2.270   3.002   0.317
 3356SOL    HW210968   2.283   2.877   0.213
 3357SOL     OW10969   2.384   4.732   1.827
 3357SOL    HW110970   2.445   4.797   1.872
 3357SOL    HW210971   2.414   4.639   1.846
 3358SOL     OW10972   4.688   6.240   1.560
 3358SOL    HW110973   4.702   6.301   1.638
 3358SOL    HW210974   4.736   6.276   1.480
 3359SOL     OW10975   0.002   0.519   3.794
 3359SOL    HW110976   6.951   0.475   3.836
 3359SOL    HW210977   0.032   0.465   3.715
 3360SOL     OW10978   0.215   1.418   1.070
 3360SOL    HW110979   0.192   1.514   1.086
 3360SOL    HW210980   0.265   1.382   1.148
 3361SOL     OW10981   0.017   4.656   2.312
 3361SOL    HW110982   0.101   4.698   2.278
 3361SOL    HW210983   6.997   4.721   2.371
 3362SOL     OW10984   3.623   1.240   4.499
 3362SOL    HW110985   3.712   1.231   4.543
 3362SOL    HW210986   3.633   1.287   4.412
 3363SOL     OW10987   0.558   0.566   6.154
 3363SOL    HW110988   0.583   0.573   6.250
 3363SOL    HW210989   0.469   0.610   6.139
 3364SOL     OW10990   1.339   5.050   5.056
 3364SOL    HW110991   1.322   5.092   4.967
 3364SOL    HW210992   1.433   5.068   5.084
 3365SOL     OW10993   0.482   2.816   5.253
 3365SOL    HW110994   0.385   2.801   5.233
 3365SOL    HW210995   0.527   2.851   5.171
 3366SOL     OW10996   6.274   0.827   5.127
 3366SOL    HW110997   6.275   0.839   5.028
 3366SOL    HW210998   6.192   0.777   5.155
 3367SOL     OW10999   2.040   2.949   1.833
 3367SOL    HW111000   1.964   2.951   1.768
 3367SOL    HW211001   2.074   3.041   1.848
 3368SOL     OW11002   0.398   5.947   6.859
 3368SOL    HW111003   0.396   5.916   6.954
 3368SOL    HW211004   0.316   5.917   6.812
 3369SOL     OW11005   3.214   2.155   6.268
 3369SOL    HW111006   3.233   2.243   6.223
 3369SOL    HW211007   3.116   2.142   6.277
 3370SOL     OW11008   6.649   6.715   5.295
 3370SOL    HW111009   6.626   6.641   5.232
 3370SOL    HW211010   6.667   6.798   5.243
 3371SOL     OW11011   0.689   4.255   2.557
 3371SOL    HW111012   0.629   4.175   2.552
 3371SOL    HW211013   0.748   4.258   2.476
 3372SOL     OW11014   1.105   1.483   2.545
 3372SOL    HW111015   1.137   1.575   2.569
 3372SOL    HW211016   1.121   1.421   2.622
 3373SOL     OW11017   6.948   1.531   3.937
 3373SOL    HW111018   6.874   1.540   3.871
 3373SOL    HW211019   6.984   1.438   3.936
 3374SOL     OW11020   3.094   5.618   4.216
 3374SOL    HW111021   3.017   5.593   4.156
 3374SOL    HW211022   3.165   5.548   4.210
 3375SOL     OW11023   4.134   4.898   4.583
 3375SOL    HW111024   4.215   4.945   4.547
 3375SOL    HW211025   4.092   4.953   4.654
 3376SOL     OW11026   4.165   3.407   2.802
 3376SOL    HW111027   4.153   3.443   2.894
 3376SOL    HW211028   4.150   3.308   2.802
 3377SOL     OW11029   0.372   6.697   4.263
 3377SOL    HW111030   0.425   6.781   4.246
 3377SOL    HW211031   0.430   6.617   4.247
 3378SOL     OW11032   6.732   0.622   1.607
 3378SOL    HW111033   6.683   0.584   1.529
 3378SOL    HW211034   6.764   0.548   1.666
 3379SOL     OW11035   6.750   4.901   6.099
 3379SOL    HW111036   6.691   4.961   6.153
 3379SOL    HW211037   6.841   4.896   6.141
 3380SOL     OW11038   6.423   5.684   5.808
 3380SOL    HW111039   6.387   5.614   5.747
 3380SOL    HW211040   6.441   5.768   5.756
 3381SOL     OW11041   1.847   1.907   0.052
 3381SOL    HW111042   1.872   1.812   0.070
 3381SOL    HW211043   1.751   1.921   0.073
 3382SOL     OW11044   0.658   1.314   0.938
 3382SOL    HW111045   0.701   1.246   0.877
 3382SOL    HW211046   0.566   1.333   0.906
 3383SOL     OW11047   5.302   4.769   1.931
 3383SOL    HW111048   5.313   4.674   1.904
 3383SOL    HW211049   5.385   4.820   1.909
 3384SOL     OW11050   3.012   3.712   5.150
 3384SOL    HW111051   2.925   3.705   5.199
 3384SOL    HW211052   2.997   3.691   5.053
 3385SOL     OW11053   0.338   3.857   3.877
 3385SOL    HW111054   0.390   3.850   3.962
 3385SOL    HW211055   0.306   3.952   3.865
 3386SOL     OW11056   6.259   2.926   5.422
 3386SOL    HW111057   6.334   2.900   5.360
 3386SOL    HW211058   6.268   2.877   5.508
 3387SOL     OW11059   2.212   0.851   2.911
 3387SOL    HW111060   2.169   0.905   2.984
 3387SOL    HW211061   2.290   0.902   2.874
 3388SOL     OW11062   5.811   3.663   1.071
 3388SOL    HW111063   5.862   3.707   0.997
 3388SOL    HW211064   5.875   3.614   1.130
 3389SOL     OW11065   4.205   5.450   4.473
 3389SOL    HW111066   4.225   5.542   4.505
 3389SOL    HW211067   4.283   5.391   4.489
 3390SOL     OW11068   4.990   3.963   5.471
 3390SOL    HW111069   5.052   3.972   5.549
 3390SOL    HW211070   5.039   3.983   5.386
 3391SOL     OW11071   5.681   2.545   4.704
 3391SOL    HW111072   5.652   2.628   4.751
 3391SOL    HW211073   5.604   2.508   4.651
 3392SOL     OW11074   2.798   1.145   3.354
 3392SOL    HW111075   2.796   1.131   3.453
 3392SOL    HW211076   2.834   1.062   3.310
 3393SOL     OW11077   6.876   6.665   0.805
 3393SOL    HW111078   6.856   6.763   0.796
 3393SOL    HW211079   6.793   6.612   0.789
 3394SOL     OW11080   5.866   3.515   1.315
 3394SOL    HW111081   5.907   3.424   1.321
 3394SOL    HW211082   5.783   3.511   1.260
 3395SOL     OW11083   6.798   3.582   4.143
 3395SOL    HW111084   6.801   3.566   4.044
 3395SOL    HW211085   6.838   3.671   4.163
 3396SOL     OW11086   0.323   2.869   3.592
 3396SOL    HW111087   0.329   2.775   3.558
 3396SOL    HW211088   0.251   2.875   3.661
 3397SOL     OW11089   2.979   1.558   5.596
 3397SOL    HW111090   3.003   1.514   5.682
 3397SOL    HW211091   3.001   1.497   5.520
 3398SOL     OW11092   1.208   6.663   4.460
 3398SOL    HW111093   1.302   6.662   4.426
 3398SOL    HW211094   1.161   6.744   4.426
 3399SOL     OW11095   5.090   4.425   4.120
 3399SOL    HW111096   5.068   4.411   4.217
 3399SOL    HW211097   5.021   4.485   4.079
 3400SOL     OW11098   4.097   1.028   5.313
 3400SOL    HW111099   4.109   0.990   5.221
 3400SOL    HW211100   4.028   1.099   5.310
 3401SOL     OW11101   6.954   3.708   0.757
 3401SOL    HW111102   7.015   3.728   0.681
 3401SOL    HW211103   6.937   3.609   0.762
 3402SOL     OW11104   4.789   5.927   0.522
 3402SOL    HW111105   4.771   6.024   0.539
 3402SOL    HW211106   4.833   5.916   0.433
 3403SOL     OW11107   3.484   0.612   4.254
 3403SOL    HW111108   3.558   0.565   4.302
 3403SOL    HW211109   3.451   0.689   4.310
 3404SOL     OW11110   3.838   1.494   0.423
 3404SOL    HW111111   3.822   1.548   0.506
 3404SOL    HW211112   3.791   1.406   0.430
 3405SOL     OW11113   6.526   3.337   4.476
 3405SOL    HW111114   6.598   3.404   4.459
 3405SOL    HW211115   6.548   3.286   4.559
 3406SOL     OW11116   1.443   3.985   1.721
 3406SOL    HW111117   1.373   4.008   1.653
 3406SOL    HW211118   1.468   4.067   1.773
 3407SOL     OW11119   1.692   5.176   0.372
 3407SOL    HW111120   1.703   5.123   0.288
 3407SOL    HW211121   1.631   5.127   0.434
 3408SOL     OW11122   4.870   4.409   5.043
 3408SOL    HW111123   4.783   4.443   5.006
 3408SOL    HW211124   4.932   4.486   5.057
 3409SOL     OW11125   3.407   6.187   5.771
 3409SOL    HW111126   3.403   6.188   5.870
 3409SOL    HW211127   3.492   6.231   5.741
 3410SOL     OW11128   5.929   6.029   0.247
 3410SOL    HW111129   5.903   5.943   0.290
 3410SOL    HW211130   5.849   6.089   0.241
 3411SOL     OW11131   0.150   2.658   1.969
 3411SOL    HW111132   0.057   2.659   2.006
 3411SOL    HW211133   0.147   2.640   1.871
 3412SOL     OW11134   4.491   2.473   6.941
 3412SOL    HW111135   4.482   2.525   6.856
 3412SOL    HW211136   4.476   2.375   6.921
 3413SOL     OW11137   4.830   0.938   2.694
 3413SOL    HW111138   4.813   0.885   2.611
 3413SOL    HW211139   4.905   1.003   2.677
 3414SOL     OW11140   2.212   1.311   5.530
 3414SOL    HW111141   2.227   1.407   5.556
 3414SOL    HW211142   2.273   1.287   5.455
 3415SOL     OW11143   2.282   4.164   4.393
 3415SOL    HW111144   2.239   4.075   4.378
 3415SOL    HW211145   2.277   4.217   4.308
 3416SOL     OW11146   6.495   4.996   6.726
 3416SOL    HW111147   6.463   4.933   6.656
 3416SOL    HW211148   6.418   5.045   6.766
 3417SOL     OW11149   6.330   5.867   3.303
 3417SOL    HW111150   6.382   5.897   3.384
 3417SOL    HW211151   6.237   5.904   3.307
 3418SOL     OW11152   4.043   0.158   5.154
 3418SOL    HW111153   4.103   0.184   5.078
 3418SOL    HW211154   3.974   0.229   5.168
 3419SOL     OW11155   3.131   5.510   5.849
 3419SOL    HW111156   3.161   5.599   5.885
 3419SOL    HW211157   3.093   5.522   5.757
 3420SOL     OW11158   5.234   2.278   3.352
 3420SOL    HW111159   5.153   2.219   3.353
 3420SOL    HW211160   5.311   2.230   3.392
 3421SOL     OW11161   6.515   0.368   6.548
 3421SOL    HW111162   6.560   0.373   6.458
 3421SOL    HW211163   6.585   0.366   6.620
 3422SOL     OW11164   2.206   6.464   1.177
 3422SOL    HW111165   2.139   6.456   1.252
 3422SOL    HW211166   2.249   6.554   1.181
 3423SOL     OW11167   2.414   6.833   0.815
 3423SOL    HW111168   2.505   6.867   0.839
 3423SOL    HW211169   2.351   6.849   0.890
 3424SOL     OW11170   2.934   0.256   2.357
 3424SOL    HW111171   2.839   0.227   2.367
 3424SOL    HW211172   2.994   0.176   2.364
 3425SOL     OW11173   4.705   4.573   2.147
 3425SOL    HW111174   4.690   4.484   2.191
 3425SOL    HW211175   4.671   4.569   2.053
 3426SOL     OW11176   3.347   2.948   0.061
 3426SOL    HW111177   3.350   3.020   7.020
 3426SOL    HW211178   3.365   2.859   0.018
 3427SOL     OW11179   6.792   6.627   6.537
 3427SOL    HW111180   6.704   6.598   6.498
 3427SOL    HW211181   6.819   6.564   6.610
 3428SOL     OW11182   3.797   4.944   1.514
 3428SOL    HW111183   3.866   4.998   1.465
 3428SOL    HW211184   3.732   4.905   1.449
 3429SOL     OW11185   0.562   1.529   0.143
 3429SOL    HW111186   0.561   1.513   0.242
 3429SOL    HW211187   0.643   1.582   0.118
 3430SOL     OW11188   0.502   7.020   6.039
 3430SOL    HW111189   0.560   0.069   6.016
 3430SOL    HW211190   0.438   7.003   5.963
 3431SOL     OW11191   2.036   6.926   1.313
 3431SOL    HW111192   1.963   6.885   1.258
 3431SOL    HW211193   2.069   7.009   1.269
 3432SOL     OW11194   2.659   2.311   6.119
 3432SOL    HW111195   2.638   2.400   6.077
 3432SOL    HW211196   2.719   2.259   6.058
 3433SOL     OW11197   1.301   6.943   6.344
 3433SOL    HW111198   1.353   6.858   6.356
 3433SOL    HW211199   1.256   6.967   6.430
 3434SOL     OW11200   3.457   2.701   1.018
 3434SOL    HW111201   3.557   2.700   1.020
 3434SOL    HW211202   3.422   2.712   1.111
 3435SOL     OW11203   0.586   2.319   1.892
 3435SOL    HW111204   0.650   2.382   1.848
 3435SOL    HW211205   0.606   2.226   1.861
 3436SOL     OW11206   4.272   6.878   5.492
 3436SOL    HW111207   4.190   6.918   5.532
 3436SOL    HW211208   4.279   6.782   5.519
 3437SOL     OW11209   4.641   0.128   6.694
 3437SOL    HW111210   4.675   0.034   6.693
 3437SOL    HW211211   4.660   0.169   6.784
 3438SOL     OW11212   1.127   2.390   6.872
 3438SOL    HW111213   1.158   2.454   6.943
 3438SOL    HW211214   1.190   2.395   6.794
 3439SOL     OW11215   2.328   0.187   5.849
 3439SOL    HW111216   2.261   0.122   5.886
 3439SOL    HW211217   2.280   0.267   5.813
 3440SOL     OW11218   4.792   3.594   1.759
 3440SOL    HW111219   4.740   3.639   1.686
 3440SOL    HW211220   4.798   3.496   1.740
 3441SOL     OW11221   5.364   0.526   3.470
 3441SOL    HW111222   5.403   0.609   3.508
 3441SOL    HW211223   5.311   0.479   3.541
 3442SOL     OW11224   2.950   4.852   2.685
 3442SOL    HW111225   2.979   4.823   2.776
 3442SOL    HW211226   3.030   4.878   2.631
 3443SOL     OW11227   5.631   0.998   2.563
 3443SOL    HW111228   5.611   0.973   2.657
 3443SOL    HW211229   5.670   0.919   2.515
 3444SOL     OW11230   5.538   4.726   6.946
 3444SOL    HW111231   5.517   4.648   6.887
 3444SOL    HW211232   5.565   4.805   6.889
 3445SOL     OW11233   5.946   4.861   3.829
 3445SOL    HW111234   5.967   4.900   3.739
 3445SOL    HW211235   5.982   4.920   3.901
 3446SOL     OW11236   6.590   1.232   3.125
 3446SOL    HW111237   6.573   1.172   3.204
 3446SOL    HW211238   6.504   1.252   3.079
 3447SOL     OW11239   5.419   4.460   0.580
 3447SOL    HW111240   5.367   4.471   0.665
 3447SOL    HW211241   5.448   4.365   0.571
 3448SOL     OW11242   3.210   0.118   0.529
 3448SOL    HW111243   3.227   0.091   0.625
 3448SOL    HW211244   3.254   0.051   0.469
 3449SOL     OW11245   5.702   6.583   3.567
 3449SOL    HW111246   5.664   6.573   3.475
 3449SOL    HW211247   5.675   6.672   3.605
 3450SOL     OW11248   0.584   2.721   0.454
 3450SOL    HW111249   0.512   2.769   0.505
 3450SOL    HW211250   0.654   2.786   0.427
 3451SOL     OW11251   0.453   5.546   3.630
 3451SOL    HW111252   0.382   5.573   3.696
 3451SOL    HW211253   0.426   5.575   3.538
 3452SOL     OW11254   5.624   1.489   0.024
 3452SOL    HW111255   5.628   1.491   6.952
 3452SOL    HW211256   5.640   1.581   0.060
 3453SOL     OW11257   6.679   5.858   5.408
 3453SOL    HW111258   6.621   5.783   5.376
 3453SOL    HW211259   6.626   5.943   5.406
 3454SOL     OW11260   2.364   0.915   5.603
 3454SOL    HW111261   2.462   0.895   5.595
 3454SOL    HW211262   2.342   0.935   5.699
 3455SOL     OW11263   1.659   2.924   4.261
 3455SOL    HW111264   1.621   3.016   4.270
 3455SOL    HW211265   1.733   2.925   4.194
 3456SOL     OW11266   5.308   6.432   2.214
 3456SOL    HW111267   5.350   6.502   2.155
 3456SOL    HW211268   5.319   6.459   2.310
 3457SOL     OW11269   2.499   5.528   3.985
 3457SOL    HW111270   2.431   5.589   3.944
 3457SOL    HW211271   2.520   5.453   3.921
 3458SOL     OW11272   5.678   6.882   0.113
 3458SOL    HW111273   5.586   6.917   0.093
 3458SOL    HW211274   5.697   6.893   0.210
 3459SOL     OW11275   6.427   4.306   3.002
 3459SOL    HW111276   6.374   4.263   3.075
 3459SOL    HW211277   6.425   4.405   3.013
 3460SOL     OW11278   2.758   3.889   0.375
 3460SOL    HW111279   2.701   3.821   0.330
 3460SOL    HW211280   2.840   3.846   0.413
 3461SOL     OW11281   4.527   5.682   4.271
 3461SOL    HW111282   4.451   5.647   4.215
 3461SOL    HW211283   4.505   5.670   4.368
 3462SOL     OW11284   6.394   3.617   2.386
 3462SOL    HW111285   6.393   3.538   2.447
 3462SOL    HW211286   6.407   3.701   2.439
 3463SOL     OW11287   0.878   2.806   2.511
 3463SOL    HW111288   0.945   2.737   2.538
 3463SOL    HW211289   0.911   2.855   2.430
 3464SOL     OW11290   6.439   2.249   6.972
 3464SOL    HW111291   6.408   2.344   6.970
 3464SOL    HW211292   6.539   2.246   6.969
 3465SOL     OW11293   0.949   3.192   1.966
 3465SOL    HW111294   0.945   3.289   1.991
 3465SOL    HW211295   1.010   3.182   1.887
 3466SOL     OW11296   6.755   5.114   5.940
 3466SOL    HW111297   6.719   5.194   5.987
 3466SOL    HW211298   6.747   5.033   5.999
 3467SOL     OW11299   1.734   1.596   0.326
 3467SOL    HW111300   1.777   1.618   0.414
 3467SOL    HW211301   1.667   1.667   0.304
 3468SOL     OW11302   5.669   1.724   3.340
 3468SOL    HW111303   5.604   1.664   3.387
 3468SOL    HW211304   5.758   1.680   3.335
 3469SOL     OW11305   4.492   6.902   4.311
 3469SOL    HW111306   4.457   6.811   4.334
 3469SOL    HW211307   4.535   6.942   4.392
 3470SOL     OW11308   0.424   2.420   1.694
 3470SOL    HW111309   0.481   2.381   1.765
 3470SOL    HW211310   0.434   2.367   1.610
 3471SOL     OW11311   4.490   4.612   3.482
 3471SOL    HW111312   4.544   4.561   3.415
 3471SOL    HW211313   4.396   4.620   3.449
 3472SOL     OW11314   2.763   0.897   1.383
 3472SOL    HW111315   2.698   0.824   1.360
 3472SOL    HW211316   2.855   0.858   1.385
 3473SOL     OW11317   6.228   3.364   2.727
 3473SOL    HW111318   6.269   3.362   2.818
 3473SOL    HW211319   6.171   3.446   2.718
 3474SOL     OW11320   6.942   4.229   2.327
 3474SOL    HW111321   6.937   4.160   2.400
 3474SOL    HW211322   7.006   4.301   2.353
 3475SOL     OW11323   0.892   4.514   4.828
 3475SOL    HW111324   0.916   4.606   4.796
 3475SOL    HW211325   0.924   4.502   4.922
 3476SOL     OW11326   2.293   2.389   2.397
 3476SOL    HW111327   2.298   2.289   2.399
 3476SOL    HW211328   2.384   2.426   2.413
 3477SOL     OW11329   1.560   4.820   0.940
 3477SOL    HW111330   1.602   4.819   0.849
 3477SOL    HW211331   1.487   4.888   0.942
 3478SOL     OW11332   2.869   6.195   6.527
 3478SOL    HW111333   2.807   6.118   6.540
 3478SOL    HW211334   2.837   6.273   6.581
 3479SOL     OW11335   0.609   0.628   2.706
 3479SOL    HW111336   0.569   0.631   2.797
 3479SOL    HW211337   0.538   0.603   2.639
 3480SOL     OW11338   0.113   6.223   5.315
 3480SOL    HW111339   0.065   6.290   5.371
 3480SOL    HW211340   0.073   6.222   5.223
 3481SOL     OW11341   5.031   0.524   0.546
 3481SOL    HW111342   5.003   0.546   0.453
 3481SOL    HW211343   5.056   0.427   0.551
 3482SOL     OW11344   6.336   1.228   2.185
 3482SOL    HW111345   6.367   1.230   2.280
 3482SOL    HW211346   6.414   1.215   2.124
 3483SOL     OW11347   5.488   1.967   2.496
 3483SOL    HW111348   5.535   1.908   2.561
 3483SOL    HW211349   5.405   1.921   2.464
 3484SOL     OW11350   1.323   3.448   0.438
 3484SOL    HW111351   1.410   3.402   0.456
 3484SOL    HW211352   1.248   3.393   0.475
 3485SOL     OW11353   1.600   1.954   3.934
 3485SOL    HW111354   1.551   2.016   3.872
 3485SOL    HW211355   1.677   1.913   3.885
 3486SOL     OW11356   1.793   0.216   3.412
 3486SOL    HW111357   1.763   0.259   3.326
 3486SOL    HW211358   1.890   0.193   3.405
 3487SOL     OW11359   0.091   1.802   0.566
 3487SOL    HW111360   0.005   1.831   0.609
 3487SOL    HW211361   0.088   1.822   0.468
 3488SOL     OW11362   5.588   1.353   5.144
 3488SOL    HW111363   5.587   1.324   5.048
 3488SOL    HW211364   5.640   1.287   5.198
 3489SOL     OW11365   3.859   0.112   1.769
 3489SOL    HW111366   3.853   0.034   1.831
 3489SOL    HW211367   3.810   0.091   1.684
 3490SOL     OW11368   3.570   4.731   1.131
 3490SOL    HW111369   3.617   4.643   1.122
 3490SOL    HW211370   3.493   4.735   1.067
 3491SOL     OW11371   4.476   2.220   5.949
 3491SOL    HW111372   4.493   2.303   5.896
 3491SOL    HW211373   4.444   2.246   6.041
 3492SOL     OW11374   6.023   4.662   0.923
 3492SOL    HW111375   5.930   4.661   0.959
 3492SOL    HW211376   6.048   4.569   0.894
 3493SOL     OW11377   4.895   4.187   4.058
 3493SOL    HW111378   4.937   4.121   4.121
 3493SOL    HW211379   4.948   4.272   4.059
 3494SOL     OW11380   2.505   1.112   1.823
 3494SOL    HW111381   2.574   1.182   1.842
 3494SOL    HW211382   2.542   1.047   1.757
 3495SOL     OW11383   6.605   4.758   1.987
 3495SOL    HW111384   6.553   4.838   2.019
 3495SOL    HW211385   6.627   4.769   1.890
 3496SOL     OW11386   6.054   5.266   0.916
 3496SOL    HW111387   6.139   5.230   0.878
 3496SOL    HW211388   6.063   5.364   0.932
 3497SOL     OW11389   2.850   1.694   3.879
 3497SOL    HW111390   2.889   1.640   3.804
 3497SOL    HW211391   2.752   1.674   3.887
 3498SOL     OW11392   2.988   1.031   1.573
 3498SOL    HW111393   2.957   1.082   1.653
 3498SOL    HW211394   2.956   1.077   1.490
 3499SOL     OW11395   5.601   4.435   4.136
 3499SOL    HW111396   5.640   4.498   4.069
 3499SOL    HW211397   5.669   4.415   4.207
 3500SOL     OW11398   1.794   3.137   2.911
 3500SOL    HW111399   1.747   3.225   2.911
 3500SOL    HW211400   1.783   3.093   3.000
 3501SOL     OW11401   3.352   6.592   6.048
 3501SOL    HW111402   3.347   6.691   6.034
 3501SOL    HW211403   3.303   6.568   6.133
 3502SOL     OW11404   6.833   1.862   1.691
 3502SOL    HW111405   6.866   1.775   1.656
 3502SOL    HW211406   6.758   1.895   1.633
 3503SOL     OW11407   6.003   6.271   4.823
 3503SOL    HW111408   6.044   6.292   4.734
 3503SOL    HW211409   5.904   6.269   4.814
 3504SOL     OW11410   2.568   0.518   1.830
 3504SOL    HW111411   2.526   0.472   1.752
 3504SOL    HW211412   2.657   0.477   1.849
 3505SOL     OW11413   5.043   4.282   5.556
 3505SOL    HW111414   5.049   4.253   5.652
 3505SOL    HW211415   4.982   4.221   5.506
 3506SOL     OW11416   5.550   5.063   5.097
 3506SOL    HW111417   5.641   5.104   5.104
 3506SOL    HW211418   5.557   4.964   5.113
 3507SOL     OW11419   2.754   0.806   1.054
 3507SOL    HW111420   2.838   0.765   1.090
 3507SOL    HW211421   2.677   0.778   1.110
 3508SOL     OW11422   2.167   1.607   6.033
 3508SOL    HW111423   2.181   1.701   6.002
 3508SOL    HW211424   2.078   1.600   6.077
 3509SOL     OW11425   6.032   6.901   0.112
 3509SOL    HW111426   5.994   6.981   0.158
 3509SOL    HW211427   5.983   6.885   0.026
 3510SOL     OW11428   1.405   0.945   2.094
 3510SOL    HW111429   1.340   0.965   2.020
 3510SOL    HW211430   1.368   0.979   2.180
 3511SOL     OW11431   2.132   4.166   1.756
 3511SOL    HW111432   2.037   4.138   1.774
 3511SOL    HW211433   2.170   4.109   1.682
 3512SOL     OW11434   0.218   4.534   0.222
 3512SOL    HW111435   0.216   4.460   0.289
 3512SOL    HW211436   0.298   4.524   0.163
 3513SOL     OW11437   5.807   1.996   0.642
 3513SOL    HW111438   5.875   2.066   0.667
 3513SOL    HW211439   5.846   1.905   0.656
 3514SOL     OW11440   0.113   0.739   2.004
 3514SOL    HW111441   0.164   0.747   1.918
 3514SOL    HW211442   0.155   0.799   2.072
 3515SOL     OW11443   4.332   6.333   2.576
 3515SOL    HW111444   4.357   6.416   2.626
 3515SOL    HW211445   4.366   6.339   2.483
 3516SOL     OW11446   4.895   0.020   0.767
 3516SOL    HW111447   4.797   0.010   0.778
 3516SOL    HW211448   4.919   0.013   0.670
 3517SOL     OW11449   0.213   1.507   1.566
 3517SOL    HW111450   0.297   1.535   1.518
 3517SOL    HW211451   0.220   1.532   1.663
 3518SOL     OW11452   5.462   2.715   5.218
 3518SOL    HW111453   5.479   2.779   5.293
 3518SOL    HW211454   5.394   2.754   5.156
 3519SOL     OW11455   1.397   0.285   5.687
 3519SOL    HW111456   1.403   0.233   5.602
 3519SOL    HW211457   1.309   0.267   5.731
 3520SOL     OW11458   3.262   5.734   0.045
 3520SOL    HW111459   3.219   5.768   6.991
 3520SOL    HW211460   3.204   5.753   0.124
 3521SOL     OW11461   4.745   2.712   0.259
 3521SOL    HW111462   4.734   2.793   0.316
 3521SOL    HW211463   4.665   2.700   0.201
 3522SOL     OW11464   0.257   5.305   0.629
 3522SOL    HW111465   0.304   5.225   0.666
 3522SOL    HW211466   0.268   5.308   0.530
 3523SOL     OW11467   1.522   4.725   5.021
 3523SOL    HW111468   1.513   4.630   5.050
 3523SOL    HW211469   1.618   4.746   5.004
 3524SOL     OW11470   4.448   1.401   1.509
 3524SOL    HW111471   4.483   1.495   1.510
 3524SOL    HW211472   4.389   1.387   1.589
 3525SOL     OW11473   6.579   4.362   3.537
 3525SOL    HW111474   6.519   4.423   3.485
 3525SOL    HW211475   6.535   4.273   3.546
 3526SOL     OW11476   1.802   6.766   3.929
 3526SOL    HW111477   1.815   6.709   3.848
 3526SOL    HW211478   1.889   6.810   3.952
 3527SOL     OW11479   5.591   3.104   6.432
 3527SOL    HW111480   5.650   3.060   6.364
 3527SOL    HW211481   5.499   3.115   6.394
 3528SOL     OW11482   1.373   6.661   5.330
 3528SOL    HW111483   1.334   6.704   5.249
 3528SOL    HW211484   1.430   6.583   5.302
 3529SOL     OW11485   4.295   7.020   0.606
 3529SOL    HW111486   4.268   7.017   0.510
 3529SOL    HW211487   4.252   0.069   0.651
 3530SOL     OW11488   6.499   6.129   1.116
 3530SOL    HW111489   6.425   6.100   1.176
 3530SOL    HW211490   6.550   6.048   1.084
 3531SOL     OW11491   4.837   2.230   0.958
 3531SOL    HW111492   4.764   2.296   0.976
 3531SOL    HW211493   4.807   2.165   0.888
 3532SOL     OW11494   2.577   0.160   1.898
 3532SOL    HW111495   2.539   0.200   1.814
 3532SOL    HW211496   2.663   0.205   1.920
 3533SOL     OW11497   0.699   1.449   2.872
 3533SOL    HW111498   0.656   1.537   2.850
 3533SOL    HW211499   0.733   1.407   2.787
 3534SOL     OW11500   0.655   1.883   0.845
 3534SOL    HW111501   0.581   1.822   0.872
 3534SOL    HW211502   0.716   1.898   0.923
 3535SOL     OW11503   2.112   5.261   6.432
 3535SOL    HW111504   2.091   5.180   6.377
 3535SOL    HW211505   2.031   5.320   6.437
 3536SOL     OW11506   3.661   1.759   2.879
 3536SOL    HW111507   3.745   1.809   2.902
 3536SOL    HW211508   3.587   1.824   2.862
 3537SOL     OW11509   2.409   5.387   2.723
 3537SOL    HW111510   2.353   5.440   2.660
 3537SOL    HW211511   2.506   5.399   2.700
 3538SOL     OW11512   2.079   6.735   5.518
 3538SOL    HW111513   2.125   6.738   5.607
 3538SOL    HW211514   2.138   6.776   5.448
 3539SOL     OW11515   3.576   2.791   5.126
 3539SOL    HW111516   3.624   2.731   5.061
 3539SOL    HW211517   3.520   2.856   5.075
 3540SOL     OW11518   1.835   2.550   4.894
 3540SOL    HW111519   1.869   2.479   4.832
 3540SOL    HW211520   1.876   2.539   4.984
 3541SOL     OW11521   2.302   2.846   6.150
 3541SOL    HW111522   2.380   2.818   6.206
 3541SOL    HW211523   2.232   2.775   6.152
 3542SOL     OW11524   1.400   5.400   3.464
 3542SOL    HW111525   1.404   5.300   3.461
 3542SOL    HW211526   1.354   5.429   3.548
 3543SOL     OW11527   0.670   2.550   5.069
 3543SOL    HW111528   0.750   2.536   5.010
 3543SOL    HW211529   0.587   2.534   5.016
 3544SOL     OW11530   1.767   4.178   5.549
 3544SOL    HW111531   1.799   4.153   5.457
 3544SOL    HW211532   1.719   4.100   5.590
 3545SOL     OW11533   4.298   5.522   7.012
 3545SOL    HW111534   4.298   5.455   0.057
 3545SOL    HW211535   4.325   5.611   0.020
 3546SOL     OW11536   1.817   4.326   3.881
 3546SOL    HW111537   1.882   4.380   3.827
 3546SOL    HW211538   1.726   4.334   3.840
 3547SOL     OW11539   6.660   4.481   3.763
 3547SOL    HW111540   6.634   4.434   3.678
 3547SOL    HW211541   6.745   4.532   3.747
 3548SOL     OW11542   6.045   1.754   5.973
 3548SOL    HW111543   6.035   1.700   5.890
 3548SOL    HW211544   6.046   1.851   5.950
 3549SOL     OW11545   6.551   4.875   5.687
 3549SOL    HW111546   6.651   4.875   5.678
 3549SOL    HW211547   6.510   4.903   5.600
 3550SOL     OW11548   5.853   2.421   2.495
 3550SOL    HW111549   5.878   2.332   2.458
 3550SOL    HW211550   5.936   2.470   2.523
 3551SOL     OW11551   3.725   0.034   2.727
 3551SOL    HW111552   3.811   0.049   2.678
 3551SOL    HW211553   3.742   7.007   2.808
 3552SOL     OW11554   5.357   6.241   1.207
 3552SOL    HW111555   5.311   6.231   1.295
 3552SOL    HW211556   5.362   6.152   1.162
 3553SOL     OW11557   5.594   3.855   1.543
 3553SOL    HW111558   5.523   3.794   1.509
 3553SOL    HW211559   5.565   3.895   1.630
 3554SOL     OW11560   3.752   2.842   1.004
 3554SOL    HW111561   3.778   2.875   0.913
 3554SOL    HW211562   3.828   2.856   1.067
 3555SOL     OW11563   1.204   3.829   3.028
 3555SOL    HW111564   1.120   3.824   2.974
 3555SOL    HW211565   1.270   3.888   2.980
 3556SOL     OW11566   4.764   0.782   3.877
 3556SOL    HW111567   4.752   0.714   3.949
 3556SOL    HW211568   4.716   0.752   3.794
 3557SOL     OW11569   1.121   0.175   4.174
 3557SOL    HW111570   1.195   0.171   4.106
 3557SOL    HW211571   1.140   0.249   4.239
 3558SOL     OW11572   1.140   5.610   0.788
 3558SOL    HW111573   1.211   5.628   0.856
 3558SOL    HW211574   1.172   5.540   0.725
 3559SOL     OW11575   0.670   6.930   4.557
 3559SOL    HW111576   0.728   6.900   4.633
 3559SOL    HW211577   0.698   6.884   4.473
 3560SOL     OW11578   1.375   5.664   1.272
 3560SOL    HW111579   1.453   5.694   1.217
 3560SOL    HW211580   1.380   5.566   1.287
 3561SOL     OW11581   3.934   4.831   5.392
 3561SOL    HW111582   3.937   4.856   5.488
 3561SOL    HW211583   3.961   4.735   5.382
 3562SOL     OW11584   5.772   0.850   4.287
 3562SOL    HW111585   5.871   0.853   4.273
 3562SOL    HW211586   5.740   0.937   4.324
 3563SOL     OW11587   5.769   0.746   1.233
 3563SOL    HW111588   5.743   0.840   1.255
 3563SOL    HW211589   5.750   0.687   1.311
 3564SOL     OW11590   1.826   4.570   4.086
 3564SOL    HW111591   1.774   4.549   4.004
 3564SOL    HW211592   1.858   4.485   4.128
 3565SOL     OW11593   3.596   6.453   5.516
 3565SOL    HW111594   3.545   6.536   5.536
 3565SOL    HW211595   3.547   6.399   5.447
 3566SOL     OW11596   6.636   3.074   6.534
 3566SOL    HW111597   6.711   3.009   6.549
 3566SOL    HW211598   6.645   3.151   6.598
 3567SOL     OW11599   1.086   3.068   6.973
 3567SOL    HW111600   1.137   3.126   0.008
 3567SOL    HW211601   1.005   3.031   7.019
 3568SOL     OW11602   5.273   6.392   4.007
 3568SOL    HW111603   5.200   6.449   3.970
 3568SOL    HW211604   5.351   6.392   3.944
 3569SOL     OW11605   3.242   2.477   6.417
 3569SOL    HW111606   3.216   2.563   6.461
 3569SOL    HW211607   3.341   2.465   6.424
 3570SOL     OW11608   5.551   0.561   4.715
 3570SOL    HW111609   5.637   0.529   4.675
 3570SOL    HW211610   5.479   0.495   4.697
 3571SOL     OW11611   2.425   0.794   4.869
 3571SOL    HW111612   2.422   0.782   4.968
 3571SOL    HW211613   2.368   0.872   4.844
 3572SOL     OW11614   5.542   3.871   2.704
 3572SOL    HW111615   5.510   3.780   2.729
 3572SOL    HW211616   5.483   3.909   2.633
 3573SOL     OW11617   5.938   3.831   2.595
 3573SOL    HW111618   5.897   3.864   2.680
 3573SOL    HW211619   5.868   3.823   2.525
 3574SOL     OW11620   1.232   3.668   0.343
 3574SOL    HW111621   1.265   3.583   0.385
 3574SOL    HW211622   1.141   3.689   0.379
 3575SOL     OW11623   4.814   5.894   1.892
 3575SOL    HW111624   4.829   5.808   1.843
 3575SOL    HW211625   4.868   5.893   1.977
 3576SOL     OW11626   0.611   1.877   0.584
 3576SOL    HW111627   0.526   1.825   0.576
 3576SOL    HW211628   0.627   1.900   0.680
 3577SOL     OW11629   2.134   3.149   6.800
 3577SOL    HW111630   2.158   3.056   6.830
 3577SOL    HW211631   2.191   3.175   6.722
 3578SOL     OW11632   4.944   1.841   1.159
 3578SOL    HW111633   5.019   1.902   1.133
 3578SOL    HW211634   4.893   1.882   1.234
 3579SOL     OW11635   6.737   3.023   2.452
 3579SOL    HW111636   6.702   3.104   2.405
 3579SOL    HW211637   6.835   3.033   2.467
 3580SOL     OW11638   6.258   2.882   0.228
 3580SOL    HW111639   6.214   2.793   0.231
 3580SOL    HW211640   6.289   2.901   0.135
 3581SOL     OW11641   0.380   6.046   2.807
 3581SOL    HW111642   0.366   6.075   2.902
 3581SOL    HW211643   0.477   6.027   2.792
 3582SOL     OW11644   2.080   5.043   5.805
 3582SOL    HW111645   2.178   5.031   5.796
 3582SOL    HW211646   2.047   4.993   5.885
 3583SOL     OW11647   1.261   4.835   0.144
 3583SOL    HW111648   1.280   4.822   0.241
 3583SOL    HW211649   1.227   4.749   0.105
 3584SOL     OW11650   5.490   4.815   5.628
 3584SOL    HW111651   5.499   4.853   5.720
 3584SOL    HW211652   5.550   4.735   5.619
 3585SOL     OW11653   3.121   2.025   5.045
 3585SOL    HW111654   3.149   2.119   5.024
 3585SOL    HW211655   3.125   2.011   5.144
 3586SOL     OW11656   0.039   2.564   5.148
 3586SOL    HW111657   6.982   2.535   5.189
 3586SOL    HW211658   0.056   2.512   5.065
 3587SOL     OW11659   2.843   5.436   6.293
 3587SOL    HW111660   2.918   5.400   6.237
 3587SOL    HW211661   2.762   5.379   6.281
 3588SOL     OW11662   6.581   2.929   5.051
 3588SOL    HW111663   6.538   3.014   5.022
 3588SOL    HW211664   6.681   2.937   5.044
 3589SOL     OW11665   6.172   7.019   6.869
 3589SOL    HW111666   6.073   7.020   6.854
 3589SOL    HW211667   6.217   0.043   6.797
 3590SOL     OW11668   0.397   3.868   0.054
 3590SOL    HW111669   0.429   3.852   6.989
 3590SOL    HW211670   0.378   3.965   0.067
 3591SOL     OW11671   5.743   3.708   0.759
 3591SOL    HW111672   5.759   3.636   0.691
 3591SOL    HW211673   5.828   3.727   0.808
 3592SOL     OW11674   0.467   0.067   3.091
 3592SOL    HW111675   0.562   0.052   3.064
 3592SOL    HW211676   0.451   0.165   3.101
 3593SOL     OW11677   0.663   4.393   5.974
 3593SOL    HW111678   0.752   4.383   6.018
 3593SOL    HW211679   0.676   4.409   5.876
 3594SOL     OW11680   5.344   0.582   4.208
 3594SOL    HW111681   5.344   0.570   4.307
 3594SOL    HW211682   5.290   0.510   4.166
 3595SOL     OW11683   5.235   5.491   6.245
 3595SOL    HW111684   5.201   5.408   6.202
 3595SOL    HW211685   5.174   5.518   6.320
 3596SOL     OW11686   4.783   2.832   3.809
 3596SOL    HW111687   4.712   2.788   3.754
 3596SOL    HW211688   4.779   2.796   3.903
 3597SOL     OW11689   1.992   2.998   5.396
 3597SOL    HW111690   1.964   2.927   5.460
 3597SOL    HW211691   2.069   2.966   5.342
 3598SOL     OW11692   1.924   6.533   5.250
 3598SOL    HW111693   2.019   6.540   5.278
 3598SOL    HW211694   1.909   6.583   5.165
 3599SOL     OW11695   4.340   1.948   0.038
 3599SOL    HW111696   4.335   1.870   7.003
 3599SOL    HW211697   4.435   1.977   0.047
 3600SOL     OW11698   0.694   3.705   2.174
 3600SOL    HW111699   0.668   3.608   2.170
 3600SOL    HW211700   0.786   3.713   2.213
 3601SOL     OW11701   5.245   2.461   6.199
 3601SOL    HW111702   5.264   2.369   6.164
 3601SOL    HW211703   5.149   2.467   6.225
 3602SOL     OW11704   1.216   3.359   0.782
 3602SOL    HW111705   1.226   3.445   0.731
 3602SOL    HW211706   1.142   3.369   0.850
 3603SOL     OW11707   3.480   1.099   4.893
 3603SOL    HW111708   3.434   1.049   4.967
 3603SOL    HW211709   3.428   1.087   4.808
 3604SOL     OW11710   6.439   0.759   3.961
 3604SOL    HW111711   6.370   0.814   3.915
 3604SOL    HW211712   6.528   0.773   3.918
 3605SOL     OW11713   0.855   4.749   3.958
 3605SOL    HW111714   0.904   4.733   4.044
 3605SOL    HW211715   0.810   4.664   3.930
 3606SOL     OW11716   1.093   6.584   3.252
 3606SOL    HW111717   1.112   6.508   3.191
 3606SOL    HW211718   1.057   6.549   3.339
 3607SOL     OW11719   5.465   3.499   2.041
 3607SOL    HW111720   5.422   3.481   1.952
 3607SOL    HW211721   5.494   3.412   2.082
 3608SOL     OW11722   4.849   1.595   4.291
 3608SOL    HW111723   4.778   1.553   4.235
 3608SOL    HW211724   4.934   1.603   4.239
 3609SOL     OW11725   2.255   0.173   4.306
 3609SOL    HW111726   2.247   0.270   4.284
 3609SOL    HW211727   2.336   0.157   4.362
 3610SOL     OW11728   1.425   0.772   5.539
 3610SOL    HW111729   1.518   0.808   5.527
 3610SOL    HW211730   1.430   0.683   5.584
 3611SOL     OW11731   4.077   4.803   3.906
 3611SOL    HW111732   4.124   4.777   3.821
 3611SOL    HW211733   4.129   4.771   3.984
 3612SOL     OW11734   6.802   1.171   6.903
 3612SOL    HW111735   6.754   1.238   6.961
 3612SOL    HW211736   6.839   1.099   6.961
 3613SOL     OW11737   4.377   4.867   1.714
 3613SOL    HW111738   4.313   4.934   1.751
 3613SOL    HW211739   4.455   4.858   1.777
 3614SOL     OW11740   2.954   3.636   0.254
 3614SOL    HW111741   2.994   3.660   0.343
 3614SOL    HW211742   3.026   3.606   0.192
 3615SOL     OW11743   5.686   2.518   6.351
 3615SOL    HW111744   5.771   2.542   6.398
 3615SOL    HW211745   5.620   2.592   6.362
 3616SOL     OW11746   1.558   0.679   6.337
 3616SOL    HW111747   1.487   0.610   6.350
 3616SOL    HW211748   1.617   0.652   6.261
 3617SOL     OW11749   4.108   0.559   6.167
 3617SOL    HW111750   4.115   0.461   6.147
 3617SOL    HW211751   4.100   0.610   6.081
 3618SOL     OW11752   2.630   3.380   5.334
 3618SOL    HW111753   2.538   3.345   5.318
 3618SOL    HW211754   2.696   3.305   5.331
 3619SOL     OW11755   5.569   3.359   0.041
 3619SOL    HW111756   5.597   3.275   7.023
 3619SOL    HW211757   5.572   3.435   7.004
 3620SOL     OW11758   5.968   5.445   5.532
 3620SOL    HW111759   5.919   5.491   5.607
 3620SOL    HW211760   5.945   5.348   5.532
 3621SOL     OW11761   3.285   3.595   4.692
 3621SOL    HW111762   3.323   3.686   4.679
 3621SOL    HW211763   3.324   3.554   4.775
 3622SOL     OW11764   1.908   0.540   0.431
 3622SOL    HW111765   1.837   0.611   0.436
 3622SOL    HW211766   1.945   0.523   0.522
 3623SOL     OW11767   0.137   5.605   5.118
 3623SOL    HW111768   0.202   5.533   5.142
 3623SOL    HW211769   0.044   5.568   5.123
 3624SOL     OW11770   1.539   6.907   2.471
 3624SOL    HW111771   1.628   6.912   2.427
 3624SOL    HW211772   1.495   6.821   2.449
 3625SOL     OW11773   0.100   3.531   6.630
 3625SOL    HW111774   0.110   3.557   6.534
 3625SOL    HW211775   0.156   3.451   6.649
 3626SOL     OW11776   0.618   3.270   3.851
 3626SOL    HW111777   0.702   3.222   3.824
 3626SOL    HW211778   0.605   3.262   3.949
 3627SOL     OW11779   4.780   3.317   1.779
 3627SOL    HW111780   4.853   3.249   1.778
 3627SOL    HW211781   4.698   3.278   1.820
 3628SOL     OW11782   1.625   1.117   2.131
 3628SOL    HW111783   1.719   1.101   2.100
 3628SOL    HW211784   1.578   1.029   2.139
 3629SOL     OW11785   1.066   0.495   4.567
 3629SOL    HW111786   1.114   0.471   4.482
 3629SOL    HW211787   1.104   0.580   4.603
 3630SOL     OW11788   6.409   2.819   3.778
 3630SOL    HW111789   6.375   2.737   3.824
 3630SOL    HW211790   6.378   2.900   3.827
 3631SOL     OW11791   1.640   6.849   3.664
 3631SOL    HW111792   1.703   6.919   3.697
 3631SOL    HW211793   1.639   6.850   3.564
 3632SOL     OW11794   4.517   4.254   0.064
 3632SOL    HW111795   4.614   4.230   0.055
 3632SOL    HW211796   4.483   4.221   0.153
 3633SOL     OW11797   4.268   2.848   5.767
 3633SOL    HW111798   4.320   2.896   5.697
 3633SOL    HW211799   4.330   2.806   5.833
 3634SOL     OW11800   2.106   6.532   6.122
 3634SOL    HW111801   2.075   6.566   6.032
 3634SOL    HW211802   2.044   6.566   6.193
 3635SOL     OW11803   2.087   1.380   0.775
 3635SOL    HW111804   2.074   1.470   0.815
 3635SOL    HW211805   2.184   1.356   0.776
 3636SOL     OW11806   0.263   6.068   1.165
 3636SOL    HW111807   0.257   6.053   1.264
 3636SOL    HW211808   0.259   5.981   1.118
 3637SOL     OW11809   0.646   3.136   1.162
 3637SOL    HW111810   0.623   3.226   1.199
 3637SOL    HW211811   0.571   3.104   1.104
 3638SOL     OW11812   6.691   3.932   2.715
 3638SOL    HW111813   6.773   3.968   2.672
 3638SOL    HW211814   6.650   4.003   2.772
 3639SOL     OW11815   3.623   4.610   6.325
 3639SOL    HW111816   3.670   4.531   6.363
 3639SOL    HW211817   3.551   4.640   6.388
 3640SOL     OW11818   5.347   1.731   0.749
 3640SOL    HW111819   5.405   1.812   0.738
 3640SOL    HW211820   5.388   1.670   0.816
 3641SOL     OW11821   5.374   4.209   1.061
 3641SOL    HW111822   5.392   4.294   1.111
 3641SOL    HW211823   5.283   4.212   1.021
 3642SOL     OW11824   5.016   2.188   6.851
 3642SOL    HW111825   5.111   2.211   6.875
 3642SOL    HW211826   4.984   2.113   6.910
 3643SOL     OW11827   4.252   6.484   6.071
 3643SOL    HW111828   4.230   6.528   5.984
 3643SOL    HW211829   4.240   6.550   6.145
 3644SOL     OW11830   2.880   0.474   1.519
 3644SOL    HW111831   2.890   0.558   1.574
 3644SOL    HW211832   2.783   0.461   1.497
 3645SOL     OW11833   1.413   3.732   4.378
 3645SOL    HW111834   1.323   3.699   4.349
 3645SOL    HW211835   1.408   3.766   4.472
 3646SOL     OW11836   1.826   4.895   4.692
 3646SOL    HW111837   1.853   4.814   4.641
 3646SOL    HW211838   1.907   4.938   4.732
 3647SOL     OW11839   2.707   5.999   6.628
 3647SOL    HW111840   2.679   6.027   6.720
 3647SOL    HW211841   2.706   5.900   6.622
 3648SOL     OW11842   4.835   6.043   2.938
 3648SOL    HW111843   4.824   6.026   3.036
 3648SOL    HW211844   4.746   6.042   2.893
 3649SOL     OW11845   6.181   4.001   0.276
 3649SOL    HW111846   6.111   4.052   0.226
 3649SOL    HW211847   6.261   3.988   0.218
 3650SOL     OW11848   5.878   4.287   0.810
 3650SOL    HW111849   5.904   4.196   0.778
 3650SOL    HW211850   5.957   4.333   0.850
 3651SOL     OW11851   1.887   1.512   4.585
 3651SOL    HW111852   1.892   1.500   4.486
 3651SOL    HW211853   1.792   1.502   4.615
 3652SOL     OW11854   5.748   0.288   2.668
 3652SOL    HW111855   5.779   0.382   2.682
 3652SOL    HW211856   5.827   0.228   2.656
 3653SOL     OW11857   1.582   0.939   3.288
 3653SOL    HW111858   1.534   0.966   3.204
 3653SOL    HW211859   1.552   0.847   3.315
 3654SOL     OW11860   5.078   6.163   0.607
 3654SOL    HW111861   5.149   6.093   0.622
 3654SOL    HW211862   5.107   6.249   0.649
 3655SOL     OW11863   3.187   1.240   3.920
 3655SOL    HW111864   3.179   1.149   3.962
 3655SOL    HW211865   3.121   1.302   3.962
 3656SOL     OW11866   1.287   5.162   1.250
 3656SOL    HW111867   1.268   5.065   1.243
 3656SOL    HW211868   1.226   5.203   1.318
 3657SOL     OW11869   4.843   5.690   5.211
 3657SOL    HW111870   4.827   5.787   5.227
 3657SOL    HW211871   4.825   5.668   5.115
 3658SOL     OW11872   1.671   4.674   6.533
 3658SOL    HW111873   1.722   4.722   6.604
 3658SOL    HW211874   1.733   4.644   6.461
 3659SOL     OW11875   0.713   1.763   6.693
 3659SOL    HW111876   0.795   1.819   6.684
 3659SOL    HW211877   0.658   1.770   6.611
 3660SOL     OW11878   6.176   6.139   5.117
 3660SOL    HW111879   6.173   6.092   5.029
 3660SOL    HW211880   6.208   6.233   5.103
 3661SOL     OW11881   0.401   0.594   4.445
 3661SOL    HW111882   0.339   0.521   4.419
 3661SOL    HW211883   0.486   0.555   4.482
 3662SOL     OW11884   3.705   0.882   4.495
 3662SOL    HW111885   3.780   0.928   4.448
 3662SOL    HW211886   3.690   0.924   4.584
 3663SOL     OW11887   2.169   2.902   6.926
 3663SOL    HW111888   2.103   2.872   6.995
 3663SOL    HW211889   2.249   2.843   6.927
 3664SOL     OW11890   3.689   1.589   1.869
 3664SOL    HW111891   3.667   1.545   1.782
 3664SOL    HW211892   3.708   1.520   1.938
 3665SOL     OW11893   0.773   5.931   5.787
 3665SOL    HW111894   0.684   5.933   5.741
 3665SOL    HW211895   0.796   5.837   5.810
 3666SOL     OW11896   1.068   3.203   3.171
 3666SOL    HW111897   1.098   3.214   3.076
 3666SOL    HW211898   1.122   3.132   3.215
 3667SOL     OW11899   0.953   1.377   3.981
 3667SOL    HW111900   1.028   1.422   3.931
 3667SOL    HW211901   0.892   1.332   3.917
 3668SOL     OW11902   1.104   0.440   0.850
 3668SOL    HW111903   1.071   0.361   0.902
 3668SOL    HW211904   1.168   0.492   0.907
 3669SOL     OW11905   5.865   1.698   4.020
 3669SOL    HW111906   5.789   1.633   4.023
 3669SOL    HW211907   5.924   1.677   3.942
 3670SOL     OW11908   3.058   4.952   1.023
 3670SOL    HW111909   3.075   4.932   0.927
 3670SOL    HW211910   3.046   4.867   1.074
 3671SOL     OW11911   6.670   1.416   2.798
 3671SOL    HW111912   6.616   1.334   2.778
 3671SOL    HW211913   6.617   1.478   2.855
 3672SOL     OW11914   4.716   1.546   2.774
 3672SOL    HW111915   4.772   1.516   2.697
 3672SOL    HW211916   4.764   1.618   2.824
 3673SOL     OW11917   4.140   5.284   0.129
 3673SOL    HW111918   4.193   5.313   0.209
 3673SOL    HW211919   4.197   5.226   0.071
 3674SOL     OW11920   1.397   6.107   5.713
 3674SOL    HW111921   1.370   6.012   5.729
 3674SOL    HW211922   1.484   6.109   5.663
 3675SOL     OW11923   0.129   3.080   3.475
 3675SOL    HW111924   0.177   3.037   3.551
 3675SOL    HW211925   0.192   3.142   3.427
 3676SOL     OW11926   5.508   2.589   2.931
 3676SOL    HW111927   5.471   2.561   3.020
 3676SOL    HW211928   5.604   2.560   2.925
 3677SOL     OW11929   2.321   0.967   5.159
 3677SOL    HW111930   2.224   0.987   5.144
 3677SOL    HW211931   2.377   1.041   5.121
 3678SOL     OW11932   1.280   1.871   4.554
 3678SOL    HW111933   1.285   1.957   4.505
 3678SOL    HW211934   1.217   1.880   4.631
 3679SOL     OW11935   6.785   0.152   3.681
 3679SOL    HW111936   6.766   0.056   3.663
 3679SOL    HW211937   6.742   0.179   3.768
 3680SOL     OW11938   4.422   2.422   3.803
 3680SOL    HW111939   4.450   2.327   3.817
 3680SOL    HW211940   4.326   2.425   3.774
 3681SOL     OW11941   0.380   1.141   5.846
 3681SOL    HW111942   0.309   1.203   5.814
 3681SOL    HW211943   0.437   1.188   5.914
 3682SOL     OW11944   5.279   2.284   0.941
 3682SOL    HW111945   5.293   2.190   0.910
 3682SOL    HW211946   5.365   2.322   0.974
 3683SOL     OW11947   0.603   0.926   4.781
 3683SOL    HW111948   0.677   0.993   4.773
 3683SOL    HW211949   0.601   0.888   4.873
 3684SOL     OW11950   1.860   6.385   0.167
 3684SOL    HW111951   1.800   6.393   0.087
 3684SOL    HW211952   1.918   6.304   0.157
 3685SOL     OW11953   2.402   6.166   5.035
 3685SOL    HW111954   2.414   6.232   5.109
 3685SOL    HW211955   2.486   6.161   4.981
 3686SOL     OW11956   6.705   4.466   4.232
 3686SOL    HW111957   6.667   4.436   4.145
 3686SOL    HW211958   6.797   4.503   4.217
 3687SOL     OW11959   5.325   6.825   3.276
 3687SOL    HW111960   5.282   6.759   3.337
 3687SOL    HW211961   5.387   6.778   3.214
 3688SOL     OW11962   5.854   3.163   0.239
 3688SOL    HW111963   5.888   3.185   0.330
 3688SOL    HW211964   5.785   3.091   0.246
 3689SOL     OW11965   2.172   1.898   5.633
 3689SOL    HW111966   2.256   1.949   5.649
 3689SOL    HW211967   2.100   1.932   5.694
 3690SOL     OW11968   4.775   5.782   0.741
 3690SOL    HW111969   4.802   5.814   0.651
 3690SOL    HW211970   4.676   5.793   0.752
 3691SOL     OW11971   2.428   2.156   6.144
 3691SOL    HW111972   2.519   2.193   6.165
 3691SOL    HW211973   2.438   2.080   6.079
 3692SOL     OW11974   6.516   4.496   6.071
 3692SOL    HW111975   6.416   4.497   6.079
 3692SOL    HW211976   6.546   4.579   6.024
 3693SOL     OW11977   1.470   2.326   2.767
 3693SOL    HW111978   1.456   2.251   2.703
 3693SOL    HW211979   1.551   2.378   2.741
 3694SOL     OW11980   1.207   0.300   1.358
 3694SOL    HW111981   1.174   0.223   1.412
 3694SOL    HW211982   1.209   0.274   1.261
 3695SOL     OW11983   6.121   1.960   1.857
 3695SOL    HW111984   6.169   2.036   1.814
 3695SOL    HW211985   6.179   1.879   1.856
 3696SOL     OW11986   5.113   0.580   5.705
 3696SOL    HW111987   5.045   0.558   5.775
 3696SOL    HW211988   5.163   0.497   5.679
 3697SOL     OW11989   6.102   6.189   3.198
 3697SOL    HW111990   6.197   6.218   3.208
 3697SOL    HW211991   6.093   6.094   3.228
 3698SOL     OW11992   2.600   1.437   3.571
 3698SOL    HW111993   2.688   1.423   3.617
 3698SOL    HW211994   2.582   1.535   3.562
 3699SOL     OW11995   2.121   1.935   3.549
 3699SOL    HW111996   2.024   1.944   3.525
 3699SOL    HW211997   2.174   2.003   3.500
 3700SOL     OW11998   1.570   5.499   4.923
 3700SOL    HW111999   1.669   5.510   4.924
 3700SOL    HW212000   1.542   5.458   4.835
 3701SOL     OW12001   0.377   6.526   2.349
 3701SOL    HW112002   0.401   6.591   2.421
 3701SOL    HW212003   0.438   6.539   2.270
 3702SOL     OW12004   5.256   6.596   3.437
 3702SOL    HW112005   5.185   6.525   3.441
 3702SOL    HW212006   5.337   6.559   3.392
 3703SOL     OW12007   0.442   0.768   6.409
 3703SOL    HW112008   0.534   0.761   6.449
 3703SOL    HW212009   0.446   0.826   6.328
 3704SOL     OW12010   5.519   3.562   0.872
 3704SOL    HW112011   5.574   3.501   0.929
 3704SOL    HW212012   5.579   3.611   0.808
 3705SOL     OW12013   4.668   4.963   3.687
 3705SOL    HW112014   4.748   5.023   3.687
 3705SOL    HW212015   4.612   4.980   3.606
 3706SOL     OW12016   0.945   3.994   6.951
 3706SOL    HW112017   0.959   4.031   6.859
 3706SOL    HW212018   0.918   4.068   7.013
 3707SOL     OW12019   4.147   5.496   3.719
 3707SOL    HW112020   4.169   5.402   3.745
 3707SOL    HW212021   4.048   5.509   3.723
 3708SOL     OW12022   4.544   0.058   1.382
 3708SOL    HW112023   4.451   0.095   1.390
 3708SOL    HW212024   4.584   0.049   1.474
 3709SOL     OW12025   1.975   6.932   1.577
 3709SOL    HW112026   1.996   6.938   1.480
 3709SOL    HW212027   2.059   6.910   1.628
 3710SOL     OW12028   0.476   5.571   5.337
 3710SOL    HW112029   0.454   5.495   5.275
 3710SOL    HW212030   0.566   5.556   5.377
 3711SOL     OW12031   1.651   5.963   4.691
 3711SOL    HW112032   1.618   5.894   4.626
 3711SOL    HW212033   1.593   5.964   4.772
 3712SOL     OW12034   2.169   6.054   6.355
 3712SOL    HW112035   2.132   6.024   6.267
 3712SOL    HW212036   2.250   6.000   6.378
 3713SOL     OW12037   0.231   6.721   4.909
 3713SOL    HW112038   0.320   6.747   4.873
 3713SOL    HW212039   0.165   6.794   4.892
 3714SOL     OW12040   0.424   5.134   6.685
 3714SOL    HW112041   0.349   5.200   6.681
 3714SOL    HW212042   0.502   5.175   6.733
 3715SOL     OW12043   0.469   5.090   3.064
 3715SOL    HW112044   0.419   5.169   3.028
 3715SOL    HW212045   0.560   5.119   3.095
 3716SOL     OW12046   5.971   5.283   4.097
 3716SOL    HW112047   5.930   5.361   4.049
 3716SOL    HW212048   6.033   5.316   4.167
 3717SOL     OW12049   5.669   1.351   0.385
 3717SOL    HW112050   5.735   1.412   0.341
 3717SOL    HW212051   5.620   1.299   0.315
 3718SOL     OW12052   0.808   0.097   6.805
 3718SOL    HW112053   0.719   0.116   6.845
 3718SOL    HW212054   0.817   7.027   6.787
 3719SOL     OW12055   4.405   3.051   6.606
 3719SOL    HW112056   4.370   3.142   6.627
 3719SOL    HW212057   4.491   3.059   6.554
 3720SOL     OW12058   5.325   3.753   0.785
 3720SOL    HW112059   5.375   3.666   0.791
 3720SOL    HW212060   5.288   3.776   0.875
 3721SOL     OW12061   6.686   5.086   6.964
 3721SOL    HW112062   6.611   5.083   6.898
 3721SOL    HW212063   6.670   5.017   0.006
 3722SOL     OW12064   4.851   6.995   1.607
 3722SOL    HW112065   4.813   7.023   1.695
 3722SOL    HW212066   4.950   7.013   1.606
 3723SOL     OW12067   4.645   5.150   6.978
 3723SOL    HW112068   4.631   5.170   0.047
 3723SOL    HW212069   4.614   5.227   6.923
 3724SOL     OW12070   1.908   4.833   5.398
 3724SOL    HW112071   1.918   4.902   5.326
 3724SOL    HW212072   1.812   4.809   5.409
 3725SOL     OW12073   0.395   6.278   6.897
 3725SOL    HW112074   0.332   6.323   6.832
 3725SOL    HW212075   0.383   6.179   6.891
 3726SOL     OW12076   5.461   3.513   5.404
 3726SOL    HW112077   5.497   3.605   5.418
 3726SOL    HW212078   5.364   3.517   5.382
 3727SOL     OW12079   6.831   2.991   4.566
 3727SOL    HW112080   6.881   3.056   4.624
 3727SOL    HW212081   6.766   3.041   4.510
 3728SOL     OW12082   2.465   3.957   0.021
 3728SOL    HW112083   2.485   3.862   7.026
 3728SOL    HW212084   2.429   4.004   6.970
 3729SOL     OW12085   0.607   0.427   4.196
 3729SOL    HW112086   0.555   0.506   4.164
 3729SOL    HW212087   0.550   0.346   4.194
 3730SOL     OW12088   4.047   6.206   5.628
 3730SOL    HW112089   3.971   6.271   5.624
 3730SOL    HW212090   4.086   6.204   5.720
 3731SOL     OW12091   0.609   1.466   0.412
 3731SOL    HW112092   0.669   1.392   0.443
 3731SOL    HW212093   0.515   1.446   0.439
 3732SOL     OW12094   1.868   1.328   0.629
 3732SOL    HW112095   1.783   1.370   0.662
 3732SOL    HW212096   1.946   1.370   0.675
 3733SOL     OW12097   2.173   2.810   3.516
 3733SOL    HW112098   2.221   2.725   3.541
 3733SOL    HW212099   2.214   2.847   3.432
 3734SOL     OW12100   3.813   0.882   1.803
 3734SOL    HW112101   3.791   0.864   1.899
 3734SOL    HW212102   3.759   0.821   1.745
 3735SOL     OW12103   3.963   0.645   2.479
 3735SOL    HW112104   3.986   0.551   2.453
 3735SOL    HW212105   3.974   0.706   2.400
 3736SOL     OW12106   6.476   0.884   1.386
 3736SOL    HW112107   6.407   0.868   1.316
 3736SOL    HW212108   6.477   0.808   1.450
 3737SOL     OW12109   6.031   2.368   4.100
 3737SOL    HW112110   5.995   2.378   4.007
 3737SOL    HW212111   6.123   2.329   4.096
 3738SOL     OW12112   6.336   5.739   0.919
 3738SOL    HW112113   6.275   5.817   0.904
 3738SOL    HW212114   6.292   5.656   0.885
 3739SOL     OW12115   3.008   4.639   1.631
 3739SOL    HW112116   2.941   4.591   1.575
 3739SOL    HW212117   3.026   4.585   1.714
 3740SOL     OW12118   6.132   5.843   0.304
 3740SOL    HW112119   6.040   5.858   0.338
 3740SOL    HW212120   6.146   5.894   0.220
 3741SOL     OW12121   4.662   3.158   6.906
 3741SOL    HW112122   4.661   3.073   6.853
 3741SOL    HW212123   4.567   3.185   6.926
 3742SOL     OW12124   4.719   6.428   0.447
 3742SOL    HW112125   4.656   6.440   0.371
 3742SOL    HW212126   4.670   6.438   0.534
 3743SOL     OW12127   4.612   4.834   1.400
 3743SOL    HW112128   4.610   4.837   1.300
 3743SOL    HW212129   4.536   4.778   1.433
 3744SOL     OW12130   0.590   6.269   2.606
 3744SOL    HW112131   0.538   6.317   2.677
 3744SOL    HW212132   0.529   6.205   2.559
 3745SOL     OW12133   4.811   4.128   2.325
 3745SOL    HW112134   4.788   4.048   2.270
 3745SOL    HW212135   4.891   4.174   2.287
 3746SOL     OW12136   6.748   0.528   3.090
 3746SOL    HW112137   6.723   0.620   3.119
 3746SOL    HW212138   6.719   0.513   2.996
 3747SOL     OW12139   5.073   6.387   5.568
 3747SOL    HW112140   5.134   6.347   5.637
 3747SOL    HW212141   5.027   6.467   5.607
 3748SOL     OW12142   5.436   1.020   2.234
 3748SOL    HW112143   5.471   0.954   2.167
 3748SOL    HW212144   5.337   1.009   2.243
 3749SOL     OW12145   1.481   5.124   2.868
 3749SOL    HW112146   1.409   5.151   2.932
 3749SOL    HW212147   1.539   5.054   2.911
 3750SOL     OW12148   5.733   4.498   0.893
 3750SOL    HW112149   5.683   4.556   0.829
 3750SOL    HW212150   5.770   4.419   0.845
 3751SOL     OW12151   0.167   2.422   0.861
 3751SOL    HW112152   0.199   2.513   0.889
 3751SOL    HW212153   0.245   2.361   0.850
 3752SOL     OW12154   0.711   6.835   0.281
 3752SOL    HW112155   0.733   6.740   0.306
 3752SOL    HW212156   0.616   6.840   0.250
 3753SOL     OW12157   0.501   6.858   5.105
 3753SOL    HW112158   0.454   6.943   5.078
 3753SOL    HW212159   0.491   6.846   5.204
 3754SOL     OW12160   5.123   6.376   1.580
 3754SOL    HW112161   5.059   6.413   1.514
 3754SOL    HW212162   5.163   6.451   1.634
 3755SOL     OW12163   5.546   5.586   4.288
 3755SOL    HW112164   5.557   5.627   4.379
 3755SOL    HW212165   5.453   5.551   4.278
 3756SOL     OW12166   1.688   0.652   6.091
 3756SOL    HW112167   1.747   0.576   6.119
 3756SOL    HW212168   1.741   0.717   6.037
 3757SOL     OW12169   3.690   5.822   6.503
 3757SOL    HW112170   3.616   5.865   6.450
 3757SOL    HW212171   3.722   5.740   6.456
 3758SOL     OW12172   1.638   1.483   4.749
 3758SOL    HW112173   1.551   1.533   4.745
 3758SOL    HW212174   1.693   1.519   4.824
 3759SOL     OW12175   4.140   5.046   5.256
 3759SOL    HW112176   4.209   5.052   5.328
 3759SOL    HW212177   4.063   4.989   5.288
 3760SOL     OW12178   1.326   4.154   4.319
 3760SOL    HW112179   1.341   4.094   4.240
 3760SOL    HW212180   1.267   4.230   4.292
 3761SOL     OW12181   1.204   6.737   5.098
 3761SOL    HW112182   1.182   6.657   5.155
 3761SOL    HW212183   1.250   6.707   5.015
 3762SOL     OW12184   0.674   5.131   6.820
 3762SOL    HW112185   0.654   5.034   6.831
 3762SOL    HW212186   0.720   5.165   6.902
 3763SOL     OW12187   6.822   4.710   0.134
 3763SOL    HW112188   6.744   4.755   0.091
 3763SOL    HW212189   6.887   4.683   0.063
 3764SOL     OW12190   2.108   0.800   4.619
 3764SOL    HW112191   2.017   0.807   4.579
 3764SOL    HW212192   2.102   0.766   4.713
 3765SOL     OW12193   5.392   1.326   1.885
 3765SOL    HW112194   5.336   1.271   1.823
 3765SOL    HW212195   5.366   1.307   1.980
 3766SOL     OW12196   0.656   0.513   4.542
 3766SOL    HW112197   0.672   0.415   4.546
 3766SOL    HW212198   0.716   0.560   4.607
 3767SOL     OW12199   2.366   4.863   0.318
 3767SOL    HW112200   2.416   4.777   0.307
 3767SOL    HW212201   2.407   4.917   0.391
 3768SOL     OW12202   3.186   5.954   6.246
 3768SOL    HW112203   3.278   5.928   6.218
 3768SOL    HW212204   3.149   6.021   6.181
 3769SOL     OW12205   5.760   5.881   5.216
 3769SOL    HW112206   5.797   5.813   5.152
 3769SOL    HW212207   5.820   5.961   5.219
 3770SOL     OW12208   1.951   0.414   6.579
 3770SOL    HW112209   1.940   0.338   6.644
 3770SOL    HW212210   1.873   0.476   6.588
 3771SOL     OW12211   5.357   2.213   0.520
 3771SOL    HW112212   5.403   2.297   0.547
 3771SOL    HW212213   5.423   2.151   0.476
 3772SOL     OW12214   6.443   1.536   1.144
 3772SOL    HW112215   6.495   1.515   1.061
 3772SOL    HW212216   6.430   1.452   1.197
 3773SOL     OW12217   5.351   2.578   6.432
 3773SOL    HW112218   5.333   2.525   6.348
 3773SOL    HW212219   5.421   2.647   6.413
 3774SOL     OW12220   1.126   6.698   6.754
 3774SOL    HW112221   1.124   6.730   6.659
 3774SOL    HW212222   1.191   6.623   6.762
 3775SOL     OW12223   5.195   3.794   2.050
 3775SOL    HW112224   5.279   3.838   2.081
 3775SOL    HW212225   5.163   3.732   2.121
 3776SOL     OW12226   3.150   1.479   1.278
 3776SOL    HW112227   3.236   1.527   1.292
 3776SOL    HW212228   3.120   1.490   1.184
 3777SOL     OW12229   2.493   4.836   4.201
 3777SOL    HW112230   2.467   4.751   4.247
 3777SOL    HW212231   2.562   4.816   4.131
 3778SOL     OW12232   2.164   6.019   3.060
 3778SOL    HW112233   2.194   5.945   3.000
 3778SOL    HW212234   2.181   6.107   3.015
 3779SOL     OW12235   2.327   4.702   6.944
 3779SOL    HW112236   2.298   4.625   7.001
 3779SOL    HW212237   2.426   4.699   6.930
 3780SOL     OW12238   4.016   4.978   5.021
 3780SOL    HW112239   3.919   4.974   5.041
 3780SOL    HW212240   4.066   5.010   5.101
 3781SOL     OW12241   1.576   6.714   4.104
 3781SOL    HW112242   1.534   6.737   4.016
 3781SOL    HW212243   1.676   6.719   4.094
 3782SOL     OW12244   3.002   2.130   4.441
 3782SOL    HW112245   3.038   2.040   4.420
 3782SOL    HW212246   3.052   2.169   4.519
 3783SOL     OW12247   6.282   6.347   4.895
 3783SOL    HW112248   6.351   6.316   4.830
 3783SOL    HW212249   6.191   6.316   4.864
 3784SOL     OW12250   4.429   1.780   3.143
 3784SOL    HW112251   4.484   1.851   3.189
 3784SOL    HW212252   4.451   1.691   3.182
 3785SOL     OW12253   2.257   1.147   6.832
 3785SOL    HW112254   2.261   1.163   6.930
 3785SOL    HW212255   2.173   1.098   6.809
 3786SOL     OW12256   2.947   6.336   3.354
 3786SOL    HW112257   2.934   6.283   3.271
 3786SOL    HW212258   2.928   6.280   3.434
 3787SOL     OW12259   5.579   6.257   3.598
 3787SOL    HW112260   5.596   6.279   3.502
 3787SOL    HW212261   5.535   6.167   3.604
 3788SOL     OW12262   0.460   3.019   3.374
 3788SOL    HW112263   0.425   2.955   3.443
 3788SOL    HW212264   0.399   3.098   3.369
 3789SOL     OW12265   1.223   3.737   3.989
 3789SOL    HW112266   1.313   3.764   3.954
 3789SOL    HW212267   1.177   3.680   3.920
 3790SOL     OW12268   1.530   3.767   5.143
 3790SOL    HW112269   1.544   3.685   5.198
 3790SOL    HW212270   1.587   3.762   5.061
 3791SOL     OW12271   6.162   0.265   1.145
 3791SOL    HW112272   6.112   0.246   1.229
 3791SOL    HW212273   6.171   0.181   1.091
 3792SOL     OW12274   6.820   0.733   4.628
 3792SOL    HW112275   6.749   0.788   4.673
 3792SOL    HW212276   6.779   0.681   4.553
 3793SOL     OW12277   2.889   0.409   2.898
 3793SOL    HW112278   2.801   0.454   2.906
 3793SOL    HW212279   2.960   0.477   2.880
 3794SOL     OW12280   3.534   4.855   1.673
 3794SOL    HW112281   3.590   4.864   1.591
 3794SOL    HW212282   3.578   4.791   1.737
 3795SOL     OW12283   4.080   6.427   0.390
 3795SOL    HW112284   4.179   6.432   0.399
 3795SOL    HW212285   4.038   6.496   0.449
 3796SOL     OW12286   2.189   2.139   1.689
 3796SOL    HW112287   2.146   2.071   1.631
 3796SOL    HW212288   2.153   2.230   1.667
 3797SOL     OW12289   6.872   5.061   2.717
 3797SOL    HW112290   6.918   4.980   2.681
 3797SOL    HW212291   6.881   5.137   2.652
 3798SOL     OW12292   3.038   5.329   3.219
 3798SOL    HW112293   3.114   5.287   3.170
 3798SOL    HW212294   2.976   5.371   3.153
 3799SOL     OW12295   0.698   2.270   4.706
 3799SOL    HW112296   0.717   2.329   4.627
 3799SOL    HW212297   0.780   2.219   4.730
 3800SOL     OW12298   5.338   2.268   4.696
 3800SOL    HW112299   5.289   2.242   4.779
 3800SOL    HW212300   5.273   2.300   4.627
 3801SOL     OW12301   0.055   6.519   4.830
 3801SOL    HW112302   0.002   6.594   4.791
 3801SOL    HW212303   0.141   6.554   4.865
 3802SOL     OW12304   0.767   1.478   5.100
 3802SOL    HW112305   0.679   1.521   5.119
 3802SOL    HW212306   0.836   1.548   5.080
 3803SOL     OW12307   3.682   1.481   1.636
 3803SOL    HW112308   3.777   1.459   1.613
 3803SOL    HW212309   3.620   1.433   1.574
 3804SOL     OW12310   5.246   2.368   4.112
 3804SOL    HW112311   5.211   2.318   4.191
 3804SOL    HW212312   5.199   2.456   4.105
 3805SOL     OW12313   2.673   3.694   1.604
 3805SOL    HW112314   2.753   3.728   1.654
 3805SOL    HW212315   2.700   3.619   1.544
 3806SOL     OW12316   2.399   3.090   6.980
 3806SOL    HW112317   2.454   3.139   6.911
 3806SOL    HW212318   2.311   3.064   6.941
 3807SOL     OW12319   2.590   1.468   4.394
 3807SOL    HW112320   2.659   1.538   4.375
 3807SOL    HW212321   2.551   1.484   4.484
 3808SOL     OW12322   3.250   1.071   1.606
 3808SOL    HW112323   3.154   1.046   1.591
 3808SOL    HW212324   3.286   1.112   1.522
 3809SOL     OW12325   6.272   2.048   0.278
 3809SOL    HW112326   6.231   1.965   0.316
 3809SOL    HW212327   6.274   2.043   0.178
 3810SOL     OW12328   4.098   2.845   5.323
 3810SOL    HW112329   4.033   2.908   5.280
 3810SOL    HW212330   4.085   2.753   5.286
 3811SOL     OW12331   1.283   4.616   4.757
 3811SOL    HW112332   1.323   4.524   4.749
 3811SOL    HW212333   1.259   4.634   4.852
 3812SOL     OW12334   5.552   1.391   5.497
 3812SOL    HW112335   5.499   1.319   5.542
 3812SOL    HW212336   5.489   1.462   5.464
 3813SOL     OW12337   4.473   4.625   0.888
 3813SOL    HW112338   4.469   4.725   0.887
 3813SOL    HW212339   4.445   4.591   0.977
 3814SOL     OW12340   0.324   6.322   1.112
 3814SOL    HW112341   0.307   6.224   1.106
 3814SOL    HW212342   0.335   6.359   1.019
 3815SOL     OW12343   4.520   2.200   0.429
 3815SOL    HW112344   4.543   2.229   0.522
 3815SOL    HW212345   4.469   2.272   0.383
 3816SOL     OW12346   7.020   6.182   1.058
 3816SOL    HW112347   0.091   6.180   1.072
 3816SOL    HW212348   6.984   6.089   1.067
 3817SOL     OW12349   4.819   3.094   3.908
 3817SOL    HW112350   4.907   3.107   3.862
 3817SOL    HW212351   4.776   3.010   3.876
 3818SOL     OW12352   4.947   6.470   1.382
 3818SOL    HW112353   4.999   6.549   1.350
 3818SOL    HW212354   4.881   6.443   1.311
 3819SOL     OW12355   5.257   4.669   0.445
 3819SOL    HW112356   5.303   4.746   0.401
 3819SOL    HW212357   5.325   4.603   0.478
 3820SOL     OW12358   6.680   6.629   3.940
 3820SOL    HW112359   6.707   6.545   3.988
 3820SOL    HW212360   6.758   6.690   3.934
 3821SOL     OW12361   1.601   3.121   2.155
 3821SOL    HW112362   1.694   3.104   2.122
 3821SOL    HW212363   1.577   3.217   2.140
 3822SOL     OW12364   1.115   5.697   2.438
 3822SOL    HW112365   1.159   5.717   2.351
 3822SOL    HW212366   1.058   5.774   2.466
 3823SOL     OW12367   4.063   2.189   5.523
 3823SOL    HW112368   4.055   2.146   5.433
 3823SOL    HW212369   3.974   2.226   5.550
 3824SOL     OW12370   5.866   1.584   5.617
 3824SOL    HW112371   5.874   1.487   5.595
 3824SOL    HW212372   5.788   1.598   5.678
 3825SOL     OW12373   0.583   0.334   0.374
 3825SOL    HW112374   0.574   0.431   0.398
 3825SOL    HW212375   0.678   0.316   0.348
 3826SOL     OW12376   6.898   3.674   6.803
 3826SOL    HW112377   6.878   3.577   6.818
 3826SOL    HW212378   6.992   3.693   6.830
 3827SOL     OW12379   3.593   3.830   0.820
 3827SOL    HW112380   3.617   3.751   0.762
 3827SOL    HW212381   3.563   3.905   0.761
 3828SOL     OW12382   4.462   2.437   1.512
 3828SOL    HW112383   4.440   2.531   1.541
 3828SOL    HW212384   4.388   2.376   1.541
 3829SOL     OW12385   2.242   4.585   3.838
 3829SOL    HW112386   2.307   4.512   3.816
 3829SOL    HW212387   2.211   4.575   3.932
 3830SOL     OW12388   0.798   0.300   4.808
 3830SOL    HW112389   0.781   0.396   4.788
 3830SOL    HW212390   0.884   0.291   4.859
 3831SOL     OW12391   4.608   1.877   2.534
 3831SOL    HW112392   4.547   1.799   2.524
 3831SOL    HW212393   4.591   1.942   2.459
 3832SOL     OW12394   6.204   0.508   2.178
 3832SOL    HW112395   6.203   0.425   2.235
 3832SOL    HW212396   6.267   0.495   2.102
 3833SOL     OW12397   0.665   5.692   6.592
 3833SOL    HW112398   0.757   5.670   6.561
 3833SOL    HW212399   0.648   5.650   6.681
 3834SOL     OW12400   3.368   2.406   0.255
 3834SOL    HW112401   3.309   2.422   0.176
 3834SOL    HW212402   3.369   2.487   0.314
 3835SOL     OW12403   3.254   5.356   5.466
 3835SOL    HW112404   3.210   5.322   5.383
 3835SOL    HW212405   3.200   5.329   5.546
 3836SOL     OW12406   2.147   3.196   4.994
 3836SOL    HW112407   2.216   3.127   5.017
 3836SOL    HW212408   2.121   3.185   4.898
 3837SOL     OW12409   4.782   3.427   0.161
 3837SOL    HW112410   4.807   3.356   0.095
 3837SOL    HW212411   4.689   3.410   0.194
 3838SOL     OW12412   5.823   3.694   4.275
 3838SOL    HW112413   5.878   3.614   4.299
 3838SOL    HW212414   5.794   3.741   4.358
 3839SOL     OW12415   4.593   7.001   4.532
 3839SOL    HW112416   4.686   6.983   4.563
 3839SOL    HW212417   4.540   0.014   4.606
 3840SOL     OW12418   1.268   1.273   5.471
 3840SOL    HW112419   1.240   1.191   5.522
 3840SOL    HW212420   1.347   1.314   5.515
 3841SOL     OW12421   0.452   3.641   5.146
 3841SOL    HW112422   0.425   3.569   5.082
 3841SOL    HW212423   0.424   3.616   5.239
 3842SOL     OW12424   1.030   5.088   0.526
 3842SOL    HW112425   1.002   5.148   0.600
 3842SOL    HW212426   1.009   4.994   0.549
 3843SOL     OW12427   6.981   3.050   1.266
 3843SOL    HW112428   6.889   3.082   1.289
 3843SOL    HW212429   0.012   3.059   1.346
 3844SOL     OW12430   0.424   4.888   5.538
 3844SOL    HW112431   0.453   4.822   5.469
 3844SOL    HW212432   0.469   4.868   5.625
 3845SOL     OW12433   3.502   2.861   2.748
 3845SOL    HW112434   3.494   2.762   2.761
 3845SOL    HW212435   3.412   2.899   2.726
 3846SOL     OW12436   0.434   4.696   4.265
 3846SOL    HW112437   0.385   4.753   4.198
 3846SOL    HW212438   0.496   4.635   4.217
 3847SOL     OW12439   6.507   1.188   6.070
 3847SOL    HW112440   6.444   1.111   6.056
 3847SOL    HW212441   6.483   1.262   6.006
 3848SOL     OW12442   2.028   5.550   3.022
 3848SOL    HW112443   2.002   5.616   2.951
 3848SOL    HW212444   1.952   5.487   3.038
 3849SOL     OW12445   0.260   1.279   5.504
 3849SOL    HW112446   0.275   1.362   5.450
 3849SOL    HW212447   0.310   1.203   5.462
 3850SOL     OW12448   2.568   3.464   1.738
 3850SOL    HW112449   2.581   3.547   1.685
 3850SOL    HW212450   2.489   3.475   1.798
 3851SOL     OW12451   1.958   4.241   2.567
 3851SOL    HW112452   2.004   4.265   2.652
 3851SOL    HW212453   1.866   4.207   2.586
 3852SOL     OW12454   4.451   6.439   5.023
 3852SOL    HW112455   4.441   6.435   4.923
 3852SOL    HW212456   4.441   6.348   5.061
 3853SOL     OW12457   1.010   3.295   2.579
 3853SOL    HW112458   1.086   3.348   2.540
 3853SOL    HW212459   1.040   3.201   2.593
 3854SOL     OW12460   1.017   3.687   3.440
 3854SOL    HW112461   0.956   3.627   3.389
 3854SOL    HW212462   1.085   3.726   3.378
 3855SOL     OW12463   5.613   5.307   6.554
 3855SOL    HW112464   5.578   5.333   6.465
 3855SOL    HW212465   5.572   5.219   6.582
 3856SOL     OW12466   6.992   0.394   5.778
 3856SOL    HW112467   0.015   0.478   5.791
 3856SOL    HW212468   0.024   0.324   5.739
 3857SOL     OW12469   1.670   0.112   5.239
 3857SOL    HW112470   1.744   0.150   5.183
 3857SOL    HW212471   1.692   0.018   5.263
 3858SOL     OW12472   1.360   6.148   5.992
 3858SOL    HW112473   1.370   6.131   5.894
 3858SOL    HW212474   1.263   6.139   6.017
 3859SOL     OW12475   6.772   2.159   3.618
 3859SOL    HW112476   6.680   2.155   3.657
 3859SOL    HW212477   6.833   2.209   3.680
 3860SOL     OW12478   2.354   6.215   4.424
 3860SOL    HW112479   2.434   6.156   4.439
 3860SOL    HW212480   2.273   6.171   4.462
 3861SOL     OW12481   5.524   4.681   1.215
 3861SOL    HW112482   5.592   4.723   1.154
 3861SOL    HW212483   5.463   4.752   1.251
 3862SOL     OW12484   6.580   6.938   6.000
 3862SOL    HW112485   6.654   6.924   6.066
 3862SOL    HW212486   6.505   6.988   6.044
 3863SOL     OW12487   3.779   3.436   6.978
 3863SOL    HW112488   3.697   3.380   6.986
 3863SOL    HW212489   3.763   3.525   7.020
 3864SOL     OW12490   4.360   1.890   6.278
 3864SOL    HW112491   4.335   1.982   6.309
 3864SOL    HW212492   4.276   1.837   6.261
 3865SOL     OW12493   3.799   0.449   2.020
 3865SOL    HW112494   3.771   0.429   1.926
 3865SOL    HW212495   3.718   0.453   2.079
 3866SOL     OW12496   4.104   0.459   0.711
 3866SOL    HW112497   4.163   0.538   0.726
 3866SOL    HW212498   4.026   0.463   0.774
 3867SOL     OW12499   2.191   3.898   3.221
 3867SOL    HW112500   2.172   3.934   3.130
 3867SOL    HW212501   2.167   3.801   3.225
 3868SOL     OW12502   1.941   5.704   1.773
 3868SOL    HW112503   1.899   5.614   1.781
 3868SOL    HW212504   1.921   5.757   1.856
 3869SOL     OW12505   0.103   2.655   3.764
 3869SOL    HW112506   0.066   2.564   3.748
 3869SOL    HW212507   0.203   2.652   3.756
 3870SOL     OW12508   2.865   4.883   6.785
 3870SOL    HW112509   2.874   4.952   6.857
 3870SOL    HW212510   2.791   4.909   6.723
 3871SOL     OW12511   3.126   0.428   2.645
 3871SOL    HW112512   3.140   0.329   2.654
 3871SOL    HW212513   3.034   0.451   2.676
 3872SOL     OW12514   3.881   3.520   1.157
 3872SOL    HW112515   3.955   3.550   1.217
 3872SOL    HW212516   3.820   3.597   1.138
 3873SOL     OW12517   5.246   5.102   1.047
 3873SOL    HW112518   5.165   5.053   1.016
 3873SOL    HW212519   5.328   5.064   1.004
 3874SOL     OW12520   4.388   6.647   0.146
 3874SOL    HW112521   4.324   6.684   0.078
 3874SOL    HW212522   4.380   6.698   0.231
 3875SOL     OW12523   1.462   4.072   2.589
 3875SOL    HW112524   1.422   4.138   2.525
 3875SOL    HW212525   1.484   3.987   2.541
 3876SOL     OW12526   5.222   5.784   5.921
 3876SOL    HW112527   5.125   5.793   5.945
 3876SOL    HW212528   5.273   5.749   5.999
 3877SOL     OW12529   6.197   1.223   1.214
 3877SOL    HW112530   6.215   1.292   1.284
 3877SOL    HW212531   6.099   1.219   1.194
 3878SOL     OW12532   3.784   6.745   5.939
 3878SOL    HW112533   3.717   6.671   5.941
 3878SOL    HW212534   3.737   6.833   5.948
 3879SOL     OW12535   4.613   5.644   0.503
 3879SOL    HW112536   4.709   5.624   0.520
 3879SOL    HW212537   4.573   5.689   0.583
 3880SOL     OW12538   6.204   4.251   2.487
 3880SOL    HW112539   6.240   4.158   2.479
 3880SOL    HW212540   6.215   4.282   2.581
 3881SOL     OW12541   1.809   5.348   0.547
 3881SOL    HW112542   1.762   5.305   0.470
 3881SOL    HW212543   1.743   5.399   0.602
 3882SOL     OW12544   6.341   1.354   6.610
 3882SOL    HW112545   6.272   1.409   6.658
 3882SOL    HW212546   6.300   1.267   6.582
 3883SOL     OW12547   4.986   1.434   3.565
 3883SOL    HW112548   4.976   1.467   3.471
 3883SOL    HW212549   4.912   1.472   3.621
 3884SOL     OW12550   1.493   6.454   5.217
 3884SOL    HW112551   1.445   6.366   5.222
 3884SOL    HW212552   1.504   6.480   5.122
 3885SOL     OW12553   6.609   1.235   4.105
 3885SOL    HW112554   6.659   1.321   4.103
 3885SOL    HW212555   6.664   1.163   4.065
 3886SOL     OW12556   6.981   0.412   5.265
 3886SOL    HW112557   7.014   0.394   5.172
 3886SOL    HW212558   6.881   0.416   5.265
 3887SOL     OW12559   3.941   1.519   5.803
 3887SOL    HW112560   3.994   1.497   5.721
 3887SOL    HW212561   3.917   1.616   5.801
 3888SOL     OW12562   6.743   1.362   0.424
 3888SOL    HW112563   6.824   1.419   0.434
 3888SOL    HW212564   6.766   1.280   0.372
 3889SOL     OW12565   0.529   5.597   6.378
 3889SOL    HW112566   0.431   5.586   6.398
 3889SOL    HW212567   0.577   5.624   6.461
 3890SOL     OW12568   5.508   5.847   3.229
 3890SOL    HW112569   5.522   5.860   3.130
 3890SOL    HW212570   5.430   5.787   3.243
 3891SOL     OW12571   5.060   5.351   4.757
 3891SOL    HW112572   5.074   5.317   4.849
 3891SOL    HW212573   4.976   5.311   4.719
 3892SOL     OW12574   6.453   6.762   2.594
 3892SOL    HW112575   6.403   6.682   2.559
 3892SOL    HW212576   6.401   6.804   2.668
 3893SOL     OW12577   3.397   5.759   3.873
 3893SOL    HW112578   3.313   5.772   3.926
 3893SOL    HW212579   3.412   5.838   3.814
 3894SOL     OW12580   3.990   2.815   0.402
 3894SOL    HW112581   3.975   2.728   0.355
 3894SOL    HW212582   4.079   2.815   0.447
 3895SOL     OW12583   1.793   1.132   5.367
 3895SOL    HW112584   1.821   1.222   5.333
 3895SOL    HW212585   1.858   1.063   5.336
 3896SOL     OW12586   0.161   2.076   5.801
 3896SOL    HW112587   0.091   2.139   5.836
 3896SOL    HW212588   0.139   2.052   5.706
 3897SOL     OW12589   2.731   6.488   2.112
 3897SOL    HW112590   2.812   6.444   2.075
 3897SOL    HW212591   2.677   6.528   2.038
 3898SOL     OW12592   4.153   3.368   4.304
 3898SOL    HW112593   4.241   3.326   4.328
 3898SOL    HW212594   4.085   3.344   4.373
 3899SOL     OW12595   4.624   1.321   5.542
 3899SOL    HW112596   4.527   1.329   5.522
 3899SOL    HW212597   4.667   1.262   5.473
 3900SOL     OW12598   6.584   2.444   3.416
 3900SOL    HW112599   6.487   2.461   3.401
 3900SOL    HW212600   6.620   2.389   3.341
 3901SOL     OW12601   1.326   6.635   4.877
 3901SOL    HW112602   1.415   6.603   4.910
 3901SOL    HW212603   1.266   6.556   4.861
 3902SOL     OW12604   5.326   4.875   1.311
 3902SOL    HW112605   5.358   4.950   1.252
 3902SOL    HW212606   5.331   4.903   1.406
 3903SOL     OW12607   3.988   2.546   0.359
 3903SOL    HW112608   3.973   2.452   0.326
 3903SOL    HW212609   4.023   2.543   0.452
 3904SOL     OW12610   1.267   6.787   0.350
 3904SOL    HW112611   1.342   6.791   0.417
 3904SOL    HW212612   1.181   6.812   0.395
 3905SOL     OW12613   6.942   6.959   5.772
 3905SOL    HW112614   7.027   7.003   5.799
 3905SOL    HW212615   6.886   7.024   5.720
 3906SOL     OW12616   1.933   4.918   4.223
 3906SOL    HW112617   1.946   5.001   4.277
 3906SOL    HW212618   1.842   4.881   4.239
 3907SOL     OW12619   0.018   1.301   4.232
 3907SOL    HW112620   7.025   1.214   4.276
 3907SOL    HW212621   0.018   1.374   4.301
 3908SOL     OW12622   1.304   0.835   5.071
 3908SOL    HW112623   1.251   0.751   5.058
 3908SOL    HW212624   1.294   0.866   5.165
 3909SOL     OW12625   5.167   2.701   5.739
 3909SOL    HW112626   5.083   2.667   5.699
 3909SOL    HW212627   5.197   2.783   5.690
 3910SOL     OW12628   3.201   2.867   0.697
 3910SOL    HW112629   3.162   2.826   0.614
 3910SOL    HW212630   3.149   2.836   0.777
 3911SOL     OW12631   5.728   0.947   1.998
 3911SOL    HW112632   5.734   0.988   1.907
 3911SOL    HW212633   5.642   0.897   2.007
 3912SOL     OW12634   3.926   2.298   0.298
 3912SOL    HW112635   3.949   2.231   0.228
 3912SOL    HW212636   3.829   2.321   0.293
 3913SOL     OW12637   4.544   6.068   0.702
 3913SOL    HW112638   4.630   6.117   0.717
 3913SOL    HW212639   4.472   6.109   0.758
 3914SOL     OW12640   6.111   0.779   1.012
 3914SOL    HW112641   6.046   0.851   0.986
 3914SOL    HW212642   6.162   0.750   0.931
 3915SOL     OW12643   4.959   5.264   0.229
 3915SOL    HW112644   4.952   5.195   0.301
 3915SOL    HW212645   4.885   5.331   0.239
 3916SOL     OW12646   2.186   0.680   2.685
 3916SOL    HW112647   2.111   0.689   2.620
 3916SOL    HW212648   2.183   0.756   2.750
 3917SOL     OW12649   3.096   4.784   0.522
 3917SOL    HW112650   3.014   4.834   0.494
 3917SOL    HW212651   3.069   4.696   0.562
 3918SOL     OW12652   5.474   0.133   1.012
 3918SOL    HW112653   5.565   0.149   1.051
 3918SOL    HW212654   5.442   0.216   0.966
 3919SOL     OW12655   4.000   0.507   1.100
 3919SOL    HW112656   3.960   0.474   1.185
 3919SOL    HW212657   3.969   0.600   1.081
 3920SOL     OW12658   3.165   0.675   6.086
 3920SOL    HW112659   3.151   0.690   6.184
 3920SOL    HW212660   3.077   0.653   6.043
 3921SOL     OW12661   1.025   2.626   6.121
 3921SOL    HW112662   0.951   2.647   6.058
 3921SOL    HW212663   1.028   2.695   6.193
 3922SOL     OW12664   4.411   5.154   1.920
 3922SOL    HW112665   4.329   5.104   1.892
 3922SOL    HW212666   4.385   5.238   1.967
 3923SOL     OW12667   5.204   0.956   1.375
 3923SOL    HW112668   5.144   0.881   1.403
 3923SOL    HW212669   5.153   1.018   1.316
 3924SOL     OW12670   6.898   4.546   4.584
 3924SOL    HW112671   6.920   4.464   4.636
 3924SOL    HW212672   6.930   4.535   4.489
 3925SOL     OW12673   4.825   3.779   0.358
 3925SOL    HW112674   4.791   3.700   0.408
 3925SOL    HW212675   4.922   3.767   0.340
 3926SOL     OW12676   0.355   0.435   5.620
 3926SOL    HW112677   0.439   0.404   5.577
 3926SOL    HW212678   0.364   0.532   5.646
 3927SOL     OW12679   6.975   2.621   4.835
 3927SOL    HW112680   6.976   2.533   4.883
 3927SOL    HW212681   6.913   2.615   4.757
 3928SOL     OW12682   2.035   6.340   3.046
 3928SOL    HW112683   1.951   6.366   3.094
 3928SOL    HW212684   2.012   6.299   2.958
 3929SOL     OW12685   0.320   2.062   5.181
 3929SOL    HW112686   0.415   2.033   5.188
 3929SOL    HW212687   0.313   2.159   5.204
 3930SOL     OW12688   1.181   3.931   4.176
 3930SOL    HW112689   1.081   3.931   4.182
 3930SOL    HW212690   1.210   3.864   4.107
 3931SOL     OW12691   1.301   2.424   1.521
 3931SOL    HW112692   1.212   2.469   1.513
 3931SOL    HW212693   1.305   2.347   1.456
 3932SOL     OW12694   1.651   5.828   4.095
 3932SOL    HW112695   1.675   5.738   4.058
 3932SOL    HW212696   1.689   5.900   4.036
 3933SOL     OW12697   1.941   5.027   0.186
 3933SOL    HW112698   2.022   4.969   0.180
 3933SOL    HW212699   1.923   5.048   0.282
 3934SOL     OW12700   0.950   1.351   2.367
 3934SOL    HW112701   0.876   1.415   2.349
 3934SOL    HW212702   1.005   1.384   2.443
 3935SOL     OW12703   6.330   3.120   6.931
 3935SOL    HW112704   6.341   3.123   0.002
 3935SOL    HW212705   6.410   3.077   6.890
 3936SOL     OW12706   0.084   5.265   5.208
 3936SOL    HW112707   0.063   5.172   5.236
 3936SOL    HW212708   0.109   5.320   5.288
 3937SOL     OW12709   6.747   6.656   2.360
 3937SOL    HW112710   6.728   6.559   2.376
 3937SOL    HW212711   6.664   6.701   2.327
 3938SOL     OW12712   6.965   3.992   3.117
 3938SOL    HW112713   0.023   3.996   3.167
 3938SOL    HW212714   6.895   4.043   3.168
 3939SOL     OW12715   0.803   1.010   2.389
 3939SOL    HW112716   0.787   0.933   2.451
 3939SOL    HW212717   0.716   1.042   2.352
 3940SOL     OW12718   3.164   4.556   1.387
 3940SOL    HW112719   3.250   4.573   1.435
 3940SOL    HW212720   3.089   4.551   1.453
 3941SOL     OW12721   5.698   6.260   4.292
 3941SOL    HW112722   5.765   6.238   4.221
 3941SOL    HW212723   5.606   6.253   4.255
 3942SOL     OW12724   0.632   6.048   6.752
 3942SOL    HW112725   0.698   5.976   6.775
 3942SOL    HW212726   0.540   6.018   6.778
 3943SOL     OW12727   1.054   3.315   1.049
 3943SOL    HW112728   0.989   3.243   1.028
 3943SOL    HW212729   1.092   3.300   1.141
 3944SOL     OW12730   6.409   2.122   6.731
 3944SOL    HW112731   6.388   2.185   6.656
 3944SOL    HW212732   6.412   2.172   6.817
 3945SOL     OW12733   0.519   0.897   2.684
 3945SOL    HW112734   0.477   0.826   2.627
 3945SOL    HW212735   0.514   0.870   2.780
 3946SOL     OW12736   1.124   3.281   0.526
 3946SOL    HW112737   1.169   3.282   0.615
 3946SOL    HW212738   1.098   3.188   0.503
 3947SOL     OW12739   6.262   5.443   0.801
 3947SOL    HW112740   6.181   5.498   0.819
 3947SOL    HW212741   6.302   5.413   0.888
 3948SOL     OW12742   2.005   2.499   5.363
 3948SOL    HW112743   2.068   2.464   5.294
 3948SOL    HW212744   1.931   2.549   5.318
 3949SOL     OW12745   6.386   6.505   2.463
 3949SOL    HW112746   6.337   6.438   2.408
 3949SOL    HW212747   6.485   6.487   2.458
 3950SOL     OW12748   3.279   4.120   1.361
 3950SOL    HW112749   3.290   4.189   1.433
 3950SOL    HW212750   3.182   4.106   1.343
 3951SOL     OW12751   0.240   1.578   5.066
 3951SOL    HW112752   0.158   1.634   5.078
 3951SOL    HW212753   0.233   1.526   4.981
 3952SOL     OW12754   6.801   3.522   5.929
 3952SOL    HW112755   6.790   3.427   5.959
 3952SOL    HW212756   6.806   3.582   6.009
 3953SOL     OW12757   3.654   4.324   6.389
 3953SOL    HW112758   3.570   4.316   6.336
 3953SOL    HW212759   3.681   4.234   6.423
 3954SOL     OW12760   1.217   3.753   5.611
 3954SOL    HW112761   1.159   3.710   5.680
 3954SOL    HW212762   1.162   3.816   5.556
 3955SOL     OW12763   5.351   5.044   6.930
 3955SOL    HW112764   5.259   5.034   6.967
 3955SOL    HW212765   5.368   4.972   6.862
 3956SOL     OW12766   0.284   3.013   5.955
 3956SOL    HW112767   0.353   3.067   6.003
 3956SOL    HW212768   0.216   2.980   6.020
 3957SOL     OW12769   2.039   6.926   3.984
 3957SOL    HW112770   2.061   7.023   3.974
 3957SOL    HW212771   2.052   6.898   4.080
 3958SOL     OW12772   5.688   6.442   5.227
 3958SOL    HW112773   5.610   6.503   5.239
 3958SOL    HW212774   5.659   6.347   5.241
 3959SOL     OW12775   3.191   4.846   6.950
 3959SOL    HW112776   3.162   4.930   6.904
 3959SOL    HW212777   3.110   4.797   6.984
 3960SOL     OW12778   4.018   3.018   0.138
 3960SOL    HW112779   3.959   3.099   0.143
 3960SOL    HW212780   4.008   2.965   0.222
 3961SOL     OW12781   4.644   0.534   1.622
 3961SOL    HW112782   4.700   0.494   1.549
 3961SOL    HW212783   4.687   0.516   1.710
 3962SOL     OW12784   1.052   0.352   6.595
 3962SOL    HW112785   0.998   0.359   6.679
 3962SOL    HW212786   1.140   0.311   6.616
 3963SOL     OW12787   4.762   5.699   4.134
 3963SOL    HW112788   4.792   5.604   4.144
 3963SOL    HW212789   4.683   5.715   4.193
 3964SOL     OW12790   5.052   5.989   5.287
 3964SOL    HW112791   5.005   5.989   5.375
 3964SOL    HW212792   4.985   5.984   5.213
 3965SOL     OW12793   3.110   3.714   0.462
 3965SOL    HW112794   3.049   3.787   0.493
 3965SOL    HW212795   3.142   3.662   0.541
 3966SOL     OW12796   6.244   4.458   4.906
 3966SOL    HW112797   6.255   4.547   4.950
 3966SOL    HW212798   6.154   4.454   4.862
 3967SOL     OW12799   0.676   6.094   6.190
 3967SOL    HW112800   0.712   6.003   6.211
 3967SOL    HW212801   0.682   6.110   6.092
 3968SOL     OW12802   5.427   1.183   2.485
 3968SOL    HW112803   5.502   1.125   2.518
 3968SOL    HW212804   5.389   1.145   2.401
 3969SOL     OW12805   0.633   4.913   2.922
 3969SOL    HW112806   0.629   4.813   2.927
 3969SOL    HW212807   0.562   4.953   2.979
 3970SOL     OW12808   5.013   4.507   2.898
 3970SOL    HW112809   5.073   4.553   2.964
 3970SOL    HW212810   4.983   4.573   2.830
 3971SOL     OW12811   1.689   6.150   3.108
 3971SOL    HW112812   1.644   6.108   3.029
 3971SOL    HW212813   1.762   6.090   3.141
 3972SOL     OW12814   0.633   6.843   0.618
 3972SOL    HW112815   0.550   6.891   0.590
 3972SOL    HW212816   0.644   6.761   0.562
 3973SOL     OW12817   3.183   4.094   4.605
 3973SOL    HW112818   3.220   4.115   4.514
 3973SOL    HW212819   3.206   4.167   4.669
 3974SOL     OW12820   6.336   0.954   6.701
 3974SOL    HW112821   6.338   0.897   6.619
 3974SOL    HW212822   6.266   0.920   6.764
 3975SOL     OW12823   6.753   1.134   6.157
 3975SOL    HW112824   6.658   1.138   6.126
 3975SOL    HW212825   6.809   1.085   6.090
 3976SOL     OW12826   1.171   3.632   0.674
 3976SOL    HW112827   1.135   3.686   0.750
 3976SOL    HW212828   1.096   3.598   0.618
 3977SOL     OW12829   3.055   6.248   6.344
 3977SOL    HW112830   3.094   6.333   6.381
 3977SOL    HW212831   2.992   6.209   6.411
 3978SOL     OW12832   6.246   2.533   5.797
 3978SOL    HW112833   6.193   2.544   5.881
 3978SOL    HW212834   6.185   2.509   5.721
 3979SOL     OW12835   0.597   6.569   2.197
 3979SOL    HW112836   0.686   6.523   2.203
 3979SOL    HW212837   0.607   6.664   2.228
 3980SOL     OW12838   4.824   3.027   4.355
 3980SOL    HW112839   4.814   3.068   4.445
 3980SOL    HW212840   4.819   2.928   4.362
 3981SOL     OW12841   6.814   2.080   0.364
 3981SOL    HW112842   6.795   2.146   0.437
 3981SOL    HW212843   6.734   2.072   0.305
 3982SOL     OW12844   2.558   1.958   3.978
 3982SOL    HW112845   2.627   1.975   4.049
 3982SOL    HW212846   2.594   1.986   3.889
 3983SOL     OW12847   2.802   6.366   3.992
 3983SOL    HW112848   2.788   6.459   4.027
 3983SOL    HW212849   2.737   6.304   4.035
 3984SOL     OW12850   1.911   6.128   1.749
 3984SOL    HW112851   1.967   6.208   1.774
 3984SOL    HW212852   1.815   6.154   1.747
 3985SOL     OW12853   2.579   3.106   1.042
 3985SOL    HW112854   2.480   3.105   1.053
 3985SOL    HW212855   2.622   3.064   1.122
 3986SOL     OW12856   0.228   2.013   2.314
 3986SOL    HW112857   0.229   2.113   2.305
 3986SOL    HW212858   0.145   1.977   2.272
 3987SOL     OW12859   2.212   4.855   6.345
 3987SOL    HW112860   2.117   4.877   6.367
 3987SOL    HW212861   2.215   4.774   6.286
 3988SOL     OW12862   3.902   2.967   0.793
 3988SOL    HW112863   3.912   2.963   0.693
 3988SOL    HW212864   3.992   2.972   0.836
 3989SOL     OW12865   6.181   6.493   0.261
 3989SOL    HW112866   6.216   6.496   0.167
 3989SOL    HW212867   6.151   6.400   0.282
 3990SOL     OW12868   0.865   3.652   3.672
 3990SOL    HW112869   0.924   3.676   3.595
 3990SOL    HW212870   0.851   3.733   3.730
 3991SOL     OW12871   0.232   2.163   4.006
 3991SOL    HW112872   0.140   2.167   3.967
 3991SOL    HW212873   0.267   2.069   4.002
 3992SOL     OW12874   4.260   3.368   6.215
 3992SOL    HW112875   4.198   3.327   6.283
 3992SOL    HW212876   4.318   3.297   6.176
 3993SOL     OW12877   3.040   2.152   2.730
 3993SOL    HW112878   2.979   2.193   2.662
 3993SOL    HW212879   3.135   2.157   2.698
 3994SOL     OW12880   2.438   2.708   3.774
 3994SOL    HW112881   2.382   2.626   3.762
 3994SOL    HW212882   2.520   2.685   3.826
 3995SOL     OW12883   2.148   4.200   3.154
 3995SOL    HW112884   2.205   4.170   3.230
 3995SOL    HW212885   2.206   4.238   3.082
 3996SOL     OW12886   0.744   1.088   3.541
 3996SOL    HW112887   0.814   1.158   3.529
 3996SOL    HW212888   0.653   1.128   3.529
 3997SOL     OW12889   5.472   3.890   3.100
 3997SOL    HW112890   5.513   3.810   3.056
 3997SOL    HW212891   5.519   3.973   3.070
 3998SOL     OW12892   6.504   2.287   3.076
 3998SOL    HW112893   6.406   2.274   3.091
 3998SOL    HW212894   6.532   2.240   2.993
 3999SOL     OW12895   5.760   3.762   2.407
 3999SOL    HW112896   5.670   3.804   2.398
 3999SOL    HW212897   5.751   3.663   2.405
 4000SOL     OW12898   2.627   5.587   2.699
 4000SOL    HW112899   2.725   5.604   2.710
 4000SOL    HW212900   2.577   5.637   2.769
 4001SOL     OW12901   2.557   3.762   5.491
 4001SOL    HW112902   2.464   3.789   5.469
 4001SOL    HW212903   2.617   3.780   5.413
 4002SOL     OW12904   3.361   3.304   4.984
 4002SOL    HW112905   3.266   3.289   4.956
 4002SOL    HW212906   3.382   3.402   4.979
 4003SOL     OW12907   2.776   1.355   5.746
 4003SOL    HW112908   2.792   1.452   5.764
 4003SOL    HW212909   2.697   1.323   5.798
 4004SOL     OW12910   6.999   3.923   2.867
 4004SOL    HW112911   7.000   3.824   2.851
 4004SOL    HW212912   6.977   3.941   2.963
 4005SOL     OW12913   4.833   3.432   1.349
 4005SOL    HW112914   4.795   3.511   1.398
 4005SOL    HW212915   4.827   3.449   1.251
 4006SOL     OW12916   4.929   5.454   2.397
 4006SOL    HW112917   4.842   5.467   2.444
 4006SOL    HW212918   4.998   5.420   2.461
 4007SOL     OW12919   1.109   1.701   3.329
 4007SOL    HW112920   1.094   1.605   3.303
 4007SOL    HW212921   1.196   1.732   3.291
 4008SOL     OW12922   2.938   6.877   0.338
 4008SOL    HW112923   2.849   6.835   0.358
 4008SOL    HW212924   2.938   6.972   0.370
 4009SOL     OW12925   4.647   1.986   1.059
 4009SOL    HW112926   4.617   2.055   1.125
 4009SOL    HW212927   4.738   1.954   1.084
 4010SOL     OW12928   3.825   4.394   1.485
 4010SOL    HW112929   3.738   4.441   1.477
 4010SOL    HW212930   3.839   4.365   1.580
 4011SOL     OW12931   6.933   6.096   0.563
 4011SOL    HW112932   6.941   6.192   0.590
 4011SOL    HW212933   6.853   6.086   0.503
 4012SOL     OW12934   4.519   6.829   1.770
 4012SOL    HW112935   4.485   6.735   1.773
 4012SOL    HW212936   4.553   6.854   1.860
 4013SOL     OW12937   1.888   0.371   0.823
 4013SOL    HW112938   1.939   0.286   0.837
 4013SOL    HW212939   1.815   0.356   0.756
 4014SOL     OW12940   3.170   6.233   3.632
 4014SOL    HW112941   3.095   6.276   3.582
 4014SOL    HW212942   3.144   6.140   3.659
 4015SOL     OW12943   4.520   4.950   5.992
 4015SOL    HW112944   4.526   4.910   6.083
 4015SOL    HW212945   4.609   4.942   5.946
 4016SOL     OW12946   3.674   4.921   6.841
 4016SOL    HW112947   3.698   4.833   6.882
 4016SOL    HW212948   3.576   4.937   6.852
 4017SOL     OW12949   0.817   5.055   5.500
 4017SOL    HW112950   0.727   5.093   5.522
 4017SOL    HW212951   0.883   5.130   5.491
 4018SOL     OW12952   3.700   6.229   2.045
 4018SOL    HW112953   3.735   6.244   1.953
 4018SOL    HW212954   3.610   6.272   2.053
 4019SOL     OW12955   5.468   3.153   2.327
 4019SOL    HW112956   5.487   3.101   2.410
 4019SOL    HW212957   5.407   3.100   2.268
 4020SOL     OW12958   0.150   3.884   4.302
 4020SOL    HW112959   0.245   3.869   4.331
 4020SOL    HW212960   0.106   3.796   4.288
 4021SOL     OW12961   3.411   3.456   5.572
 4021SOL    HW112962   3.422   3.363   5.607
 4021SOL    HW212963   3.467   3.467   5.490
 4022SOL     OW12964   3.915   6.718   0.825
 4022SOL    HW112965   3.821   6.689   0.842
 4022SOL    HW212966   3.920   6.818   0.833
 4023SOL     OW12967   0.169   1.506   5.317
 4023SOL    HW112968   0.220   1.535   5.237
 4023SOL    HW212969   0.094   1.446   5.290
 4024SOL     OW12970   1.574   4.832   3.963
 4024SOL    HW112971   1.581   4.931   3.949
 4024SOL    HW212972   1.564   4.813   4.061
 4025SOL     OW12973   1.060   5.801   4.315
 4025SOL    HW112974   1.106   5.870   4.259
 4025SOL    HW212975   1.017   5.733   4.256
 4026SOL     OW12976   6.171   6.220   4.230
 4026SOL    HW112977   6.195   6.281   4.154
 4026SOL    HW212978   6.251   6.207   4.289
 4027SOL     OW12979   2.578   2.363   6.720
 4027SOL    HW112980   2.520   2.421   6.662
 4027SOL    HW212981   2.663   2.411   6.741
 4028SOL     OW12982   4.596   1.674   3.644
 4028SOL    HW112983   4.540   1.712   3.570
 4028SOL    HW212984   4.693   1.687   3.623
 4029SOL     OW12985   3.105   4.121   6.110
 4029SOL    HW112986   3.137   4.201   6.060
 4029SOL    HW212987   3.164   4.043   6.089
 4030SOL     OW12988   0.199   1.119   1.917
 4030SOL    HW112989   0.166   1.209   1.948
 4030SOL    HW212990   0.157   1.096   1.830
 4031SOL     OW12991   5.340   0.424   2.757
 4031SOL    HW112992   5.394   0.384   2.830
 4031SOL    HW212993   5.274   0.489   2.796
 4032SOL     OW12994   6.357   6.659   2.127
 4032SOL    HW112995   6.334   6.571   2.087
 4032SOL    HW212996   6.322   6.733   2.069
 4033SOL     OW12997   2.643   1.972   2.638
 4033SOL    HW112998   2.730   2.019   2.620
 4033SOL    HW212999   2.630   1.964   2.737
 4034SOL     OW13000   6.124   2.225   5.160
 4034SOL    HW113001   6.052   2.244   5.094
 4034SOL    HW213002   6.211   2.214   5.113
 4035SOL     OW13003   6.738   1.429   1.423
 4035SOL    HW113004   6.645   1.396   1.409
 4035SOL    HW213005   6.748   1.458   1.518
 4036SOL     OW13006   4.108   4.807   2.137
 4036SOL    HW113007   4.117   4.906   2.129
 4036SOL    HW213008   4.127   4.765   2.048
 4037SOL     OW13009   2.698   1.583   6.075
 4037SOL    HW113010   2.672   1.614   6.166
 4037SOL    HW213011   2.671   1.487   6.064
 4038SOL     OW13012   4.696   3.015   0.122
 4038SOL    HW113013   4.776   3.033   0.065
 4038SOL    HW213014   4.615   3.007   0.064
 4039SOL     OW13015   4.847   6.043   1.656
 4039SOL    HW113016   4.838   5.994   1.743
 4039SOL    HW213017   4.759   6.088   1.635
 4040SOL     OW13018   2.777   6.210   4.530
 4040SOL    HW113019   2.867   6.171   4.549
 4040SOL    HW213020   2.751   6.274   4.602
 4041SOL     OW13021   1.876   6.072   1.457
 4041SOL    HW113022   1.945   6.126   1.410
 4041SOL    HW213023   1.886   6.083   1.556
 4042SOL     OW13024   6.151   6.551   3.348
 4042SOL    HW113025   6.224   6.617   3.366
 4042SOL    HW213026   6.146   6.533   3.250
 4043SOL     OW13027   6.629   1.901   6.742
 4043SOL    HW113028   6.538   1.941   6.753
 4043SOL    HW213029   6.698   1.968   6.769
 4044SOL     OW13030   5.460   4.743   2.653
 4044SOL    HW113031   5.470   4.791   2.566
 4044SOL    HW213032   5.550   4.723   2.691
 4045SOL     OW13033   4.132   6.564   5.771
 4045SOL    HW113034   4.198   6.495   5.740
 4045SOL    HW213035   4.075   6.593   5.694
 4046SOL     OW13036   1.064   1.734   2.878
 4046SOL    HW113037   0.986   1.794   2.863
 4046SOL    HW213038   1.032   1.639   2.878
 4047SOL     OW13039   1.958   2.520   6.750
 4047SOL    HW113040   1.946   2.619   6.747
 4047SOL    HW213041   1.898   2.481   6.819
 4048SOL     OW13042   5.630   1.355   1.740
 4048SOL    HW113043   5.597   1.341   1.646
 4048SOL    HW213044   5.556   1.337   1.804
 4049SOL     OW13045   4.757   6.283   6.139
 4049SOL    HW113046   4.700   6.303   6.059
 4049SOL    HW213047   4.703   6.294   6.222
 4050SOL     OW13048   0.852   6.457   2.273
 4050SOL    HW113049   0.858   6.366   2.313
 4050SOL    HW213050   0.852   6.526   2.346
 4051SOL     OW13051   4.751   1.100   6.559
 4051SOL    HW113052   4.674   1.096   6.496
 4051SOL    HW213053   4.717   1.096   6.653
 4052SOL     OW13054   5.962   2.314   3.513
 4052SOL    HW113055   5.995   2.296   3.605
 4052SOL    HW213056   6.035   2.358   3.459
 4053SOL     OW13057   2.089   6.139   4.476
 4053SOL    HW113058   2.034   6.177   4.550
 4053SOL    HW213059   2.031   6.126   4.395
 4054SOL     OW13060   5.193   4.350   0.756
 4054SOL    HW113061   5.170   4.291   0.678
 4054SOL    HW213062   5.189   4.296   0.840
 4055SOL     OW13063   1.637   3.991   1.004
 4055SOL    HW113064   1.695   3.951   1.075
 4055SOL    HW213065   1.602   4.079   1.036
 4056SOL     OW13066   5.377   3.923   1.126
 4056SOL    HW113067   5.387   4.019   1.103
 4056SOL    HW213068   5.467   3.882   1.140
 4057SOL     OW13069   6.936   2.948   0.071
 4057SOL    HW113070   6.949   2.849   0.082
 4057SOL    HW213071   7.016   2.988   0.026
 4058SOL     OW13072   2.942   6.458   4.730
 4058SOL    HW113073   2.853   6.419   4.755
 4058SOL    HW213074   2.991   6.483   4.813
 4059SOL     OW13075   0.091   2.551   3.442
 4059SOL    HW113076   0.061   2.647   3.450
 4059SOL    HW213077   0.042   2.508   3.366
 4060SOL     OW13078   5.399   5.036   5.498
 4060SOL    HW113079   5.433   4.953   5.543
 4060SOL    HW213080   5.473   5.103   5.490
 4061SOL     OW13081   2.559   4.568   2.131
 4061SOL    HW113082   2.519   4.518   2.053
 4061SOL    HW213083   2.658   4.562   2.127
 4062SOL     OW13084   2.701   0.707   2.246
 4062SOL    HW113085   2.697   0.677   2.151
 4062SOL    HW213086   2.619   0.761   2.267
 4063SOL     OW13087   6.149   6.732   0.506
 4063SOL    HW113088   6.163   6.775   0.595
 4063SOL    HW213089   6.223   6.758   0.444
 4064SOL     OW13090   2.692   2.161   4.388
 4064SOL    HW113091   2.771   2.206   4.346
 4064SOL    HW213092   2.702   2.162   4.487
 4065SOL     OW13093   0.978   0.079   1.841
 4065SOL    HW113094   0.900   0.090   1.779
 4065SOL    HW213095   1.028   7.024   1.817
 4066SOL     OW13096   6.521   4.345   2.539
 4066SOL    HW113097   6.503   4.420   2.476
 4066SOL    HW213098   6.487   4.259   2.501
 4067SOL     OW13099   5.375   3.796   3.836
 4067SOL    HW113100   5.288   3.747   3.843
 4067SOL    HW213101   5.377   3.848   3.751
 4068SOL     OW13102   2.503   1.965   4.360
 4068SOL    HW113103   2.487   1.901   4.435
 4068SOL    HW213104   2.594   2.007   4.371
 4069SOL     OW13105   3.933   5.011   6.827
 4069SOL    HW113106   3.854   4.951   6.815
 4069SOL    HW213107   3.908   5.104   6.802
 4070SOL     OW13108   0.194   2.926   2.653
 4070SOL    HW113109   0.204   2.845   2.712
 4070SOL    HW213110   0.242   2.910   2.567
 4071SOL     OW13111   1.362   1.523   4.759
 4071SOL    HW113112   1.337   1.534   4.663
 4071SOL    HW213113   1.288   1.476   4.808
 4072SOL     OW13114   0.635   5.940   4.720
 4072SOL    HW113115   0.573   6.018   4.729
 4072SOL    HW213116   0.705   5.960   4.652
 4073SOL     OW13117   3.154   5.573   6.290
 4073SOL    HW113118   3.152   5.642   6.218
 4073SOL    HW213119   3.121   5.614   6.376
 4074SOL     OW13120   0.375   4.534   1.221
 4074SOL    HW113121   0.302   4.540   1.153
 4074SOL    HW213122   0.439   4.462   1.194
 4075SOL     OW13123   4.807   1.911   1.368
 4075SOL    HW113124   4.778   2.006   1.381
 4075SOL    HW213125   4.833   1.871   1.456
 4076SOL     OW13126   2.358   3.350   6.362
 4076SOL    HW113127   2.395   3.271   6.313
 4076SOL    HW213128   2.419   3.429   6.350
 4077SOL     OW13129   4.167   1.833   1.037
 4077SOL    HW113130   4.175   1.806   0.941
 4077SOL    HW213131   4.246   1.887   1.064
 4078SOL     OW13132   2.219   4.786   2.196
 4078SOL    HW113133   2.153   4.784   2.272
 4078SOL    HW213134   2.217   4.876   2.153
 4079SOL     OW13135   2.033   1.297   2.940
 4079SOL    HW113136   1.955   1.358   2.949
 4079SOL    HW213137   2.001   1.207   2.909
 4080SOL     OW13138   4.692   2.932   5.923
 4080SOL    HW113139   4.767   2.919   5.858
 4080SOL    HW213140   4.640   3.014   5.899
 4081SOL     OW13141   1.333   2.742   3.459
 4081SOL    HW113142   1.367   2.827   3.499
 4081SOL    HW213143   1.405   2.672   3.463
 4082SOL     OW13144   0.614   3.929   0.249
 4082SOL    HW113145   0.600   3.859   0.178
 4082SOL    HW213146   0.526   3.971   0.273
 4083SOL     OW13147   6.447   3.207   2.854
 4083SOL    HW113148   6.462   3.170   2.762
 4083SOL    HW213149   6.414   3.135   2.915
 4084SOL     OW13150   5.721   1.910   3.897
 4084SOL    HW113151   5.710   1.900   3.798
 4084SOL    HW213152   5.759   1.827   3.936
 4085SOL     OW13153   3.895   5.481   0.700
 4085SOL    HW113154   3.852   5.571   0.690
 4085SOL    HW213155   3.866   5.422   0.625
 4086SOL     OW13156   2.124   5.982   1.862
 4086SOL    HW113157   2.183   6.000   1.783
 4086SOL    HW213158   2.033   6.020   1.846
 4087SOL     OW13159   3.122   2.164   3.387
 4087SOL    HW113160   3.220   2.173   3.400
 4087SOL    HW213161   3.099   2.173   3.290
 4088SOL     OW13162   0.473   2.083   0.813
 4088SOL    HW113163   0.554   2.026   0.821
 4088SOL    HW213164   0.499   2.176   0.785
 4089SOL     OW13165   6.463   6.184   3.642
 4089SOL    HW113166   6.393   6.247   3.608
 4089SOL    HW213167   6.444   6.162   3.738
 4090SOL     OW13168   1.998   4.224   5.713
 4090SOL    HW113169   2.032   4.318   5.721
 4090SOL    HW213170   1.909   4.226   5.668
 4091SOL     OW13171   6.724   6.253   0.207
 4091SOL    HW113172   6.775   6.197   0.142
 4091SOL    HW213173   6.687   6.333   0.159
 4092SOL     OW13174   6.457   3.198   5.021
 4092SOL    HW113175   6.392   3.189   5.096
 4092SOL    HW213176   6.448   3.288   4.979
 4093SOL     OW13177   4.235   0.010   3.405
 4093SOL    HW113178   4.306   0.012   3.476
 4093SOL    HW213179   4.145   0.010   3.449
 4094SOL     OW13180   2.169   5.609   4.538
 4094SOL    HW113181   2.211   5.534   4.488
 4094SOL    HW213182   2.217   5.695   4.517
 4095SOL     OW13183   0.451   3.563   6.342
 4095SOL    HW113184   0.526   3.598   6.398
 4095SOL    HW213185   0.429   3.629   6.270
 4096SOL     OW13186   4.685   5.531   0.820
 4096SOL    HW113187   4.735   5.611   0.786
 4096SOL    HW213188   4.746   5.452   0.826
 4097SOL     OW13189   3.926   3.848   6.220
 4097SOL    HW113190   3.939   3.769   6.160
 4097SOL    HW213191   3.836   3.888   6.203
 4098SOL     OW13192   0.204   2.923   1.933
 4098SOL    HW113193   0.191   2.831   1.969
 4098SOL    HW213194   0.299   2.950   1.945
 4099SOL     OW13195   3.108   4.666   1.057
 4099SOL    HW113196   3.119   4.711   1.145
 4099SOL    HW213197   3.099   4.567   1.070
 4100SOL     OW13198   6.283   5.963   4.930
 4100SOL    HW113199   6.351   6.022   4.973
 4100SOL    HW213200   6.329   5.898   4.870
 4101SOL     OW13201   5.778   0.786   0.902
 4101SOL    HW113202   5.791   0.787   1.001
 4101SOL    HW213203   5.778   0.880   0.867
 4102SOL     OW13204   6.444   0.617   1.503
 4102SOL    HW113205   6.458   0.547   1.433
 4102SOL    HW213206   6.456   0.577   1.594
 4103SOL     OW13207   0.535   0.454   0.787
 4103SOL    HW113208   0.493   0.439   0.876
 4103SOL    HW213209   0.503   0.384   0.723
 4104SOL     OW13210   0.817   4.702   2.011
 4104SOL    HW113211   0.761   4.782   2.032
 4104SOL    HW213212   0.759   4.629   1.977
 4105SOL     OW13213   3.945   5.566   1.243
 4105SOL    HW113214   3.901   5.499   1.184
 4105SOL    HW213215   3.891   5.578   1.327
 4106SOL     OW13216   0.665   1.938   5.071
 4106SOL    HW113217   0.615   1.922   5.156
 4106SOL    HW213218   0.676   2.036   5.057
 4107SOL     OW13219   1.656   6.213   1.368
 4107SOL    HW113220   1.592   6.169   1.305
 4107SOL    HW213221   1.725   6.146   1.397
 4108SOL     OW13222   0.116   4.817   6.419
 4108SOL    HW113223   0.133   4.792   6.324
 4108SOL    HW213224   0.023   4.791   6.445
 4109SOL     OW13225   4.768   5.853   4.883
 4109SOL    HW113226   4.676   5.814   4.883
 4109SOL    HW213227   4.762   5.952   4.874
 4110SOL     OW13228   4.762   3.108   6.463
 4110SOL    HW113229   4.667   3.127   6.439
 4110SOL    HW213230   4.765   3.064   6.553
 4111SOL     OW13231   4.190   2.890   6.664
 4111SOL    HW113232   4.266   2.943   6.625
 4111SOL    HW213233   4.178   2.915   6.760
 4112SOL     OW13234   5.088   0.638   5.414
 4112SOL    HW113235   5.110   0.560   5.472
 4112SOL    HW213236   5.078   0.720   5.471
 4113SOL     OW13237   4.568   6.461   4.474
 4113SOL    HW113238   4.580   6.533   4.542
 4113SOL    HW213239   4.513   6.387   4.513
 4114SOL     OW13240   3.677   2.100   4.021
 4114SOL    HW113241   3.747   2.131   4.085
 4114SOL    HW213242   3.671   2.001   4.024
 4115SOL     OW13243   4.210   6.001   2.168
 4115SOL    HW113244   4.252   6.087   2.141
 4115SOL    HW213245   4.269   5.925   2.141
 4116SOL     OW13246   4.173   1.987   1.655
 4116SOL    HW113247   4.217   1.988   1.745
 4116SOL    HW213248   4.105   1.914   1.652
 4117SOL     OW13249   0.687   5.389   1.718
 4117SOL    HW113250   0.724   5.297   1.703
 4117SOL    HW213251   0.682   5.406   1.817
 4118SOL     OW13252   2.506   6.320   0.920
 4118SOL    HW113253   2.587   6.353   0.969
 4118SOL    HW213254   2.532   6.284   0.831
 4119SOL     OW13255   4.078   2.165   3.411
 4119SOL    HW113256   4.035   2.249   3.443
 4119SOL    HW213257   4.038   2.087   3.459
 4120SOL     OW13258   4.418   0.676   0.835
 4120SOL    HW113259   4.392   0.594   0.885
 4120SOL    HW213260   4.338   0.717   0.792
 4121SOL     OW13261   5.798   1.496   5.185
 4121SOL    HW113262   5.872   1.429   5.190
 4121SOL    HW213263   5.710   1.449   5.187
 4122SOL     OW13264   0.728   6.166   5.564
 4122SOL    HW113265   0.818   6.166   5.520
 4122SOL    HW213266   0.667   6.103   5.515
 4123SOL     OW13267   4.778   4.929   5.328
 4123SOL    HW113268   4.766   4.889   5.419
 4123SOL    HW213269   4.867   4.973   5.323
 4124SOL     OW13270   5.978   5.120   5.797
 4124SOL    HW113271   6.025   5.173   5.868
 4124SOL    HW213272   5.880   5.124   5.813
 4125SOL     OW13273   4.669   1.311   1.778
 4125SOL    HW113274   4.617   1.350   1.854
 4125SOL    HW213275   4.609   1.253   1.723
 4126SOL     OW13276   1.359   4.273   3.922
 4126SOL    HW113277   1.445   4.323   3.924
 4126SOL    HW213278   1.307   4.299   3.840
 4127SOL     OW13279   4.784   4.588   4.616
 4127SOL    HW113280   4.796   4.504   4.669
 4127SOL    HW213281   4.698   4.583   4.565
 4128SOL     OW13282   1.297   3.342   1.985
 4128SOL    HW113283   1.359   3.341   2.063
 4128SOL    HW213284   1.321   3.418   1.925
 4129SOL     OW13285   4.988   1.267   6.668
 4129SOL    HW113286   4.988   1.249   6.766
 4129SOL    HW213287   4.933   1.197   6.621
 4130SOL     OW13288   0.171   3.402   5.762
 4130SOL    HW113289   0.103   3.329   5.755
 4130SOL    HW213290   0.186   3.442   5.671
 4131SOL     OW13291   1.168   5.748   3.983
 4131SOL    HW113292   1.260   5.757   3.945
 4131SOL    HW213293   1.158   5.659   4.027
 4132SOL     OW13294   5.017   4.701   4.013
 4132SOL    HW113295   5.015   4.759   3.932
 4132SOL    HW213296   5.096   4.725   4.070
 4133SOL     OW13297   2.850   6.662   1.883
 4133SOL    HW113298   2.801   6.733   1.934
 4133SOL    HW213299   2.874   6.696   1.792
 4134SOL     OW13300   1.809   2.682   0.695
 4134SOL    HW113301   1.813   2.725   0.786
 4134SOL    HW213302   1.744   2.732   0.638
 4135SOL     OW13303   2.304   0.608   2.281
 4135SOL    HW113304   2.348   0.694   2.305
 4135SOL    HW213305   2.355   0.563   2.208
 4136SOL     OW13306   1.108   2.150   2.675
 4136SOL    HW113307   1.115   2.108   2.766
 4136SOL    HW213308   1.132   2.246   2.681
 4137SOL     OW13309   1.852   4.246   1.207
 4137SOL    HW113310   1.923   4.295   1.156
 4137SOL    HW213311   1.800   4.189   1.144
 4138SOL     OW13312   3.764   5.407   3.139
 4138SOL    HW113313   3.770   5.314   3.174
 4138SOL    HW213314   3.846   5.458   3.166
 4139SOL     OW13315   2.287   2.194   5.290
 4139SOL    HW113316   2.253   2.280   5.251
 4139SOL    HW213317   2.363   2.160   5.235
 4140SOL     OW13318   2.900   0.848   5.562
 4140SOL    HW113319   2.985   0.819   5.604
 4140SOL    HW213320   2.880   0.790   5.483
 4141SOL     OW13321   5.228   6.216   1.817
 4141SOL    HW113322   5.313   6.236   1.864
 4141SOL    HW213323   5.240   6.229   1.718
 4142SOL     OW13324   6.619   5.568   0.947
 4142SOL    HW113325   6.519   5.576   0.944
 4142SOL    HW213326   6.644   5.471   0.949
 4143SOL     OW13327   0.175   3.113   0.225
 4143SOL    HW113328   0.195   3.211   0.230
 4143SOL    HW213329   0.107   3.096   0.154
 4144SOL     OW13330   5.313   3.279   0.069
 4144SOL    HW113331   5.387   3.343   0.086
 4144SOL    HW213332   5.346   3.186   0.081
 4145SOL     OW13333   0.223   5.998   1.417
 4145SOL    HW113334   0.302   5.938   1.429
 4145SOL    HW213335   0.139   5.948   1.439
 4146SOL     OW13336   6.878   0.942   5.972
 4146SOL    HW113337   6.957   0.998   5.949
 4146SOL    HW213338   6.909   0.855   6.009
 4147SOL     OW13339   4.047   1.898   5.584
 4147SOL    HW113340   4.083   1.979   5.630
 4147SOL    HW213341   3.960   1.920   5.539
 4148SOL     OW13342   0.546   0.167   3.816
 4148SOL    HW113343   0.637   0.177   3.776
 4148SOL    HW213344   0.496   0.253   3.809
 4149SOL     OW13345   0.768   2.905   0.377
 4149SOL    HW113346   0.717   2.953   0.305
 4149SOL    HW213347   0.849   2.959   0.401
 4150SOL     OW13348   0.094   1.073   5.902
 4150SOL    HW113349   0.134   1.161   5.879
 4150SOL    HW213350   0.103   1.057   6.000
 4151SOL     OW13351   4.943   6.591   6.117
 4151SOL    HW113352   4.986   6.519   6.172
 4151SOL    HW213353   5.013   6.638   6.064
 4152SOL     OW13354   2.806   5.391   1.006
 4152SOL    HW113355   2.816   5.434   0.916
 4152SOL    HW213356   2.890   5.344   1.031
 4153SOL     OW13357   4.806   4.845   6.455
 4153SOL    HW113358   4.833   4.870   6.362
 4153SOL    HW213359   4.805   4.745   6.464
 4154SOL     OW13360   0.278   4.294   4.927
 4154SOL    HW113361   0.184   4.272   4.952
 4154SOL    HW213362   0.281   4.323   4.831
 4155SOL     OW13363   5.917   2.857   3.444
 4155SOL    HW113364   5.893   2.820   3.533
 4155SOL    HW213365   6.006   2.902   3.449
 4156SOL     OW13366   5.401   6.943   5.101
 4156SOL    HW113367   5.470   6.941   5.174
 4156SOL    HW213368   5.331   7.011   5.124
 4157SOL     OW13369   4.038   6.553   3.774
 4157SOL    HW113370   4.031   6.454   3.782
 4157SOL    HW213371   3.946   6.592   3.766
 4158SOL     OW13372   1.716   5.320   4.098
 4158SOL    HW113373   1.787   5.271   4.047
 4158SOL    HW213374   1.712   5.415   4.067
 4159SOL     OW13375   1.834   3.075   3.682
 4159SOL    HW113376   1.813   3.080   3.780
 4159SOL    HW213377   1.928   3.103   3.667
 4160SOL     OW13378   6.756   0.854   1.267
 4160SOL    HW113379   6.828   0.867   1.198
 4160SOL    HW213380   6.667   0.875   1.226
 4161SOL     OW13381   1.957   6.398   6.397
 4161SOL    HW113382   1.932   6.402   6.494
 4161SOL    HW213383   1.903   6.327   6.351
 4162SOL     OW13384   6.202   6.892   5.288
 4162SOL    HW113385   6.126   6.854   5.340
 4162SOL    HW213386   6.275   6.918   5.351
 4163SOL     OW13387   6.116   0.545   3.038
 4163SOL    HW113388   6.112   0.607   3.117
 4163SOL    HW213389   6.183   0.473   3.056
 4164SOL     OW13390   1.205   6.543   6.401
 4164SOL    HW113391   1.255   6.577   6.322
 4164SOL    HW213392   1.140   6.473   6.372
 4165SOL     OW13393   4.747   0.337   0.328
 4165SOL    HW113394   4.712   0.390   0.405
 4165SOL    HW213395   4.738   0.239   0.347
 4166SOL     OW13396   5.667   3.369   1.182
 4166SOL    HW113397   5.686   3.393   1.087
 4166SOL    HW213398   5.704   3.278   1.201
 4167SOL     OW13399   2.305   3.943   0.436
 4167SOL    HW113400   2.257   3.878   0.377
 4167SOL    HW213401   2.365   3.894   0.498
 4168SOL     OW13402   0.643   5.229   0.991
 4168SOL    HW113403   0.547   5.228   1.020
 4168SOL    HW213404   0.650   5.198   0.896
 4169SOL     OW13405   6.139   3.717   3.727
 4169SOL    HW113406   6.069   3.774   3.770
 4169SOL    HW213407   6.229   3.743   3.760
 4170SOL     OW13408   3.376   3.189   5.230
 4170SOL    HW113409   3.392   3.244   5.148
 4170SOL    HW213410   3.371   3.249   5.310
 4171SOL     OW13411   5.429   4.429   1.208
 4171SOL    HW113412   5.339   4.459   1.241
 4171SOL    HW213413   5.486   4.509   1.190
 4172SOL     OW13414   0.292   2.367   6.328
 4172SOL    HW113415   0.333   2.443   6.379
 4172SOL    HW213416   0.323   2.280   6.366
 4173SOL     OW13417   6.037   3.377   4.568
 4173SOL    HW113418   5.941   3.392   4.545
 4173SOL    HW213419   6.045   3.293   4.622
 4174SOL     OW13420   5.897   0.845   3.683
 4174SOL    HW113421   5.899   0.768   3.747
 4174SOL    HW213422   5.892   0.811   3.589
 4175SOL     OW13423   2.536   6.185   4.057
 4175SOL    HW113424   2.486   6.173   4.143
 4175SOL    HW213425   2.560   6.096   4.019
 4176SOL     OW13426   2.815   6.750   2.288
 4176SOL    HW113427   2.900   6.700   2.273
 4176SOL    HW213428   2.750   6.730   2.215
 4177SOL     OW13429   0.664   4.944   5.268
 4177SOL    HW113430   0.597   5.016   5.249
 4177SOL    HW213431   0.700   4.955   5.360
 4178SOL     OW13432   4.185   0.792   4.370
 4178SOL    HW113433   4.087   0.808   4.367
 4178SOL    HW213434   4.206   0.704   4.328
 4179SOL     OW13435   5.264   3.395   4.034
 4179SOL    HW113436   5.357   3.383   4.001
 4179SOL    HW213437   5.248   3.335   4.113
 4180SOL     OW13438   5.426   3.403   2.465
 4180SOL    HW113439   5.507   3.416   2.522
 4180SOL    HW213440   5.442   3.328   2.401
 4181SOL     OW13441   2.134   2.415   5.995
 4181SOL    HW113442   2.170   2.415   6.088
 4181SOL    HW213443   2.210   2.415   5.930
 4182SOL     OW13444   0.130   6.661   2.810
 4182SOL    HW113445   0.110   6.588   2.745
 4182SOL    HW213446   0.144   6.623   2.901
 4183SOL     OW13447   3.866   0.918   1.360
 4183SOL    HW113448   3.810   0.840   1.335
 4183SOL    HW213449   3.880   0.977   1.280
 4184SOL     OW13450   4.325   4.878   1.157
 4184SOL    HW113451   4.233   4.861   1.124
 4184SOL    HW213452   4.323   4.950   1.227
 4185SOL     OW13453   0.344   5.317   3.018
 4185SOL    HW113454   0.336   5.411   2.986
 4185SOL    HW213455   0.330   5.315   3.117
 4186SOL     OW13456   1.285   4.774   0.411
 4186SOL    HW113457   1.302   4.808   0.504
 4186SOL    HW213458   1.362   4.719   0.381
 4187SOL     OW13459   3.776   2.980   5.596
 4187SOL    HW113460   3.787   3.066   5.647
 4187SOL    HW213461   3.866   2.938   5.582
 4188SOL     OW13462   5.022   6.919   4.441
 4188SOL    HW113463   5.078   6.839   4.423
 4188SOL    HW213464   4.993   6.961   4.354
 4189SOL     OW13465   3.269   1.774   4.689
 4189SOL    HW113466   3.211   1.849   4.724
 4189SOL    HW213467   3.365   1.802   4.691
 4190SOL     OW13468   2.177   7.028   6.525
 4190SOL    HW113469   2.169   0.099   6.525
 4190SOL    HW213470   2.117   6.991   6.454
 4191SOL     OW13471   5.928   3.678   2.873
 4191SOL    HW113472   5.987   3.620   2.928
 4191SOL    HW213473   5.928   3.646   2.778
 4192SOL     OW13474   0.213   1.779   3.775
 4192SOL    HW113475   0.281   1.836   3.729
 4192SOL    HW213476   0.130   1.775   3.719
 4193SOL     OW13477   2.054   6.345   1.799
 4193SOL    HW113478   2.078   6.393   1.883
 4193SOL    HW213479   2.130   6.351   1.734
 4194SOL     OW13480   6.811   2.141   5.150
 4194SOL    HW113481   6.834   2.104   5.060
 4194SOL    HW213482   6.895   2.162   5.199
 4195SOL     OW13483   3.249   0.236   1.741
 4195SOL    HW113484   3.262   0.333   1.719
 4195SOL    HW213485   3.269   0.221   1.838
 4196SOL     OW13486   6.294   1.986   4.369
 4196SOL    HW113487   6.323   1.901   4.324
 4196SOL    HW213488   6.197   2.001   4.351
 4197SOL     OW13489   4.518   4.718   4.286
 4197SOL    HW113490   4.545   4.695   4.192
 4197SOL    HW213491   4.515   4.634   4.340
 4198SOL     OW13492   6.034   3.698   6.838
 4198SOL    HW113493   5.977   3.718   6.759
 4198SOL    HW213494   5.995   3.620   6.888
 4199SOL     OW13495   2.108   3.305   6.262
 4199SOL    HW113496   2.193   3.300   6.315
 4199SOL    HW213497   2.107   3.389   6.208
 4200SOL     OW13498   2.756   6.233   5.499
 4200SOL    HW113499   2.810   6.160   5.540
 4200SOL    HW213500   2.697   6.195   5.428
 4201SOL     OW13501   5.477   6.421   3.803
 4201SOL    HW113502   5.564   6.458   3.835
 4201SOL    HW213503   5.495   6.352   3.733
 4202SOL     OW13504   4.426   4.590   6.142
 4202SOL    HW113505   4.457   4.573   6.048
 4202SOL    HW213506   4.370   4.513   6.173
 4203SOL     OW13507   3.739   6.025   2.571
 4203SOL    HW113508   3.703   6.116   2.548
 4203SOL    HW213509   3.663   5.961   2.578
 4204SOL     OW13510   3.284   2.799   1.940
 4204SOL    HW113511   3.184   2.795   1.933
 4204SOL    HW213512   3.310   2.828   2.032
 4205SOL     OW13513   3.836   5.344   4.107
 4205SOL    HW113514   3.915   5.306   4.059
 4205SOL    HW213515   3.823   5.296   4.194
 4206SOL     OW13516   4.578   1.094   5.724
 4206SOL    HW113517   4.596   1.172   5.664
 4206SOL    HW213518   4.620   1.012   5.685
 4207SOL     OW13519   1.729   1.612   1.795
 4207SOL    HW113520   1.747   1.709   1.807
 4207SOL    HW213521   1.763   1.583   1.705
 4208SOL     OW13522   1.448   2.479   0.783
 4208SOL    HW113523   1.517   2.437   0.725
 4208SOL    HW213524   1.388   2.409   0.821
 4209SOL     OW13525   1.164   1.358   4.868
 4209SOL    HW113526   1.097   1.349   4.794
 4209SOL    HW213527   1.197   1.268   4.893
 4210SOL     OW13528   3.303   3.243   1.948
 4210SOL    HW113529   3.391   3.201   1.923
 4210SOL    HW213530   3.314   3.342   1.951
 4211SOL     OW13531   5.462   5.922   5.811
 4211SOL    HW113532   5.431   6.015   5.832
 4211SOL    HW213533   5.384   5.860   5.812
 4212SOL     OW13534   6.292   2.524   2.129
 4212SOL    HW113535   6.290   2.616   2.090
 4212SOL    HW213536   6.266   2.528   2.225
 4213SOL     OW13537   2.463   0.858   2.289
 4213SOL    HW113538   2.445   0.924   2.363
 4213SOL    HW213539   2.475   0.908   2.203
 4214SOL     OW13540   0.567   4.087   5.768
 4214SOL    HW113541   0.574   4.082   5.868
 4214SOL    HW213542   0.564   3.994   5.730
 4215SOL     OW13543   6.910   5.554   4.881
 4215SOL    HW113544   6.823   5.581   4.840
 4215SOL    HW213545   6.912   5.581   4.977
 4216SOL     OW13546   1.482   2.199   3.510
 4216SOL    HW113547   1.401   2.202   3.568
 4216SOL    HW213548   1.521   2.106   3.512
 4217SOL     OW13549   6.736   0.502   2.802
 4217SOL    HW113550   6.821   0.549   2.775
 4217SOL    HW213551   6.670   0.508   2.727
 4218SOL     OW13552   5.195   0.110   1.944
 4218SOL    HW113553   5.113   0.098   2.000
 4218SOL    HW213554   5.249   0.186   1.980
 4219SOL     OW13555   2.807   4.917   5.059
 4219SOL    HW113556   2.708   4.926   5.044
 4219SOL    HW213557   2.832   4.820   5.056
 4220SOL     OW13558   6.482   3.428   3.010
 4220SOL    HW113559   6.444   3.503   2.956
 4220SOL    HW213560   6.478   3.343   2.958
 4221SOL     OW13561   6.650   5.878   6.104
 4221SOL    HW113562   6.740   5.842   6.132
 4221SOL    HW213563   6.581   5.850   6.170
 4222SOL     OW13564   6.099   1.691   2.078
 4222SOL    HW113565   6.110   1.761   2.149
 4222SOL    HW213566   6.003   1.666   2.070
 4223SOL     OW13567   4.051   3.373   3.580
 4223SOL    HW113568   4.070   3.453   3.636
 4223SOL    HW213569   4.050   3.291   3.637
 4224SOL     OW13570   4.874   3.468   4.002
 4224SOL    HW113571   4.874   3.386   4.060
 4224SOL    HW213572   4.916   3.543   4.052
 4225SOL     OW13573   5.423   0.811   5.323
 4225SOL    HW113574   5.478   0.878   5.371
 4225SOL    HW213575   5.358   0.769   5.386
 4226SOL     OW13576   2.193   0.639   3.392
 4226SOL    HW113577   2.172   0.737   3.392
 4226SOL    HW213578   2.120   0.589   3.346
 4227SOL     OW13579   3.317   4.176   6.509
 4227SOL    HW113580   3.363   4.091   6.536
 4227SOL    HW213581   3.331   4.245   6.580
 4228SOL     OW13582   5.677   5.641   4.020
 4228SOL    HW113583   5.606   5.580   4.055
 4228SOL    HW213584   5.701   5.708   4.090
 4229SOL     OW13585   3.940   4.663   6.112
 4229SOL    HW113586   4.014   4.718   6.150
 4229SOL    HW213587   3.869   4.649   6.182
 4230SOL     OW13588   2.265   0.232   4.837
 4230SOL    HW113589   2.186   0.248   4.777
 4230SOL    HW213590   2.321   0.159   4.798
 4231SOL     OW13591   5.533   6.087   5.025
 4231SOL    HW113592   5.497   6.169   4.981
 4231SOL    HW213593   5.632   6.081   5.009
 4232SOL     OW13594   0.398   5.011   1.742
 4232SOL    HW113595   0.450   5.079   1.793
 4232SOL    HW213596   0.417   5.021   1.644
 4233SOL     OW13597   6.387   0.475   0.479
 4233SOL    HW113598   6.401   0.574   0.473
 4233SOL    HW213599   6.441   0.429   0.409
 4234SOL     OW13600   2.571   5.485   5.285
 4234SOL    HW113601   2.543   5.392   5.264
 4234SOL    HW213602   2.518   5.550   5.230
 4235SOL     OW13603   5.987   4.529   5.298
 4235SOL    HW113604   6.005   4.455   5.363
 4235SOL    HW213605   5.980   4.492   5.206
 4236SOL     OW13606   6.655   3.412   3.796
 4236SOL    HW113607   6.723   3.475   3.759
 4236SOL    HW213608   6.566   3.457   3.799
 4237SOL     OW13609   6.542   4.669   4.349
 4237SOL    HW113610   6.600   4.615   4.289
 4237SOL    HW213611   6.558   4.641   4.444
 4238SOL     OW13612   4.244   4.739   4.110
 4238SOL    HW113613   4.301   4.664   4.076
 4238SOL    HW213614   4.232   4.730   4.209
 4239SOL     OW13615   5.232   0.201   3.975
 4239SOL    HW113616   5.241   0.205   4.074
 4239SOL    HW213617   5.298   0.264   3.932
 4240SOL     OW13618   2.620   6.510   6.526
 4240SOL    HW113619   2.653   6.455   6.449
 4240SOL    HW213620   2.524   6.534   6.511
 4241SOL     OW13621   5.867   0.582   0.721
 4241SOL    HW113622   5.964   0.575   0.745
 4241SOL    HW213623   5.824   0.654   0.776
 4242SOL     OW13624   2.427   6.671   3.291
 4242SOL    HW113625   2.404   6.767   3.278
 4242SOL    HW213626   2.469   6.658   3.382
 4243SOL     OW13627   0.204   3.555   2.218
 4243SOL    HW113628   0.169   3.473   2.171
 4243SOL    HW213629   0.201   3.540   2.317
 4244SOL     OW13630   4.836   5.924   0.968
 4244SOL    HW113631   4.831   5.848   1.032
 4244SOL    HW213632   4.831   5.889   0.874
 4245SOL     OW13633   6.905   2.671   0.128
 4245SOL    HW113634   6.921   2.630   0.038
 4245SOL    HW213635   6.835   2.619   0.177
 4246SOL     OW13636   5.192   2.953   2.802
 4246SOL    HW113637   5.242   3.010   2.736
 4246SOL    HW213638   5.163   2.869   2.757
 4247SOL     OW13639   2.388   5.569   4.241
 4247SOL    HW113640   2.464   5.576   4.305
 4247SOL    HW213641   2.418   5.524   4.157
 4248SOL     OW13642   1.705   0.372   3.220
 4248SOL    HW113643   1.631   0.437   3.237
 4248SOL    HW213644   1.673   0.300   3.158
 4249SOL     OW13645   0.132   2.047   3.640
 4249SOL    HW113646   0.208   2.108   3.620
 4249SOL    HW213647   0.095   2.068   3.730
 4250SOL     OW13648   0.365   5.829   4.234
 4250SOL    HW113649   0.377   5.845   4.332
 4250SOL    HW213650   0.310   5.747   4.220
 4251SOL     OW13651   6.209   2.789   6.925
 4251SOL    HW113652   6.216   2.815   6.829
 4251SOL    HW213653   6.116   2.807   6.958
 4252SOL     OW13654   6.387   5.568   6.104
 4252SOL    HW113655   6.287   5.564   6.110
 4252SOL    HW213656   6.413   5.635   6.034
 4253SOL     OW13657   3.781   6.387   2.754
 4253SOL    HW113658   3.805   6.479   2.724
 4253SOL    HW213659   3.830   6.320   2.698
 4254SOL     OW13660   1.814   4.561   1.260
 4254SOL    HW113661   1.729   4.526   1.301
 4254SOL    HW213662   1.877   4.486   1.245
 4255SOL     OW13663   0.688   4.068   3.751
 4255SOL    HW113664   0.678   4.007   3.673
 4255SOL    HW213665   0.618   4.139   3.747
 4256SOL     OW13666   0.963   5.220   1.265
 4256SOL    HW113667   0.970   5.242   1.167
 4256SOL    HW213668   0.868   5.199   1.287
 4257SOL     OW13669   6.448   1.437   4.776
 4257SOL    HW113670   6.468   1.459   4.680
 4257SOL    HW213671   6.411   1.518   4.821
 4258SOL     OW13672   3.454   5.725   1.293
 4258SOL    HW113673   3.440   5.721   1.194
 4258SOL    HW213674   3.407   5.805   1.330
 4259SOL     OW13675   1.558   6.562   1.203
 4259SOL    HW113676   1.609   6.531   1.284
 4259SOL    HW213677   1.460   6.548   1.219
 4260SOL     OW13678   4.942   0.296   4.345
 4260SOL    HW113679   4.947   0.390   4.311
 4260SOL    HW213680   5.031   0.268   4.380
 4261SOL     OW13681   2.370   0.011   4.079
 4261SOL    HW113682   2.295   0.010   4.013
 4261SOL    HW213683   2.333   0.021   4.171
 4262SOL     OW13684   1.689   5.024   5.753
 4262SOL    HW113685   1.751   5.005   5.830
 4262SOL    HW213686   1.676   4.941   5.699
 4263SOL     OW13687   2.819   2.032   3.109
 4263SOL    HW113688   2.745   2.022   3.176
 4263SOL    HW213689   2.903   1.992   3.146
 4264SOL     OW13690   5.863   1.532   4.307
 4264SOL    HW113691   5.813   1.568   4.229
 4264SOL    HW213692   5.959   1.555   4.299
 4265SOL     OW13693   3.414   6.919   0.592
 4265SOL    HW113694   3.353   6.841   0.581
 4265SOL    HW213695   3.389   6.969   0.675
 4266SOL     OW13696   1.422   0.390   0.054
 4266SOL    HW113697   1.442   0.323   0.125
 4266SOL    HW213698   1.462   0.360   6.996
 4267SOL     OW13699   2.210   3.958   3.895
 4267SOL    HW113700   2.166   3.945   3.984
 4267SOL    HW213701   2.230   3.868   3.855
 4268SOL     OW13702   1.468   5.095   6.840
 4268SOL    HW113703   1.376   5.124   6.813
 4268SOL    HW213704   1.463   5.011   6.893
 4269SOL     OW13705   3.486   1.821   3.802
 4269SOL    HW113706   3.452   1.830   3.709
 4269SOL    HW213707   3.561   1.754   3.804
 4270SOL     OW13708   3.836   3.337   1.689
 4270SOL    HW113709   3.741   3.358   1.670
 4270SOL    HW213710   3.849   3.238   1.695
 4271SOL     OW13711   5.967   1.002   0.914
 4271SOL    HW113712   5.968   1.062   0.994
 4271SOL    HW213713   5.929   1.052   0.836
 4272SOL     OW13714   6.972   3.150   6.067
 4272SOL    HW113715   6.929   3.211   6.134
 4272SOL    HW213716   6.990   3.062   6.110
 4273SOL     OW13717   4.845   6.434   5.426
 4273SOL    HW113718   4.862   6.455   5.329
 4273SOL    HW213719   4.933   6.423   5.473
 4274SOL     OW13720   0.737   6.765   2.350
 4274SOL    HW113721   0.802   6.826   2.396
 4274SOL    HW213722   0.691   6.708   2.418
 4275SOL     OW13723   0.259   2.266   4.290
 4275SOL    HW113724   0.234   2.249   4.195
 4275SOL    HW213725   0.350   2.308   4.294
 4276SOL     OW13726   2.958   4.892   3.875
 4276SOL    HW113727   2.885   4.826   3.893
 4276SOL    HW213728   2.936   4.946   3.794
 4277SOL     OW13729   6.909   4.908   3.886
 4277SOL    HW113730   6.978   4.900   3.958
 4277SOL    HW213731   6.818   4.890   3.925
 4278SOL     OW13732   6.749   6.605   3.168
 4278SOL    HW113733   6.752   6.693   3.214
 4278SOL    HW213734   6.661   6.561   3.186
 4279SOL     OW13735   1.512   1.179   2.753
 4279SOL    HW113736   1.450   1.146   2.682
 4279SOL    HW213737   1.599   1.205   2.712
 4280SOL     OW13738   6.392   6.854   6.442
 4280SOL    HW113739   6.295   6.874   6.434
 4280SOL    HW213740   6.423   6.806   6.360
 4281SOL     OW13741   4.900   5.510   3.841
 4281SOL    HW113742   4.832   5.584   3.841
 4281SOL    HW213743   4.917   5.480   3.935
 4282SOL     OW13744   3.309   4.215   0.460
 4282SOL    HW113745   3.239   4.222   0.388
 4282SOL    HW213746   3.388   4.271   0.434
 4283SOL     OW13747   5.020   0.946   3.196
 4283SOL    HW113748   4.952   0.893   3.246
 4283SOL    HW213749   5.006   0.934   3.097
 4284SOL     OW13750   4.351   5.303   0.306
 4284SOL    HW113751   4.361   5.373   0.377
 4284SOL    HW213752   4.437   5.295   0.255
 4285SOL     OW13753   3.709   0.681   6.302
 4285SOL    HW113754   3.773   0.693   6.378
 4285SOL    HW213755   3.616   0.671   6.339
 4286SOL     OW13756   7.002   0.556   6.958
 4286SOL    HW113757   7.014   0.627   6.889
 4286SOL    HW213758   6.911   0.564   6.999
 4287SOL     OW13759   4.397   0.831   0.212
 4287SOL    HW113760   4.299   0.813   0.224
 4287SOL    HW213761   4.442   0.748   0.180
 4288SOL     OW13762   6.283   5.480   1.827
 4288SOL    HW113763   6.224   5.400   1.839
 4288SOL    HW213764   6.377   5.450   1.810
 4289SOL     OW13765   0.305   2.313   5.244
 4289SOL    HW113766   0.356   2.383   5.295
 4289SOL    HW213767   0.252   2.357   5.172
 4290SOL     OW13768   7.028   6.922   3.245
 4290SOL    HW113769   0.049   7.003   3.275
 4290SOL    HW213770   0.062   6.844   3.241
 4291SOL     OW13771   4.883   3.041   6.238
 4291SOL    HW113772   4.858   3.051   6.334
 4291SOL    HW213773   4.907   2.946   6.219
 4292SOL     OW13774   5.094   2.506   0.549
 4292SOL    HW113775   5.109   2.413   0.517
 4292SOL    HW213776   5.095   2.507   0.649
 4293SOL     OW13777   4.583   3.820   6.689
 4293SOL    HW113778   4.616   3.742   6.743
 4293SOL    HW213779   4.483   3.817   6.685
 4294SOL     OW13780   2.661   1.688   6.311
 4294SOL    HW113781   2.737   1.670   6.374
 4294SOL    HW213782   2.586   1.625   6.332
 4295SOL     OW13783   4.159   6.463   2.985
 4295SOL    HW113784   4.153   6.522   2.904
 4295SOL    HW213785   4.083   6.397   2.983
 4296SOL     OW13786   3.300   6.771   0.947
 4296SOL    HW113787   3.255   6.771   1.037
 4296SOL    HW213788   3.365   6.848   0.943
 4297SOL     OW13789   6.854   5.416   1.425
 4297SOL    HW113790   6.898   5.474   1.357
 4297SOL    HW213791   6.768   5.380   1.388
 4298SOL     OW13792   4.196   6.139   1.208
 4298SOL    HW113793   4.226   6.045   1.193
 4298SOL    HW213794   4.120   6.160   1.147
 4299SOL     OW13795   0.674   2.846   0.105
 4299SOL    HW113796   0.700   2.869   0.012
 4299SOL    HW213797   0.582   2.807   0.106
 4300SOL     OW13798   3.366   0.415   0.777
 4300SOL    HW113799   3.268   0.413   0.761
 4300SOL    HW213800   3.389   0.489   0.840
 4301SOL     OW13801   2.653   6.575   1.288
 4301SOL    HW113802   2.591   6.496   1.282
 4301SOL    HW213803   2.601   6.656   1.315
 4302SOL     OW13804   0.056   0.086   6.948
 4302SOL    HW113805   0.034   7.019   6.969
 4302SOL    HW213806   0.093   0.091   6.855
 4303SOL     OW13807   6.996   4.727   3.721
 4303SOL    HW113808   6.950   4.804   3.766
 4303SOL    HW213809   6.986   4.735   3.622
 4304SOL     OW13810   3.504   4.142   1.956
 4304SOL    HW113811   3.544   4.159   2.046
 4304SOL    HW213812   3.544   4.204   1.889
 4305SOL     OW13813   0.398   0.010   5.747
 4305SOL    HW113814   0.368   0.022   5.653
 4305SOL    HW213815   0.339   6.972   5.793
 4306SOL     OW13816   4.977   3.768   4.827
 4306SOL    HW113817   4.948   3.738   4.736
 4306SOL    HW213818   4.933   3.711   4.896
 4307SOL     OW13819   5.984   2.635   5.639
 4307SOL    HW113820   5.962   2.559   5.578
 4307SOL    HW213821   5.926   2.630   5.721
 4308SOL     OW13822   5.308   5.137   1.819
 4308SOL    HW113823   5.288   5.216   1.761
 4308SOL    HW213824   5.323   5.168   1.913
 4309SOL     OW13825   0.860   3.388   6.472
 4309SOL    HW113826   0.920   3.417   6.546
 4309SOL    HW213827   0.856   3.459   6.402
 4310SOL     OW13828   1.241   2.423   2.852
 4310SOL    HW113829   1.251   2.521   2.839
 4310SOL    HW213830   1.322   2.376   2.817
 4311SOL     OW13831   1.110   6.168   2.783
 4311SOL    HW113832   1.063   6.105   2.845
 4311SOL    HW213833   1.055   6.252   2.774
 4312SOL     OW13834   0.849   5.040   2.542
 4312SOL    HW113835   0.893   5.075   2.458
 4312SOL    HW213836   0.918   4.996   2.599
 4313SOL     OW13837   4.325   1.746   0.395
 4313SOL    HW113838   4.236   1.706   0.416
 4313SOL    HW213839   4.313   1.843   0.374
 4314SOL     OW13840   6.681   2.267   5.983
 4314SOL    HW113841   6.626   2.317   5.917
 4314SOL    HW213842   6.758   2.324   6.014
 4315SOL     OW13843   2.011   1.902   3.066
 4315SOL    HW113844   1.955   1.923   2.985
 4315SOL    HW213845   1.951   1.887   3.144
 4316SOL     OW13846   4.852   0.699   2.978
 4316SOL    HW113847   4.893   0.714   2.888
 4316SOL    HW213848   4.917   0.649   3.036
 4317SOL     OW13849   4.577   0.699   5.467
 4317SOL    HW113850   4.608   0.638   5.540
 4317SOL    HW213851   4.583   0.651   5.379
 4318SOL     OW13852   0.582   0.957   4.035
 4318SOL    HW113853   0.596   0.970   4.133
 4318SOL    HW213854   0.575   1.047   3.991
 4319SOL     OW13855   1.332   2.161   1.674
 4319SOL    HW113856   1.380   2.233   1.724
 4319SOL    HW213857   1.319   2.188   1.579
 4320SOL     OW13858   3.959   6.181   0.583
 4320SOL    HW113859   3.976   6.162   0.486
 4320SOL    HW213860   4.032   6.240   0.618
 4321SOL     OW13861   6.757   5.777   3.319
 4321SOL    HW113862   6.782   5.733   3.233
 4321SOL    HW213863   6.837   5.821   3.359
 4322SOL     OW13864   0.686   2.745   5.481
 4322SOL    HW113865   0.625   2.773   5.408
 4322SOL    HW213866   0.769   2.704   5.442
 4323SOL     OW13867   4.306   5.097   0.003
 4323SOL    HW113868   4.335   5.169   6.969
 4323SOL    HW213869   4.351   5.011   7.007
 4324SOL     OW13870   6.796   3.616   5.682
 4324SOL    HW113871   6.876   3.615   5.623
 4324SOL    HW213872   6.817   3.568   5.767
 4325SOL     OW13873   2.516   1.524   2.303
 4325SOL    HW113874   2.532   1.620   2.324
 4325SOL    HW213875   2.421   1.500   2.323
 4326SOL     OW13876   5.280   3.151   2.623
 4326SOL    HW113877   5.233   3.239   2.620
 4326SOL    HW213878   5.364   3.156   2.570
 4327SOL     OW13879   3.704   5.651   3.245
 4327SOL    HW113880   3.730   5.561   3.209
 4327SOL    HW213881   3.666   5.641   3.337
 4328SOL     OW13882   6.226   5.025   4.897
 4328SOL    HW113883   6.301   5.090   4.895
 4328SOL    HW213884   6.164   5.043   4.821
 4329SOL     OW13885   5.808   2.999   5.240
 4329SOL    HW113886   5.886   2.947   5.275
 4329SOL    HW213887   5.726   2.974   5.292
 4330SOL     OW13888   2.761   6.414   5.074
 4330SOL    HW113889   2.797   6.330   5.034
 4330SOL    HW213890   2.800   6.427   5.165
 4331SOL     OW13891   0.114   0.329   1.625
 4331SOL    HW113892   0.189   0.290   1.572
 4331SOL    HW213893   0.050   0.376   1.563
 4332SOL     OW13894   5.577   3.668   3.010
 4332SOL    HW113895   5.511   3.625   2.948
 4332SOL    HW213896   5.651   3.603   3.030
 4333SOL     OW13897   4.946   2.482   4.972
 4333SOL    HW113898   5.031   2.466   4.921
 4333SOL    HW213899   4.938   2.414   5.045
 4334SOL     OW13900   0.714   2.794   2.934
 4334SOL    HW113901   0.707   2.841   3.021
 4334SOL    HW213902   0.770   2.848   2.871
 4335SOL     OW13903   2.970   3.189   0.716
 4335SOL    HW113904   2.969   3.152   0.809
 4335SOL    HW213905   3.016   3.278   0.717
 4336SOL     OW13906   1.946   5.276   5.772
 4336SOL    HW113907   1.852   5.266   5.806
 4336SOL    HW213908   1.980   5.186   5.742
 4337SOL     OW13909   1.054   5.929   2.943
 4337SOL    HW113910   0.975   5.881   2.979
 4337SOL    HW213911   1.111   5.865   2.890
 4338SOL     OW13912   6.191   6.875   6.095
 4338SOL    HW113913   6.106   6.841   6.135
 4338SOL    HW213914   6.184   6.874   5.995
 4339SOL     OW13915   4.011   2.162   0.082
 4339SOL    HW113916   4.103   2.181   0.047
 4339SOL    HW213917   4.008   2.068   0.117
 4340SOL     OW13918   6.018   3.444   0.811
 4340SOL    HW113919   6.078   3.523   0.795
 4340SOL    HW213920   5.931   3.458   0.764
 4341SOL     OW13921   0.947   5.939   2.518
 4341SOL    HW113922   0.944   5.978   2.426
 4341SOL    HW213923   0.870   5.973   2.571
 4342SOL     OW13924   4.988   3.517   3.043
 4342SOL    HW113925   4.981   3.617   3.036
 4342SOL    HW213926   4.969   3.476   2.955
 4343SOL     OW13927   3.663   6.923   6.275
 4343SOL    HW113928   3.719   6.998   6.238
 4343SOL    HW213929   3.632   6.946   6.367
 4344SOL     OW13930   0.503   3.048   3.684
 4344SOL    HW113931   0.422   3.010   3.639
 4344SOL    HW213932   0.475   3.093   3.769
 4345SOL     OW13933   3.003   3.477   2.667
 4345SOL    HW113934   3.005   3.554   2.603
 4345SOL    HW213935   3.096   3.454   2.695
 4346SOL     OW13936   2.321   2.719   2.969
 4346SOL    HW113937   2.244   2.666   2.934
 4346SOL    HW213938   2.362   2.672   3.047
 4347SOL     OW13939   6.310   5.783   1.206
 4347SOL    HW113940   6.332   5.771   1.110
 4347SOL    HW213941   6.305   5.881   1.227
 4348SOL     OW13942   6.779   5.936   4.145
 4348SOL    HW113943   6.731   5.954   4.231
 4348SOL    HW213944   6.714   5.907   4.075
 4349SOL     OW13945   0.386   4.051   3.498
 4349SOL    HW113946   0.294   4.035   3.534
 4349SOL    HW213947   0.386   4.034   3.399
 4350SOL     OW13948   5.762   1.821   4.541
 4350SOL    HW113949   5.781   1.817   4.443
 4350SOL    HW213950   5.767   1.916   4.572
 4351SOL     OW13951   1.635   5.732   1.788
 4351SOL    HW113952   1.683   5.646   1.770
 4351SOL    HW213953   1.665   5.769   1.875
 4352SOL     OW13954   5.632   3.869   1.111
 4352SOL    HW113955   5.704   3.927   1.148
 4352SOL    HW213956   5.671   3.780   1.085
 4353SOL     OW13957   3.183   3.515   6.757
 4353SOL    HW113958   3.100   3.469   6.724
 4353SOL    HW213959   3.188   3.606   6.716
 4354SOL     OW13960   0.924   0.556   5.061
 4354SOL    HW113961   0.898   0.580   5.154
 4354SOL    HW213962   0.872   0.476   5.031
 4355SOL     OW13963   1.443   6.821   3.865
 4355SOL    HW113964   1.408   6.727   3.862
 4355SOL    HW213965   1.479   6.845   3.775
 4356SOL     OW13966   4.877   3.202   5.733
 4356SOL    HW113967   4.809   3.275   5.734
 4356SOL    HW213968   4.831   3.114   5.749
 4357SOL     OW13969   0.105   1.360   2.023
 4357SOL    HW113970   0.116   1.385   2.119
 4357SOL    HW213971   0.015   1.390   1.991
 4358SOL     OW13972   0.132   1.148   0.382
 4358SOL    HW113973   0.211   1.170   0.324
 4358SOL    HW213974   0.125   1.215   0.455
 4359SOL     OW13975   2.107   0.696   6.246
 4359SOL    HW113976   2.029   0.758   6.253
 4359SOL    HW213977   2.154   0.692   6.335
 4360SOL     OW13978   0.916   2.765   3.640
 4360SOL    HW113979   0.896   2.749   3.544
 4360SOL    HW213980   0.830   2.767   3.692
 4361SOL     OW13981   1.966   2.518   0.921
 4361SOL    HW113982   1.872   2.553   0.920
 4361SOL    HW213983   2.020   2.565   0.853
 4362SOL     OW13984   0.874   6.333   4.102
 4362SOL    HW113985   0.918   6.306   4.017
 4362SOL    HW213986   0.932   6.397   4.152
 4363SOL     OW13987   4.559   0.431   3.173
 4363SOL    HW113988   4.595   0.384   3.092
 4363SOL    HW213989   4.491   0.498   3.144
 4364SOL     OW13990   2.945   3.670   2.482
 4364SOL    HW113991   2.846   3.665   2.494
 4364SOL    HW213992   2.965   3.737   2.410
 4365SOL     OW13993   2.789   2.085   1.738
 4365SOL    HW113994   2.871   2.143   1.734
 4365SOL    HW213995   2.736   2.097   1.653
 4366SOL     OW13996   5.754   6.153   5.466
 4366SOL    HW113997   5.680   6.175   5.402
 4366SOL    HW213998   5.735   6.064   5.509
 4367SOL     OW13999   3.171   4.891   2.532
 4367SOL    HW114000   3.145   4.864   2.439
 4367SOL    HW214001   3.268   4.871   2.546
 4368SOL     OW14002   4.062   6.289   2.598
 4368SOL    HW114003   4.158   6.286   2.572
 4368SOL    HW214004   4.034   6.200   2.635
 4369SOL     OW14005   5.065   5.418   3.208
 4369SOL    HW114006   5.019   5.506   3.221
 4369SOL    HW214007   5.118   5.395   3.290
 4370SOL     OW14008   3.911   4.132   1.364
 4370SOL    HW114009   3.865   4.220   1.376
 4370SOL    HW214010   3.979   4.120   1.437
 4371SOL     OW14011   2.965   0.826   2.358
 4371SOL    HW114012   3.016   0.796   2.439
 4371SOL    HW214013   2.867   0.817   2.376
 4372SOL     OW14014   1.522   3.232   4.759
 4372SOL    HW114015   1.606   3.195   4.718
 4372SOL    HW214016   1.517   3.204   4.855
 4373SOL     OW14017   4.926   0.708   6.241
 4373SOL    HW114018   5.023   0.711   6.219
 4373SOL    HW214019   4.902   0.616   6.274
 4374SOL     OW14020   2.575   2.041   0.968
 4374SOL    HW114021   2.583   2.137   0.996
 4374SOL    HW214022   2.623   1.983   1.035
 4375SOL     OW14023   3.842   0.147   3.646
 4375SOL    HW114024   3.850   0.103   3.557
 4375SOL    HW214025   3.779   0.225   3.639
 4376SOL     OW14026   6.276   6.234   1.561
 4376SOL    HW114027   6.188   6.255   1.604
 4376SOL    HW214028   6.299   6.305   1.495
 4377SOL     OW14029   6.541   5.947   0.131
 4377SOL    HW114030   6.477   6.023   0.139
 4377SOL    HW214031   6.632   5.977   0.161
 4378SOL     OW14032   1.463   4.805   2.049
 4378SOL    HW114033   1.427   4.838   1.962
 4378SOL    HW214034   1.387   4.786   2.112
 4379SOL     OW14035   2.221   0.310   1.826
 4379SOL    HW114036   2.173   0.375   1.885
 4379SOL    HW214037   2.196   0.217   1.853
 4380SOL     OW14038   2.087   5.864   5.130
 4380SOL    HW114039   2.083   5.946   5.074
 4380SOL    HW214040   2.041   5.789   5.083
 4381SOL     OW14041   3.190   5.615   4.697
 4381SOL    HW114042   3.237   5.673   4.630
 4381SOL    HW214043   3.256   5.580   4.763
 4382SOL     OW14044   4.804   4.337   4.723
 4382SOL    HW114045   4.753   4.331   4.808
 4382SOL    HW214046   4.879   4.270   4.723
 4383SOL     OW14047   1.335   1.803   5.619
 4383SOL    HW114048   1.409   1.754   5.665
 4383SOL    HW214049   1.326   1.895   5.657
 4384SOL     OW14050   4.287   0.209   1.432
 4384SOL    HW114051   4.316   0.256   1.516
 4384SOL    HW214052   4.254   0.277   1.367
 4385SOL     OW14053   0.060   1.673   4.104
 4385SOL    HW114054   0.130   1.618   4.150
 4385SOL    HW214055   0.013   1.618   4.036
 4386SOL     OW14056   0.808   4.308   6.420
 4386SOL    HW114057   0.899   4.273   6.442
 4386SOL    HW214058   0.798   4.400   6.457
 4387SOL     OW14059   6.652   2.254   1.662
 4387SOL    HW114060   6.736   2.221   1.619
 4387SOL    HW214061   6.651   2.227   1.758
 4388SOL     OW14062   3.834   0.948   6.621
 4388SOL    HW114063   3.856   0.974   6.715
 4388SOL    HW214064   3.901   0.989   6.559
 4389SOL     OW14065   5.572   2.074   1.727
 4389SOL    HW114066   5.640   2.116   1.788
 4389SOL    HW214067   5.492   2.133   1.722
 4390SOL     OW14068   4.106   2.259   1.946
 4390SOL    HW114069   4.017   2.251   1.992
 4390SOL    HW214070   4.092   2.264   1.847
 4391SOL     OW14071   1.219   5.940   6.664
 4391SOL    HW114072   1.163   5.878   6.719
 4391SOL    HW214073   1.161   5.982   6.593
 4392SOL     OW14074   5.344   3.317   4.759
 4392SOL    HW114075   5.366   3.315   4.662
 4392SOL    HW214076   5.292   3.235   4.783
 4393SOL     OW14077   4.931   6.771   3.574
 4393SOL    HW114078   4.872   6.767   3.493
 4393SOL    HW214079   4.887   6.722   3.650
 4394SOL     OW14080   5.551   5.952   2.578
 4394SOL    HW114081   5.610   5.885   2.620
 4394SOL    HW214082   5.458   5.944   2.615
 4395SOL     OW14083   4.407   1.931   0.671
 4395SOL    HW114084   4.447   1.982   0.747
 4395SOL    HW214085   4.477   1.872   0.630
 4396SOL     OW14086   2.346   1.738   4.519
 4396SOL    HW114087   2.313   1.644   4.512
 4396SOL    HW214088   2.269   1.800   4.531
 4397SOL     OW14089   0.539   1.242   4.165
 4397SOL    HW114090   0.570   1.177   4.235
 4397SOL    HW214091   0.439   1.246   4.165
 4398SOL     OW14092   1.552   4.331   4.351
 4398SOL    HW114093   1.513   4.400   4.411
 4398SOL    HW214094   1.482   4.263   4.329
 4399SOL     OW14095   2.791   0.511   0.924
 4399SOL    HW114096   2.781   0.446   0.849
 4399SOL    HW214097   2.726   0.488   0.997
 4400SOL     OW14098   2.018   6.724   4.744
 4400SOL    HW114099   2.095   6.761   4.796
 4400SOL    HW214100   2.043   6.719   4.647
 4401SOL     OW14101   6.184   6.058   5.399
 4401SOL    HW114102   6.268   6.104   5.428
 4401SOL    HW214103   6.166   6.079   5.303
 4402SOL     OW14104   1.176   6.081   3.130
 4402SOL    HW114105   1.135   6.082   3.222
 4402SOL    HW214106   1.140   6.004   3.078
 4403SOL     OW14107   6.661   0.074   3.280
 4403SOL    HW114108   6.725   0.108   3.211
 4403SOL    HW214109   6.607   0.151   3.315
 4404SOL     OW14110   1.150   3.634   4.335
 4404SOL    HW114111   1.106   3.711   4.288
 4404SOL    HW214112   1.094   3.606   4.412
 4405SOL     OW14113   3.319   4.764   5.898
 4405SOL    HW114114   3.349   4.722   5.984
 4405SOL    HW214115   3.375   4.729   5.823
 4406SOL     OW14116   4.944   4.644   1.086
 4406SOL    HW114117   4.858   4.613   1.045
 4406SOL    HW214118   4.940   4.742   1.103
 4407SOL     OW14119   0.027   5.621   0.672
 4407SOL    HW114120   6.990   5.681   0.625
 4407SOL    HW214121   0.114   5.623   0.623
 4408SOL     OW14122   4.673   0.611   1.032
 4408SOL    HW114123   4.679   0.673   0.953
 4408SOL    HW214124   4.587   0.561   1.029
 4409SOL     OW14125   3.842   1.147   1.940
 4409SOL    HW114126   3.832   1.073   1.874
 4409SOL    HW214127   3.939   1.170   1.949
 4410SOL     OW14128   1.948   4.432   0.069
 4410SOL    HW114129   1.866   4.374   0.068
 4410SOL    HW214130   2.013   4.397   0.136
 4411SOL     OW14131   3.592   3.201   3.092
 4411SOL    HW114132   3.573   3.226   2.997
 4411SOL    HW214133   3.658   3.265   3.131
 4412SOL     OW14134   4.481   1.526   5.031
 4412SOL    HW114135   4.488   1.565   4.939
 4412SOL    HW214136   4.533   1.581   5.095
 4413SOL     OW14137   4.904   5.795   4.661
 4413SOL    HW114138   4.904   5.882   4.612
 4413SOL    HW214139   4.851   5.804   4.745
 4414SOL     OW14140   4.881   4.686   2.322
 4414SOL    HW114141   4.829   4.676   2.407
 4414SOL    HW214142   4.840   4.628   2.251
 4415SOL     OW14143   5.288   3.455   6.443
 4415SOL    HW114144   5.252   3.373   6.487
 4415SOL    HW214145   5.346   3.505   6.507
 4416SOL     OW14146   2.874   1.763   4.146
 4416SOL    HW114147   2.871   1.741   4.048
 4416SOL    HW214148   2.853   1.859   4.159
 4417SOL     OW14149   6.976   4.456   2.677
 4417SOL    HW114150   6.921   4.539   2.681
 4417SOL    HW214151   7.002   4.438   2.582
 4418SOL     OW14152   4.174   6.602   4.044
 4418SOL    HW114153   4.269   6.630   4.054
 4418SOL    HW214154   4.154   6.588   3.947
 4419SOL     OW14155   5.774   5.564   0.377
 4419SOL    HW114156   5.714   5.544   0.454
 4419SOL    HW214157   5.752   5.503   0.301
 4420SOL     OW14158   4.242   0.898   0.576
 4420SOL    HW114159   4.208   0.849   0.496
 4420SOL    HW214160   4.250   0.835   0.653
 4421SOL     OW14161   2.052   1.597   2.724
 4421SOL    HW114162   2.081   1.502   2.709
 4421SOL    HW214163   2.082   1.626   2.815
 4422SOL     OW14164   2.726   3.330   5.623
 4422SOL    HW114165   2.638   3.323   5.671
 4422SOL    HW214166   2.714   3.386   5.541
 4423SOL     OW14167   0.922   2.437   5.538
 4423SOL    HW114168   0.841   2.444   5.596
 4423SOL    HW214169   0.897   2.459   5.443
 4424SOL     OW14170   5.102   0.107   3.403
 4424SOL    HW114171   5.078   0.114   3.500
 4424SOL    HW214172   5.039   0.044   3.358
 4425SOL     OW14173   3.857   5.639   6.361
 4425SOL    HW114174   3.828   5.545   6.345
 4425SOL    HW214175   3.955   5.648   6.344
 4426SOL     OW14176   0.032   1.062   5.365
 4426SOL    HW114177   0.046   0.964   5.361
 4426SOL    HW214178   7.001   1.085   5.441
 4427SOL     OW14179   0.150   0.340   2.798
 4427SOL    HW114180   0.165   0.426   2.846
 4427SOL    HW214181   0.051   0.324   2.788
 4428SOL     OW14182   2.692   4.723   4.021
 4428SOL    HW114183   2.680   4.628   4.052
 4428SOL    HW214184   2.697   4.725   3.922
 4429SOL     OW14185   3.348   0.374   3.804
 4429SOL    HW114186   3.369   0.277   3.797
 4429SOL    HW214187   3.359   0.404   3.899
 4430SOL     OW14188   4.624   2.629   3.694
 4430SOL    HW114189   4.550   2.580   3.740
 4430SOL    HW214190   4.709   2.576   3.702
 4431SOL     OW14191   2.885   1.395   2.629
 4431SOL    HW114192   2.914   1.441   2.714
 4431SOL    HW214193   2.931   1.438   2.551
 4432SOL     OW14194   3.425   2.887   3.908
 4432SOL    HW114195   3.342   2.910   3.958
 4432SOL    HW214196   3.413   2.912   3.811
 4433SOL     OW14197   6.604   6.818   4.142
 4433SOL    HW114198   6.585   6.749   4.072
 4433SOL    HW214199   6.517   6.851   4.181
 4434SOL     OW14200   5.034   1.325   4.146
 4434SOL    HW114201   5.098   1.275   4.087
 4434SOL    HW214202   5.015   1.414   4.106
 4435SOL     OW14203   4.039   3.509   0.652
 4435SOL    HW114204   4.018   3.582   0.588
 4435SOL    HW214205   4.036   3.545   0.746
 4436SOL     OW14206   3.179   2.088   6.951
 4436SOL    HW114207   3.123   2.152   6.899
 4436SOL    HW214208   3.275   2.100   6.926
 4437SOL     OW14209   4.521   0.721   4.216
 4437SOL    HW114210   4.574   0.673   4.146
 4437SOL    HW214211   4.565   0.808   4.237
 4438SOL     OW14212   4.458   1.585   6.940
 4438SOL    HW114213   4.534   1.593   7.004
 4438SOL    HW214214   4.473   1.646   6.862
 4439SOL     OW14215   0.684   5.218   1.258
 4439SOL    HW114216   0.658   5.200   1.164
 4439SOL    HW214217   0.629   5.294   1.294
 4440SOL     OW14218   1.848   5.644   6.459
 4440SOL    HW114219   1.928   5.692   6.494
 4440SOL    HW214220   1.873   5.550   6.437
 4441SOL     OW14221   6.320   1.565   1.679
 4441SOL    HW114222   6.361   1.654   1.663
 4441SOL    HW214223   6.315   1.547   1.778
 4442SOL     OW14224   2.766   6.514   3.703
 4442SOL    HW114225   2.718   6.442   3.752
 4442SOL    HW214226   2.750   6.505   3.605
 4443SOL     OW14227   1.212   2.078   6.682
 4443SOL    HW114228   1.265   2.162   6.669
 4443SOL    HW214229   1.117   2.101   6.703
 4444SOL     OW14230   4.056   6.182   6.446
 4444SOL    HW114231   4.044   6.098   6.393
 4444SOL    HW214232   3.967   6.214   6.479
 4445SOL     OW14233   1.350   1.035   6.069
 4445SOL    HW114234   1.371   1.112   6.128
 4445SOL    HW214235   1.303   0.964   6.122
 4446SOL     OW14236   6.259   0.829   1.231
 4446SOL    HW114237   6.217   0.815   1.141
 4446SOL    HW214238   6.258   0.926   1.254
 4447SOL     OW14239   5.130   3.462   5.476
 4447SOL    HW114240   5.138   3.553   5.434
 4447SOL    HW214241   5.095   3.397   5.408
 4448SOL     OW14242   2.841   4.149   0.283
 4448SOL    HW114243   2.798   4.140   0.194
 4448SOL    HW214244   2.834   4.063   0.334
 4449SOL     OW14245   3.773   0.421   6.169
 4449SOL    HW114246   3.740   0.502   6.217
 4449SOL    HW214247   3.821   0.449   6.085
 4450SOL     OW14248   3.882   3.084   3.367
 4450SOL    HW114249   3.841   3.012   3.310
 4450SOL    HW214250   3.943   3.140   3.311
 4451SOL     OW14251   5.750   4.083   2.435
 4451SOL    HW114252   5.786   4.016   2.369
 4451SOL    HW214253   5.761   4.047   2.528
 4452SOL     OW14254   6.133   6.331   4.591
 4452SOL    HW114255   6.152   6.428   4.605
 4452SOL    HW214256   6.062   6.321   4.521
 4453SOL     OW14257   5.926   3.156   0.494
 4453SOL    HW114258   5.977   3.073   0.515
 4453SOL    HW214259   5.914   3.211   0.577
 4454SOL     OW14260   5.318   2.011   0.903
 4454SOL    HW114261   5.227   1.973   0.888
 4454SOL    HW214262   5.384   1.937   0.912
 4455SOL     OW14263   2.915   6.237   0.878
 4455SOL    HW114264   2.916   6.244   0.778
 4455SOL    HW214265   2.901   6.142   0.905
 4456SOL     OW14266   2.343   5.033   2.452
 4456SOL    HW114267   2.278   4.998   2.519
 4456SOL    HW214268   2.294   5.085   2.382
 4457SOL     OW14269   4.182   2.408   6.840
 4457SOL    HW114270   4.235   2.353   6.905
 4457SOL    HW214271   4.085   2.402   6.861
 4458SOL     OW14272   1.954   3.505   6.530
 4458SOL    HW114273   1.875   3.480   6.473
 4458SOL    HW214274   2.017   3.562   6.477
 4459SOL     OW14275   5.598   0.253   4.104
 4459SOL    HW114276   5.565   0.188   4.173
 4459SOL    HW214277   5.680   0.216   4.061
 4460SOL     OW14278   2.320   3.209   6.602
 4460SOL    HW114279   2.316   3.114   6.571
 4460SOL    HW214280   2.335   3.270   6.524
 4461SOL     OW14281   1.213   0.187   2.537
 4461SOL    HW114282   1.195   0.137   2.622
 4461SOL    HW214283   1.310   0.210   2.533
 4462SOL     OW14284   6.782   4.144   1.108
 4462SOL    HW114285   6.874   4.116   1.138
 4462SOL    HW214286   6.714   4.090   1.157
 4463SOL     OW14287   2.001   2.794   0.082
 4463SOL    HW114288   1.966   2.701   0.075
 4463SOL    HW214289   1.936   2.850   0.133
 4464SOL     OW14290   6.214   5.304   0.545
 4464SOL    HW114291   6.259   5.313   0.634
 4464SOL    HW214292   6.156   5.384   0.530
 4465SOL     OW14293   1.968   5.956   2.819
 4465SOL    HW114294   2.060   5.974   2.786
 4465SOL    HW214295   1.920   6.043   2.835
 4466SOL     OW14296   1.196   0.973   2.700
 4466SOL    HW114297   1.161   1.041   2.637
 4466SOL    HW214298   1.126   0.952   2.768
 4467SOL     OW14299   0.697   6.983   3.621
 4467SOL    HW114300   0.781   6.954   3.667
 4467SOL    HW214301   0.619   6.965   3.681
 4468SOL     OW14302   0.754   2.092   0.446
 4468SOL    HW114303   0.714   2.174   0.487
 4468SOL    HW214304   0.716   2.011   0.489
 4469SOL     OW14305   2.958   6.675   1.185
 4469SOL    HW114306   3.034   6.738   1.174
 4469SOL    HW214307   2.929   6.676   1.281
 4470SOL     OW14308   5.685   3.251   1.914
 4470SOL    HW114309   5.688   3.345   1.881
 4470SOL    HW214310   5.625   3.197   1.855
 4471SOL     OW14311   0.398   2.897   0.216
 4471SOL    HW114312   0.337   2.973   0.194
 4471SOL    HW214313   0.450   2.920   0.299
 4472SOL     OW14314   1.350   4.338   2.785
 4472SOL    HW114315   1.293   4.411   2.822
 4472SOL    HW214316   1.317   4.311   2.695
 4473SOL     OW14317   0.384   0.590   4.987
 4473SOL    HW114318   0.344   0.558   5.073
 4473SOL    HW214319   0.339   0.544   4.910
 4474SOL     OW14320   3.639   0.619   2.425
 4474SOL    HW114321   3.569   0.679   2.463
 4474SOL    HW214322   3.728   0.664   2.428
 4475SOL     OW14323   1.775   3.867   1.466
 4475SOL    HW114324   1.788   3.966   1.460
 4475SOL    HW214325   1.735   3.845   1.555
 4476SOL     OW14326   5.573   6.597   3.296
 4476SOL    HW114327   5.601   6.501   3.300
 4476SOL    HW214328   5.625   6.644   3.225
 4477SOL     OW14329   1.624   0.346   6.459
 4477SOL    HW114330   1.621   0.250   6.487
 4477SOL    HW214331   1.711   0.364   6.414
 4478SOL     OW14332   2.271   6.424   2.961
 4478SOL    HW114333   2.177   6.414   2.994
 4478SOL    HW214334   2.282   6.512   2.915
 4479SOL     OW14335   1.443   0.719   6.640
 4479SOL    HW114336   1.459   0.755   6.548
 4479SOL    HW214337   1.386   0.782   6.692
 4480SOL     OW14338   2.151   3.336   4.403
 4480SOL    HW114339   2.193   3.253   4.441
 4480SOL    HW214340   2.060   3.313   4.367
 4481SOL     OW14341   1.912   6.616   4.276
 4481SOL    HW114342   2.002   6.572   4.273
 4481SOL    HW214343   1.852   6.566   4.340
 4482SOL     OW14344   0.677   3.559   3.892
 4482SOL    HW114345   0.680   3.465   3.859
 4482SOL    HW214346   0.720   3.619   3.825
 4483SOL     OW14347   6.282   2.696   1.236
 4483SOL    HW114348   6.314   2.676   1.144
 4483SOL    HW214349   6.355   2.738   1.289
 4484SOL     OW14350   3.716   1.747   5.396
 4484SOL    HW114351   3.759   1.837   5.396
 4484SOL    HW214352   3.784   1.677   5.376
 4485SOL     OW14353   5.059   2.268   6.509
 4485SOL    HW114354   5.155   2.292   6.493
 4485SOL    HW214355   5.004   2.291   6.429
 4486SOL     OW14356   6.517   3.903   4.750
 4486SOL    HW114357   6.506   3.847   4.668
 4486SOL    HW214358   6.535   3.997   4.723
 4487SOL     OW14359   2.399   3.714   6.925
 4487SOL    HW114360   2.464   3.667   6.866
 4487SOL    HW214361   2.346   3.646   6.977
 4488SOL     OW14362   5.006   2.542   6.691
 4488SOL    HW114363   4.987   2.445   6.681
 4488SOL    HW214364   4.953   2.579   6.767
 4489SOL     OW14365   5.469   6.242   4.144
 4489SOL    HW114366   5.513   6.198   4.066
 4489SOL    HW214367   5.379   6.276   4.116
 4490SOL     OW14368   5.866   1.900   1.976
 4490SOL    HW114369   5.956   1.938   1.956
 4490SOL    HW214370   5.805   1.973   2.007
 4491SOL     OW14371   0.753   2.918   3.181
 4491SOL    HW114372   0.739   3.006   3.227
 4491SOL    HW214373   0.843   2.919   3.136
 4492SOL     OW14374   5.277   2.977   0.617
 4492SOL    HW114375   5.300   3.015   0.707
 4492SOL    HW214376   5.256   2.879   0.627
 4493SOL     OW14377   3.908   4.936   4.414
 4493SOL    HW114378   3.860   4.850   4.397
 4493SOL    HW214379   3.972   4.924   4.490
 4494SOL     OW14380   6.904   2.427   6.065
 4494SOL    HW114381   6.941   2.396   6.152
 4494SOL    HW214382   6.978   2.457   6.005
 4495SOL     OW14383   5.351   0.055   3.297
 4495SOL    HW114384   5.263   0.079   3.338
 4495SOL    HW214385   5.363   6.984   3.301
 4496SOL     OW14386   5.329   5.172   0.632
 4496SOL    HW114387   5.292   5.252   0.680
 4496SOL    HW214388   5.426   5.186   0.615
 4497SOL     OW14389   5.055   6.141   6.877
 4497SOL    HW114390   5.114   6.209   6.920
 4497SOL    HW214391   4.973   6.129   6.932
 4498SOL     OW14392   0.361   3.359   6.515
 4498SOL    HW114393   0.379   3.434   6.451
 4498SOL    HW214394   0.394   3.385   6.606
 4499SOL     OW14395   6.647   3.086   4.365
 4499SOL    HW114396   6.580   3.160   4.372
 4499SOL    HW214397   6.632   3.036   4.280
 4500SOL     OW14398   2.937   3.799   3.961
 4500SOL    HW114399   2.871   3.851   3.906
 4500SOL    HW214400   2.998   3.748   3.901
 4501SOL     OW14401   0.735   3.881   5.572
 4501SOL    HW114402   0.801   3.894   5.646
 4501SOL    HW214403   0.648   3.849   5.609
 4502SOL     OW14404   2.096   2.703   6.005
 4502SOL    HW114405   2.104   2.604   6.000
 4502SOL    HW214406   1.999   2.728   6.014
 4503SOL     OW14407   1.868   0.494   3.006
 4503SOL    HW114408   1.816   0.484   3.091
 4503SOL    HW214409   1.916   0.582   3.007
 4504SOL     OW14410   6.473   2.222   5.488
 4504SOL    HW114411   6.502   2.246   5.395
 4504SOL    HW214412   6.382   2.179   5.483
 4505SOL     OW14413   0.422   6.486   4.794
 4505SOL    HW114414   0.401   6.503   4.698
 4505SOL    HW214415   0.462   6.569   4.835
 4506SOL     OW14416   4.512   2.166   4.423
 4506SOL    HW114417   4.508   2.114   4.508
 4506SOL    HW214418   4.432   2.146   4.367
 4507SOL     OW14419   4.890   4.427   1.942
 4507SOL    HW114420   4.867   4.331   1.928
 4507SOL    HW214421   4.813   4.485   1.913
 4508SOL     OW14422   1.256   4.234   6.873
 4508SOL    HW114423   1.312   4.235   6.791
 4508SOL    HW214424   1.313   4.211   6.952
 4509SOL     OW14425   4.441   1.548   4.274
 4509SOL    HW114426   4.466   1.635   4.316
 4509SOL    HW214427   4.503   1.529   4.197
 4510SOL     OW14428   5.528   0.200   4.851
 4510SOL    HW114429   5.612   0.193   4.905
 4510SOL    HW214430   5.516   0.116   4.797
 4511SOL     OW14431   0.067   3.337   6.324
 4511SOL    HW114432   0.082   3.435   6.335
 4511SOL    HW214433   7.003   3.322   6.289
 4512SOL     OW14434   2.233   6.726   5.751
 4512SOL    HW114435   2.267   6.815   5.721
 4512SOL    HW214436   2.310   6.665   5.769
 4513SOL     OW14437   4.669   6.772   0.987
 4513SOL    HW114438   4.731   6.741   1.060
 4513SOL    HW214439   4.590   6.711   0.982
 4514SOL     OW14440   4.297   0.820   4.650
 4514SOL    HW114441   4.300   0.834   4.551
 4514SOL    HW214442   4.240   0.890   4.692
 4515SOL     OW14443   6.471   3.875   6.660
 4515SOL    HW114444   6.440   3.922   6.577
 4515SOL    HW214445   6.470   3.940   6.737
 4516SOL     OW14446   1.050   1.513   6.369
 4516SOL    HW114447   1.083   1.563   6.449
 4516SOL    HW214448   0.950   1.521   6.364
 4517SOL     OW14449   2.513   7.024   5.953
 4517SOL    HW114450   2.485   6.990   6.043
 4517SOL    HW214451   2.454   0.072   5.926
 4518SOL     OW14452   7.027   2.137   3.872
 4518SOL    HW114453   6.948   2.083   3.902
 4518SOL    HW214454   6.994   2.219   3.825
 4519SOL     OW14455   0.085   1.400   2.306
 4519SOL    HW114456   7.024   1.404   2.350
 4519SOL    HW214457   0.131   1.488   2.316
 4520SOL     OW14458   5.436   5.184   2.719
 4520SOL    HW114459   5.361   5.131   2.677
 4520SOL    HW214460   5.403   5.276   2.741
 4521SOL     OW14461   4.420   1.648   5.918
 4521SOL    HW114462   4.423   1.723   5.852
 4521SOL    HW214463   4.460   1.679   6.004
 4522SOL     OW14464   5.083   6.947   3.696
 4522SOL    HW114465   5.033   0.003   3.678
 4522SOL    HW214466   5.041   6.872   3.646
 4523SOL     OW14467   1.440   3.938   0.043
 4523SOL    HW114468   1.518   3.883   0.072
 4523SOL    HW214469   1.359   3.880   0.033
 4524SOL     OW14470   5.071   2.063   5.776
 4524SOL    HW114471   5.108   1.996   5.710
 4524SOL    HW214472   5.012   2.016   5.842
 4525SOL     OW14473   6.582   2.158   3.839
 4525SOL    HW114474   6.658   2.132   3.898
 4525SOL    HW214475   6.561   2.255   3.853
 4526SOL     OW14476   5.089   0.438   1.551
 4526SOL    HW114477   5.148   0.470   1.477
 4526SOL    HW214478   5.145   0.404   1.626
 4527SOL     OW14479   4.319   1.246   3.904
 4527SOL    HW114480   4.308   1.267   4.002
 4527SOL    HW214481   4.386   1.173   3.893
 4528SOL     OW14482   4.968   6.478   0.392
 4528SOL    HW114483   4.875   6.444   0.401
 4528SOL    HW214484   4.970   6.576   0.410
 4529SOL     OW14485   2.443   1.234   3.204
 4529SOL    HW114486   2.456   1.144   3.244
 4529SOL    HW214487   2.530   1.284   3.204
 4530SOL     OW14488   0.499   3.773   5.663
 4530SOL    HW114489   0.464   3.796   5.754
 4530SOL    HW214490   0.432   3.799   5.593
 4531SOL     OW14491   0.837   3.858   3.239
 4531SOL    HW114492   0.891   3.942   3.227
 4531SOL    HW214493   0.877   3.785   3.183
 4532SOL     OW14494   0.438   1.462   2.234
 4532SOL    HW114495   0.376   1.539   2.249
 4532SOL    HW214496   0.443   1.442   2.136
 4533SOL     OW14497   1.334   0.345   3.662
 4533SOL    HW114498   1.397   0.267   3.657
 4533SOL    HW214499   1.297   0.364   3.571
 4534SOL     OW14500   6.312   3.500   4.533
 4534SOL    HW114501   6.221   3.462   4.520
 4534SOL    HW214502   6.379   3.425   4.537
 4535SOL     OW14503   4.491   2.185   2.524
 4535SOL    HW114504   4.452   2.110   2.578
 4535SOL    HW214505   4.510   2.152   2.432
 4536SOL     OW14506   4.765   1.693   4.546
 4536SOL    HW114507   4.815   1.669   4.462
 4536SOL    HW214508   4.678   1.736   4.521
 4537SOL     OW14509   3.630   3.255   6.569
 4537SOL    HW114510   3.644   3.353   6.556
 4537SOL    HW214511   3.585   3.217   6.488
 4538SOL     OW14512   3.442   2.058   4.484
 4538SOL    HW114513   3.393   1.985   4.437
 4538SOL    HW214514   3.533   2.068   4.445
 4539SOL     OW14515   2.774   2.039   4.136
 4539SOL    HW114516   2.860   2.071   4.097
 4539SOL    HW214517   2.756   2.086   4.222
 4540SOL     OW14518   4.071   3.749   3.397
 4540SOL    HW114519   4.032   3.830   3.354
 4540SOL    HW214520   4.120   3.695   3.328
 4541SOL     OW14521   5.655   0.697   0.355
 4541SOL    HW114522   5.564   0.657   0.350
 4541SOL    HW214523   5.653   0.778   0.415
 4542SOL     OW14524   5.987   6.128   1.955
 4542SOL    HW114525   5.945   6.076   1.881
 4542SOL    HW214526   5.916   6.167   2.013
 4543SOL     OW14527   4.450   1.345   6.798
 4543SOL    HW114528   4.425   1.423   6.856
 4543SOL    HW214529   4.517   1.373   6.730
 4544SOL     OW14530   2.515   6.160   6.246
 4544SOL    HW114531   2.596   6.177   6.189
 4544SOL    HW214532   2.439   6.218   6.215
 4545SOL     OW14533   5.335   2.195   5.266
 4545SOL    HW114534   5.416   2.147   5.299
 4545SOL    HW214535   5.270   2.205   5.342
 4546SOL     OW14536   0.908   0.128   5.934
 4546SOL    HW114537   0.948   0.148   6.023
 4546SOL    HW214538   0.890   0.030   5.926
 4547SOL     OW14539   6.174   3.130   1.901
 4547SOL    HW114540   6.116   3.097   1.974
 4547SOL    HW214541   6.252   3.179   1.940
 4548SOL     OW14542   1.376   4.623   4.121
 4548SOL    HW114543   1.319   4.705   4.118
 4548SOL    HW214544   1.453   4.638   4.183
 4549SOL     OW14545   6.540   4.162   2.804
 4549SOL    HW114546   6.493   4.185   2.890
 4549SOL    HW214547   6.552   4.245   2.750
 4550SOL     OW14548   0.610   5.731   3.845
 4550SOL    HW114549   0.631   5.804   3.910
 4550SOL    HW214550   0.516   5.742   3.812
 4551SOL     OW14551   0.373   1.652   5.688
 4551SOL    HW114552   0.415   1.621   5.772
 4551SOL    HW214553   0.370   1.751   5.686
 4552SOL     OW14554   6.891   2.878   6.364
 4552SOL    HW114555   6.839   2.949   6.317
 4552SOL    HW214556   6.920   2.911   6.454
 4553SOL     OW14557   3.734   4.199   0.086
 4553SOL    HW114558   3.635   4.187   0.098
 4553SOL    HW214559   3.768   4.259   0.159
 4554SOL     OW14560   4.048   1.022   2.301
 4554SOL    HW114561   4.121   0.962   2.266
 4554SOL    HW214562   4.065   1.043   2.397
 4555SOL     OW14563   4.304   1.187   6.641
 4555SOL    HW114564   4.236   1.249   6.603
 4555SOL    HW214565   4.358   1.234   6.710
 4556SOL     OW14566   4.427   1.696   3.867
 4556SOL    HW114567   4.446   1.654   3.779
 4556SOL    HW214568   4.495   1.767   3.885
 4557SOL     OW14569   5.380   0.343   4.688
 4557SOL    HW114570   5.438   0.294   4.753
 4557SOL    HW214571   5.284   0.325   4.709
 4558SOL     OW14572   6.474   4.094   6.140
 4558SOL    HW114573   6.573   4.105   6.129
 4558SOL    HW214574   6.440   4.164   6.201
 4559SOL     OW14575   1.678   6.679   2.176
 4559SOL    HW114576   1.743   6.755   2.177
 4559SOL    HW214577   1.586   6.714   2.159
 4560SOL     OW14578   5.103   4.472   3.361
 4560SOL    HW114579   5.141   4.535   3.293
 4560SOL    HW214580   5.044   4.522   3.424
 4561SOL     OW14581   2.647   0.458   1.162
 4561SOL    HW114582   2.617   0.548   1.194
 4561SOL    HW214583   2.739   0.439   1.195
 4562SOL     OW14584   2.996   5.745   5.379
 4562SOL    HW114585   2.929   5.682   5.341
 4562SOL    HW214586   2.984   5.751   5.478
 4563SOL     OW14587   5.914   3.764   0.266
 4563SOL    HW114588   6.013   3.771   0.254
 4563SOL    HW214589   5.887   3.668   0.274
 4564SOL     OW14590   1.499   5.397   1.033
 4564SOL    HW114591   1.479   5.339   0.955
 4564SOL    HW214592   1.511   5.340   1.115
 4565SOL     OW14593   0.640   1.145   5.216
 4565SOL    HW114594   0.594   1.174   5.132
 4565SOL    HW214595   0.705   1.215   5.244
 4566SOL     OW14596   6.877   0.369   0.485
 4566SOL    HW114597   6.859   0.392   0.390
 4566SOL    HW214598   6.955   0.423   0.518
 4567SOL     OW14599   0.477   0.979   0.963
 4567SOL    HW114600   0.437   0.901   0.916
 4567SOL    HW214601   0.450   1.063   0.916
 4568SOL     OW14602   1.719   3.754   5.585
 4568SOL    HW114603   1.660   3.719   5.511
 4568SOL    HW214604   1.790   3.687   5.605
 4569SOL     OW14605   1.837   2.033   3.717
 4569SOL    HW114606   1.842   2.132   3.713
 4569SOL    HW214607   1.750   2.003   3.676
 4570SOL     OW14608   0.097   6.188   3.616
 4570SOL    HW114609   0.130   6.207   3.709
 4570SOL    HW214610   7.027   6.173   3.619
 4571SOL     OW14611   3.600   3.892   5.288
 4571SOL    HW114612   3.649   3.878   5.201
 4571SOL    HW214613   3.537   3.816   5.303
 4572SOL     OW14614   0.462   6.903   1.017
 4572SOL    HW114615   0.367   6.873   1.013
 4572SOL    HW214616   0.521   6.824   1.034
 4573SOL     OW14617   5.944   5.827   0.866
 4573SOL    HW114618   6.023   5.888   0.865
 4573SOL    HW214619   5.911   5.816   0.960
 4574SOL     OW14620   0.009   4.376   0.716
 4574SOL    HW114621   6.982   4.295   0.735
 4574SOL    HW214622   6.977   4.454   0.701
 4575SOL     OW14623   0.078   2.182   0.685
 4575SOL    HW114624   0.135   2.139   0.616
 4575SOL    HW214625   0.070   2.280   0.666
 4576SOL     OW14626   2.824   5.613   6.053
 4576SOL    HW114627   2.784   5.524   6.073
 4576SOL    HW214628   2.871   5.648   6.135
 4577SOL     OW14629   0.235   3.465   2.760
 4577SOL    HW114630   0.247   3.367   2.742
 4577SOL    HW214631   0.309   3.496   2.820
 4578SOL     OW14632   0.804   4.322   3.626
 4578SOL    HW114633   0.758   4.258   3.687
 4578SOL    HW214634   0.852   4.270   3.554
 4579SOL     OW14635   4.514   1.559   3.257
 4579SOL    HW114636   4.603   1.548   3.302
 4579SOL    HW214637   4.508   1.495   3.180
 4580SOL     OW14638   5.918   4.963   0.542
 4580SOL    HW114639   5.999   5.000   0.496
 4580SOL    HW214640   5.849   4.940   0.474
 4581SOL     OW14641   2.871   5.017   2.422
 4581SOL    HW114642   2.887   5.049   2.328
 4581SOL    HW214643   2.871   4.917   2.424
 4582SOL     OW14644   5.845   6.587   4.203
 4582SOL    HW114645   5.790   6.515   4.245
 4582SOL    HW214646   5.926   6.605   4.260
 4583SOL     OW14647   2.948   1.790   5.140
 4583SOL    HW114648   2.964   1.835   5.052
 4583SOL    HW214649   3.001   1.837   5.211
 4584SOL     OW14650   0.373   5.859   6.339
 4584SOL    HW114651   0.453   5.810   6.304
 4584SOL    HW214652   0.291   5.822   6.297
 4585SOL     OW14653   2.593   6.373   3.026
 4585SOL    HW114654   2.629   6.458   3.066
 4585SOL    HW214655   2.639   6.355   2.939
 4586SOL     OW14656   3.552   4.877   1.378
 4586SOL    HW114657   3.562   4.822   1.295
 4586SOL    HW214658   3.469   4.932   1.371
 4587SOL     OW14659   4.244   3.813   1.523
 4587SOL    HW114660   4.153   3.835   1.557
 4587SOL    HW214661   4.267   3.719   1.549
 4588SOL     OW14662   3.816   3.394   5.128
 4588SOL    HW114663   3.905   3.349   5.121
 4588SOL    HW214664   3.744   3.329   5.104
 4589SOL     OW14665   5.914   1.968   2.720
 4589SOL    HW114666   5.888   1.936   2.811
 4589SOL    HW214667   5.832   1.991   2.667
 4590SOL     OW14668   4.340   5.899   1.500
 4590SOL    HW114669   4.268   5.831   1.491
 4590SOL    HW214670   4.299   5.990   1.513
 4591SOL     OW14671   6.885   6.216   5.430
 4591SOL    HW114672   6.838   6.191   5.515
 4591SOL    HW214673   6.965   6.157   5.418
 4592SOL     OW14674   3.904   3.078   1.655
 4592SOL    HW114675   3.947   3.102   1.567
 4592SOL    HW214676   3.879   2.982   1.654
 4593SOL     OW14677   4.331   5.511   3.308
 4593SOL    HW114678   4.347   5.548   3.400
 4593SOL    HW214679   4.291   5.582   3.250
 4594SOL     OW14680   4.187   1.663   1.557
 4594SOL    HW114681   4.254   1.628   1.622
 4594SOL    HW214682   4.102   1.683   1.606
 4595SOL     OW14683   3.682   3.005   6.005
 4595SOL    HW114684   3.707   2.909   6.019
 4595SOL    HW214685   3.765   3.060   5.992
 4596SOL     OW14686   5.847   6.517   1.738
 4596SOL    HW114687   5.876   6.554   1.649
 4596SOL    HW214688   5.927   6.477   1.784
 4597SOL     OW14689   5.133   4.820   6.565
 4597SOL    HW114690   5.090   4.745   6.515
 4597SOL    HW214691   5.170   4.785   6.651
 4598SOL     OW14692   0.642   4.953   6.498
 4598SOL    HW114693   0.704   4.874   6.499
 4598SOL    HW214694   0.559   4.931   6.550
 4599SOL     OW14695   1.383   3.647   1.317
 4599SOL    HW114696   1.383   3.747   1.309
 4599SOL    HW214697   1.296   3.617   1.355
 4600SOL     OW14698   2.955   5.187   6.107
 4600SOL    HW114699   2.900   5.141   6.037
 4600SOL    HW214700   3.045   5.210   6.068
 4601SOL     OW14701   1.918   1.389   5.358
 4601SOL    HW114702   1.998   1.427   5.405
 4601SOL    HW214703   1.893   1.448   5.281
 4602SOL     OW14704   1.093   6.365   1.024
 4602SOL    HW114705   1.008   6.334   1.067
 4602SOL    HW214706   1.165   6.369   1.092
 4603SOL     OW14707   3.728   6.349   1.137
 4603SOL    HW114708   3.666   6.318   1.065
 4603SOL    HW214709   3.699   6.440   1.169
 4604SOL     OW14710   4.160   1.077   1.014
 4604SOL    HW114711   4.181   1.168   0.979
 4604SOL    HW214712   4.241   1.037   1.056
 4605SOL     OW14713   4.979   0.570   4.173
 4605SOL    HW114714   5.005   0.645   4.234
 4605SOL    HW214715   5.029   0.578   4.087
 4606SOL     OW14716   6.996   6.597   2.282
 4606SOL    HW114717   0.018   6.674   2.321
 4606SOL    HW214718   6.901   6.599   2.314
 4607SOL     OW14719   2.394   1.998   0.576
 4607SOL    HW114720   2.312   2.049   0.602
 4607SOL    HW214721   2.371   1.931   0.506
 4608SOL     OW14722   1.295   5.214   4.785
 4608SOL    HW114723   1.261   5.272   4.859
 4608SOL    HW214724   1.230   5.140   4.768
 4609SOL     OW14725   4.633   5.267   6.077
 4609SOL    HW114726   4.639   5.168   6.087
 4609SOL    HW214727   4.563   5.302   6.139
 4610SOL     OW14728   6.936   2.800   0.411
 4610SOL    HW114729   6.845   2.783   0.373
 4610SOL    HW214730   6.944   2.753   0.499
 4611SOL     OW14731   6.479   4.299   6.331
 4611SOL    HW114732   6.549   4.370   6.336
 4611SOL    HW214733   6.407   4.317   6.397
 4612SOL     OW14734   1.676   6.169   6.959
 4612SOL    HW114735   1.755   6.114   6.929
 4612SOL    HW214736   1.599   6.153   6.898
 4613SOL     OW14737   2.498   6.047   2.761
 4613SOL    HW114738   2.505   6.142   2.730
 4613SOL    HW214739   2.564   5.991   2.710
 4614SOL     OW14740   1.564   4.966   6.082
 4614SOL    HW114741   1.465   4.973   6.078
 4614SOL    HW214742   1.593   4.950   6.176
 4615SOL     OW14743   1.948   1.442   6.868
 4615SOL    HW114744   1.931   1.347   6.897
 4615SOL    HW214745   2.029   1.444   6.810
 4616SOL     OW14746   0.301   0.560   6.501
 4616SOL    HW114747   0.231   0.518   6.443
 4616SOL    HW214748   0.352   0.628   6.448
 4617SOL     OW14749   1.031   2.407   2.546
 4617SOL    HW114750   1.033   2.483   2.612
 4617SOL    HW214751   0.988   2.438   2.461
 4618SOL     OW14752   1.582   2.723   5.094
 4618SOL    HW114753   1.569   2.626   5.074
 4618SOL    HW214754   1.561   2.777   5.012
 4619SOL     OW14755   4.753   6.539   3.471
 4619SOL    HW114756   4.675   6.533   3.408
 4619SOL    HW214757   4.721   6.569   3.560
 4620SOL     OW14758   3.235   3.869   6.720
 4620SOL    HW114759   3.303   3.886   6.649
 4620SOL    HW214760   3.166   3.805   6.686
 4621SOL     OW14761   5.864   2.271   4.297
 4621SOL    HW114762   5.906   2.249   4.385
 4621SOL    HW214763   5.936   2.280   4.228
 4622SOL     OW14764   0.882   3.094   1.027
 4622SOL    HW114765   0.927   3.005   1.037
 4622SOL    HW214766   0.796   3.093   1.079
 4623SOL     OW14767   6.931   5.089   0.621
 4623SOL    HW114768   6.919   5.185   0.647
 4623SOL    HW214769   6.933   5.082   0.521
 4624SOL     OW14770   4.724   0.085   3.571
 4624SOL    HW114771   4.695   7.021   3.596
 4624SOL    HW214772   4.685   0.109   3.482
 4625SOL     OW14773   1.278   4.515   0.134
 4625SOL    HW114774   1.306   4.423   0.158
 4625SOL    HW214775   1.178   4.523   0.138
 4626SOL     OW14776   5.912   4.846   1.279
 4626SOL    HW114777   5.969   4.768   1.251
 4626SOL    HW214778   5.843   4.814   1.344
 4627SOL     OW14779   3.328   5.600   5.353
 4627SOL    HW114780   3.301   5.513   5.394
 4627SOL    HW214781   3.410   5.634   5.398
 4628SOL     OW14782   6.404   3.985   3.099
 4628SOL    HW114783   6.499   4.010   3.114
 4628SOL    HW214784   6.345   4.052   3.145
 4629SOL     OW14785   2.036   4.890   6.025
 4629SOL    HW114786   2.054   4.792   6.012
 4629SOL    HW214787   1.940   4.909   6.005
 4630SOL     OW14788   3.213   5.882   3.453
 4630SOL    HW114789   3.256   5.794   3.473
 4630SOL    HW214790   3.224   5.904   3.356
 4631SOL     OW14791   2.681   0.326   3.416
 4631SOL    HW114792   2.591   0.292   3.388
 4631SOL    HW214793   2.681   0.346   3.514
 4632SOL     OW14794   4.022   5.145   3.005
 4632SOL    HW114795   4.078   5.228   3.014
 4632SOL    HW214796   3.935   5.158   3.053
 4633SOL     OW14797   6.661   1.795   4.271
 4633SOL    HW114798   6.669   1.895   4.277
 4633SOL    HW214799   6.567   1.771   4.246
 4634SOL     OW14800   2.468   4.422   6.301
 4634SOL    HW114801   2.442   4.327   6.319
 4634SOL    HW214802   2.567   4.427   6.284
 4635SOL     OW14803   6.034   3.451   2.366
 4635SOL    HW114804   6.014   3.356   2.386
 4635SOL    HW214805   6.111   3.457   2.302
 4636SOL     OW14806   2.699   4.515   6.684
 4636SOL    HW114807   2.749   4.431   6.705
 4636SOL    HW214808   2.602   4.494   6.677
 4637SOL     OW14809   1.251   0.764   6.941
 4637SOL    HW114810   1.250   0.838   6.874
 4637SOL    HW214811   1.178   0.699   6.920
 4638SOL     OW14812   3.884   2.589   6.352
 4638SOL    HW114813   3.843   2.648   6.422
 4638SOL    HW214814   3.903   2.643   6.270
 4639SOL     OW14815   1.322   4.563   5.486
 4639SOL    HW114816   1.316   4.609   5.574
 4639SOL    HW214817   1.353   4.628   5.416
 4640SOL     OW14818   4.948   5.315   3.647
 4640SOL    HW114819   4.912   5.365   3.726
 4640SOL    HW214820   5.035   5.357   3.619
 4641SOL     OW14821   2.747   5.276   4.112
 4641SOL    HW114822   2.716   5.316   4.197
 4641SOL    HW214823   2.806   5.197   4.131
 4642SOL     OW14824   6.602   6.297   5.402
 4642SOL    HW114825   6.562   6.364   5.339
 4642SOL    HW214826   6.696   6.277   5.373
 4643SOL     OW14827   4.626   2.428   0.938
 4643SOL    HW114828   4.607   2.465   1.029
 4643SOL    HW214829   4.573   2.478   0.870
 4644SOL     OW14830   1.478   5.213   5.353
 4644SOL    HW114831   1.460   5.133   5.410
 4644SOL    HW214832   1.526   5.184   5.270
 4645SOL     OW14833   1.913   0.091   4.834
 4645SOL    HW114834   1.833   0.034   4.814
 4645SOL    HW214835   1.953   0.123   4.749
 4646SOL     OW14836   2.423   6.666   2.577
 4646SOL    HW114837   2.445   6.651   2.481
 4646SOL    HW214838   2.503   6.648   2.634
 4647SOL     OW14839   0.758   6.751   3.310
 4647SOL    HW114840   0.683   6.806   3.347
 4647SOL    HW214841   0.765   6.665   3.361
 4648SOL     OW14842   3.738   0.074   1.102
 4648SOL    HW114843   3.799   0.149   1.078
 4648SOL    HW214844   3.778   0.022   1.178
 4649SOL     OW14845   5.042   0.216   5.413
 4649SOL    HW114846   5.108   0.280   5.451
 4649SOL    HW214847   5.029   0.139   5.476
 4650SOL     OW14848   3.500   6.165   2.867
 4650SOL    HW114849   3.452   6.084   2.834
 4650SOL    HW214850   3.452   6.203   2.946
 4651SOL     OW14851   0.189   1.982   1.705
 4651SOL    HW114852   0.119   1.926   1.749
 4651SOL    HW214853   0.202   2.066   1.757
 4652SOL     OW14854   0.711   0.450   3.337
 4652SOL    HW114855   0.733   0.354   3.350
 4652SOL    HW214856   0.677   0.488   3.424
 4653SOL     OW14857   6.645   5.431   6.956
 4653SOL    HW114858   6.601   5.354   7.001
 4653SOL    HW214859   6.586   5.464   6.882
 4654SOL     OW14860   0.820   0.302   0.256
 4654SOL    HW114861   0.909   0.325   0.297
 4654SOL    HW214862   0.820   0.205   0.230
 4655SOL     OW14863   0.242   4.754   2.209
 4655SOL    HW114864   0.199   4.811   2.139
 4655SOL    HW214865   0.303   4.688   2.164
 4656SOL     OW14866   1.093   7.012   2.771
 4656SOL    HW114867   1.060   0.077   2.777
 4656SOL    HW214868   1.053   6.957   2.845
 4657SOL     OW14869   5.363   6.940   1.875
 4657SOL    HW114870   5.295   7.010   1.899
 4657SOL    HW214871   5.384   6.885   1.956
 4658SOL     OW14872   3.518   0.428   2.560
 4658SOL    HW114873   3.426   0.467   2.561
 4658SOL    HW214874   3.581   0.492   2.515
 4659SOL     OW14875   2.189   3.661   5.225
 4659SOL    HW114876   2.266   3.721   5.246
 4659SOL    HW214877   2.216   3.596   5.154
 4660SOL     OW14878   1.346   2.676   4.945
 4660SOL    HW114879   1.350   2.741   4.869
 4660SOL    HW214880   1.425   2.614   4.941
 4661SOL     OW14881   3.883   3.990   4.802
 4661SOL    HW114882   3.948   3.966   4.730
 4661SOL    HW214883   3.812   3.919   4.808
 4662SOL     OW14884   5.106   0.492   5.181
 4662SOL    HW114885   5.106   0.535   5.271
 4662SOL    HW214886   5.085   0.395   5.190
 4663SOL     OW14887   6.962   1.122   2.783
 4663SOL    HW114888   6.945   1.173   2.867
 4663SOL    HW214889   6.884   1.133   2.721
 4664SOL     OW14890   2.163   2.590   6.453
 4664SOL    HW114891   2.074   2.545   6.467
 4664SOL    HW214892   2.154   2.688   6.469
 4665SOL     OW14893   4.529   6.895   6.972
 4665SOL    HW114894   4.572   6.883   6.883
 4665SOL    HW214895   4.450   6.956   6.963
 4666SOL     OW14896   2.245   1.204   0.063
 4666SOL    HW114897   2.158   1.231   0.104
 4666SOL    HW214898   2.318   1.260   0.101
 4667SOL     OW14899   6.589   4.844   0.017
 4667SOL    HW114900   6.538   4.817   6.964
 4667SOL    HW214901   6.528   4.839   0.097
 4668SOL     OW14902   0.363   1.891   4.276
 4668SOL    HW114903   0.331   1.901   4.182
 4668SOL    HW214904   0.289   1.855   4.333
 4669SOL     OW14905   3.666   6.640   0.882
 4669SOL    HW114906   3.643   6.543   0.882
 4669SOL    HW214907   3.662   6.675   0.975
 4670SOL     OW14908   3.259   1.406   4.992
 4670SOL    HW114909   3.216   1.475   4.934
 4670SOL    HW214910   3.348   1.441   5.024
 4671SOL     OW14911   6.007   3.372   1.576
 4671SOL    HW114912   5.966   3.305   1.639
 4671SOL    HW214913   6.021   3.459   1.624
 4672SOL     OW14914   2.915   4.858   6.049
 4672SOL    HW114915   2.876   4.939   6.005
 4672SOL    HW214916   2.854   4.827   6.122
 4673SOL     OW14917   3.405   0.119   1.323
 4673SOL    HW114918   3.433   0.157   1.234
 4673SOL    HW214919   3.324   0.168   1.355
 4674SOL     OW14920   5.527   6.087   6.769
 4674SOL    HW114921   5.494   6.089   6.864
 4674SOL    HW214922   5.448   6.087   6.707
 4675SOL     OW14923   0.499   3.705   0.647
 4675SOL    HW114924   0.449   3.726   0.563
 4675SOL    HW214925   0.450   3.634   0.698
 4676SOL     OW14926   1.077   5.499   4.100
 4676SOL    HW114927   0.996   5.549   4.129
 4676SOL    HW214928   1.050   5.416   4.052
 4677SOL     OW14929   1.851   1.614   0.868
 4677SOL    HW114930   1.923   1.682   0.851
 4677SOL    HW214931   1.787   1.651   0.935
 4678SOL     OW14932   2.599   4.578   3.009
 4678SOL    HW114933   2.596   4.564   2.910
 4678SOL    HW214934   2.692   4.600   3.036
 4679SOL     OW14935   4.487   7.011   2.062
 4679SOL    HW114936   4.413   6.945   2.075
 4679SOL    HW214937   4.562   6.989   2.124
 4680SOL     OW14938   3.878   1.784   1.040
 4680SOL    HW114939   3.973   1.814   1.039
 4680SOL    HW214940   3.872   1.692   0.999
 4681SOL     OW14941   4.501   4.931   6.862
 4681SOL    HW114942   4.454   4.947   6.775
 4681SOL    HW214943   4.554   5.012   6.887
 4682SOL     OW14944   5.521   3.361   6.126
 4682SOL    HW114945   5.493   3.283   6.182
 4682SOL    HW214946   5.599   3.406   6.168
 4683SOL     OW14947   5.939   5.279   3.097
 4683SOL    HW114948   6.037   5.291   3.110
 4683SOL    HW214949   5.922   5.194   3.046
 4684SOL     OW14950   4.573   5.933   6.038
 4684SOL    HW114951   4.548   6.029   6.037
 4684SOL    HW214952   4.493   5.877   6.062
 4685SOL     OW14953   1.781   4.273   6.132
 4685SOL    HW114954   1.751   4.294   6.225
 4685SOL    HW214955   1.834   4.350   6.096
 4686SOL     OW14956   4.022   5.667   0.335
 4686SOL    HW114957   4.109   5.618   0.322
 4686SOL    HW214958   3.946   5.604   0.316
 4687SOL     OW14959   4.284   2.073   4.101
 4687SOL    HW114960   4.243   1.995   4.054
 4687SOL    HW214961   4.278   2.059   4.200
 4688SOL     OW14962   5.833   2.471   5.336
 4688SOL    HW114963   5.876   2.424   5.413
 4688SOL    HW214964   5.766   2.536   5.370
 4689SOL     OW14965   5.779   0.499   1.106
 4689SOL    HW114966   5.866   0.497   1.057
 4689SOL    HW214967   5.761   0.592   1.138
 4690SOL     OW14968   1.822   1.063   0.644
 4690SOL    HW114969   1.804   1.042   0.740
 4690SOL    HW214970   1.841   1.161   0.634
 4691SOL     OW14971   4.567   3.821   0.287
 4691SOL    HW114972   4.507   3.753   0.329
 4691SOL    HW214973   4.662   3.797   0.303
 4692SOL     OW14974   5.987   4.852   3.409
 4692SOL    HW114975   5.991   4.868   3.310
 4692SOL    HW214976   6.079   4.859   3.448
 4693SOL     OW14977   1.379   0.828   3.862
 4693SOL    HW114978   1.358   0.874   3.949
 4693SOL    HW214979   1.476   0.803   3.860
 4694SOL     OW14980   2.213   2.495   0.394
 4694SOL    HW114981   2.300   2.446   0.392
 4694SOL    HW214982   2.148   2.445   0.451
 4695SOL     OW14983   1.897   5.925   0.727
 4695SOL    HW114984   1.909   5.925   0.826
 4695SOL    HW214985   1.964   5.987   0.686
 4696SOL     OW14986   0.189   5.738   6.620
 4696SOL    HW114987   0.187   5.671   6.545
 4696SOL    HW214988   0.278   5.783   6.622
 4697SOL     OW14989   1.089   3.515   2.209
 4697SOL    HW114990   1.026   3.491   2.135
 4697SOL    HW214991   1.180   3.529   2.172
 4698SOL     OW14992   3.807   7.015   3.421
 4698SOL    HW114993   3.820   6.922   3.454
 4698SOL    HW214994   3.842   7.022   3.327
 4699SOL     OW14995   0.520   6.665   2.755
 4699SOL    HW114996   0.458   6.587   2.744
 4699SOL    HW214997   0.468   6.750   2.749
 4700SOL     OW14998   6.746   1.662   2.306
 4700SOL    HW114999   6.749   1.585   2.241
 4700SOL    HW215000   6.663   1.656   2.361
 4701SOL     OW15001   3.340   2.163   1.654
 4701SOL    HW115002   3.393   2.133   1.734
 4701SOL    HW215003   3.242   2.154   1.673
 4702SOL     OW15004   4.757   5.186   0.607
 4702SOL    HW115005   4.720   5.096   0.632
 4702SOL    HW215006   4.730   5.209   0.514
 4703SOL     OW15007   0.843   5.741   2.717
 4703SOL    HW115008   0.886   5.807   2.655
 4703SOL    HW215009   0.831   5.654   2.670
 4704SOL     OW15010   0.331   6.133   5.642
 4704SOL    HW115011   0.403   6.097   5.701
 4704SOL    HW215012   0.338   6.092   5.551
 4705SOL     OW15013   3.057   2.358   0.360
 4705SOL    HW115014   3.123   2.333   0.288
 4705SOL    HW215015   3.046   2.280   0.422
 4706SOL     OW15016   1.528   0.439   0.577
 4706SOL    HW115017   1.437   0.398   0.578
 4706SOL    HW215018   1.519   0.536   0.554
 4707SOL     OW15019   1.402   5.837   1.707
 4707SOL    HW115020   1.495   5.801   1.698
 4707SOL    HW215021   1.402   5.918   1.766
 4708SOL     OW15022   0.644   2.170   5.798
 4708SOL    HW115023   0.673   2.183   5.893
 4708SOL    HW215024   0.644   2.073   5.776
 4709SOL     OW15025   4.485   4.825   4.597
 4709SOL    HW115026   4.436   4.905   4.562
 4709SOL    HW215027   4.553   4.855   4.664
 4710SOL     OW15028   5.904   0.114   5.487
 4710SOL    HW115029   5.937   0.069   5.570
 4710SOL    HW215030   5.823   0.064   5.453
 4711SOL     OW15031   6.932   2.416   2.890
 4711SOL    HW115032   6.850   2.388   2.840
 4711SOL    HW215033   6.919   2.508   2.927
 4712SOL     OW15034   3.947   4.426   6.441
 4712SOL    HW115035   3.951   4.525   6.458
 4712SOL    HW215036   4.032   4.384   6.471
 4713SOL     OW15037   4.990   5.619   0.836
 4713SOL    HW115038   4.934   5.700   0.824
 4713SOL    HW215039   5.020   5.613   0.931
 4714SOL     OW15040   0.288   1.621   6.654
 4714SOL    HW115041   0.324   1.534   6.619
 4714SOL    HW215042   0.262   1.610   6.750
 4715SOL     OW15043   5.729   2.371   1.249
 4715SOL    HW115044   5.780   2.343   1.330
 4715SOL    HW215045   5.781   2.345   1.167
 4716SOL     OW15046   4.944   5.770   6.038
 4716SOL    HW115047   4.944   5.816   6.126
 4716SOL    HW215048   4.850   5.745   6.013
 4717SOL     OW15049   2.198   5.186   5.137
 4717SOL    HW115050   2.103   5.209   5.115
 4717SOL    HW215051   2.253   5.269   5.137
 4718SOL     OW15052   4.746   2.815   1.103
 4718SOL    HW115053   4.831   2.780   1.062
 4718SOL    HW215054   4.754   2.812   1.202
 4719SOL     OW15055   5.235   4.227   2.813
 4719SOL    HW115056   5.325   4.193   2.787
 4719SOL    HW215057   5.237   4.260   2.907
 4720SOL     OW15058   2.056   4.478   5.760
 4720SOL    HW115059   2.114   4.531   5.820
 4720SOL    HW215060   2.078   4.499   5.665
 4721SOL     OW15061   5.774   2.642   1.910
 4721SOL    HW115062   5.759   2.714   1.842
 4721SOL    HW215063   5.773   2.553   1.865
 4722SOL     OW15064   0.872   5.748   0.289
 4722SOL    HW115065   0.885   5.663   0.237
 4722SOL    HW215066   0.855   5.823   0.225
 4723SOL     OW15067   3.644   4.140   5.408
 4723SOL    HW115068   3.623   4.059   5.354
 4723SOL    HW215069   3.657   4.218   5.347
 4724SOL     OW15070   0.289   6.772   3.958
 4724SOL    HW115071   0.202   6.789   4.005
 4724SOL    HW215072   0.272   6.763   3.860
 4725SOL     OW15073   5.802   4.907   0.307
 4725SOL    HW115074   5.775   4.819   0.347
 4725SOL    HW215075   5.834   4.892   0.213
 4726SOL     OW15076   1.104   2.994   6.063
 4726SOL    HW115077   1.128   3.038   5.976
 4726SOL    HW215078   1.159   2.911   6.074
 4727SOL     OW15079   0.123   5.773   0.423
 4727SOL    HW115080   0.121   5.750   0.325
 4727SOL    HW215081   0.042   5.827   0.446
 4728SOL     OW15082   6.575   1.617   2.995
 4728SOL    HW115083   6.519   1.687   2.951
 4728SOL    HW215084   6.660   1.658   3.029
 4729SOL     OW15085   5.071   0.257   0.591
 4729SOL    HW115086   5.167   0.236   0.608
 4729SOL    HW215087   5.027   0.180   0.544
 4730SOL     OW15088   3.689   6.051   5.441
 4730SOL    HW115089   3.761   6.078   5.376
 4730SOL    HW215090   3.612   6.013   5.391
 4731SOL     OW15091   2.999   0.706   0.875
 4731SOL    HW115092   2.931   0.638   0.903
 4731SOL    HW215093   2.957   0.768   0.809
 4732SOL     OW15094   0.820   3.734   5.350
 4732SOL    HW115095   0.811   3.800   5.275
 4732SOL    HW215096   0.790   3.777   5.435
 4733SOL     OW15097   1.689   4.216   2.661
 4733SOL    HW115098   1.694   4.252   2.754
 4733SOL    HW215099   1.600   4.173   2.646
 4734SOL     OW15100   5.263   3.319   0.366
 4734SOL    HW115101   5.317   3.305   0.283
 4734SOL    HW215102   5.178   3.365   0.343
 4735SOL     OW15103   6.666   5.469   4.262
 4735SOL    HW115104   6.700   5.466   4.356
 4735SOL    HW215105   6.595   5.399   4.250
 4736SOL     OW15106   5.588   2.280   4.326
 4736SOL    HW115107   5.687   2.291   4.333
 4736SOL    HW215108   5.566   2.191   4.285
 4737SOL     OW15109   2.350   4.437   0.819
 4737SOL    HW115110   2.402   4.462   0.901
 4737SOL    HW215111   2.391   4.356   0.777
 4738SOL     OW15112   3.498   6.517   3.848
 4738SOL    HW115113   3.470   6.587   3.914
 4738SOL    HW215114   3.431   6.443   3.846
 4739SOL     OW15115   5.535   1.882   4.104
 4739SOL    HW115116   5.477   1.963   4.118
 4739SOL    HW215117   5.590   1.895   4.021
 4740SOL     OW15118   0.477   0.251   0.612
 4740SOL    HW115119   0.475   0.151   0.606
 4740SOL    HW215120   0.483   0.290   0.520
 4741SOL     OW15121   4.740   4.531   0.907
 4741SOL    HW115122   4.722   4.433   0.907
 4741SOL    HW215123   4.653   4.581   0.901
 4742SOL     OW15124   3.123   5.285   1.334
 4742SOL    HW115125   3.066   5.295   1.415
 4742SOL    HW215126   3.214   5.322   1.352
 4743SOL     OW15127   1.844   1.500   5.983
 4743SOL    HW115128   1.885   1.576   5.933
 4743SOL    HW215129   1.849   1.417   5.927
 4744SOL     OW15130   2.236   3.319   5.523
 4744SOL    HW115131   2.285   3.271   5.450
 4744SOL    HW215132   2.300   3.375   5.575
 4745SOL     OW15133   2.638   4.853   5.372
 4745SOL    HW115134   2.568   4.919   5.346
 4745SOL    HW215135   2.691   4.826   5.291
 4746SOL     OW15136   6.085   6.382   1.316
 4746SOL    HW115137   6.166   6.430   1.349
 4746SOL    HW215138   6.045   6.432   1.239
 4747SOL     OW15139   1.351   3.546   6.200
 4747SOL    HW115140   1.320   3.487   6.274
 4747SOL    HW215141   1.290   3.625   6.193
 4748SOL     OW15142   1.502   6.823   1.116
 4748SOL    HW115143   1.541   6.738   1.150
 4748SOL    HW215144   1.469   6.809   1.022
 4749SOL     OW15145   3.172   6.210   6.091
 4749SOL    HW115146   3.116   6.247   6.017
 4749SOL    HW215147   3.139   6.246   6.179
 4750SOL     OW15148   0.485   2.038   3.793
 4750SOL    HW115149   0.539   2.098   3.852
 4750SOL    HW215150   0.543   1.963   3.760
 4751SOL     OW15151   1.948   3.359   0.434
 4751SOL    HW115152   2.045   3.385   0.428
 4751SOL    HW215153   1.904   3.377   0.346
 4752SOL     OW15154   2.982   6.683   0.651
 4752SOL    HW115155   2.929   6.765   0.672
 4752SOL    HW215156   2.984   6.623   0.731
 4753SOL     OW15157   5.500   0.059   4.246
 4753SOL    HW115158   5.567   7.023   4.208
 4753SOL    HW215159   5.482   0.035   4.342
 4754SOL     OW15160   6.175   0.259   5.766
 4754SOL    HW115161   6.181   0.356   5.740
 4754SOL    HW215162   6.175   0.203   5.683
 4755SOL     OW15163   2.599   0.771   0.125
 4755SOL    HW115164   2.527   0.838   0.105
 4755SOL    HW215165   2.614   0.767   0.224
 4756SOL     OW15166   5.742   2.054   1.493
 4756SOL    HW115167   5.704   2.072   1.402
 4756SOL    HW215168   5.687   2.101   1.562
 4757SOL     OW15169   1.683   1.899   1.960
 4757SOL    HW115170   1.609   1.866   2.019
 4757SOL    HW215171   1.686   1.999   1.965
 4758SOL     OW15172   3.645   5.782   5.136
 4758SOL    HW115173   3.713   5.729   5.185
 4758SOL    HW215174   3.555   5.739   5.146
 4759SOL     OW15175   5.559   5.470   4.738
 4759SOL    HW115176   5.549   5.490   4.835
 4759SOL    HW215177   5.527   5.548   4.684
 4760SOL     OW15178   3.298   2.208   1.150
 4760SOL    HW115179   3.221   2.145   1.155
 4760SOL    HW215180   3.333   2.210   1.056
 4761SOL     OW15181   6.696   0.820   6.983
 4761SOL    HW115182   6.729   0.869   6.903
 4761SOL    HW215183   6.656   0.732   6.954
 4762SOL     OW15184   3.043   5.058   3.319
 4762SOL    HW115185   3.013   5.140   3.270
 4762SOL    HW215186   3.140   5.067   3.343
 4763SOL     OW15187   5.979   6.344   3.370
 4763SOL    HW115188   6.037   6.425   3.378
 4763SOL    HW215189   6.015   6.284   3.299
 4764SOL     OW15190   5.115   4.140   5.277
 4764SOL    HW115191   5.094   4.139   5.180
 4764SOL    HW215192   5.173   4.219   5.298
 4765SOL     OW15193   5.238   6.734   4.395
 4765SOL    HW115194   5.193   6.652   4.429
 4765SOL    HW215195   5.230   6.738   4.295
 4766SOL     OW15196   4.342   0.445   3.940
 4766SOL    HW115197   4.341   0.545   3.932
 4766SOL    HW215198   4.288   0.406   3.866
 4767SOL     OW15199   4.662   5.891   7.028
 4767SOL    HW115200   4.677   5.838   0.083
 4767SOL    HW215201   4.662   5.829   6.949
 4768SOL     OW15202   5.299   1.938   5.089
 4768SOL    HW115203   5.309   2.028   5.131
 4768SOL    HW215204   5.382   1.915   5.039
 4769SOL     OW15205   4.181   5.348   1.241
 4769SOL    HW115206   4.142   5.265   1.202
 4769SOL    HW215207   4.173   5.423   1.176
 4770SOL     OW15208   2.039   0.185   3.719
 4770SOL    HW115209   2.048   0.181   3.619
 4770SOL    HW215210   1.964   0.247   3.743
 4771SOL     OW15211   3.582   5.094   6.339
 4771SOL    HW115212   3.536   5.179   6.314
 4771SOL    HW215213   3.550   5.020   6.280
 4772SOL     OW15214   2.064   5.944   2.248
 4772SOL    HW115215   2.061   5.871   2.318
 4772SOL    HW215216   2.071   6.033   2.293
 4773SOL     OW15217   6.754   5.321   4.747
 4773SOL    HW115218   6.810   5.252   4.701
 4773SOL    HW215219   6.663   5.285   4.764
 4774SOL     OW15220   0.853   2.269   2.892
 4774SOL    HW115221   0.832   2.365   2.909
 4774SOL    HW215222   0.933   2.242   2.946
 4775SOL     OW15223   5.714   0.670   2.960
 4775SOL    HW115224   5.812   0.689   2.950
 4775SOL    HW215225   5.678   0.717   3.040
 4776SOL     OW15226   2.422   6.622   4.073
 4776SOL    HW115227   2.397   6.653   3.982
 4776SOL    HW215228   2.416   6.698   4.137
 4777SOL     OW15229   2.642   4.788   1.315
 4777SOL    HW115230   2.662   4.704   1.264
 4777SOL    HW215231   2.550   4.781   1.356
 4778SOL     OW15232   5.433   2.719   1.902
 4778SOL    HW115233   5.470   2.681   1.987
 4778SOL    HW215234   5.338   2.690   1.891
 4779SOL     OW15235   6.346   0.050   2.056
 4779SOL    HW115236   6.412   0.037   1.982
 4779SOL    HW215237   6.262   0.089   2.018
 4780SOL     OW15238   0.844   6.829   6.816
 4780SOL    HW115239   0.936   6.845   6.852
 4780SOL    HW215240   0.851   6.781   6.729
 4781SOL     OW15241   3.230   5.949   1.190
 4781SOL    HW115242   3.225   5.971   1.093
 4781SOL    HW215243   3.143   5.908   1.219
 4782SOL     OW15244   4.816   6.658   0.185
 4782SOL    HW115245   4.770   6.676   0.272
 4782SOL    HW215246   4.747   6.643   0.113
 4783SOL     OW15247   4.707   4.339   0.328
 4783SOL    HW115248   4.720   4.301   0.419
 4783SOL    HW215249   4.734   4.272   0.259
 4784SOL     OW15250   6.216   4.338   0.171
 4784SOL    HW115251   6.281   4.380   0.107
 4784SOL    HW215252   6.262   4.265   0.222
 4785SOL     OW15253   7.027   5.888   1.553
 4785SOL    HW115254   6.998   5.966   1.497
 4785SOL    HW215255   6.954   5.820   1.555
 4786SOL     OW15256   1.856   2.500   1.985
 4786SOL    HW115257   1.876   2.513   2.082
 4786SOL    HW215258   1.927   2.443   1.943
 4787SOL     OW15259   3.613   2.120   3.472
 4787SOL    HW115260   3.542   2.177   3.515
 4787SOL    HW215261   3.630   2.040   3.529
 4788SOL     OW15262   1.506   5.401   6.256
 4788SOL    HW115263   1.470   5.323   6.308
 4788SOL    HW215264   1.439   5.476   6.258
 4789SOL     OW15265   5.271   0.849   0.421
 4789SOL    HW115266   5.286   0.934   0.471
 4789SOL    HW215267   5.293   0.771   0.480
 4790SOL     OW15268   6.418   3.113   6.374
 4790SOL    HW115269   6.344   3.131   6.439
 4790SOL    HW215270   6.502   3.094   6.425
 4791SOL     OW15271   5.651   2.311   2.196
 4791SOL    HW115272   5.594   2.291   2.276
 4791SOL    HW215273   5.742   2.337   2.227
 4792SOL     OW15274   1.450   3.148   2.618
 4792SOL    HW115275   1.466   3.116   2.525
 4792SOL    HW215276   1.359   3.118   2.649
 4793SOL     OW15277   1.078   2.637   5.654
 4793SOL    HW115278   1.012   2.711   5.662
 4793SOL    HW215279   1.037   2.560   5.604
 4794SOL     OW15280   3.939   0.910   3.383
 4794SOL    HW115281   3.912   0.869   3.470
 4794SOL    HW215282   3.861   0.911   3.320
 4795SOL     OW15283   6.518   2.418   3.870
 4795SOL    HW115284   6.570   2.475   3.933
 4795SOL    HW215285   6.520   2.460   3.779
 4796SOL     OW15286   4.766   1.881   6.600
 4796SOL    HW115287   4.829   1.959   6.608
 4796SOL    HW215288   4.725   1.881   6.509
 4797SOL     OW15289   1.491   5.902   4.924
 4797SOL    HW115290   1.450   5.923   5.013
 4797SOL    HW215291   1.429   5.845   4.872
 4798SOL     OW15292   7.000   3.503   5.488
 4798SOL    HW115293   6.970   3.409   5.473
 4798SOL    HW215294   0.056   3.519   5.436
 4799SOL     OW15295   4.694   2.358   6.138
 4799SOL    HW115296   4.604   2.340   6.177
 4799SOL    HW215297   4.683   2.394   6.045
 4800SOL     OW15298   3.462   3.171   5.964
 4800SOL    HW115299   3.535   3.104   5.981
 4800SOL    HW215300   3.394   3.131   5.903
 4801SOL     OW15301   2.325   2.288   0.016
 4801SOL    HW115302   2.369   2.218   6.987
 4801SOL    HW215303   2.394   2.336   0.069
 4802SOL     OW15304   1.092   6.644   2.440
 4802SOL    HW115305   1.126   6.575   2.504
 4802SOL    HW215306   1.025   6.702   2.487
 4803SOL     OW15307   1.015   6.573   0.527
 4803SOL    HW115308   1.102   6.531   0.501
 4803SOL    HW215309   1.001   6.657   0.473
 4804SOL     OW15310   4.314   4.969   6.319
 4804SOL    HW115311   4.392   4.905   6.316
 4804SOL    HW215312   4.347   5.061   6.340
 4805SOL     OW15313   7.015   6.555   1.578
 4805SOL    HW115314   0.069   6.602   1.545
 4805SOL    HW215315   7.022   6.544   1.678
 4806SOL     OW15316   0.362   3.705   3.407
 4806SOL    HW115317   0.456   3.720   3.377
 4806SOL    HW215318   0.299   3.748   3.341
 4807SOL     OW15319   1.305   5.234   0.500
 4807SOL    HW115320   1.386   5.175   0.500
 4807SOL    HW215321   1.223   5.177   0.497
 4808SOL     OW15322   6.192   3.696   0.185
 4808SOL    HW115323   6.198   3.782   0.134
 4808SOL    HW215324   6.281   3.675   0.225
 4809SOL     OW15325   3.631   3.736   6.714
 4809SOL    HW115326   3.724   3.723   6.678
 4809SOL    HW215327   3.582   3.649   6.712
 4810SOL     OW15328   1.293   4.446   2.315
 4810SOL    HW115329   1.362   4.472   2.247
 4810SOL    HW215330   1.203   4.444   2.272
 4811SOL     OW15331   2.215   4.532   2.051
 4811SOL    HW115332   2.201   4.613   2.109
 4811SOL    HW215333   2.305   4.537   2.008
 4812SOL     OW15334   6.843   5.112   5.623
 4812SOL    HW115335   6.928   5.116   5.570
 4812SOL    HW215336   6.836   5.023   5.668
 4813SOL     OW15337   5.436   1.606   1.735
 4813SOL    HW115338   5.352   1.631   1.688
 4813SOL    HW215339   5.439   1.507   1.748
 4814SOL     OW15340   5.935   4.471   0.593
 4814SOL    HW115341   5.883   4.555   0.579
 4814SOL    HW215342   5.876   4.402   0.636
 4815SOL     OW15343   5.354   4.474   1.879
 4815SOL    HW115344   5.270   4.420   1.889
 4815SOL    HW215345   5.418   4.425   1.820
 4816SOL     OW15346   5.972   5.052   2.728
 4816SOL    HW115347   6.043   5.120   2.712
 4816SOL    HW215348   5.995   4.968   2.680
 4817SOL     OW15349   0.717   2.434   6.250
 4817SOL    HW115350   0.720   2.521   6.298
 4817SOL    HW215351   0.802   2.383   6.268
 4818SOL     OW15352   0.656   0.198   4.531
 4818SOL    HW115353   0.750   0.224   4.553
 4818SOL    HW215354   0.655   0.102   4.501
 4819SOL     OW15355   1.613   3.182   1.002
 4819SOL    HW115356   1.518   3.191   1.031
 4819SOL    HW215357   1.624   3.215   0.908
 4820SOL     OW15358   0.037   2.795   1.569
 4820SOL    HW115359   0.055   2.712   1.622
 4820SOL    HW215360   0.048   2.875   1.629
 4821SOL     OW15361   0.434   6.123   3.122
 4821SOL    HW115362   0.433   6.222   3.137
 4821SOL    HW215363   0.527   6.088   3.134
 4822SOL     OW15364   1.204   3.449   4.118
 4822SOL    HW115365   1.158   3.489   4.039
 4822SOL    HW215366   1.213   3.519   4.189
 4823SOL     OW15367   1.851   2.202   3.028
 4823SOL    HW115368   1.905   2.283   3.004
 4823SOL    HW215369   1.842   2.142   2.949
 4824SOL     OW15370   5.435   1.973   5.422
 4824SOL    HW115371   5.514   1.925   5.462
 4824SOL    HW215372   5.364   1.906   5.399
 4825SOL     OW15373   1.331   2.066   4.359
 4825SOL    HW115374   1.242   2.063   4.313
 4825SOL    HW215375   1.404   2.057   4.291
 4826SOL     OW15376   5.320   0.657   0.668
 4826SOL    HW115377   5.236   0.630   0.715
 4826SOL    HW215378   5.392   0.675   0.735
 4827SOL     OW15379   6.007   2.176   0.367
 4827SOL    HW115380   6.007   2.128   0.455
 4827SOL    HW215381   6.052   2.264   0.377
 4828SOL     OW15382   4.805   0.677   1.264
 4828SOL    HW115383   4.802   0.589   1.312
 4828SOL    HW215384   4.729   0.681   1.200
 4829SOL     OW15385   4.441   6.640   6.596
 4829SOL    HW115386   4.451   6.541   6.599
 4829SOL    HW215387   4.454   6.673   6.502
 4830SOL     OW15388   3.846   5.807   4.335
 4830SOL    HW115389   3.912   5.829   4.407
 4830SOL    HW215390   3.772   5.875   4.336
 4831SOL     OW15391   2.838   5.528   5.304
 4831SOL    HW115392   2.857   5.492   5.213
 4831SOL    HW215393   2.740   5.547   5.313
 4832SOL     OW15394   3.179   3.057   4.457
 4832SOL    HW115395   3.216   3.148   4.473
 4832SOL    HW215396   3.099   3.043   4.516
 4833SOL     OW15397   5.604   2.086   3.065
 4833SOL    HW115398   5.525   2.081   3.005
 4833SOL    HW215399   5.628   2.181   3.082
 4834SOL     OW15400   2.433   6.120   2.388
 4834SOL    HW115401   2.466   6.080   2.303
 4834SOL    HW215402   2.469   6.068   2.465
 4835SOL     OW15403   6.032   2.881   6.050
 4835SOL    HW115404   6.080   2.906   5.966
 4835SOL    HW215405   6.060   2.789   6.078
 4836SOL     OW15406   5.168   1.096   5.214
 4836SOL    HW115407   5.144   1.012   5.164
 4836SOL    HW215408   5.207   1.162   5.150
 4837SOL     OW15409   6.673   3.603   2.764
 4837SOL    HW115410   6.720   3.679   2.719
 4837SOL    HW215411   6.725   3.519   2.751
 4838SOL     OW15412   2.394   5.438   6.878
 4838SOL    HW115413   2.377   5.516   6.938
 4838SOL    HW215414   2.350   5.454   6.790
 4839SOL     OW15415   1.427   3.535   6.962
 4839SOL    HW115416   1.483   3.573   6.889
 4839SOL    HW215417   1.405   3.439   6.940
 4840SOL     OW15418   5.870   3.978   5.387
 4840SOL    HW115419   5.968   3.964   5.393
 4840SOL    HW215420   5.828   3.905   5.333
 4841SOL     OW15421   3.490   5.570   2.831
 4841SOL    HW115422   3.534   5.539   2.747
 4841SOL    HW215423   3.533   5.654   2.863
 4842SOL     OW15424   2.848   5.473   3.033
 4842SOL    HW115425   2.767   5.511   3.079
 4842SOL    HW215426   2.829   5.462   2.936
 4843SOL     OW15427   6.388   2.420   1.900
 4843SOL    HW115428   6.329   2.434   1.820
 4843SOL    HW215429   6.344   2.459   1.981
 4844SOL     OW15430   0.860   4.084   5.365
 4844SOL    HW115431   0.812   4.007   5.408
 4844SOL    HW215432   0.947   4.100   5.412
 4845SOL     OW15433   4.543   5.085   5.290
 4845SOL    HW115434   4.621   5.023   5.300
 4845SOL    HW215435   4.572   5.167   5.241
 4846SOL     OW15436   0.156   1.959   3.342
 4846SOL    HW115437   0.082   1.993   3.284
 4846SOL    HW215438   0.144   1.994   3.435
 4847SOL     OW15439   2.742   1.075   5.235
 4847SOL    HW115440   2.829   1.027   5.247
 4847SOL    HW215441   2.669   1.023   5.281
 4848SOL     OW15442   2.680   1.269   4.140
 4848SOL    HW115443   2.694   1.170   4.131
 4848SOL    HW215444   2.648   1.306   4.053
 4849SOL     OW15445   1.950   0.106   0.554
 4849SOL    HW115446   1.853   0.132   0.561
 4849SOL    HW215447   1.967   0.025   0.610
 4850SOL     OW15448   4.364   0.604   1.607
 4850SOL    HW115449   4.461   0.581   1.603
 4850SOL    HW215450   4.349   0.676   1.675
 4851SOL     OW15451   4.002   5.878   6.510
 4851SOL    HW115452   4.021   5.911   6.602
 4851SOL    HW215453   3.929   5.809   6.513
 4852SOL     OW15454   3.243   5.822   4.535
 4852SOL    HW115455   3.194   5.861   4.457
 4852SOL    HW215456   3.226   5.877   4.617
 4853SOL     OW15457   3.898   1.174   2.914
 4853SOL    HW115458   3.852   1.163   2.826
 4853SOL    HW215459   3.982   1.227   2.902
 4854SOL     OW15460   5.426   6.638   2.079
 4854SOL    HW115461   5.382   6.720   2.116
 4854SOL    HW215462   5.522   6.637   2.106
 4855SOL     OW15463   6.708   3.519   4.885
 4855SOL    HW115464   6.750   3.587   4.825
 4855SOL    HW215465   6.609   3.522   4.875
 4856SOL     OW15466   0.392   3.052   2.136
 4856SOL    HW115467   0.467   2.996   2.170
 4856SOL    HW215468   0.315   3.047   2.200
 4857SOL     OW15469   3.368   2.175   3.588
 4857SOL    HW115470   3.294   2.241   3.601
 4857SOL    HW215471   3.419   2.163   3.673
 4858SOL     OW15472   1.250   0.134   4.586
 4858SOL    HW115473   1.319   0.116   4.515
 4858SOL    HW215474   1.228   0.049   4.633
 4859SOL     OW15475   1.637   4.941   1.484
 4859SOL    HW115476   1.543   4.952   1.517
 4859SOL    HW215477   1.635   4.909   1.389
 4860SOL     OW15478   4.114   4.377   0.558
 4860SOL    HW115479   4.104   4.281   0.585
 4860SOL    HW215480   4.094   4.387   0.461
 4861SOL     OW15481   6.200   5.096   6.211
 4861SOL    HW115482   6.268   5.025   6.228
 4861SOL    HW215483   6.235   5.161   6.144
 4862SOL     OW15484   3.077   5.035   4.833
 4862SOL    HW115485   3.060   5.106   4.765
 4862SOL    HW215486   3.054   5.070   4.924
 4863SOL     OW15487   4.878   3.301   2.555
 4863SOL    HW115488   4.783   3.318   2.529
 4863SOL    HW215489   4.908   3.214   2.516
 4864SOL     OW15490   2.855   1.533   1.621
 4864SOL    HW115491   2.924   1.583   1.673
 4864SOL    HW215492   2.899   1.488   1.543
 4865SOL     OW15493   2.742   5.043   5.934
 4865SOL    HW115494   2.734   5.042   5.835
 4865SOL    HW215495   2.656   5.074   5.975
 4866SOL     OW15496   5.966   4.850   1.869
 4866SOL    HW115497   5.893   4.898   1.819
 4866SOL    HW215498   5.987   4.900   1.953
 4867SOL     OW15499   4.748   5.711   3.591
 4867SOL    HW115500   4.837   5.714   3.546
 4867SOL    HW215501   4.760   5.727   3.689
 4868SOL     OW15502   0.925   5.474   1.489
 4868SOL    HW115503   0.942   5.446   1.395
 4868SOL    HW215504   0.829   5.498   1.500
 4869SOL     OW15505   6.461   1.997   1.085
 4869SOL    HW115506   6.414   1.926   1.137
 4869SOL    HW215507   6.505   2.061   1.148
 4870SOL     OW15508   4.118   5.656   1.618
 4870SOL    HW115509   4.164   5.613   1.540
 4870SOL    HW215510   4.049   5.593   1.654
 4871SOL     OW15511   1.592   1.523   3.121
 4871SOL    HW115512   1.530   1.598   3.100
 4871SOL    HW215513   1.586   1.453   3.050
 4872SOL     OW15514   1.226   0.309   3.162
 4872SOL    HW115515   1.290   0.354   3.225
 4872SOL    HW215516   1.261   0.316   3.069
 4873SOL     OW15517   0.208   5.247   4.902
 4873SOL    HW115518   0.164   5.317   4.845
 4873SOL    HW215519   0.138   5.195   4.951
 4874SOL     OW15520   5.517   3.865   2.358
 4874SOL    HW115521   5.432   3.917   2.361
 4874SOL    HW215522   5.570   3.892   2.277
 4875SOL     OW15523   5.164   2.439   1.174
 4875SOL    HW115524   5.212   2.399   1.096
 4875SOL    HW215525   5.084   2.384   1.196
 4876SOL     OW15526   5.684   0.319   5.766
 4876SOL    HW115527   5.705   0.329   5.669
 4876SOL    HW215528   5.767   0.294   5.816
 4877SOL     OW15529   6.859   1.537   1.177
 4877SOL    HW115530   6.830   1.480   1.254
 4877SOL    HW215531   6.900   1.622   1.213
 4878SOL     OW15532   0.338   1.783   2.208
 4878SOL    HW115533   0.294   1.871   2.227
 4878SOL    HW215534   0.368   1.781   2.112
 4879SOL     OW15535   4.606   4.804   2.973
 4879SOL    HW115536   4.555   4.803   2.887
 4879SOL    HW215537   4.655   4.718   2.985
 4880SOL     OW15538   5.402   2.304   0.139
 4880SOL    HW115539   5.501   2.296   0.136
 4880SOL    HW215540   5.363   2.228   0.191
 4881SOL     OW15541   2.887   6.568   6.435
 4881SOL    HW115542   2.822   6.521   6.375
 4881SOL    HW215543   2.877   6.535   6.528
 4882SOL     OW15544   6.342   1.629   5.558
 4882SOL    HW115545   6.368   1.693   5.486
 4882SOL    HW215546   6.425   1.586   5.595
 4883SOL     OW15547   5.356   4.897   2.408
 4883SOL    HW115548   5.325   4.847   2.328
 4883SOL    HW215549   5.454   4.916   2.400
 4884SOL     OW15550   4.549   0.048   1.672
 4884SOL    HW115551   4.529   6.981   1.694
 4884SOL    HW215552   4.506   0.108   1.739
 4885SOL     OW15553   2.041   6.482   2.082
 4885SOL    HW115554   1.972   6.464   2.152
 4885SOL    HW215555   2.114   6.538   2.121
 4886SOL     OW15556   0.308   6.673   6.692
 4886SOL    HW115557   0.282   6.577   6.703
 4886SOL    HW215558   0.388   6.679   6.632
 4887SOL     OW15559   6.817   2.271   3.368
 4887SOL    HW115560   6.776   2.346   3.420
 4887SOL    HW215561   6.829   2.192   3.427
 4888SOL     OW15562   1.810   0.033   3.734
 4888SOL    HW115563   1.898   0.057   3.693
 4888SOL    HW215564   1.816   0.041   3.833
 4889SOL     OW15565   0.333   2.140   0.364
 4889SOL    HW115566   0.387   2.056   0.368
 4889SOL    HW215567   0.236   2.117   0.360
 4890SOL     OW15568   0.779   1.436   4.348
 4890SOL    HW115569   0.706   1.377   4.384
 4890SOL    HW215570   0.758   1.463   4.255
 4891SOL     OW15571   0.867   5.186   6.994
 4891SOL    HW115572   0.948   5.244   6.985
 4891SOL    HW215573   0.854   5.162   0.062
 4892SOL     OW15574   1.183   5.763   2.770
 4892SOL    HW115575   1.130   5.691   2.727
 4892SOL    HW215576   1.263   5.784   2.713
 4893SOL     OW15577   6.712   4.518   6.916
 4893SOL    HW115578   6.693   4.492   7.010
 4893SOL    HW215579   6.658   4.599   6.892
 4894SOL     OW15580   2.128   0.133   2.732
 4894SOL    HW115581   2.172   0.073   2.800
 4894SOL    HW215582   2.029   0.131   2.745
 4895SOL     OW15583   0.791   3.829   1.060
 4895SOL    HW115584   0.784   3.913   1.006
 4895SOL    HW215585   0.810   3.752   1.000
 4896SOL     OW15586   3.328   5.624   3.370
 4896SOL    HW115587   3.340   5.635   3.271
 4896SOL    HW215588   3.416   5.607   3.413
 4897SOL     OW15589   3.605   4.931   6.553
 4897SOL    HW115590   3.625   4.993   6.629
 4897SOL    HW215591   3.598   4.982   6.468
 4898SOL     OW15592   5.418   2.258   5.569
 4898SOL    HW115593   5.345   2.242   5.637
 4898SOL    HW215594   5.441   2.171   5.525
 4899SOL     OW15595   6.266   4.829   2.836
 4899SOL    HW115596   6.238   4.768   2.762
 4899SOL    HW215597   6.313   4.909   2.797
 4900SOL     OW15598   0.040   6.485   5.883
 4900SOL    HW115599   0.135   6.474   5.912
 4900SOL    HW215600   7.011   6.420   5.934
 4901SOL     OW15601   2.111   6.970   4.334
 4901SOL    HW115602   2.021   6.999   4.300
 4901SOL    HW215603   2.177   0.014   4.319
 4902SOL     OW15604   0.896   3.533   2.669
 4902SOL    HW115605   0.926   3.446   2.631
 4902SOL    HW215606   0.957   3.560   2.744
 4903SOL     OW15607   4.170   6.235   6.716
 4903SOL    HW115608   4.111   6.272   6.646
 4903SOL    HW215609   4.166   6.293   6.798
 4904SOL     OW15610   2.268   5.401   4.418
 4904SOL    HW115611   2.185   5.368   4.373
 4904SOL    HW215612   2.318   5.461   4.355
 4905SOL     OW15613   4.753   1.948   2.096
 4905SOL    HW115614   4.760   2.041   2.060
 4905SOL    HW215615   4.843   1.919   2.129
 4906SOL     OW15616   4.703   0.082   0.354
 4906SOL    HW115617   4.656   0.043   0.275
 4906SOL    HW215618   4.647   0.071   0.436
 4907SOL     OW15619   4.014   6.238   3.001
 4907SOL    HW115620   4.033   6.259   3.097
 4907SOL    HW215621   3.927   6.190   2.994
 4908SOL     OW15622   3.998   5.936   6.776
 4908SOL    HW115623   4.022   5.855   6.829
 4908SOL    HW215624   4.070   6.005   6.787
 4909SOL     OW15625   6.113   0.512   6.204
 4909SOL    HW115626   6.159   0.531   6.117
 4909SOL    HW215627   6.021   0.551   6.203
 4910SOL     OW15628   5.226   0.361   5.540
 4910SOL    HW115629   5.296   0.413   5.492
 4910SOL    HW215630   5.268   0.282   5.584
 4911SOL     OW15631   6.772   2.007   5.924
 4911SOL    HW115632   6.759   2.104   5.944
 4911SOL    HW215633   6.838   1.997   5.850
 4912SOL     OW15634   4.958   1.097   1.809
 4912SOL    HW115635   4.968   1.145   1.722
 4912SOL    HW215636   4.907   1.012   1.794
 4913SOL     OW15637   3.170   3.987   3.825
 4913SOL    HW115638   3.240   4.041   3.778
 4913SOL    HW215639   3.101   3.957   3.759
 4914SOL     OW15640   3.188   1.175   4.351
 4914SOL    HW115641   3.236   1.260   4.374
 4914SOL    HW215642   3.098   1.197   4.315
 4915SOL     OW15643   4.474   6.697   4.063
 4915SOL    HW115644   4.540   6.632   4.026
 4915SOL    HW215645   4.453   6.673   4.158
 4916SOL     OW15646   2.383   1.826   3.050
 4916SOL    HW115647   2.314   1.873   3.105
 4916SOL    HW215648   2.359   1.833   2.953
 4917SOL     OW15649   1.495   4.091   0.750
 4917SOL    HW115650   1.554   4.060   0.825
 4917SOL    HW215651   1.413   4.034   0.747
 4918SOL     OW15652   2.727   0.232   2.706
 4918SOL    HW115653   2.743   0.298   2.779
 4918SOL    HW215654   2.791   0.155   2.716
 4919SOL     OW15655   1.537   2.259   3.029
 4919SOL    HW115656   1.506   2.282   2.937
 4919SOL    HW215657   1.610   2.322   3.057
 4920SOL     OW15658   4.246   0.306   0.062
 4920SOL    HW115659   4.327   0.305   0.120
 4920SOL    HW215660   4.215   0.401   0.048
 4921SOL     OW15661   2.315   3.783   1.790
 4921SOL    HW115662   2.315   3.688   1.821
 4921SOL    HW215663   2.301   3.844   1.869
 4922SOL     OW15664   1.169   3.271   5.371
 4922SOL    HW115665   1.147   3.176   5.393
 4922SOL    HW215666   1.113   3.301   5.294
 4923SOL     OW15667   4.980   0.040   2.121
 4923SOL    HW115668   5.034   7.006   2.177
 4923SOL    HW215669   4.996   0.134   2.151
 4924SOL     OW15670   2.073   3.245   4.710
 4924SOL    HW115671   2.091   3.171   4.646
 4924SOL    HW215672   2.155   3.301   4.720
 4925SOL     OW15673   5.759   6.120   1.260
 4925SOL    HW115674   5.721   6.206   1.226
 4925SOL    HW215675   5.685   6.054   1.273
 4926SOL     OW15676   5.224   2.847   1.569
 4926SOL    HW115677   5.233   2.903   1.651
 4926SOL    HW215678   5.236   2.904   1.488
 4927SOL     OW15679   4.010   3.098   2.925
 4927SOL    HW115680   4.010   3.010   2.878
 4927SOL    HW215681   3.938   3.156   2.888
 4928SOL     OW15682   0.511   6.712   6.525
 4928SOL    HW115683   0.551   6.621   6.513
 4928SOL    HW215684   0.464   6.739   6.440
 4929SOL     OW15685   1.455   4.476   5.109
 4929SOL    HW115686   1.455   4.379   5.083
 4929SOL    HW215687   1.367   4.500   5.149
 4930SOL     OW15688   0.733   1.234   0.451
 4930SOL    HW115689   0.776   1.210   0.364
 4930SOL    HW215690   0.800   1.226   0.524
 4931SOL     OW15691   0.813   0.501   0.073
 4931SOL    HW115692   0.829   0.453   7.016
 4931SOL    HW215693   0.804   0.435   0.147
 4932SOL     OW15694   2.108   3.217   1.872
 4932SOL    HW115695   2.081   3.290   1.936
 4932SOL    HW215696   2.109   3.253   1.779
 4933SOL     OW15697   2.312   0.773   4.428
 4933SOL    HW115698   2.261   0.787   4.513
 4933SOL    HW215699   2.329   0.861   4.385
 4934SOL     OW15700   0.994   5.107   4.345
 4934SOL    HW115701   1.023   5.193   4.387
 4934SOL    HW215702   0.998   5.034   4.413
 4935SOL     OW15703   1.253   0.931   6.724
 4935SOL    HW115704   1.274   1.021   6.761
 4935SOL    HW215705   1.174   0.938   6.663
 4936SOL     OW15706   2.755   5.727   1.571
 4936SOL    HW115707   2.843   5.737   1.617
 4936SOL    HW215708   2.757   5.645   1.514
 4937SOL     OW15709   0.771   3.625   5.973
 4937SOL    HW115710   0.820   3.552   5.926
 4937SOL    HW215711   0.702   3.586   6.033
 4938SOL     OW15712   3.157   4.875   1.931
 4938SOL    HW115713   3.059   4.862   1.916
 4938SOL    HW215714   3.207   4.858   1.846
 4939SOL     OW15715   1.252   1.996   2.090
 4939SOL    HW115716   1.206   2.008   2.178
 4939SOL    HW215717   1.215   2.061   2.024
 4940SOL     OW15718   0.064   1.785   5.051
 4940SOL    HW115719   0.125   1.837   4.991
 4940SOL    HW215720   6.997   1.809   5.032
 4941SOL     OW15721   3.856   2.544   5.392
 4941SOL    HW115722   3.889   2.520   5.484
 4941SOL    HW215723   3.935   2.557   5.331
 4942SOL     OW15724   5.771   3.032   3.726
 4942SOL    HW115725   5.772   3.101   3.654
 4942SOL    HW215726   5.831   3.060   3.801
 4943SOL     OW15727   6.015   3.990   6.490
 4943SOL    HW115728   6.039   4.039   6.574
 4943SOL    HW215729   6.097   3.947   6.452
 4944SOL     OW15730   2.073   4.466   0.468
 4944SOL    HW115731   2.004   4.521   0.421
 4944SOL    HW215732   2.095   4.509   0.556
 4945SOL     OW15733   1.530   1.093   5.266
 4945SOL    HW115734   1.622   1.119   5.297
 4945SOL    HW215735   1.483   1.173   5.230
 4946SOL     OW15736   0.854   4.535   6.591
 4946SOL    HW115737   0.949   4.539   6.561
 4946SOL    HW215738   0.838   4.603   6.663
 4947SOL     OW15739   2.801   1.078   2.168
 4947SOL    HW115740   2.802   1.014   2.245
 4947SOL    HW215741   2.817   1.029   2.083
 4948SOL     OW15742   1.659   2.450   2.604
 4948SOL    HW115743   1.677   2.521   2.672
 4948SOL    HW215744   1.680   2.486   2.512
 4949SOL     OW15745   6.322   3.874   5.838
 4949SOL    HW115746   6.354   3.962   5.873
 4949SOL    HW215747   6.394   3.806   5.849
 4950SOL     OW15748   2.156   3.816   4.871
 4950SOL    HW115749   2.140   3.890   4.805
 4950SOL    HW215750   2.221   3.847   4.941
 4951SOL     OW15751   5.854   6.321   4.036
 4951SOL    HW115752   5.898   6.409   4.017
 4951SOL    HW215753   5.797   6.295   3.958
 4952SOL     OW15754   6.913   0.259   6.611
 4952SOL    HW115755   6.874   0.291   6.697
 4952SOL    HW215756   6.919   0.335   6.547
 4953SOL     OW15757   2.183   1.605   4.166
 4953SOL    HW115758   2.283   1.609   4.171
 4953SOL    HW215759   2.150   1.677   4.105
 4954SOL     OW15760   2.292   3.946   6.079
 4954SOL    HW115761   2.208   3.983   6.118
 4954SOL    HW215762   2.298   3.970   5.982
 4955SOL     OW15763   3.373   5.126   6.977
 4955SOL    HW115764   3.341   5.116   6.883
 4955SOL    HW215765   3.300   5.100   0.012
 4956SOL     OW15766   3.144   0.787   5.731
 4956SOL    HW115767   3.212   0.718   5.757
 4956SOL    HW215768   3.068   0.785   5.795
 4957SOL     OW15769   5.820   3.495   0.222
 4957SOL    HW115770   5.726   3.491   0.256
 4957SOL    HW215771   5.878   3.435   0.277
 4958SOL     OW15772   1.918   6.223   5.530
 4958SOL    HW115773   1.933   6.279   5.612
 4958SOL    HW215774   1.850   6.153   5.549
 4959SOL     OW15775   6.604   1.768   1.251
 4959SOL    HW115776   6.560   1.683   1.222
 4959SOL    HW215777   6.610   1.830   1.173
 4960SOL     OW15778   4.152   4.811   3.647
 4960SOL    HW115779   4.054   4.832   3.644
 4960SOL    HW215780   4.185   4.793   3.554
 4961SOL     OW15781   3.060   0.770   6.719
 4961SOL    HW115782   3.044   0.678   6.756
 4961SOL    HW215783   3.156   0.795   6.734
 4962SOL     OW15784   5.471   2.693   0.905
 4962SOL    HW115785   5.415   2.746   0.968
 4962SOL    HW215786   5.506   2.611   0.952
 4963SOL     OW15787   1.796   5.910   1.252
 4963SOL    HW115788   1.841   5.955   1.329
 4963SOL    HW215789   1.859   5.904   1.176
 4964SOL     OW15790   1.898   6.683   4.993
 4964SOL    HW115791   1.931   6.666   4.900
 4964SOL    HW215792   1.806   6.721   4.989
 4965SOL     OW15793   0.792   6.826   3.050
 4965SOL    HW115794   0.769   6.776   3.133
 4965SOL    HW215795   0.773   6.923   3.062
 4966SOL     OW15796   2.153   6.533   4.326
 4966SOL    HW115797   2.218   6.542   4.401
 4966SOL    HW215798   2.201   6.536   4.239
 4967SOL     OW15799   3.148   5.135   6.465
 4967SOL    HW115800   3.224   5.170   6.410
 4967SOL    HW215801   3.135   5.038   6.444
 4968SOL     OW15802   0.288   0.875   3.937
 4968SOL    HW115803   0.374   0.911   3.974
 4968SOL    HW215804   0.252   0.805   3.998
 4969SOL     OW15805   0.319   6.259   2.351
 4969SOL    HW115806   0.338   6.357   2.358
 4969SOL    HW215807   0.266   6.241   2.269
 4970SOL     OW15808   2.175   0.773   1.575
 4970SOL    HW115809   2.183   0.691   1.519
 4970SOL    HW215810   2.153   0.851   1.517
 4971SOL     OW15811   5.837   6.014   2.808
 4971SOL    HW115812   5.820   5.936   2.748
 4971SOL    HW215813   5.926   6.002   2.853
 4972SOL     OW15814   1.210   4.360   0.436
 4972SOL    HW115815   1.307   4.361   0.410
 4972SOL    HW215816   1.158   4.307   0.369
 4973SOL     OW15817   0.506   0.397   1.602
 4973SOL    HW115818   0.523   0.309   1.646
 4973SOL    HW215819   0.437   0.385   1.530
 4974SOL     OW15820   5.006   4.523   0.415
 4974SOL    HW115821   5.098   4.561   0.425
 4974SOL    HW215822   4.967   4.553   0.328
 4975SOL     OW15823   5.501   3.968   0.707
 4975SOL    HW115824   5.546   4.024   0.776
 4975SOL    HW215825   5.451   3.893   0.752
 4976SOL     OW15826   1.390   0.365   4.591
 4976SOL    HW115827   1.314   0.300   4.594
 4976SOL    HW215828   1.358   0.453   4.556
 4977SOL     OW15829   3.407   3.728   0.082
 4977SOL    HW115830   3.496   3.718   0.040
 4977SOL    HW215831   3.407   3.810   0.141
 4978SOL     OW15832   5.118   4.818   5.152
 4978SOL    HW115833   5.204   4.857   5.183
 4978SOL    HW215834   5.104   4.729   5.195
 4979SOL     OW15835   0.417   6.654   6.990
 4979SOL    HW115836   0.318   6.657   6.977
 4979SOL    HW215837   0.452   6.565   6.959
 4980SOL     OW15838   5.767   4.781   2.261
 4980SOL    HW115839   5.691   4.757   2.201
 4980SOL    HW215840   5.789   4.703   2.319
 4981SOL     OW15841   3.342   6.194   1.914
 4981SOL    HW115842   3.320   6.099   1.937
 4981SOL    HW215843   3.417   6.195   1.847
 4982SOL     OW15844   4.150   1.852   6.717
 4982SOL    HW115845   4.072   1.842   6.655
 4982SOL    HW215846   4.151   1.946   6.753
 4983SOL     OW15847   5.852   4.714   4.056
 4983SOL    HW115848   5.914   4.637   4.069
 4983SOL    HW215849   5.874   4.760   3.969
 4984SOL     OW15850   4.734   4.575   3.033
 4984SOL    HW115851   4.717   4.496   2.975
 4984SOL    HW215852   4.824   4.566   3.077
 4985SOL     OW15853   5.192   6.192   2.563
 4985SOL    HW115854   5.101   6.200   2.604
 4985SOL    HW215855   5.197   6.108   2.509
 4986SOL     OW15856   6.736   4.791   0.887
 4986SOL    HW115857   6.683   4.769   0.805
 4986SOL    HW215858   6.674   4.824   0.958
 4987SOL     OW15859   1.342   6.144   2.890
 4987SOL    HW115860   1.308   6.145   2.984
 4987SOL    HW215861   1.266   6.160   2.827
 4988SOL     OW15862   6.492   1.049   3.304
 4988SOL    HW115863   6.412   1.108   3.289
 4988SOL    HW215864   6.480   0.998   3.389
 4989SOL     OW15865   4.807   0.488   1.874
 4989SOL    HW115866   4.817   0.390   1.854
 4989SOL    HW215867   4.895   0.525   1.903
 4990SOL     OW15868   3.700   1.607   6.712
 4990SOL    HW115869   3.602   1.609   6.731
 4990SOL    HW215870   3.748   1.566   6.790
 4991SOL     OW15871   6.914   5.691   4.180
 4991SOL    HW115872   6.882   5.786   4.183
 4991SOL    HW215873   6.845   5.631   4.219
 4992SOL     OW15874   6.144   1.423   3.127
 4992SOL    HW115875   6.208   1.498   3.112
 4992SOL    HW215876   6.092   1.406   3.043
 4993SOL     OW15877   3.958   6.609   5.093
 4993SOL    HW115878   3.883   6.545   5.077
 4993SOL    HW215879   3.921   6.700   5.113
 4994SOL     OW15880   2.238   5.568   4.830
 4994SOL    HW115881   2.212   5.556   4.734
 4994SOL    HW215882   2.232   5.665   4.854
 4995SOL     OW15883   0.893   0.998   4.918
 4995SOL    HW115884   0.899   0.917   4.860
 4995SOL    HW215885   0.949   0.986   4.999
 4996SOL     OW15886   6.710   1.510   3.816
 4996SOL    HW115887   6.678   1.438   3.755
 4996SOL    HW215888   6.650   1.590   3.808
 4997SOL     OW15889   3.654   2.320   1.117
 4997SOL    HW115890   3.650   2.240   1.176
 4997SOL    HW215891   3.653   2.403   1.172
 4998SOL     OW15892   1.761   3.587   3.984
 4998SOL    HW115893   1.716   3.497   3.982
 4998SOL    HW215894   1.717   3.645   4.053
 4999SOL     OW15895   0.056   3.243   4.956
 4999SOL    HW115896   0.073   3.235   5.054
 4999SOL    HW215897   0.054   3.340   4.930
 5000SOL     OW15898   3.152   6.508   3.347
 5000SOL    HW115899   3.067   6.455   3.344
 5000SOL    HW215900   3.144   6.588   3.288
 5001SOL     OW15901   0.510   5.538   2.574
 5001SOL    HW115902   0.575   5.491   2.634
 5001SOL    HW215903   0.422   5.547   2.620
 5002SOL     OW15904   0.491   5.210   1.895
 5002SOL    HW115905   0.459   5.150   1.968
 5002SOL    HW215906   0.522   5.297   1.935
 5003SOL     OW15907   4.213   6.682   2.816
 5003SOL    HW115908   4.184   6.777   2.808
 5003SOL    HW215909   4.288   6.665   2.753
 5004SOL     OW15910   2.173   4.897   5.525
 5004SOL    HW115911   2.078   4.868   5.519
 5004SOL    HW215912   2.213   4.864   5.611
 5005SOL     OW15913   2.702   3.372   6.603
 5005SOL    HW115914   2.694   3.325   6.515
 5005SOL    HW215915   2.744   3.462   6.589
 5006SOL     OW15916   5.983   1.004   2.282
 5006SOL    HW115917   5.906   1.067   2.287
 5006SOL    HW215918   6.048   1.036   2.213
 5007SOL     OW15919   6.995   0.446   1.388
 5007SOL    HW115920   6.902   0.451   1.353
 5007SOL    HW215921   0.024   0.511   1.339
 5008SOL     OW15922   6.169   5.545   1.242
 5008SOL    HW115923   6.221   5.631   1.242
 5008SOL    HW215924   6.071   5.566   1.242
 5009SOL     OW15925   0.539   2.490   0.294
 5009SOL    HW115926   0.615   2.485   0.229
 5009SOL    HW215927   0.554   2.567   0.356
 5010SOL     OW15928   4.191   2.607   0.833
 5010SOL    HW115929   4.135   2.525   0.834
 5010SOL    HW215930   4.262   2.599   0.763
 5011SOL     OW15931   2.188   3.915   1.338
 5011SOL    HW115932   2.217   3.922   1.433
 5011SOL    HW215933   2.198   3.821   1.306
 5012SOL     OW15934   6.377   2.562   5.378
 5012SOL    HW115935   6.388   2.613   5.293
 5012SOL    HW215936   6.283   2.526   5.383
 5013SOL     OW15937   5.654   0.842   6.197
 5013SOL    HW115938   5.697   0.922   6.154
 5013SOL    HW215939   5.557   0.840   6.174
 5014SOL     OW15940   6.452   4.493   0.087
 5014SOL    HW115941   6.457   4.541   7.027
 5014SOL    HW215942   6.416   4.555   0.156
 5015SOL     OW15943   4.886   1.007   4.735
 5015SOL    HW115944   4.805   1.030   4.788
 5015SOL    HW215945   4.860   0.992   4.639
 5016SOL     OW15946   0.865   3.178   4.752
 5016SOL    HW115947   0.809   3.182   4.834
 5016SOL    HW215948   0.881   3.083   4.726
 5017SOL     OW15949   1.725   1.980   1.226
 5017SOL    HW115950   1.775   2.042   1.287
 5017SOL    HW215951   1.631   2.012   1.216
 5018SOL     OW15952   1.036   5.230   2.708
 5018SOL    HW115953   1.041   5.130   2.720
 5018SOL    HW215954   1.028   5.252   2.611
 5019SOL     OW15955   2.390   6.416   5.823
 5019SOL    HW115956   2.478   6.368   5.821
 5019SOL    HW215957   2.373   6.457   5.734
 5020SOL     OW15958   6.845   6.997   5.465
 5020SOL    HW115959   6.940   6.969   5.480
 5020SOL    HW215960   6.843   0.057   5.418
 5021SOL     OW15961   1.146   1.116   0.956
 5021SOL    HW115962   1.130   1.021   0.984
 5021SOL    HW215963   1.068   1.172   0.983
 5022SOL     OW15964   1.024   2.412   2.224
 5022SOL    HW115965   1.044   2.320   2.257
 5022SOL    HW215966   1.050   2.420   2.128
 5023SOL     OW15967   0.153   4.086   1.674
 5023SOL    HW115968   0.160   4.134   1.587
 5023SOL    HW215969   0.152   3.987   1.658
 5024SOL     OW15970   5.822   5.160   1.010
 5024SOL    HW115971   5.912   5.189   0.977
 5024SOL    HW215972   5.751   5.219   0.972
 5025SOL     OW15973   4.230   2.172   3.720
 5025SOL    HW115974   4.280   2.212   3.643
 5025SOL    HW215975   4.240   2.072   3.718
 5026SOL     OW15976   6.892   5.558   5.245
 5026SOL    HW115977   6.930   5.603   5.326
 5026SOL    HW215978   6.825   5.489   5.274
 5027SOL     OW15979   6.099   0.149   1.998
 5027SOL    HW115980   6.118   0.190   1.909
 5027SOL    HW215981   6.009   0.180   2.030
 5028SOL     OW15982   6.792   1.947   3.295
 5028SOL    HW115983   6.835   2.021   3.243
 5028SOL    HW215984   6.707   1.980   3.336
 5029SOL     OW15985   6.291   2.486   2.402
 5029SOL    HW115986   6.352   2.537   2.463
 5029SOL    HW215987   6.226   2.433   2.456
 5030SOL     OW15988   6.869   5.758   6.178
 5030SOL    HW115989   6.954   5.722   6.138
 5030SOL    HW215990   6.866   5.736   6.275
 5031SOL     OW15991   6.596   1.514   5.613
 5031SOL    HW115992   6.633   1.497   5.704
 5031SOL    HW215993   6.665   1.559   5.556
 5032SOL     OW15994   3.104   1.430   5.850
 5032SOL    HW115995   3.136   1.359   5.913
 5032SOL    HW215996   3.022   1.473   5.887
 5033SOL     OW15997   1.921   0.341   6.905
 5033SOL    HW115998   1.916   0.281   6.825
 5033SOL    HW215999   2.014   0.337   6.943
 5034SOL     OW16000   6.076   6.811   3.762
 5034SOL    HW116001   6.043   6.723   3.728
 5034SOL    HW216002   6.056   6.819   3.860
 5035SOL     OW16003   0.520   3.931   5.311
 5035SOL    HW116004   0.571   4.005   5.355
 5035SOL    HW216005   0.459   3.888   5.377
 5036SOL     OW16006   6.765   4.879   6.791
 5036SOL    HW116007   6.791   4.946   6.861
 5036SOL    HW216008   6.671   4.896   6.761
 5037SOL     OW16009   4.817   4.757   1.643
 5037SOL    HW116010   4.856   4.848   1.658
 5037SOL    HW216011   4.778   4.753   1.551
 5038SOL     OW16012   3.872   3.012   4.406
 5038SOL    HW116013   3.816   3.052   4.334
 5038SOL    HW216014   3.821   2.938   4.451
 5039SOL     OW16015   2.138   3.233   5.263
 5039SOL    HW116016   2.165   3.151   5.313
 5039SOL    HW216017   2.108   3.207   5.171
 5040SOL     OW16018   1.057   6.692   5.477
 5040SOL    HW116019   1.045   6.612   5.418
 5040SOL    HW216020   1.128   6.673   5.545
 5041SOL     OW16021   1.076   1.775   1.923
 5041SOL    HW116022   1.061   1.680   1.896
 5041SOL    HW216023   1.116   1.826   1.847
 5042SOL     OW16024   6.799   3.088   0.491
 5042SOL    HW116025   6.759   3.014   0.545
 5042SOL    HW216026   6.846   3.050   0.412
 5043SOL     OW16027   4.605   0.647   0.176
 5043SOL    HW116028   4.675   0.665   0.107
 5043SOL    HW216029   4.632   0.689   0.262
 5044SOL     OW16030   0.884   5.580   0.932
 5044SOL    HW116031   0.818   5.643   0.891
 5044SOL    HW216032   0.977   5.613   0.912
 5045SOL     OW16033   6.264   6.077   6.101
 5045SOL    HW116034   6.213   6.071   6.188
 5045SOL    HW216035   6.230   6.007   6.039
 5046SOL     OW16036   3.506   3.722   3.343
 5046SOL    HW116037   3.583   3.676   3.300
 5046SOL    HW216038   3.515   3.821   3.331
 5047SOL     OW16039   2.040   4.353   2.801
 5047SOL    HW116040   1.969   4.423   2.792
 5047SOL    HW216041   2.120   4.394   2.845
 5048SOL     OW16042   1.572   1.117   3.958
 5048SOL    HW116043   1.637   1.166   3.901
 5048SOL    HW216044   1.489   1.173   3.969
 5049SOL     OW16045   4.826   1.451   0.019
 5049SOL    HW116046   4.763   1.499   0.080
 5049SOL    HW216047   4.822   1.493   6.957
 5050SOL     OW16048   1.515   0.935   0.145
 5050SOL    HW116049   1.545   0.983   0.063
 5050SOL    HW216050   1.470   0.849   0.119
 5051SOL     OW16051   4.658   4.445   1.542
 5051SOL    HW116052   4.616   4.492   1.619
 5051SOL    HW216053   4.741   4.400   1.571
 5052SOL     OW16054   2.975   1.826   5.557
 5052SOL    HW116055   2.900   1.850   5.496
 5052SOL    HW216056   2.989   1.727   5.556
 5053SOL     OW16057   1.016   5.003   3.413
 5053SOL    HW116058   1.108   4.989   3.377
 5053SOL    HW216059   1.018   5.075   3.482
 5054SOL     OW16060   2.661   4.964   4.790
 5054SOL    HW116061   2.748   4.914   4.797
 5054SOL    HW216062   2.679   5.062   4.786
 5055SOL     OW16063   0.692   2.420   5.654
 5055SOL    HW116064   0.601   2.451   5.627
 5055SOL    HW216065   0.685   2.357   5.731
 5056SOL     OW16066   5.390   3.977   6.108
 5056SOL    HW116067   5.346   4.046   6.050
 5056SOL    HW216068   5.339   3.891   6.100
 5057SOL     OW16069   6.799   6.853   3.341
 5057SOL    HW116070   6.888   6.897   3.335
 5057SOL    HW216071   6.728   6.922   3.357
 5058SOL     OW16072   3.593   3.367   5.842
 5058SOL    HW116073   3.558   3.302   5.909
 5058SOL    HW216074   3.517   3.412   5.795
 5059SOL     OW16075   0.180   0.693   3.569
 5059SOL    HW116076   0.240   0.681   3.648
 5059SOL    HW216077   0.128   0.778   3.580
 5060SOL     OW16078   0.423   2.812   6.189
 5060SOL    HW116079   0.511   2.860   6.196
 5060SOL    HW216080   0.438   2.724   6.144
 5061SOL     OW16081   4.851   2.523   0.807
 5061SOL    HW116082   4.827   2.620   0.797
 5061SOL    HW216083   4.774   2.474   0.847
 5062SOL     OW16084   5.930   6.916   2.496
 5062SOL    HW116085   5.985   6.855   2.439
 5062SOL    HW216086   5.833   6.896   2.482
 5063SOL     OW16087   0.476   0.006   2.342
 5063SOL    HW116088   0.565   0.020   2.385
 5063SOL    HW216089   0.405   0.054   2.394
 5064SOL     OW16090   4.999   3.641   0.907
 5064SOL    HW116091   5.066   3.603   0.843
 5064SOL    HW216092   5.040   3.717   0.957
 5065SOL     OW16093   2.880   0.593   5.718
 5065SOL    HW116094   2.783   0.568   5.724
 5065SOL    HW216095   2.920   0.553   5.635
 5066SOL     OW16096   5.061   4.567   2.121
 5066SOL    HW116097   4.989   4.630   2.153
 5066SOL    HW216098   5.027   4.513   2.045
 5067SOL     OW16099   4.896   1.481   0.765
 5067SOL    HW116100   4.969   1.506   0.830
 5067SOL    HW216101   4.812   1.460   0.815
 5068SOL     OW16102   2.758   4.475   1.150
 5068SOL    HW116103   2.778   4.559   1.100
 5068SOL    HW216104   2.663   4.449   1.133
 5069SOL     OW16105   1.593   4.179   3.649
 5069SOL    HW116106   1.689   4.164   3.624
 5069SOL    HW216107   1.577   4.277   3.662
 5070SOL     OW16108   5.126   3.334   3.730
 5070SOL    HW116109   5.151   3.269   3.802
 5070SOL    HW216110   5.026   3.339   3.724
 5071SOL     OW16111   4.840   2.331   4.643
 5071SOL    HW116112   4.935   2.337   4.672
 5071SOL    HW216113   4.787   2.283   4.713
 5072SOL     OW16114   0.756   6.273   0.905
 5072SOL    HW116115   0.787   6.200   0.967
 5072SOL    HW216116   0.716   6.347   0.959
 5073SOL     OW16117   6.349   6.662   2.940
 5073SOL    HW116118   6.336   6.571   2.901
 5073SOL    HW216119   6.403   6.718   2.877
 5074SOL     OW16120   3.637   3.010   6.984
 5074SOL    HW116121   3.639   2.984   0.052
 5074SOL    HW216122   3.718   2.973   6.937
 5075SOL     OW16123   0.756   2.282   6.029
 5075SOL    HW116124   0.822   2.209   6.044
 5075SOL    HW216125   0.747   2.335   6.113
 5076SOL     OW16126   3.193   0.770   1.035
 5076SOL    HW116127   3.269   0.705   1.032
 5076SOL    HW216128   3.127   0.746   0.964
 5077SOL     OW16129   0.198   2.651   4.584
 5077SOL    HW116130   0.190   2.551   4.584
 5077SOL    HW216131   0.132   2.690   4.520
 5078SOL     OW16132   1.022   1.908   3.867
 5078SOL    HW116133   1.097   1.907   3.934
 5078SOL    HW216134   1.001   1.815   3.839
 5079SOL     OW16135   2.492   4.815   6.117
 5079SOL    HW116136   2.589   4.814   6.140
 5079SOL    HW216137   2.472   4.897   6.062
 5080SOL     OW16138   5.692   6.674   5.497
 5080SOL    HW116139   5.717   6.637   5.587
 5080SOL    HW216140   5.610   6.628   5.463
 5081SOL     OW16141   4.166   3.468   3.327
 5081SOL    HW116142   4.251   3.482   3.378
 5081SOL    HW216143   4.096   3.431   3.388
 5082SOL     OW16144   5.936   5.168   5.515
 5082SOL    HW116145   5.933   5.121   5.603
 5082SOL    HW216146   6.006   5.126   5.457
 5083SOL     OW16147   1.739   6.385   2.524
 5083SOL    HW116148   1.639   6.384   2.517
 5083SOL    HW216149   1.773   6.291   2.532
 5084SOL     OW16150   1.167   4.973   4.791
 5084SOL    HW116151   1.107   4.899   4.820
 5084SOL    HW216152   1.262   4.942   4.792
 5085SOL     OW16153   5.650   2.407   6.807
 5085SOL    HW116154   5.634   2.309   6.814
 5085SOL    HW216155   5.745   2.427   6.832
 5086SOL     OW16156   6.772   5.467   4.008
 5086SOL    HW116157   6.754   5.369   4.004
 5086SOL    HW216158   6.777   5.496   4.104
 5087SOL     OW16159   6.573   5.686   3.484
 5087SOL    HW116160   6.646   5.710   3.420
 5087SOL    HW216161   6.528   5.769   3.516
 5088SOL     OW16162   5.632   1.708   4.767
 5088SOL    HW116163   5.708   1.735   4.826
 5088SOL    HW216164   5.639   1.757   4.680
 5089SOL     OW16165   6.056   3.530   3.051
 5089SOL    HW116166   6.151   3.556   3.069
 5089SOL    HW216167   6.014   3.497   3.136
 5090SOL     OW16168   1.867   4.035   2.076
 5090SOL    HW116169   1.832   4.115   2.027
 5090SOL    HW216170   1.821   3.952   2.042
 5091SOL     OW16171   0.937   5.679   3.079
 5091SOL    HW116172   0.961   5.638   3.167
 5091SOL    HW216173   0.851   5.641   3.046
 5092SOL     OW16174   3.143   2.856   1.075
 5092SOL    HW116175   3.166   2.842   1.171
 5092SOL    HW216176   3.108   2.770   1.037
 5093SOL     OW16177   1.755   1.492   1.534
 5093SOL    HW116178   1.746   1.582   1.492
 5093SOL    HW216179   1.705   1.425   1.479
 5094SOL     OW16180   0.894   6.943   4.830
 5094SOL    HW116181   0.886   0.013   4.817
 5094SOL    HW216182   0.847   6.916   4.914
 5095SOL     OW16183   1.046   1.389   4.376
 5095SOL    HW116184   0.952   1.419   4.363
 5095SOL    HW216185   1.099   1.462   4.421
 5096SOL     OW16186   4.322   4.119   0.764
 5096SOL    HW116187   4.345   4.038   0.819
 5096SOL    HW216188   4.356   4.106   0.671
 5097SOL     OW16189   2.140   0.258   6.454
 5097SOL    HW116190   2.085   0.325   6.505
 5097SOL    HW216191   2.214   0.306   6.407
 5098SOL     OW16192   0.603   0.666   1.573
 5098SOL    HW116193   0.569   0.577   1.602
 5098SOL    HW216194   0.578   0.681   1.477
 5099SOL     OW16195   1.197   0.836   6.204
 5099SOL    HW116196   1.178   0.777   6.283
 5099SOL    HW216197   1.193   0.782   6.120
 5100SOL     OW16198   4.558   6.433   5.915
 5100SOL    HW116199   4.557   6.514   5.974
 5100SOL    HW216200   4.641   6.435   5.859
 5101SOL     OW16201   5.091   6.597   0.127
 5101SOL    HW116202   4.996   6.597   0.156
 5101SOL    HW216203   5.151   6.604   0.207
 5102SOL     OW16204   5.978   0.626   5.894
 5102SOL    HW116205   5.894   0.677   5.912
 5102SOL    HW216206   5.986   0.608   5.796
 5103SOL     OW16207   0.067   1.154   4.564
 5103SOL    HW116208   0.081   1.055   4.577
 5103SOL    HW216209   0.145   1.204   4.601
 5104SOL     OW16210   1.766   6.451   1.929
 5104SOL    HW116211   1.841   6.494   1.878
 5104SOL    HW216212   1.787   6.453   2.027
 5105SOL     OW16213   4.188   3.331   0.192
 5105SOL    HW116214   4.090   3.319   0.207
 5105SOL    HW216215   4.210   3.428   0.196
 5106SOL     OW16216   3.319   0.554   2.271
 5106SOL    HW116217   3.272   0.621   2.213
 5106SOL    HW216218   3.405   0.527   2.227
 5107SOL     OW16219   3.284   0.865   0.547
 5107SOL    HW116220   3.346   0.794   0.580
 5107SOL    HW216221   3.259   0.845   0.453
 5108SOL     OW16222   2.913   3.454   3.530
 5108SOL    HW116223   2.918   3.551   3.506
 5108SOL    HW216224   2.913   3.399   3.446
 5109SOL     OW16225   0.662   1.550   1.098
 5109SOL    HW116226   0.663   1.494   1.015
 5109SOL    HW216227   0.756   1.564   1.130
 5110SOL     OW16228   1.102   6.795   6.514
 5110SOL    HW116229   1.139   6.731   6.447
 5110SOL    HW216230   1.002   6.798   6.506
 5111SOL     OW16231   0.469   1.485   5.920
 5111SOL    HW116232   0.425   1.492   6.010
 5111SOL    HW216233   0.517   1.398   5.914
 5112SOL     OW16234   0.534   6.907   3.396
 5112SOL    HW116235   0.587   6.953   3.468
 5112SOL    HW216236   0.487   6.976   3.341
 5113SOL     OW16237   1.247   6.913   1.215
 5113SOL    HW116238   1.260   6.923   1.314
 5113SOL    HW216239   1.335   6.895   1.171
 5114SOL     OW16240   3.519   3.059   0.347
 5114SOL    HW116241   3.546   3.066   0.443
 5114SOL    HW216242   3.587   3.006   0.297
 5115SOL     OW16243   1.685   4.461   5.258
 5115SOL    HW116244   1.611   4.483   5.195
 5115SOL    HW216245   1.728   4.375   5.230
 5116SOL     OW16246   5.567   6.099   6.108
 5116SOL    HW116247   5.666   6.114   6.099
 5116SOL    HW216248   5.550   6.012   6.154
 5117SOL     OW16249   1.979   4.490   3.752
 5117SOL    HW116250   2.070   4.527   3.770
 5117SOL    HW216251   1.915   4.564   3.736
 5118SOL     OW16252   5.145   6.271   0.334
 5118SOL    HW116253   5.111   6.198   0.394
 5118SOL    HW216254   5.093   6.355   0.351
 5119SOL     OW16255   5.081   0.706   1.530
 5119SOL    HW116256   5.087   0.608   1.546
 5119SOL    HW216257   5.166   0.750   1.559
 5120SOL     OW16258   5.971   1.394   3.423
 5120SOL    HW116259   6.060   1.362   3.457
 5120SOL    HW216260   5.909   1.316   3.415
 5121SOL     OW16261   1.665   2.786   6.647
 5121SOL    HW116262   1.672   2.687   6.649
 5121SOL    HW216263   1.582   2.814   6.696
 5122SOL     OW16264   2.871   0.793   4.179
 5122SOL    HW116265   2.905   0.775   4.087
 5122SOL    HW216266   2.916   0.732   4.244
 5123SOL     OW16267   5.538   3.495   4.477
 5123SOL    HW116268   5.606   3.478   4.405
 5123SOL    HW216269   5.477   3.416   4.484
 5124SOL     OW16270   2.612   5.318   6.428
 5124SOL    HW116271   2.525   5.362   6.407
 5124SOL    HW216272   2.614   5.226   6.388
 5125SOL     OW16273   0.017   3.426   4.495
 5125SOL    HW116274   6.972   3.390   4.437
 5125SOL    HW216275   0.078   3.352   4.521
 5126SOL     OW16276   6.131   5.093   5.365
 5126SOL    HW116277   6.195   5.165   5.335
 5126SOL    HW216278   6.090   5.051   5.284
 5127SOL     OW16279   5.910   4.041   0.752
 5127SOL    HW116280   5.949   4.034   0.660
 5127SOL    HW216281   5.905   3.950   0.793
 5128SOL     OW16282   1.154   0.161   0.228
 5128SOL    HW116283   1.250   0.138   0.244
 5128SOL    HW216284   1.112   0.092   0.169
 5129SOL     OW16285   4.861   1.351   2.614
 5129SOL    HW116286   4.767   1.320   2.599
 5129SOL    HW216287   4.925   1.276   2.597
 5130SOL     OW16288   1.078   5.940   4.763
 5130SOL    HW116289   1.111   6.012   4.703
 5130SOL    HW216290   1.154   5.881   4.789
 5131SOL     OW16291   3.308   5.095   3.422
 5131SOL    HW116292   3.263   5.162   3.480
 5131SOL    HW216293   3.375   5.141   3.363
 5132SOL     OW16294   3.646   1.440   6.184
 5132SOL    HW116295   3.661   1.405   6.276
 5132SOL    HW216296   3.726   1.419   6.127
 5133SOL     OW16297   3.252   5.281   6.256
 5133SOL    HW116298   3.234   5.260   6.160
 5133SOL    HW216299   3.204   5.366   6.281
 5134SOL     OW16300   6.500   0.251   2.174
 5134SOL    HW116301   6.469   0.164   2.135
 5134SOL    HW216302   6.541   0.307   2.102
 5135SOL     OW16303   6.431   3.659   2.870
 5135SOL    HW116304   6.516   3.637   2.822
 5135SOL    HW216305   6.372   3.713   2.811
 5136SOL     OW16306   6.569   1.831   5.775
 5136SOL    HW116307   6.635   1.904   5.795
 5136SOL    HW216308   6.609   1.743   5.800
 5137SOL     OW16309   5.081   2.933   5.231
 5137SOL    HW116310   5.017   2.885   5.291
 5137SOL    HW216311   5.138   2.994   5.287
 5138SOL     OW16312   3.342   3.775   3.992
 5138SOL    HW116313   3.313   3.868   4.014
 5138SOL    HW216314   3.292   3.709   4.049
 5139SOL     OW16315   1.234   0.383   4.845
 5139SOL    HW116316   1.276   0.374   4.754
 5139SOL    HW216317   1.228   0.480   4.869
 5140SOL     OW16318   3.870   1.412   6.032
 5140SOL    HW116319   3.890   1.451   5.941
 5140SOL    HW216320   3.955   1.395   6.080
 5141SOL     OW16321   6.146   2.584   0.933
 5141SOL    HW116322   6.168   2.682   0.938
 5141SOL    HW216323   6.049   2.571   0.957
 5142SOL     OW16324   6.076   6.924   4.456
 5142SOL    HW116325   6.037   6.924   4.548
 5142SOL    HW216326   6.103   6.831   4.431
 5143SOL     OW16327   1.216   4.029   4.749
 5143SOL    HW116328   1.256   3.978   4.824
 5143SOL    HW216329   1.288   4.058   4.686
 5144SOL     OW16330   2.010   3.865   6.805
 5144SOL    HW116331   1.970   3.952   6.834
 5144SOL    HW216332   2.093   3.882   6.753
 5145SOL     OW16333   3.404   6.035   6.461
 5145SOL    HW116334   3.316   6.043   6.509
 5145SOL    HW216335   3.478   6.063   6.522
 5146SOL     OW16336   3.881   3.990   5.414
 5146SOL    HW116337   3.867   3.891   5.411
 5146SOL    HW216338   3.801   4.033   5.458
 5147SOL     OW16339   5.636   4.299   3.543
 5147SOL    HW116340   5.614   4.374   3.481
 5147SOL    HW216341   5.624   4.329   3.638
 5148SOL     OW16342   0.576   0.447   2.344
 5148SOL    HW116343   0.545   0.441   2.439
 5148SOL    HW216344   0.555   0.538   2.308
 5149SOL     OW16345   5.553   4.745   4.415
 5149SOL    HW116346   5.626   4.710   4.474
 5149SOL    HW216347   5.482   4.675   4.405
 5150SOL     OW16348   1.503   4.551   3.669
 5150SOL    HW116349   1.490   4.649   3.683
 5150SOL    HW216350   1.416   4.503   3.678
 5151SOL     OW16351   5.696   4.183   1.834
 5151SOL    HW116352   5.790   4.172   1.802
 5151SOL    HW216353   5.697   4.219   1.928
 5152SOL     OW16354   1.494   5.881   0.017
 5152SOL    HW116355   1.458   5.938   6.972
 5152SOL    HW216356   1.592   5.865   0.002
 5153SOL     OW16357   1.408   1.415   0.329
 5153SOL    HW116358   1.414   1.341   0.396
 5153SOL    HW216359   1.345   1.485   0.362
 5154SOL     OW16360   1.421   2.887   6.746
 5154SOL    HW116361   1.452   2.933   6.829
 5154SOL    HW216362   1.321   2.894   6.739
 5155SOL     OW16363   2.646   1.861   0.413
 5155SOL    HW116364   2.700   1.834   0.493
 5155SOL    HW216365   2.550   1.868   0.439
 5156SOL     OW16366   5.485   5.076   4.650
 5156SOL    HW116367   5.489   5.008   4.723
 5156SOL    HW216368   5.428   5.153   4.680
 5157SOL     OW16369   3.022   1.722   1.711
 5157SOL    HW116370   3.114   1.731   1.748
 5157SOL    HW216371   3.012   1.780   1.630
 5158SOL     OW16372   3.060   2.071   1.210
 5158SOL    HW116373   3.002   2.097   1.288
 5158SOL    HW216374   3.020   2.108   1.126
 5159SOL     OW16375   6.212   3.831   6.361
 5159SOL    HW116376   6.219   3.742   6.405
 5159SOL    HW216377   6.203   3.819   6.262
 5160SOL     OW16378   6.376   6.293   3.297
 5160SOL    HW116379   6.356   6.366   3.363
 5160SOL    HW216380   6.442   6.230   3.336
 5161SOL     OW16381   1.212   3.625   0.051
 5161SOL    HW116382   1.293   3.585   0.008
 5161SOL    HW216383   1.228   3.636   0.149
 5162SOL     OW16384   0.628   5.410   2.024
 5162SOL    HW116385   0.720   5.402   2.062
 5162SOL    HW216386   0.570   5.461   2.087
 5163SOL     OW16387   3.287   6.319   1.177
 5163SOL    HW116388   3.342   6.241   1.147
 5163SOL    HW216389   3.246   6.364   1.097
 5164SOL     OW16390   2.621   3.062   0.365
 5164SOL    HW116391   2.642   3.058   0.268
 5164SOL    HW216392   2.705   3.074   0.418
 5165SOL     OW16393   0.862   4.243   6.729
 5165SOL    HW116394   0.908   4.243   6.640
 5165SOL    HW216395   0.923   4.285   6.797
 5166SOL     OW16396   1.569   5.505   2.067
 5166SOL    HW116397   1.473   5.535   2.063
 5166SOL    HW216398   1.628   5.580   2.036
 5167SOL     OW16399   6.193   4.281   5.214
 5167SOL    HW116400   6.127   4.328   5.155
 5167SOL    HW216401   6.219   4.194   5.171
 5168SOL     OW16402   4.541   2.060   2.284
 5168SOL    HW116403   4.445   2.055   2.257
 5168SOL    HW216404   4.597   2.009   2.219
 5169SOL     OW16405   4.673   1.471   4.085
 5169SOL    HW116406   4.674   1.550   4.023
 5169SOL    HW216407   4.665   1.387   4.032
 5170SOL     OW16408   1.619   3.700   6.291
 5170SOL    HW116409   1.595   3.752   6.373
 5170SOL    HW216410   1.546   3.636   6.269
 5171SOL     OW16411   1.425   4.979   5.498
 5171SOL    HW116412   1.410   4.988   5.596
 5171SOL    HW216413   1.354   4.921   5.459
 5172SOL     OW16414   1.606   5.100   3.927
 5172SOL    HW116415   1.609   5.135   3.834
 5172SOL    HW216416   1.643   5.169   3.990
 5173SOL     OW16417   4.390   3.734   5.945
 5173SOL    HW116418   4.464   3.735   6.012
 5173SOL    HW216419   4.370   3.640   5.918
 5174SOL     OW16420   1.718   0.166   3.996
 5174SOL    HW116421   1.758   0.180   4.086
 5174SOL    HW216422   1.620   0.148   4.005
 5175SOL     OW16423   2.757   4.372   6.251
 5175SOL    HW116424   2.849   4.349   6.283
 5175SOL    HW216425   2.731   4.310   6.177
 5176SOL     OW16426   5.544   5.579   5.884
 5176SOL    HW116427   5.620   5.641   5.867
 5176SOL    HW216428   5.483   5.577   5.805
 5177SOL     OW16429   5.372   0.022   1.241
 5177SOL    HW116430   5.402   0.052   1.150
 5177SOL    HW216431   5.408   6.960   1.260
 5178SOL     OW16432   0.114   4.570   1.708
 5178SOL    HW116433   0.108   4.500   1.779
 5178SOL    HW216434   0.198   4.623   1.719
 5179SOL     OW16435   4.930   4.292   3.493
 5179SOL    HW116436   4.948   4.390   3.503
 5179SOL    HW216437   4.833   4.275   3.509
 5180SOL     OW16438   3.178   6.830   1.199
 5180SOL    HW116439   3.216   6.821   1.290
 5180SOL    HW216440   3.155   6.926   1.182
 5181SOL     OW16441   0.352   0.495   0.089
 5181SOL    HW116442   0.386   0.574   0.140
 5181SOL    HW216443   0.381   0.500   7.022
 5182SOL     OW16444   4.388   4.560   2.097
 5182SOL    HW116445   4.443   4.476   2.103
 5182SOL    HW216446   4.292   4.536   2.084
 5183SOL     OW16447   4.133   2.077   3.046
 5183SOL    HW116448   4.176   1.988   3.034
 5183SOL    HW216449   4.156   2.136   2.968
 5184SOL     OW16450   1.991   2.457   3.069
 5184SOL    HW116451   2.063   2.430   3.005
 5184SOL    HW216452   1.995   2.555   3.084
 5185SOL     OW16453   4.947   0.247   3.016
 5185SOL    HW116454   5.036   0.203   3.004
 5185SOL    HW216455   4.954   0.343   2.987
 5186SOL     OW16456   5.651   2.646   5.783
 5186SOL    HW116457   5.596   2.583   5.729
 5186SOL    HW216458   5.732   2.598   5.818
 5187SOL     OW16459   2.237   5.229   4.742
 5187SOL    HW116460   2.247   5.140   4.785
 5187SOL    HW216461   2.325   5.259   4.706
 5188SOL     OW16462   7.007   6.284   1.596
 5188SOL    HW116463   7.018   6.383   1.601
 5188SOL    HW216464   0.009   6.251   1.507
 5189SOL     OW16465   5.750   6.176   6.939
 5189SOL    HW116466   5.658   6.173   6.902
 5189SOL    HW216467   5.747   6.170   0.010
 5190SOL     OW16468   1.806   2.910   2.448
 5190SOL    HW116469   1.730   2.848   2.469
 5190SOL    HW216470   1.785   3.002   2.481
 5191SOL     OW16471   3.007   5.916   2.686
 5191SOL    HW116472   3.005   5.991   2.751
 5191SOL    HW216473   3.010   5.952   2.592
 5192SOL     OW16474   2.203   5.700   1.559
 5192SOL    HW116475   2.212   5.785   1.609
 5192SOL    HW216476   2.117   5.655   1.584
 5193SOL     OW16477   5.200   6.954   6.839
 5193SOL    HW116478   5.121   6.896   6.858
 5193SOL    HW216479   5.172   0.004   6.785
 5194SOL     OW16480   2.988   1.803   6.554
 5194SOL    HW116481   2.943   1.736   6.495
 5194SOL    HW216482   2.997   1.766   6.647
 5195SOL     OW16483   0.832   0.566   3.841
 5195SOL    HW116484   0.744   0.613   3.833
 5195SOL    HW216485   0.834   0.488   3.779
 5196SOL     OW16486   4.711   6.566   2.525
 5196SOL    HW116487   4.780   6.599   2.460
 5196SOL    HW216488   4.723   6.612   2.613
 5197SOL     OW16489   1.698   3.441   6.353
 5197SOL    HW116490   1.730   3.535   6.343
 5197SOL    HW216491   1.743   3.383   6.285
 5198SOL     OW16492   4.176   5.366   3.035
 5198SOL    HW116493   4.215   5.392   3.123
 5198SOL    HW216494   4.118   5.440   3.000
 5199SOL     OW16495   0.243   5.470   0.853
 5199SOL    HW116496   0.249   5.421   0.766
 5199SOL    HW216497   0.281   5.562   0.842
 5200SOL     OW16498   0.286   3.908   5.097
 5200SOL    HW116499   0.347   3.835   5.127
 5200SOL    HW216500   0.294   3.986   5.160
 5201SOL     OW16501   0.488   6.708   3.652
 5201SOL    HW116502   0.554   6.686   3.581
 5201SOL    HW216503   0.535   6.747   3.731
 5202SOL     OW16504   6.658   2.519   6.181
 5202SOL    HW116505   6.751   2.503   6.148
 5202SOL    HW216506   6.661   2.571   6.267
 5203SOL     OW16507   1.582   2.270   0.042
 5203SOL    HW116508   1.550   2.186   0.087
 5203SOL    HW216509   1.536   2.349   0.082
 5204SOL     OW16510   3.998   5.108   0.594
 5204SOL    HW116511   4.068   5.101   0.524
 5204SOL    HW216512   4.040   5.131   0.682
 5205SOL     OW16513   1.834   6.870   1.121
 5205SOL    HW116514   1.843   6.783   1.072
 5205SOL    HW216515   1.737   6.890   1.135
 5206SOL     OW16516   0.548   4.562   6.176
 5206SOL    HW116517   0.483   4.503   6.224
 5206SOL    HW216518   0.614   4.506   6.126
 5207SOL     OW16519   1.214   4.896   4.197
 5207SOL    HW116520   1.277   4.925   4.269
 5207SOL    HW216521   1.136   4.958   4.194
 5208SOL     OW16522   3.842   1.056   0.616
 5208SOL    HW116523   3.941   1.070   0.621
 5208SOL    HW216524   3.798   1.141   0.585
 5209SOL     OW16525   5.843   5.668   4.448
 5209SOL    HW116526   5.797   5.716   4.374
 5209SOL    HW216527   5.872   5.578   4.416
 5210SOL     OW16528   5.538   3.778   5.451
 5210SOL    HW116529   5.574   3.858   5.499
 5210SOL    HW216530   5.551   3.790   5.352
 5211SOL     OW16531   3.512   3.254   4.024
 5211SOL    HW116532   3.466   3.241   3.936
 5211SOL    HW216533   3.457   3.211   4.096
 5212SOL     OW16534   6.590   2.186   1.261
 5212SOL    HW116535   6.679   2.228   1.248
 5212SOL    HW216536   6.587   2.142   1.351
 5213SOL     OW16537   5.334   2.057   0.213
 5213SOL    HW116538   5.251   2.003   0.198
 5213SOL    HW216539   5.397   2.007   0.272
 5214SOL     OW16540   5.382   1.387   6.618
 5214SOL    HW116541   5.476   1.415   6.641
 5214SOL    HW216542   5.367   1.293   6.650
 5215SOL     OW16543   5.498   5.463   3.090
 5215SOL    HW116544   5.429   5.525   3.053
 5215SOL    HW216545   5.483   5.372   3.054
 5216SOL     OW16546   4.998   6.002   1.310
 5216SOL    HW116547   5.018   6.030   1.403
 5216SOL    HW216548   4.991   6.083   1.251
 5217SOL     OW16549   3.133   5.173   4.153
 5217SOL    HW116550   3.049   5.119   4.161
 5217SOL    HW216551   3.191   5.156   4.232
 5218SOL     OW16552   1.698   0.404   3.611
 5218SOL    HW116553   1.698   0.331   3.542
 5218SOL    HW216554   1.748   0.372   3.692
 5219SOL     OW16555   3.810   0.221   6.710
 5219SOL    HW116556   3.895   0.272   6.724
 5219SOL    HW216557   3.825   0.149   6.642
 5220SOL     OW16558   1.439   5.471   2.697
 5220SOL    HW116559   1.412   5.556   2.653
 5220SOL    HW216560   1.384   5.457   2.779
 5221SOL     OW16561   5.512   2.428   4.542
 5221SOL    HW116562   5.553   2.375   4.467
 5221SOL    HW216563   5.470   2.366   4.608
 5222SOL     OW16564   2.810   6.914   4.472
 5222SOL    HW116565   2.894   6.960   4.499
 5222SOL    HW216566   2.824   6.867   4.385
 5223SOL     OW16567   4.466   0.827   1.398
 5223SOL    HW116568   4.390   0.767   1.373
 5223SOL    HW216569   4.492   0.809   1.493
 5224SOL     OW16570   0.323   1.461   3.432
 5224SOL    HW116571   0.344   1.463   3.334
 5224SOL    HW216572   0.226   1.478   3.446
 5225SOL     OW16573   6.733   0.883   3.194
 5225SOL    HW116574   6.687   0.971   3.208
 5225SOL    HW216575   6.832   0.898   3.191
 5226SOL     OW16576   0.327   6.066   5.360
 5226SOL    HW116577   0.258   6.136   5.340
 5226SOL    HW216578   0.314   5.988   5.298
 5227SOL     OW16579   1.210   4.716   4.489
 5227SOL    HW116580   1.278   4.662   4.440
 5227SOL    HW216581   1.205   4.685   4.584
 5228SOL     OW16582   6.525   2.777   0.436
 5228SOL    HW116583   6.517   2.827   0.350
 5228SOL    HW216584   6.434   2.758   0.473
 5229SOL     OW16585   1.949   4.348   6.831
 5229SOL    HW116586   2.013   4.387   6.765
 5229SOL    HW216587   1.957   4.396   6.918
 5230SOL     OW16588   0.234   0.355   0.705
 5230SOL    HW116589   0.309   0.321   0.648
 5230SOL    HW216590   0.217   0.291   0.779
 5231SOL     OW16591   3.111   3.360   4.858
 5231SOL    HW116592   3.097   3.408   4.771
 5231SOL    HW216593   3.061   3.407   4.931
 5232SOL     OW16594   3.224   1.885   6.444
 5232SOL    HW116595   3.139   1.851   6.485
 5232SOL    HW216596   3.204   1.927   6.356
 5233SOL     OW16597   6.744   0.034   1.359
 5233SOL    HW116598   6.795   0.121   1.362
 5233SOL    HW216599   6.809   6.987   1.354
 5234SOL     OW16600   3.118   0.073   6.643
 5234SOL    HW116601   3.083   0.067   6.550
 5234SOL    HW216602   3.113   7.011   6.686
 5235SOL     OW16603   1.791   2.852   1.360
 5235SOL    HW116604   1.757   2.936   1.320
 5235SOL    HW216605   1.846   2.803   1.293
 5236SOL     OW16606   5.579   2.939   1.573
 5236SOL    HW116607   5.546   3.001   1.645
 5236SOL    HW216608   5.588   2.847   1.611
 5237SOL     OW16609   2.511   1.922   5.463
 5237SOL    HW116610   2.451   1.852   5.424
 5237SOL    HW216611   2.561   1.968   5.389
 5238SOL     OW16612   2.070   5.360   0.113
 5238SOL    HW116613   2.095   5.356   0.016
 5238SOL    HW216614   2.120   5.289   0.163
 5239SOL     OW16615   3.626   3.622   3.585
 5239SOL    HW116616   3.712   3.673   3.588
 5239SOL    HW216617   3.577   3.644   3.501
 5240SOL     OW16618   3.326   2.327   5.868
 5240SOL    HW116619   3.301   2.353   5.961
 5240SOL    HW216620   3.246   2.291   5.821
 5241SOL     OW16621   1.615   6.127   6.565
 5241SOL    HW116622   1.565   6.045   6.534
 5241SOL    HW216623   1.551   6.204   6.572
 5242SOL     OW16624   6.268   6.815   5.013
 5242SOL    HW116625   6.246   6.827   5.110
 5242SOL    HW216626   6.248   6.899   4.964
 5243SOL     OW16627   1.705   6.474   1.426
 5243SOL    HW116628   1.671   6.387   1.390
 5243SOL    HW216629   1.669   6.489   1.518
 5244SOL     OW16630   4.241   3.916   5.780
 5244SOL    HW116631   4.181   3.975   5.834
 5244SOL    HW216632   4.294   3.858   5.842
 5245SOL     OW16633   4.449   4.085   6.373
 5245SOL    HW116634   4.410   4.156   6.314
 5245SOL    HW216635   4.409   3.997   6.349
 5246SOL     OW16636   6.198   4.345   2.765
 5246SOL    HW116637   6.289   4.312   2.790
 5246SOL    HW216638   6.131   4.308   2.829
 5247SOL     OW16639   1.614   6.118   0.625
 5247SOL    HW116640   1.547   6.095   0.555
 5247SOL    HW216641   1.606   6.054   0.702
 5248SOL     OW16642   5.737   0.421   6.071
 5248SOL    HW116643   5.770   0.478   6.147
 5248SOL    HW216644   5.815   0.392   6.015
 5249SOL     OW16645   0.488   5.810   5.155
 5249SOL    HW116646   0.490   5.727   5.211
 5249SOL    HW216647   0.512   5.787   5.061
 5250SOL     OW16648   6.717   1.542   5.852
 5250SOL    HW116649   6.757   1.525   5.942
 5250SOL    HW216650   6.785   1.586   5.793
 5251SOL     OW16651   0.113   2.647   1.185
 5251SOL    HW116652   0.180   2.662   1.112
 5251SOL    HW216653   0.152   2.585   1.254
 5252SOL     OW16654   2.293   5.516   0.735
 5252SOL    HW116655   2.220   5.544   0.797
 5252SOL    HW216656   2.254   5.462   0.660
 5253SOL     OW16657   5.526   3.655   4.961
 5253SOL    HW116658   5.571   3.717   4.897
 5253SOL    HW216659   5.466   3.593   4.912
 5254SOL     OW16660   5.750   1.856   3.642
 5254SOL    HW116661   5.796   1.934   3.600
 5254SOL    HW216662   5.778   1.772   3.596
 5255SOL     OW16663   4.112   0.228   4.750
 5255SOL    HW116664   4.134   0.273   4.837
 5255SOL    HW216665   4.115   0.129   4.762
 5256SOL     OW16666   5.059   1.196   3.265
 5256SOL    HW116667   5.122   1.202   3.342
 5256SOL    HW216668   5.051   1.100   3.236
 5257SOL     OW16669   4.458   0.250   2.169
 5257SOL    HW116670   4.467   0.302   2.084
 5257SOL    HW216671   4.460   0.152   2.149
 5258SOL     OW16672   5.158   4.279   1.366
 5258SOL    HW116673   5.105   4.330   1.298
 5258SOL    HW216674   5.171   4.336   1.448
 5259SOL     OW16675   4.426   6.416   1.221
 5259SOL    HW116676   4.380   6.432   1.133
 5259SOL    HW216677   4.359   6.424   1.295
 5260SOL     OW16678   5.356   2.868   1.122
 5260SOL    HW116679   5.430   2.877   1.188
 5260SOL    HW216680   5.271   2.843   1.169
 5261SOL     OW16681   1.345   2.538   5.889
 5261SOL    HW116682   1.332   2.445   5.923
 5261SOL    HW216683   1.335   2.539   5.790
 5262SOL     OW16684   2.629   7.018   3.093
 5262SOL    HW116685   2.713   7.025   3.146
 5262SOL    HW216686   2.643   6.957   3.015
 5263SOL     OW16687   0.947   0.355   6.354
 5263SOL    HW116688   1.006   0.358   6.434
 5263SOL    HW216689   0.929   0.259   6.329
 5264SOL     OW16690   6.258   1.148   1.581
 5264SOL    HW116691   6.184   1.118   1.521
 5264SOL    HW216692   6.279   1.076   1.647
 5265SOL     OW16693   4.850   4.405   2.548
 5265SOL    HW116694   4.895   4.373   2.465
 5265SOL    HW216695   4.822   4.326   2.603
 5266SOL     OW16696   2.284   6.356   1.634
 5266SOL    HW116697   2.290   6.417   1.555
 5266SOL    HW216698   2.344   6.389   1.706
 5267SOL     OW16699   4.410   4.444   5.912
 5267SOL    HW116700   4.365   4.433   5.823
 5267SOL    HW216701   4.475   4.370   5.925
 5268SOL     OW16702   7.001   5.709   5.435
 5268SOL    HW116703   6.927   5.743   5.494
 5268SOL    HW216704   0.050   5.771   5.440
 5269SOL     OW16705   2.278   5.812   3.965
 5269SOL    HW116706   2.188   5.853   3.950
 5269SOL    HW216707   2.303   5.821   4.061
 5270SOL     OW16708   4.449   2.043   1.575
 5270SOL    HW116709   4.368   2.025   1.519
 5270SOL    HW216710   4.426   2.028   1.671
 5271SOL     OW16711   4.683   5.313   4.408
 5271SOL    HW116712   4.629   5.313   4.323
 5271SOL    HW216713   4.778   5.337   4.386
 5272SOL     OW16714   1.020   5.892   3.764
 5272SOL    HW116715   0.951   5.828   3.732
 5272SOL    HW216716   1.084   5.844   3.824
 5273SOL     OW16717   1.159   2.970   3.285
 5273SOL    HW116718   1.204   2.968   3.375
 5273SOL    HW216719   1.114   2.883   3.268
 5274SOL     OW16720   5.999   4.784   2.642
 5274SOL    HW116721   6.026   4.716   2.710
 5274SOL    HW216722   6.062   4.780   2.564
 5275SOL     OW16723   2.991   1.272   6.184
 5275SOL    HW116724   2.980   1.372   6.184
 5275SOL    HW216725   3.017   1.242   6.092
 5276SOL     OW16726   0.204   6.240   0.664
 5276SOL    HW116727   0.115   6.282   0.686
 5276SOL    HW216728   0.189   6.157   0.611
 5277SOL     OW16729   1.757   2.627   2.828
 5277SOL    HW116730   1.839   2.684   2.827
 5277SOL    HW216731   1.766   2.557   2.899
 5278SOL     OW16732   5.357   0.081   5.480
 5278SOL    HW116733   5.450   0.046   5.479
 5278SOL    HW216734   5.295   0.012   5.519
 5279SOL     OW16735   1.703   6.427   6.911
 5279SOL    HW116736   1.672   6.335   6.934
 5279SOL    HW216737   1.751   6.424   6.823
 5280SOL     OW16738   3.611   5.626   5.473
 5280SOL    HW116739   3.667   5.587   5.545
 5280SOL    HW216740   3.653   5.607   5.384
 5281SOL     OW16741   1.904   1.535   3.943
 5281SOL    HW116742   1.975   1.601   3.969
 5281SOL    HW216743   1.863   1.562   3.857
 5282SOL     OW16744   1.704   0.177   2.175
 5282SOL    HW116745   1.616   0.149   2.213
 5282SOL    HW216746   1.689   0.222   2.086
 5283SOL     OW16747   1.386   0.762   3.099
 5283SOL    HW116748   1.463   0.760   3.034
 5283SOL    HW216749   1.341   0.852   3.094
 5284SOL     OW16750   4.673   2.727   3.402
 5284SOL    HW116751   4.660   2.736   3.501
 5284SOL    HW216752   4.738   2.795   3.370
 5285SOL     OW16753   0.697   3.630   4.174
 5285SOL    HW116754   0.689   3.599   4.080
 5285SOL    HW216755   0.608   3.621   4.220
 5286SOL     OW16756   6.517   3.414   0.781
 5286SOL    HW116757   6.442   3.413   0.847
 5286SOL    HW216758   6.482   3.389   0.691
 5287SOL     OW16759   3.102   5.575   1.232
 5287SOL    HW116760   3.021   5.517   1.221
 5287SOL    HW216761   3.179   5.519   1.261
 5288SOL     OW16762   3.519   0.195   2.866
 5288SOL    HW116763   3.599   0.145   2.833
 5288SOL    HW216764   3.517   0.194   2.966
 5289SOL     OW16765   2.499   5.618   5.898
 5289SOL    HW116766   2.494   5.628   5.799
 5289SOL    HW216767   2.584   5.658   5.931
 5290SOL     OW16768   1.640   3.421   5.757
 5290SOL    HW116769   1.564   3.484   5.772
 5290SOL    HW216770   1.674   3.430   5.664
 5291SOL     OW16771   3.223   4.519   6.340
 5291SOL    HW116772   3.241   4.551   6.433
 5291SOL    HW216773   3.227   4.596   6.276
 5292SOL     OW16774   5.925   4.770   5.880
 5292SOL    HW116775   5.902   4.867   5.867
 5292SOL    HW216776   5.843   4.718   5.901
 5293SOL     OW16777   2.479   6.842   4.950
 5293SOL    HW116778   2.424   6.894   4.886
 5293SOL    HW216779   2.569   6.823   4.910
 5294SOL     OW16780   4.734   2.019   5.348
 5294SOL    HW116781   4.724   1.940   5.408
 5294SOL    HW216782   4.787   2.090   5.394
 5295SOL     OW16783   4.060   1.115   3.182
 5295SOL    HW116784   3.992   1.168   3.131
 5295SOL    HW216785   4.056   1.140   3.279
 5296SOL     OW16786   3.176   4.208   0.012
 5296SOL    HW116787   3.135   4.266   6.969
 5296SOL    HW216788   3.187   4.115   7.005
 5297SOL     OW16789   1.384   3.904   0.476
 5297SOL    HW116790   1.477   3.875   0.499
 5297SOL    HW216791   1.339   3.832   0.423
 5298SOL     OW16792   1.524   5.980   0.305
 5298SOL    HW116793   1.604   5.956   0.360
 5298SOL    HW216794   1.534   5.944   0.213
 5299SOL     OW16795   2.504   2.839   0.477
 5299SOL    HW116796   2.550   2.924   0.451
 5299SOL    HW216797   2.453   2.853   0.562
 5300SOL     OW16798   0.314   5.810   0.973
 5300SOL    HW116799   0.397   5.770   1.012
 5300SOL    HW216800   0.335   5.848   0.883
 5301SOL     OW16801   4.297   1.537   6.219
 5301SOL    HW116802   4.229   1.606   6.240
 5301SOL    HW216803   4.282   1.502   6.127
 5302SOL     OW16804   6.063   5.536   3.286
 5302SOL    HW116805   6.055   5.556   3.384
 5302SOL    HW216806   5.976   5.555   3.241
 5303SOL     OW16807   0.603   5.260   4.724
 5303SOL    HW116808   0.572   5.205   4.801
 5303SOL    HW216809   0.538   5.251   4.648
 5304SOL     OW16810   5.797   0.474   0.475
 5304SOL    HW116811   5.815   0.498   0.570
 5304SOL    HW216812   5.779   0.558   0.423
 5305SOL     OW16813   0.734   5.069   3.221
 5305SOL    HW116814   0.829   5.076   3.251
 5305SOL    HW216815   0.703   4.974   3.231
 5306SOL     OW16816   0.889   4.647   5.181
 5306SOL    HW116817   0.837   4.573   5.140
 5306SOL    HW216818   0.855   4.735   5.149
 5307SOL     OW16819   3.799   1.312   0.074
 5307SOL    HW116820   3.808   1.408   0.049
 5307SOL    HW216821   3.768   1.260   7.023
 5308SOL     OW16822   1.297   4.674   2.505
 5308SOL    HW116823   1.343   4.662   2.593
 5308SOL    HW216824   1.294   4.587   2.456
 5309SOL     OW16825   3.905   4.884   1.757
 5309SOL    HW116826   3.873   4.922   1.670
 5309SOL    HW216827   3.846   4.917   1.831
 5310SOL     OW16828   5.999   3.576   2.006
 5310SOL    HW116829   6.067   3.507   2.034
 5310SOL    HW216830   5.916   3.529   1.975
 5311SOL     OW16831   6.594   6.968   0.087
 5311SOL    HW116832   6.635   6.970   7.024
 5311SOL    HW216833   6.495   6.978   0.080
 5312SOL     OW16834   1.037   5.578   1.720
 5312SOL    HW116835   0.988   5.552   1.803
 5312SOL    HW216836   0.997   5.530   1.641
 5313SOL     OW16837   1.274   2.730   6.078
 5313SOL    HW116838   1.194   2.708   6.133
 5313SOL    HW216839   1.292   2.655   6.014
 5314SOL     OW16840   4.073   6.668   0.562
 5314SOL    HW116841   4.118   6.694   0.647
 5314SOL    HW216842   3.990   6.723   0.549
 5315SOL     OW16843   4.932   3.623   2.002
 5315SOL    HW116844   5.007   3.682   1.973
 5315SOL    HW216845   4.867   3.612   1.927
 5316SOL     OW16846   0.995   3.269   5.170
 5316SOL    HW116847   1.005   3.368   5.182
 5316SOL    HW216848   0.907   3.240   5.208
 5317SOL     OW16849   5.883   1.724   5.044
 5317SOL    HW116850   5.833   1.659   5.102
 5317SOL    HW216851   5.981   1.701   5.045
 5318SOL     OW16852   0.641   2.549   0.661
 5318SOL    HW116853   0.736   2.568   0.683
 5318SOL    HW216854   0.609   2.613   0.591
 5319SOL     OW16855   4.513   6.094   0.436
 5319SOL    HW116856   4.606   6.091   0.400
 5319SOL    HW216857   4.515   6.091   0.536
 5320SOL     OW16858   4.415   4.755   0.550
 5320SOL    HW116859   4.413   4.762   0.450
 5320SOL    HW216860   4.341   4.811   0.588
 5321SOL     OW16861   2.106   5.039   4.554
 5321SOL    HW116862   2.147   4.949   4.562
 5321SOL    HW216863   2.147   5.101   4.621
 5322SOL     OW16864   5.720   5.896   6.812
 5322SOL    HW116865   5.755   5.968   6.872
 5322SOL    HW216866   5.634   5.926   6.771
 5323SOL     OW16867   4.026   1.334   6.299
 5323SOL    HW116868   4.104   1.322   6.238
 5323SOL    HW216869   4.042   1.413   6.358
 5324SOL     OW16870   3.156   2.299   0.800
 5324SOL    HW116871   3.211   2.377   0.828
 5324SOL    HW216872   3.150   2.297   0.700
 5325SOL     OW16873   4.429   0.287   4.373
 5325SOL    HW116874   4.349   0.312   4.427
 5325SOL    HW216875   4.507   0.276   4.434
 5326SOL     OW16876   6.494   5.123   3.113
 5326SOL    HW116877   6.537   5.099   3.026
 5326SOL    HW216878   6.504   5.221   3.129
 5327SOL     OW16879   5.657   2.647   5.458
 5327SOL    HW116880   5.583   2.621   5.520
 5327SOL    HW216881   5.619   2.689   5.376
 5328SOL     OW16882   3.682   3.219   5.368
 5328SOL    HW116883   3.641   3.129   5.351
 5328SOL    HW216884   3.780   3.208   5.387
 5329SOL     OW16885   0.126   4.310   6.257
 5329SOL    HW116886   0.136   4.270   6.166
 5329SOL    HW216887   0.074   4.247   6.315
 5330SOL     OW16888   4.266   3.857   6.637
 5330SOL    HW116889   4.200   3.826   6.568
 5330SOL    HW216890   4.276   3.956   6.632
 5331SOL     OW16891   5.631   1.487   6.677
 5331SOL    HW116892   5.674   1.522   6.594
 5331SOL    HW216893   5.701   1.458   6.741
 5332SOL     OW16894   0.607   2.901   1.342
 5332SOL    HW116895   0.515   2.872   1.369
 5332SOL    HW216896   0.599   2.974   1.274
 5333SOL     OW16897   0.855   0.665   2.877
 5333SOL    HW116898   0.831   0.631   2.968
 5333SOL    HW216899   0.826   0.598   2.808
 5334SOL     OW16900   3.354   6.665   4.018
 5334SOL    HW116901   3.264   6.709   4.010
 5334SOL    HW216902   3.378   6.654   4.114
 5335SOL     OW16903   6.818   6.362   0.924
 5335SOL    HW116904   6.776   6.435   0.977
 5335SOL    HW216905   6.870   6.302   0.986
 5336SOL     OW16906   1.456   3.282   3.201
 5336SOL    HW116907   1.425   3.194   3.237
 5336SOL    HW216908   1.398   3.355   3.238
 5337SOL     OW16909   5.132   4.231   0.996
 5337SOL    HW116910   5.063   4.163   0.971
 5337SOL    HW216911   5.098   4.286   1.072
 5338SOL     OW16912   5.864   1.547   0.287
 5338SOL    HW116913   5.938   1.530   0.352
 5338SOL    HW216914   5.841   1.644   0.288
 5339SOL     OW16915   6.792   2.034   3.962
 5339SOL    HW116916   6.780   2.104   4.032
 5339SOL    HW216917   6.823   1.949   4.004
 5340SOL     OW16918   4.597   4.276   0.965
 5340SOL    HW116919   4.660   4.211   0.923
 5340SOL    HW216920   4.503   4.253   0.940
 5341SOL     OW16921   3.412   2.792   6.201
 5341SOL    HW116922   3.326   2.818   6.246
 5341SOL    HW216923   3.399   2.790   6.102
 5342SOL     OW16924   3.412   6.626   4.278
 5342SOL    HW116925   3.503   6.637   4.317
 5342SOL    HW216926   3.344   6.673   4.334
 5343SOL     OW16927   3.894   4.051   4.076
 5343SOL    HW116928   3.881   4.084   4.169
 5343SOL    HW216929   3.836   3.971   4.060
 5344SOL     OW16930   2.266   2.962   2.862
 5344SOL    HW116931   2.311   2.887   2.911
 5344SOL    HW216932   2.320   2.986   2.781
 5345SOL     OW16933   3.905   6.337   1.499
 5345SOL    HW116934   3.809   6.309   1.487
 5345SOL    HW216935   3.964   6.270   1.454
 5346SOL     OW16936   3.102   6.073   4.073
 5346SOL    HW116937   3.201   6.063   4.078
 5346SOL    HW216938   3.078   6.146   4.009
 5347SOL     OW16939   0.785   2.631   2.083
 5347SOL    HW116940   0.732   2.546   2.091
 5347SOL    HW216941   0.863   2.628   2.145
 5348SOL     OW16942   6.919   2.404   0.924
 5348SOL    HW116943   7.018   2.412   0.907
 5348SOL    HW216944   6.904   2.375   1.018
 5349SOL     OW16945   1.391   2.755   0.286
 5349SOL    HW116946   1.329   2.681   0.264
 5349SOL    HW216947   1.469   2.753   0.224
 5350SOL     OW16948   2.260   0.228   5.523
 5350SOL    HW116949   2.229   0.240   5.428
 5350SOL    HW216950   2.355   0.257   5.531
 5351SOL     OW16951   5.866   5.806   2.122
 5351SOL    HW116952   5.822   5.862   2.192
 5351SOL    HW216953   5.935   5.747   2.164
 5352SOL     OW16954   2.178   5.381   3.278
 5352SOL    HW116955   2.213   5.354   3.189
 5352SOL    HW216956   2.090   5.428   3.267
 5353SOL     OW16957   3.920   5.223   3.577
 5353SOL    HW116958   3.996   5.235   3.513
 5353SOL    HW216959   3.926   5.134   3.621
 5354SOL     OW16960   2.671   5.415   1.790
 5354SOL    HW116961   2.604   5.455   1.727
 5354SOL    HW216962   2.625   5.350   1.850
 5355SOL     OW16963   5.537   3.209   3.356
 5355SOL    HW116964   5.455   3.175   3.309
 5355SOL    HW216965   5.601   3.133   3.369
 5356SOL     OW16966   5.522   4.293   1.670
 5356SOL    HW116967   5.590   4.241   1.722
 5356SOL    HW216968   5.543   4.287   1.573
 5357SOL     OW16969   4.368   6.167   0.201
 5357SOL    HW116970   4.388   6.101   0.128
 5357SOL    HW216971   4.390   6.126   0.289
 5358SOL     OW16972   4.410   1.435   0.166
 5358SOL    HW116973   4.421   1.477   0.077
 5358SOL    HW216974   4.344   1.487   0.220
 5359SOL     OW16975   1.783   1.982   6.599
 5359SOL    HW116976   1.841   1.971   6.680
 5359SOL    HW216977   1.687   1.974   6.625
 5360SOL     OW16978   4.610   6.434   5.582
 5360SOL    HW116979   4.688   6.430   5.519
 5360SOL    HW216980   4.539   6.371   5.550
 5361SOL     OW16981   2.328   0.656   5.161
 5361SOL    HW116982   2.319   0.622   5.255
 5361SOL    HW216983   2.329   0.756   5.162
 5362SOL     OW16984   5.662   5.027   3.644
 5362SOL    HW116985   5.684   5.027   3.742
 5362SOL    HW216986   5.740   5.063   3.593
 5363SOL     OW16987   0.402   0.173   6.536
 5363SOL    HW116988   0.440   0.086   6.568
 5363SOL    HW216989   0.467   0.247   6.554
 5364SOL     OW16990   6.239   6.133   1.885
 5364SOL    HW116991   6.280   6.224   1.897
 5364SOL    HW216992   6.146   6.133   1.921
 5365SOL     OW16993   3.486   3.493   6.778
 5365SOL    HW116994   3.526   3.404   6.800
 5365SOL    HW216995   3.387   3.489   6.792
 5366SOL     OW16996   5.151   5.663   1.747
 5366SOL    HW116997   5.220   5.691   1.681
 5366SOL    HW216998   5.060   5.673   1.707
 5367SOL     OW16999   0.716   6.157   0.475
 5367SOL    HW117000   0.719   6.060   0.498
 5367SOL    HW217001   0.805   6.199   0.496
 5368SOL     OW17002   5.502   0.448   2.972
 5368SOL    HW117003   5.596   0.454   2.937
 5368SOL    HW217004   5.451   0.529   2.944
 5369SOL     OW17005   2.847   0.028   2.117
 5369SOL    HW117006   2.798   0.002   2.200
 5369SOL    HW217007   2.825   0.122   2.092
 5370SOL     OW17008   4.300   2.948   1.696
 5370SOL    HW117009   4.237   2.870   1.695
 5370SOL    HW217010   4.387   2.919   1.736
 5371SOL     OW17011   1.502   3.836   4.623
 5371SOL    HW117012   1.579   3.786   4.662
 5371SOL    HW217013   1.534   3.894   4.548
 5372SOL     OW17014   2.510   5.658   3.268
 5372SOL    HW117015   2.453   5.738   3.249
 5372SOL    HW217016   2.547   5.666   3.361
 5373SOL     OW17017   3.654   6.061   4.022
 5373SOL    HW117018   3.710   6.061   3.939
 5373SOL    HW217019   3.656   5.970   4.063
 5374SOL     OW17020   1.052   3.844   6.695
 5374SOL    HW117021   1.099   3.777   6.637
 5374SOL    HW217022   1.103   3.856   6.780
 5375SOL     OW17023   2.014   4.977   4.878
 5375SOL    HW117024   2.113   4.986   4.886
 5375SOL    HW217025   1.989   4.880   4.877
 5376SOL     OW17026   1.609   3.324   0.769
 5376SOL    HW117027   1.554   3.403   0.741
 5376SOL    HW217028   1.672   3.299   0.695
 5377SOL     OW17029   0.477   0.083   1.957
 5377SOL    HW117030   0.442   0.147   2.025
 5377SOL    HW217031   0.474   7.019   1.994
 5378SOL     OW17032   0.170   0.219   2.021
 5378SOL    HW117033   0.092   0.261   2.067
 5378SOL    HW217034   0.250   0.278   2.031
 5379SOL     OW17035   1.924   5.245   5.151
 5379SOL    HW117036   1.898   5.321   5.092
 5379SOL    HW217037   1.875   5.252   5.238
 5380SOL     OW17038   2.239   1.991   3.196
 5380SOL    HW117039   2.154   1.972   3.147
 5380SOL    HW217040   2.223   2.061   3.265
 5381SOL     OW17041   6.292   4.150   1.252
 5381SOL    HW117042   6.374   4.206   1.259
 5381SOL    HW217043   6.212   4.205   1.276
 5382SOL     OW17044   3.397   0.191   2.003
 5382SOL    HW117045   3.476   0.223   2.055
 5382SOL    HW217046   3.316   0.191   2.061
 5383SOL     OW17047   2.416   2.504   5.383
 5383SOL    HW117048   2.472   2.586   5.371
 5383SOL    HW217049   2.362   2.488   5.300
 5384SOL     OW17050   5.782   0.019   4.685
 5384SOL    HW117051   5.838   6.980   4.734
 5384SOL    HW217052   5.685   7.023   4.697
 5385SOL     OW17053   2.912   3.558   4.127
 5385SOL    HW117054   2.907   3.542   4.226
 5385SOL    HW217055   2.893   3.654   4.108
 5386SOL     OW17056   5.187   0.207   4.504
 5386SOL    HW117057   5.203   0.113   4.535
 5386SOL    HW217058   5.163   0.264   4.583
 5387SOL     OW17059   2.555   6.381   3.783
 5387SOL    HW117060   2.529   6.355   3.876
 5387SOL    HW217061   2.521   6.312   3.718
 5388SOL     OW17062   6.726   0.029   4.154
 5388SOL    HW117063   6.688   6.967   4.134
 5388SOL    HW217064   6.824   0.021   4.172
 5389SOL     OW17065   4.543   1.000   1.745
 5389SOL    HW117066   4.585   0.919   1.706
 5389SOL    HW217067   4.540   1.073   1.676
 5390SOL     OW17068   4.663   4.237   3.308
 5390SOL    HW117069   4.737   4.222   3.242
 5390SOL    HW217070   4.618   4.150   3.327
 5391SOL     OW17071   1.906   2.099   1.396
 5391SOL    HW117072   1.951   2.043   1.465
 5391SOL    HW217073   1.971   2.164   1.358
 5392SOL     OW17074   5.588   3.366   1.673
 5392SOL    HW117075   5.649   3.429   1.625
 5392SOL    HW217076   5.515   3.419   1.716
 5393SOL     OW17077   5.432   6.875   6.732
 5393SOL    HW117078   5.401   6.786   6.698
 5393SOL    HW217079   5.360   6.915   6.789
 5394SOL     OW17080   6.481   4.718   6.593
 5394SOL    HW117081   6.482   4.630   6.546
 5394SOL    HW217082   6.496   4.791   6.527
 5395SOL     OW17083   4.356   0.657   2.013
 5395SOL    HW117084   4.348   0.731   1.946
 5395SOL    HW217085   4.426   0.593   1.983
 5396SOL     OW17086   4.901   4.914   2.694
 5396SOL    HW117087   4.870   4.906   2.788
 5396SOL    HW217088   4.922   4.824   2.657
 5397SOL     OW17089   6.714   2.683   1.741
 5397SOL    HW117090   6.757   2.656   1.827
 5397SOL    HW217091   6.678   2.602   1.695
 5398SOL     OW17092   3.448   2.086   2.806
 5398SOL    HW117093   3.392   2.157   2.764
 5398SOL    HW217094   3.537   2.082   2.760
 5399SOL     OW17095   2.486   5.300   0.496
 5399SOL    HW117096   2.460   5.327   0.588
 5399SOL    HW217097   2.500   5.381   0.440
 5400SOL     OW17098   2.466   4.220   0.709
 5400SOL    HW117099   2.437   4.124   0.701
 5400SOL    HW217100   2.506   4.251   0.623
 5401SOL     OW17101   5.730   3.606   1.581
 5401SOL    HW117102   5.805   3.593   1.515
 5401SOL    HW217103   5.682   3.691   1.560
 5402SOL     OW17104   2.164   4.881   1.895
 5402SOL    HW117105   2.248   4.827   1.882
 5402SOL    HW217106   2.085   4.823   1.879
 5403SOL     OW17107   6.175   2.291   6.129
 5403SOL    HW117108   6.229   2.229   6.071
 5403SOL    HW217109   6.228   2.314   6.211
 5404SOL     OW17110   0.990   0.929   2.871
 5404SOL    HW117111   0.969   0.833   2.892
 5404SOL    HW217112   0.907   0.975   2.841
 5405SOL     OW17113   6.360   6.127   0.124
 5405SOL    HW117114   6.419   6.189   0.072
 5405SOL    HW217115   6.313   6.065   0.061
 5406SOL     OW17116   2.561   0.469   0.095
 5406SOL    HW117117   2.534   0.558   0.131
 5406SOL    HW217118   2.624   0.482   0.019
 5407SOL     OW17119   4.278   3.098   1.450
 5407SOL    HW117120   4.370   3.098   1.410
 5407SOL    HW217121   4.284   3.081   1.548
 5408SOL     OW17122   3.180   1.227   6.434
 5408SOL    HW117123   3.148   1.274   6.517
 5408SOL    HW217124   3.111   1.236   6.362
 5409SOL     OW17125   6.096   1.152   4.041
 5409SOL    HW117126   6.074   1.249   4.039
 5409SOL    HW217127   6.033   1.102   3.981
 5410SOL     OW17128   1.867   2.937   1.612
 5410SOL    HW117129   1.878   3.027   1.570
 5410SOL    HW217130   1.859   2.868   1.540
 5411SOL     OW17131   6.621   5.242   5.648
 5411SOL    HW117132   6.691   5.172   5.636
 5411SOL    HW217133   6.564   5.219   5.727
 5412SOL     OW17134   4.171   0.565   6.988
 5412SOL    HW117135   4.267   0.550   6.965
 5412SOL    HW217136   4.132   0.633   6.926
 5413SOL     OW17137   1.993   0.915   1.239
 5413SOL    HW117138   2.080   0.948   1.276
 5413SOL    HW217139   1.936   0.880   1.313
 5414SOL     OW17140   5.774   2.942   4.755
 5414SOL    HW117141   5.677   2.954   4.771
 5414SOL    HW217142   5.826   3.002   4.815
 5415SOL     OW17143   1.333   5.934   1.331
 5415SOL    HW117144   1.405   5.973   1.273
 5415SOL    HW217145   1.358   5.841   1.358
 5416SOL     OW17146   4.548   4.437   6.379
 5416SOL    HW117147   4.466   4.437   6.321
 5416SOL    HW217148   4.522   4.466   6.472
 5417SOL     OW17149   4.053   6.594   5.456
 5417SOL    HW117150   4.129   6.595   5.521
 5417SOL    HW217151   4.074   6.532   5.381
 5418SOL     OW17152   4.138   6.695   4.440
 5418SOL    HW117153   4.050   6.743   4.448
 5418SOL    HW217154   4.129   6.621   4.373
 5419SOL     OW17155   3.212   5.048   0.180
 5419SOL    HW117156   3.173   4.956   0.175
 5419SOL    HW217157   3.177   5.095   0.261
 5420SOL     OW17158   1.159   2.183   1.889
 5420SOL    HW117159   1.191   2.253   1.953
 5420SOL    HW217160   1.207   2.194   1.802
 5421SOL     OW17161   2.072   3.508   2.523
 5421SOL    HW117162   2.130   3.579   2.563
 5421SOL    HW217163   1.990   3.497   2.579
 5422SOL     OW17164   0.630   5.622   6.874
 5422SOL    HW117165   0.575   5.678   6.935
 5422SOL    HW217166   0.623   5.526   6.901
 5423SOL     OW17167   5.552   2.600   6.981
 5423SOL    HW117168   5.565   2.518   6.926
 5423SOL    HW217169   5.572   2.580   0.048
 5424SOL     OW17170   4.881   3.200   4.151
 5424SOL    HW117171   4.871   3.135   4.226
 5424SOL    HW217172   4.852   3.157   4.065
 5425SOL     OW17173   4.337   1.253   4.172
 5425SOL    HW117174   4.435   1.241   4.193
 5425SOL    HW217175   4.310   1.346   4.193
 5426SOL     OW17176   6.379   5.122   3.962
 5426SOL    HW117177   6.418   5.029   3.967
 5426SOL    HW217178   6.416   5.177   4.037
 5427SOL     OW17179   4.765   4.782   0.341
 5427SOL    HW117180   4.832   4.800   0.413
 5427SOL    HW217181   4.803   4.719   0.274
 5428SOL     OW17182   0.012   0.117   1.796
 5428SOL    HW117183   0.050   0.190   1.739
 5428SOL    HW217184   0.070   0.102   1.875
 5429SOL     OW17185   0.990   1.932   5.817
 5429SOL    HW117186   1.085   1.921   5.847
 5429SOL    HW217187   0.936   1.972   5.892
 5430SOL     OW17188   0.945   3.402   5.868
 5430SOL    HW117189   0.888   3.320   5.875
 5430SOL    HW217190   0.969   3.417   5.772
 5431SOL     OW17191   3.708   5.623   7.020
 5431SOL    HW117192   3.664   5.712   0.004
 5431SOL    HW217193   3.650   5.551   0.030
 5432SOL     OW17194   4.766   6.554   6.509
 5432SOL    HW117195   4.798   6.632   6.455
 5432SOL    HW217196   4.706   6.497   6.453
 5433SOL     OW17197   0.576   1.708   4.017
 5433SOL    HW117198   0.556   1.766   4.095
 5433SOL    HW217199   0.631   1.629   4.047
 5434SOL     OW17200   3.716   1.036   4.761
 5434SOL    HW117201   3.779   1.105   4.725
 5434SOL    HW217202   3.647   1.080   4.818
 5435SOL     OW17203   5.235   1.152   1.771
 5435SOL    HW117204   5.140   1.144   1.802
 5435SOL    HW217205   5.237   1.163   1.672
 5436SOL     OW17206   5.032   3.748   4.039
 5436SOL    HW117207   5.091   3.699   3.975
 5436SOL    HW217208   4.970   3.807   3.989
 5437SOL     OW17209   2.833   5.102   6.325
 5437SOL    HW117210   2.899   5.114   6.252
 5437SOL    HW217211   2.838   5.179   6.388
 5438SOL     OW17212   5.651   4.084   3.048
 5438SOL    HW117213   5.719   4.011   3.036
 5438SOL    HW217214   5.653   4.116   3.143
 5439SOL     OW17215   1.157   2.606   1.092
 5439SOL    HW117216   1.183   2.552   1.173
 5439SOL    HW217217   1.228   2.596   1.022
 5440SOL     OW17218   0.629   0.849   2.038
 5440SOL    HW117219   0.720   0.813   2.056
 5440SOL    HW217220   0.609   0.843   1.940
 5441SOL     OW17221   4.923   2.303   3.049
 5441SOL    HW117222   4.925   2.237   2.974
 5441SOL    HW217223   4.995   2.370   3.036
 5442SOL     OW17224   3.412   6.269   3.513
 5442SOL    HW117225   3.315   6.264   3.536
 5442SOL    HW217226   3.441   6.365   3.514
 5443SOL     OW17227   2.856   0.764   3.514
 5443SOL    HW117228   2.804   0.801   3.592
 5443SOL    HW217229   2.911   0.837   3.474
 5444SOL     OW17230   1.566   0.751   4.195
 5444SOL    HW117231   1.507   0.815   4.244
 5444SOL    HW217232   1.622   0.700   4.260
 5445SOL     OW17233   5.537   4.078   4.320
 5445SOL    HW117234   5.582   4.091   4.231
 5445SOL    HW217235   5.449   4.032   4.305
 5446SOL     OW17236   6.565   4.970   5.019
 5446SOL    HW117237   6.664   4.967   5.028
 5446SOL    HW217238   6.529   4.878   5.005
 5447SOL     OW17239   2.254   1.422   6.825
 5447SOL    HW117240   2.259   1.323   6.835
 5447SOL    HW217241   2.267   1.465   6.915
 5448SOL     OW17242   5.086   3.052   4.556
 5448SOL    HW117243   4.994   3.063   4.593
 5448SOL    HW217244   5.082   2.999   4.471
 5449SOL     OW17245   1.683   2.522   6.641
 5449SOL    HW117246   1.630   2.447   6.601
 5449SOL    HW217247   1.696   2.505   6.739
 5450SOL     OW17248   1.786   0.629   2.188
 5450SOL    HW117249   1.857   0.698   2.174
 5450SOL    HW217250   1.710   0.647   2.127
 5451SOL     OW17251   1.221   6.039   3.619
 5451SOL    HW117252   1.269   6.077   3.699
 5451SOL    HW217253   1.154   5.972   3.650
 5452SOL     OW17254   2.274   4.205   0.066
 5452SOL    HW117255   2.316   4.141   0.130
 5452SOL    HW217256   2.188   4.240   0.104
 5453SOL     OW17257   5.100   4.068   2.101
 5453SOL    HW117258   5.043   3.986   2.105
 5453SOL    HW217259   5.195   4.041   2.087
 5454SOL     OW17260   0.293   3.769   6.220
 5454SOL    HW117261   0.345   3.785   6.136
 5454SOL    HW217262   0.226   3.842   6.232
 5455SOL     OW17263   6.314   2.975   0.737
 5455SOL    HW117264   6.242   3.043   0.724
 5455SOL    HW217265   6.400   3.021   0.762
 5456SOL     OW17266   2.968   0.295   6.704
 5456SOL    HW117267   3.034   0.223   6.681
 5456SOL    HW217268   2.904   0.261   6.772
 5457SOL     OW17269   6.337   2.548   6.932
 5457SOL    HW117270   6.395   2.546   6.851
 5457SOL    HW217271   6.290   2.637   6.937
 5458SOL     OW17272   1.114   4.579   0.562
 5458SOL    HW117273   1.195   4.631   0.538
 5458SOL    HW217274   1.122   4.486   0.527
 5459SOL     OW17275   1.742   3.965   0.247
 5459SOL    HW117276   1.730   3.895   0.176
 5459SOL    HW217277   1.658   4.018   0.256
 5460SOL     OW17278   3.758   0.824   3.207
 5460SOL    HW117279   3.825   0.784   3.144
 5460SOL    HW217280   3.707   0.895   3.160
 5461SOL     OW17281   5.968   0.350   5.925
 5461SOL    HW117282   6.044   0.310   5.872
 5461SOL    HW217283   5.985   0.448   5.938
 5462SOL     OW17284   0.594   0.112   6.961
 5462SOL    HW117285   0.578   0.014   6.953
 5462SOL    HW217286   0.507   0.159   6.976
 5463SOL     OW17287   6.804   2.315   0.518
 5463SOL    HW117288   6.879   2.367   0.478
 5463SOL    HW217289   6.815   2.313   0.618
 5464SOL     OW17290   1.211   1.559   4.107
 5464SOL    HW117291   1.150   1.630   4.072
 5464SOL    HW217292   1.166   1.509   4.181
 5465SOL     OW17293   3.468   6.549   3.573
 5465SOL    HW117294   3.510   6.525   3.660
 5465SOL    HW217295   3.379   6.590   3.589
 5466SOL     OW17296   5.483   3.225   5.335
 5466SOL    HW117297   5.487   3.257   5.240
 5466SOL    HW217298   5.506   3.301   5.396
 5467SOL     OW17299   5.160   2.769   3.131
 5467SOL    HW117300   5.246   2.787   3.083
 5467SOL    HW217301   5.175   2.774   3.230
 5468SOL     OW17302   5.915   2.470   4.579
 5468SOL    HW117303   5.822   2.489   4.610
 5468SOL    HW217304   5.930   2.371   4.576
 5469SOL     OW17305   3.890   6.017   6.248
 5469SOL    HW117306   3.819   6.079   6.283
 5469SOL    HW217307   3.893   5.936   6.306
 5470SOL     OW17308   3.066   6.156   2.831
 5470SOL    HW117309   2.967   6.144   2.842
 5470SOL    HW217310   3.109   6.156   2.921
 5471SOL     OW17311   4.918   0.008   2.468
 5471SOL    HW117312   4.936   6.939   2.458
 5471SOL    HW217313   5.003   0.059   2.454
 5472SOL     OW17314   4.729   3.498   6.032
 5472SOL    HW117315   4.802   3.445   6.076
 5472SOL    HW217316   4.663   3.528   6.101
 5473SOL     OW17317   0.198   3.187   2.344
 5473SOL    HW117318   0.236   3.268   2.388
 5473SOL    HW217319   0.214   3.192   2.245
 5474SOL     OW17320   1.597   4.991   4.588
 5474SOL    HW117321   1.689   4.985   4.626
 5474SOL    HW217322   1.531   4.952   4.653
 5475SOL     OW17323   2.283   3.133   1.554
 5475SOL    HW117324   2.234   3.205   1.605
 5475SOL    HW217325   2.360   3.101   1.609
 5476SOL     OW17326   1.680   4.448   5.582
 5476SOL    HW117327   1.702   4.502   5.500
 5476SOL    HW217328   1.727   4.360   5.577
 5477SOL     OW17329   2.660   4.692   3.485
 5477SOL    HW117330   2.734   4.745   3.526
 5477SOL    HW217331   2.601   4.753   3.432
 5478SOL     OW17332   3.695   5.232   4.886
 5478SOL    HW117333   3.602   5.250   4.852
 5478SOL    HW217334   3.716   5.135   4.876
 5479SOL     OW17335   4.819   1.475   6.771
 5479SOL    HW117336   4.743   1.467   6.708
 5479SOL    HW217337   4.889   1.407   6.750
 5480SOL     OW17338   6.438   4.573   3.136
 5480SOL    HW117339   6.385   4.655   3.157
 5480SOL    HW217340   6.522   4.573   3.190
 5481SOL     OW17341   4.200   1.584   4.390
 5481SOL    HW117342   4.295   1.558   4.374
 5481SOL    HW217343   4.190   1.612   4.486
 5482SOL     OW17344   3.587   4.520   1.492
 5482SOL    HW117345   3.619   4.608   1.529
 5482SOL    HW217346   3.494   4.503   1.523
 5483SOL     OW17347   0.404   1.930   5.717
 5483SOL    HW117348   0.500   1.904   5.725
 5483SOL    HW217349   0.389   1.977   5.630
 5484SOL     OW17350   4.064   1.334   4.398
 5484SOL    HW117351   4.003   1.291   4.333
 5484SOL    HW217352   4.094   1.423   4.363
 5485SOL     OW17353   4.836   0.297   5.682
 5485SOL    HW117354   4.815   0.226   5.615
 5485SOL    HW217355   4.926   0.280   5.722
 5486SOL     OW17356   2.307   5.842   5.306
 5486SOL    HW117357   2.367   5.810   5.233
 5486SOL    HW217358   2.213   5.848   5.272
 5487SOL     OW17359   3.953   2.949   6.516
 5487SOL    HW117360   3.922   3.034   6.559
 5487SOL    HW217361   4.031   2.913   6.567
 5488SOL     OW17362   5.906   0.014   1.157
 5488SOL    HW117363   5.856   0.097   1.183
 5488SOL    HW217364   5.890   6.971   1.225
 5489SOL     OW17365   0.370   3.943   1.463
 5489SOL    HW117366   0.459   3.965   1.424
 5489SOL    HW217367   0.312   3.902   1.393
 5490SOL     OW17368   2.760   0.630   2.623
 5490SOL    HW117369   2.809   0.590   2.546
 5490SOL    HW217370   2.737   0.725   2.601
 5491SOL     OW17371   0.879   2.656   0.159
 5491SOL    HW117372   0.830   2.569   0.169
 5491SOL    HW217373   0.812   2.731   0.154
 5492SOL     OW17374   0.788   3.415   6.840
 5492SOL    HW117375   0.850   3.459   6.776
 5492SOL    HW217376   0.825   3.422   6.933
 5493SOL     OW17377   3.741   3.203   3.697
 5493SOL    HW117378   3.817   3.153   3.656
 5493SOL    HW217379   3.769   3.237   3.787
 5494SOL     OW17380   6.821   3.664   5.365
 5494SOL    HW117381   6.850   3.615   5.447
 5494SOL    HW217382   6.873   3.630   5.286
 5495SOL     OW17383   5.976   0.837   1.420
 5495SOL    HW117384   5.984   0.829   1.321
 5495SOL    HW217385   5.911   0.910   1.443
 5496SOL     OW17386   4.311   0.721   3.879
 5496SOL    HW117387   4.235   0.747   3.820
 5496SOL    HW217388   4.320   0.788   3.953
 5497SOL     OW17389   1.048   1.413   5.470
 5497SOL    HW117390   1.071   1.509   5.479
 5497SOL    HW217391   1.131   1.358   5.465
 5498SOL     OW17392   0.306   5.062   2.068
 5498SOL    HW117393   0.382   5.032   2.125
 5498SOL    HW217394   0.242   4.987   2.055
 5499SOL     OW17395   0.868   0.548   4.148
 5499SOL    HW117396   0.776   0.516   4.172
 5499SOL    HW217397   0.900   0.498   4.067
 5500SOL     OW17398   0.595   1.083   6.650
 5500SOL    HW117399   0.594   1.065   6.552
 5500SOL    HW217400   0.641   1.007   6.697
 5501SOL     OW17401   3.762   2.034   0.651
 5501SOL    HW117402   3.838   1.975   0.677
 5501SOL    HW217403   3.676   1.992   0.678
 5502SOL     OW17404   5.362   3.566   6.219
 5502SOL    HW117405   5.333   3.512   6.299
 5502SOL    HW217406   5.439   3.519   6.175
 5503SOL     OW17407   6.960   4.258   0.402
 5503SOL    HW117408   6.982   4.170   0.444
 5503SOL    HW217409   6.861   4.271   0.401
 5504SOL     OW17410   4.771   1.043   5.121
 5504SOL    HW117411   4.796   0.951   5.092
 5504SOL    HW217412   4.816   1.110   5.063
 5505SOL     OW17413   2.159   4.833   3.169
 5505SOL    HW117414   2.231   4.793   3.114
 5505SOL    HW217415   2.200   4.883   3.246
 5506SOL     OW17416   0.242   3.287   0.875
 5506SOL    HW117417   0.178   3.293   0.798
 5506SOL    HW217418   0.191   3.275   0.960
 5507SOL     OW17419   3.373   0.655   5.078
 5507SOL    HW117420   3.312   0.729   5.050
 5507SOL    HW217421   3.451   0.651   5.015
 5508SOL     OW17422   1.058   0.867   0.384
 5508SOL    HW117423   1.061   0.876   0.484
 5508SOL    HW217424   1.065   0.770   0.360
 5509SOL     OW17425   1.107   6.050   0.641
 5509SOL    HW117426   1.055   6.096   0.569
 5509SOL    HW217427   1.112   5.952   0.620
 5510SOL     OW17428   4.361   5.296   6.809
 5510SOL    HW117429   4.340   5.386   6.847
 5510SOL    HW217430   4.338   5.294   6.711
 5511SOL     OW17431   1.567   1.084   4.882
 5511SOL    HW117432   1.480   1.092   4.834
 5511SOL    HW217433   1.632   1.151   4.845
 5512SOL     OW17434   3.921   1.269   0.806
 5512SOL    HW117435   3.995   1.211   0.773
 5512SOL    HW217436   3.931   1.361   0.768
 5513SOL     OW17437   3.538   5.303   6.126
 5513SOL    HW117438   3.438   5.298   6.137
 5513SOL    HW217439   3.559   5.361   6.047
 5514SOL     OW17440   3.443   0.634   4.678
 5514SOL    HW117441   3.487   0.593   4.597
 5514SOL    HW217442   3.509   0.639   4.752
 5515SOL     OW17443   1.336   5.461   1.728
 5515SOL    HW117444   1.272   5.515   1.674
 5515SOL    HW217445   1.415   5.436   1.671
 5516SOL     OW17446   2.361   2.765   4.602
 5516SOL    HW117447   2.442   2.777   4.544
 5516SOL    HW217448   2.293   2.711   4.552
 5517SOL     OW17449   2.039   3.671   1.951
 5517SOL    HW117450   2.104   3.745   1.970
 5517SOL    HW217451   2.076   3.585   1.987
 5518SOL     OW17452   6.206   4.982   5.715
 5518SOL    HW117453   6.178   4.908   5.654
 5518SOL    HW217454   6.125   5.029   5.750
 5519SOL     OW17455   5.907   3.052   3.187
 5519SOL    HW117456   5.920   3.056   3.088
 5519SOL    HW217457   5.813   3.025   3.208
 5520SOL     OW17458   5.300   6.811   2.468
 5520SOL    HW117459   5.396   6.794   2.487
 5520SOL    HW217460   5.244   6.742   2.514
 5521SOL     OW17461   5.925   6.034   1.587
 5521SOL    HW117462   5.846   6.004   1.640
 5521SOL    HW217463   5.895   6.094   1.513
 5522SOL     OW17464   6.378   5.442   1.084
 5522SOL    HW117465   6.395   5.344   1.096
 5522SOL    HW217466   6.302   5.470   1.144
 5523SOL     OW17467   4.395   1.102   2.045
 5523SOL    HW117468   4.437   1.095   1.955
 5523SOL    HW217469   4.467   1.109   2.115
 5524SOL     OW17470   3.351   0.074   4.853
 5524SOL    HW117471   3.389   0.167   4.852
 5524SOL    HW217472   3.251   0.080   4.863
 5525SOL     OW17473   1.176   2.269   0.258
 5525SOL    HW117474   1.212   2.211   0.331
 5525SOL    HW217475   1.186   2.365   0.283
 5526SOL     OW17476   5.194   4.874   3.075
 5526SOL    HW117477   5.238   4.962   3.087
 5526SOL    HW217478   5.106   4.887   3.028
 5527SOL     OW17479   5.065   3.785   3.385
 5527SOL    HW117480   5.053   3.694   3.424
 5527SOL    HW217481   5.138   3.783   3.316
 5528SOL     OW17482   2.208   0.720   0.988
 5528SOL    HW117483   2.108   0.723   0.990
 5528SOL    HW217484   2.239   0.627   1.008
 5529SOL     OW17485   3.235   6.996   4.305
 5529SOL    HW117486   3.175   0.009   4.237
 5529SOL    HW217487   3.331   7.014   4.281
 5530SOL     OW17488   5.985   2.084   1.613
 5530SOL    HW117489   6.011   2.000   1.660
 5530SOL    HW217490   5.902   2.068   1.559
 5531SOL     OW17491   4.013   3.478   1.513
 5531SOL    HW117492   3.940   3.427   1.558
 5531SOL    HW217493   4.097   3.470   1.567
 5532SOL     OW17494   1.370   3.117   0.697
 5532SOL    HW117495   1.301   3.059   0.741
 5532SOL    HW217496   1.369   3.208   0.739
 5533SOL     OW17497   5.228   1.177   3.501
 5533SOL    HW117498   5.208   1.097   3.559
 5533SOL    HW217499   5.228   1.260   3.557
 5534SOL     OW17500   1.058   1.248   6.492
 5534SOL    HW117501   1.075   1.155   6.524
 5534SOL    HW217502   1.131   1.276   6.430
 5535SOL     OW17503   0.726   1.038   2.806
 5535SOL    HW117504   0.705   1.127   2.765
 5535SOL    HW217505   0.668   0.968   2.765
 5536SOL     OW17506   4.280   0.413   4.552
 5536SOL    HW117507   4.214   0.467   4.501
 5536SOL    HW217508   4.233   0.354   4.618
 5537SOL     OW17509   3.835   0.946   2.595
 5537SOL    HW117510   3.754   0.907   2.640
 5537SOL    HW217511   3.858   0.891   2.515
 5538SOL     OW17512   3.920   6.211   5.058
 5538SOL    HW117513   3.875   6.124   5.074
 5538SOL    HW217514   3.852   6.283   5.046
 5539SOL     OW17515   1.649   3.806   1.685
 5539SOL    HW117516   1.621   3.715   1.656
 5539SOL    HW217517   1.569   3.864   1.699
 5540SOL     OW17518   5.104   4.470   4.386
 5540SOL    HW117519   5.031   4.443   4.448
 5540SOL    HW217520   5.124   4.568   4.399
 5541SOL     OW17521   5.263   0.418   6.647
 5541SOL    HW117522   5.221   0.483   6.710
 5541SOL    HW217523   5.357   0.399   6.676
 5542SOL     OW17524   4.162   3.059   6.110
 5542SOL    HW117525   4.225   3.120   6.062
 5542SOL    HW217526   4.069   3.074   6.076
 5543SOL     OW17527   5.533   3.743   6.477
 5543SOL    HW117528   5.538   3.681   6.555
 5543SOL    HW217529   5.465   3.708   6.412
 5544SOL     OW17530   5.240   6.836   6.400
 5544SOL    HW117531   5.330   6.876   6.382
 5544SOL    HW217532   5.176   6.908   6.428
 5545SOL     OW17533   3.918   1.713   2.698
 5545SOL    HW117534   3.882   1.804   2.720
 5545SOL    HW217535   3.925   1.659   2.782
 5546SOL     OW17536   1.182   5.587   5.343
 5546SOL    HW117537   1.191   5.488   5.347
 5546SOL    HW217538   1.200   5.619   5.250
 5547SOL     OW17539   2.629   6.125   4.870
 5547SOL    HW117540   2.666   6.054   4.931
 5547SOL    HW217541   2.608   6.084   4.781
 5548SOL     OW17542   6.517   3.694   5.890
 5548SOL    HW117543   6.608   3.721   5.859
 5548SOL    HW217544   6.508   3.594   5.882
 5549SOL     OW17545   3.734   4.623   0.202
 5549SOL    HW117546   3.683   4.679   0.267
 5549SOL    HW217547   3.673   4.596   0.127
 5550SOL     OW17548   2.537   5.483   2.152
 5550SOL    HW117549   2.509   5.501   2.247
 5550SOL    HW217550   2.633   5.506   2.141
 5551SOL     OW17551   1.563   0.454   2.809
 5551SOL    HW117552   1.614   0.508   2.876
 5551SOL    HW217553   1.529   0.513   2.736
 5552SOL     OW17554   0.103   1.741   0.311
 5552SOL    HW117555   0.081   1.807   0.239
 5552SOL    HW217556   0.202   1.728   0.315
 5553SOL     OW17557   4.248   6.757   6.934
 5553SOL    HW117558   4.314   6.830   6.951
 5553SOL    HW217559   4.185   6.786   6.862
 5554SOL     OW17560   2.855   2.507   5.623
 5554SOL    HW117561   2.797   2.530   5.702
 5554SOL    HW217562   2.797   2.476   5.548
 5555SOL     OW17563   0.399   6.021   3.661
 5555SOL    HW117564   0.365   5.929   3.683
 5555SOL    HW217565   0.408   6.074   3.745
 5556SOL     OW17566   0.868   2.513   4.889
 5556SOL    HW117567   0.945   2.574   4.907
 5556SOL    HW217568   0.873   2.480   4.795
 5557SOL     OW17569   2.693   5.618   4.122
 5557SOL    HW117570   2.775   5.570   4.093
 5557SOL    HW217571   2.612   5.576   4.080
 5558SOL     OW17572   5.082   2.964   4.959
 5558SOL    HW117573   5.030   2.900   4.902
 5558SOL    HW217574   5.083   2.931   5.053
 5559SOL     OW17575   2.322   0.154   0.925
 5559SOL    HW117576   2.398   0.160   0.990
 5559SOL    HW217577   2.357   0.157   0.832
 5560SOL     OW17578   6.907   0.301   2.765
 5560SOL    HW117579   6.880   0.206   2.778
 5560SOL    HW217580   6.841   0.361   2.810
 5561SOL     OW17581   1.394   3.277   3.977
 5561SOL    HW117582   1.310   3.304   4.024
 5561SOL    HW217583   1.374   3.202   3.914
 5562SOL     OW17584   1.841   2.771   5.984
 5562SOL    HW117585   1.764   2.784   6.047
 5562SOL    HW217586   1.816   2.705   5.914
 5563SOL     OW17587   4.374   6.236   2.146
 5563SOL    HW117588   4.405   6.265   2.056
 5563SOL    HW217589   4.453   6.224   2.207
 5564SOL     OW17590   5.285   3.776   1.785
 5564SOL    HW117591   5.253   3.786   1.879
 5564SOL    HW217592   5.206   3.763   1.724
 5565SOL     OW17593   4.156   2.444   5.486
 5565SOL    HW117594   4.118   2.352   5.472
 5565SOL    HW217595   4.113   2.487   5.564
 5566SOL     OW17596   1.655   5.419   0.752
 5566SOL    HW117597   1.631   5.343   0.813
 5566SOL    HW217598   1.655   5.504   0.804
 5567SOL     OW17599   1.863   5.477   1.320
 5567SOL    HW117600   1.866   5.558   1.380
 5567SOL    HW217601   1.819   5.401   1.368
 5568SOL     OW17602   4.504   2.124   0.871
 5568SOL    HW117603   4.458   2.197   0.922
 5568SOL    HW217604   4.533   2.052   0.934
 5569SOL     OW17605   3.874   1.257   1.570
 5569SOL    HW117606   3.802   1.188   1.560
 5569SOL    HW217607   3.933   1.255   1.489
 5570SOL     OW17608   6.072   4.989   5.123
 5570SOL    HW117609   6.138   5.011   5.052
 5570SOL    HW217610   6.104   4.909   5.175
 5571SOL     OW17611   0.352   5.676   0.576
 5571SOL    HW117612   0.296   5.709   0.500
 5571SOL    HW217613   0.382   5.755   0.631
 5572SOL     OW17614   4.240   2.140   6.355
 5572SOL    HW117615   4.145   2.153   6.324
 5572SOL    HW217616   4.254   2.190   6.441
 5573SOL     OW17617   1.139   4.033   0.472
 5573SOL    HW117618   1.112   4.056   0.565
 5573SOL    HW217619   1.223   3.980   0.474
 5574SOL     OW17620   0.492   6.772   4.827
 5574SOL    HW117621   0.493   6.823   4.912
 5574SOL    HW217622   0.586   6.755   4.797
 5575SOL     OW17623   1.529   0.868   0.780
 5575SOL    HW117624   1.604   0.932   0.795
 5575SOL    HW217625   1.561   0.791   0.724
 5576SOL     OW17626   5.820   5.443   0.749
 5576SOL    HW117627   5.820   5.383   0.669
 5576SOL    HW217628   5.730   5.485   0.760
 5577SOL     OW17629   2.027   3.290   5.712
 5577SOL    HW117630   2.100   3.311   5.646
 5577SOL    HW217631   2.067   3.274   5.802
 5578SOL     OW17632   3.707   2.176   6.997
 5578SOL    HW117633   3.742   2.093   0.012
 5578SOL    HW217634   3.681   2.242   0.039
 5579SOL     OW17635   4.957   3.560   7.010
 5579SOL    HW117636   4.883   3.513   0.030
 5579SOL    HW217637   4.982   3.508   6.928
 5580SOL     OW17638   4.983   1.677   0.440
 5580SOL    HW117639   5.041   1.674   0.522
 5580SOL    HW217640   4.914   1.606   0.445
 5581SOL     OW17641   2.148   0.569   6.496
 5581SOL    HW117642   2.204   0.567   6.578
 5581SOL    HW217643   2.061   0.524   6.513
 5582SOL     OW17644   3.189   3.668   4.196
 5582SOL    HW117645   3.109   3.611   4.175
 5582SOL    HW217646   3.159   3.754   4.237
 5583SOL     OW17647   3.270   6.784   2.225
 5583SOL    HW117648   3.326   6.701   2.221
 5583SOL    HW217649   3.173   6.759   2.225
 5584SOL     OW17650   5.861   4.086   3.450
 5584SOL    HW117651   5.861   4.140   3.366
 5584SOL    HW217652   5.797   4.127   3.516
 5585SOL     OW17653   6.373   0.445   3.691
 5585SOL    HW117654   6.353   0.373   3.625
 5585SOL    HW217655   6.472   0.461   3.694
 5586SOL     OW17656   2.286   1.800   6.255
 5586SOL    HW117657   2.262   1.792   6.158
 5586SOL    HW217658   2.244   1.882   6.293
 5587SOL     OW17659   4.063   0.703   3.211
 5587SOL    HW117660   4.033   0.750   3.294
 5587SOL    HW217661   3.998   0.630   3.189
 5588SOL     OW17662   2.355   0.196   5.102
 5588SOL    HW117663   2.347   0.201   5.002
 5588SOL    HW217664   2.366   0.100   5.129
 5589SOL     OW17665   4.943   2.738   6.239
 5589SOL    HW117666   4.987   2.706   6.155
 5589SOL    HW217667   4.981   2.688   6.317
 5590SOL     OW17668   6.369   6.235   4.476
 5590SOL    HW117669   6.287   6.270   4.521
 5590SOL    HW217670   6.429   6.193   4.545
 5591SOL     OW17671   5.868   0.861   0.236
 5591SOL    HW117672   5.835   0.771   0.209
 5591SOL    HW217673   5.820   0.932   0.183
 5592SOL     OW17674   1.243   4.296   2.533
 5592SOL    HW117675   1.272   4.351   2.455
 5592SOL    HW217676   1.170   4.233   2.506
 5593SOL     OW17677   0.867   2.822   5.667
 5593SOL    HW117678   0.785   2.803   5.613
 5593SOL    HW217679   0.846   2.892   5.735
 5594SOL     OW17680   2.330   0.085   0.048
 5594SOL    HW117681   2.402   0.081   0.117
 5594SOL    HW217682   2.360   0.036   6.994
 5595SOL     OW17683   6.497   1.075   5.626
 5595SOL    HW117684   6.581   1.114   5.664
 5595SOL    HW217685   6.418   1.125   5.661
 5596SOL     OW17686   5.135   0.447   2.328
 5596SOL    HW117687   5.037   0.468   2.335
 5596SOL    HW217688   5.186   0.510   2.386
 5597SOL     OW17689   5.988   1.149   6.311
 5597SOL    HW117690   6.071   1.152   6.254
 5597SOL    HW217691   6.015   1.137   6.407
 5598SOL     OW17692   5.275   1.581   3.913
 5598SOL    HW117693   5.237   1.489   3.922
 5598SOL    HW217694   5.341   1.597   3.987
 5599SOL     OW17695   5.420   3.693   1.439
 5599SOL    HW117696   5.445   3.667   1.346
 5599SOL    HW217697   5.416   3.611   1.496
 5600SOL     OW17698   1.584   0.780   2.901
 5600SOL    HW117699   1.513   0.776   2.831
 5600SOL    HW217700   1.663   0.828   2.866
 5601SOL     OW17701   5.276   2.953   5.663
 5601SOL    HW117702   5.346   2.898   5.710
 5601SOL    HW217703   5.217   2.996   5.730
 5602SOL     OW17704   0.780   2.325   3.563
 5602SOL    HW117705   0.767   2.345   3.660
 5602SOL    HW217706   0.824   2.402   3.518
 5603SOL     OW17707   4.481   2.648   5.059
 5603SOL    HW117708   4.485   2.747   5.046
 5603SOL    HW217709   4.391   2.615   5.029
 5604SOL     OW17710   1.038   7.028   4.417
 5604SOL    HW117711   1.065   0.070   4.482
 5604SOL    HW217712   1.050   0.033   4.324
 5605SOL     OW17713   1.843   6.900   4.260
 5605SOL    HW117714   1.765   6.925   4.317
 5605SOL    HW217715   1.851   6.800   4.255
 5606SOL     OW17716   4.700   1.725   0.776
 5606SOL    HW117717   4.785   1.758   0.818
 5606SOL    HW217718   4.687   1.768   0.687
 5607SOL     OW17719   6.217   2.490   2.694
 5607SOL    HW117720   6.163   2.561   2.650
 5607SOL    HW217721   6.175   2.464   2.781
 5608SOL     OW17722   5.563   0.958   3.828
 5608SOL    HW117723   5.577   0.877   3.771
 5608SOL    HW217724   5.613   0.946   3.914
 5609SOL     OW17725   5.815   6.632   1.204
 5609SOL    HW117726   5.794   6.665   1.112
 5609SOL    HW217727   5.849   6.708   1.260
 5610SOL     OW17728   5.756   4.354   0.010
 5610SOL    HW117729   5.804   4.417   0.071
 5610SOL    HW217730   5.669   4.327   0.051
 5611SOL     OW17731   0.466   5.017   1.469
 5611SOL    HW117732   0.408   5.093   1.440
 5611SOL    HW217733   0.487   4.959   1.391
 5612SOL     OW17734   3.014   1.256   0.701
 5612SOL    HW117735   3.039   1.159   0.706
 5612SOL    HW217736   2.915   1.266   0.711
 5613SOL     OW17737   0.033   5.393   4.715
 5613SOL    HW117738   7.001   5.318   4.688
 5613SOL    HW217739   7.015   5.451   4.781
 5614SOL     OW17740   5.768   2.073   4.638
 5614SOL    HW117741   5.671   2.065   4.617
 5614SOL    HW217742   5.785   2.034   4.729
 5615SOL     OW17743   6.763   2.473   2.289
 5615SOL    HW117744   6.689   2.531   2.255
 5615SOL    HW217745   6.791   2.504   2.379
 5616SOL     OW17746   1.629   3.169   3.464
 5616SOL    HW117747   1.709   3.151   3.522
 5616SOL    HW217748   1.588   3.256   3.490
 5617SOL     OW17749   2.146   5.499   5.899
 5617SOL    HW117750   2.103   5.426   5.845
 5617SOL    HW217751   2.245   5.484   5.901
 5618SOL     OW17752   6.943   5.299   4.443
 5618SOL    HW117753   6.860   5.344   4.475
 5618SOL    HW217754   7.021   5.361   4.455
 5619SOL     OW17755   3.562   3.486   4.427
 5619SOL    HW117756   3.511   3.571   4.424
 5619SOL    HW217757   3.648   3.497   4.376
 5620SOL     OW17758   4.290   4.437   5.670
 5620SOL    HW117759   4.334   4.451   5.581
 5620SOL    HW217760   4.192   4.427   5.657
 5621SOL     OW17761   1.537   2.875   4.855
 5621SOL    HW117762   1.539   2.958   4.912
 5621SOL    HW217763   1.519   2.901   4.760
 5622SOL     OW17764   4.646   5.409   4.911
 5622SOL    HW117765   4.674   5.455   4.827
 5622SOL    HW217766   4.597   5.325   4.888
 5623SOL     OW17767   4.261   6.036   4.031
 5623SOL    HW117768   4.185   6.037   3.966
 5623SOL    HW217769   4.256   5.952   4.086
 5624SOL     OW17770   0.163   5.602   4.225
 5624SOL    HW117771   0.086   5.645   4.177
 5624SOL    HW217772   0.132   5.570   4.315
 5625SOL     OW17773   1.291   5.759   4.822
 5625SOL    HW117774   1.286   5.745   4.723
 5625SOL    HW217775   1.305   5.671   4.868
 5626SOL     OW17776   2.111   3.849   4.131
 5626SOL    HW117777   2.131   3.756   4.102
 5626SOL    HW217778   2.147   3.864   4.223
 5627SOL     OW17779   1.539   5.730   0.507
 5627SOL    HW117780   1.573   5.670   0.579
 5627SOL    HW217781   1.608   5.799   0.485
 5628SOL     OW17782   2.919   2.821   0.625
 5628SOL    HW117783   2.973   2.752   0.576
 5628SOL    HW217784   2.935   2.813   0.723
 5629SOL     OW17785   4.910   4.060   1.053
 5629SOL    HW117786   4.866   4.048   1.142
 5629SOL    HW217787   4.843   4.044   0.981
 5630SOL     OW17788   1.394   4.125   6.307
 5630SOL    HW117789   1.419   4.076   6.223
 5630SOL    HW217790   1.392   4.061   6.384
 5631SOL     OW17791   4.226   0.884   2.165
 5631SOL    HW117792   4.244   0.786   2.164
 5631SOL    HW217793   4.304   0.933   2.127
 5632SOL     OW17794   6.215   0.552   5.947
 5632SOL    HW117795   6.292   0.584   5.892
 5632SOL    HW217796   6.129   0.581   5.905
 5633SOL     OW17797   0.361   4.521   5.668
 5633SOL    HW117798   0.438   4.579   5.693
 5633SOL    HW217799   0.393   4.438   5.623
 5634SOL     OW17800   2.856   5.964   6.026
 5634SOL    HW117801   2.804   5.909   5.961
 5634SOL    HW217802   2.882   5.908   6.105
 5635SOL     OW17803   2.893   0.033   6.426
 5635SOL    HW117804   2.813   0.032   6.486
 5635SOL    HW217805   2.931   6.969   6.420
 5636SOL     OW17806   6.371   0.915   5.441
 5636SOL    HW117807   6.418   0.960   5.517
 5636SOL    HW217808   6.341   0.983   5.375
 5637SOL     OW17809   5.040   6.247   4.832
 5637SOL    HW117810   5.063   6.184   4.906
 5637SOL    HW217811   5.059   6.202   4.744
 5638SOL     OW17812   5.299   5.967   1.085
 5638SOL    HW117813   5.330   5.872   1.086
 5638SOL    HW217814   5.225   5.978   1.151
 5639SOL     OW17815   1.547   0.130   1.547
 5639SOL    HW117816   1.637   0.087   1.550
 5639SOL    HW217817   1.550   0.209   1.486
 5640SOL     OW17818   2.489   6.109   3.038
 5640SOL    HW117819   2.468   6.091   2.942
 5640SOL    HW217820   2.525   6.202   3.048
 5641SOL     OW17821   1.546   5.312   4.715
 5641SOL    HW117822   1.453   5.280   4.736
 5641SOL    HW217823   1.613   5.254   4.762
 5642SOL     OW17824   0.885   4.914   6.274
 5642SOL    HW117825   0.814   4.844   6.277
 5642SOL    HW217826   0.876   4.967   6.190
 5643SOL     OW17827   3.816   2.172   4.616
 5643SOL    HW117828   3.748   2.172   4.542
 5643SOL    HW217829   3.908   2.177   4.576
 5644SOL     OW17830   5.278   1.541   4.902
 5644SOL    HW117831   5.186   1.547   4.863
 5644SOL    HW217832   5.343   1.515   4.831
 5645SOL     OW17833   5.019   5.147   1.980
 5645SOL    HW117834   5.096   5.087   1.998
 5645SOL    HW217835   4.942   5.123   2.040
 5646SOL     OW17836   0.064   5.839   3.858
 5646SOL    HW117837   7.026   5.847   3.784
 5646SOL    HW217838   0.042   5.905   3.930
 5647SOL     OW17839   6.510   5.862   6.902
 5647SOL    HW117840   6.604   5.830   6.885
 5647SOL    HW217841   6.506   5.906   6.992
 5648SOL     OW17842   2.074   1.644   3.001
 5648SOL    HW117843   2.163   1.606   3.026
 5648SOL    HW217844   2.057   1.728   3.052
 5649SOL     OW17845   1.873   0.548   4.732
 5649SOL    HW117846   1.777   0.571   4.714
 5649SOL    HW217847   1.915   0.512   4.648
 5650SOL     OW17848   0.113   4.879   1.030
 5650SOL    HW117849   0.045   4.892   0.958
 5650SOL    HW217850   0.067   4.881   1.119
 5651SOL     OW17851   0.292   1.697   1.756
 5651SOL    HW117852   0.363   1.711   1.825
 5651SOL    HW217853   0.282   1.780   1.701
 5652SOL     OW17854   5.353   5.750   1.580
 5652SOL    HW117855   5.400   5.835   1.601
 5652SOL    HW217856   5.414   5.673   1.597
 5653SOL     OW17857   6.627   6.084   5.920
 5653SOL    HW117858   6.585   6.156   5.975
 5653SOL    HW217859   6.637   6.001   5.975
 5654SOL     OW17860   0.280   0.306   6.045
 5654SOL    HW117861   0.329   0.390   6.019
 5654SOL    HW217862   0.195   0.330   6.091
 5655SOL     OW17863   1.285   3.437   3.770
 5655SOL    HW117864   1.205   3.492   3.795
 5655SOL    HW217865   1.332   3.406   3.853
 5656SOL     OW17866   3.000   4.131   0.846
 5656SOL    HW117867   3.021   4.130   0.944
 5656SOL    HW217868   2.914   4.180   0.830
 5657SOL     OW17869   4.797   6.907   1.347
 5657SOL    HW117870   4.741   6.827   1.371
 5657SOL    HW217871   4.806   6.966   1.427
 5658SOL     OW17872   2.991   6.736   5.583
 5658SOL    HW117873   3.012   6.781   5.496
 5658SOL    HW217874   3.075   6.728   5.637
 5659SOL     OW17875   3.055   3.073   2.861
 5659SOL    HW117876   3.015   3.163   2.842
 5659SOL    HW217877   3.008   3.032   2.939
 5660SOL     OW17878   5.601   0.220   0.603
 5660SOL    HW117879   5.652   0.134   0.594
 5660SOL    HW217880   5.658   0.288   0.649
 5661SOL     OW17881   6.977   6.394   5.084
 5661SOL    HW117882   0.028   6.406   5.025
 5661SOL    HW217883   7.004   6.411   5.179
 5662SOL     OW17884   2.384   4.327   3.814
 5662SOL    HW117885   2.460   4.373   3.768
 5662SOL    HW217886   2.384   4.230   3.790
 5663SOL     OW17887   1.106   4.177   0.254
 5663SOL    HW117888   1.094   4.100   0.317
 5663SOL    HW217889   1.020   4.193   0.204
 5664SOL     OW17890   0.049   4.815   3.213
 5664SOL    HW117891   0.024   4.727   3.173
 5664SOL    HW217892   0.148   4.824   3.217
 5665SOL     OW17893   1.585   2.378   6.432
 5665SOL    HW117894   1.620   2.469   6.412
 5665SOL    HW217895   1.491   2.370   6.398
 5666SOL     OW17896   4.302   5.674   0.890
 5666SOL    HW117897   4.245   5.630   0.820
 5666SOL    HW217898   4.385   5.620   0.902
 5667SOL     OW17899   0.319   4.871   3.186
 5667SOL    HW117900   0.338   4.776   3.208
 5667SOL    HW217901   0.404   4.917   3.160
 5668SOL     OW17902   4.622   1.448   6.574
 5668SOL    HW117903   4.551   1.508   6.539
 5668SOL    HW217904   4.694   1.438   6.505
 5669SOL     OW17905   0.195   5.088   5.584
 5669SOL    HW117906   0.216   5.007   5.640
 5669SOL    HW217907   0.188   5.062   5.488
 5670SOL     OW17908   0.294   3.248   3.347
 5670SOL    HW117909   0.285   3.326   3.408
 5670SOL    HW217910   0.350   3.273   3.268
 5671SOL     OW17911   2.318   6.283   6.079
 5671SOL    HW117912   2.256   6.339   6.134
 5671SOL    HW217913   2.338   6.331   5.994
 5672SOL     OW17914   4.900   3.727   6.076
 5672SOL    HW117915   4.889   3.789   6.154
 5672SOL    HW217916   4.829   3.656   6.080
 5673SOL     OW17917   0.386   0.289   2.660
 5673SOL    HW117918   0.310   0.322   2.716
 5673SOL    HW217919   0.350   0.237   2.583
 5674SOL     OW17920   0.334   3.752   1.664
 5674SOL    HW117921   0.358   3.823   1.599
 5674SOL    HW217922   0.237   3.761   1.689
 5675SOL     OW17923   4.374   2.735   5.385
 5675SOL    HW117924   4.412   2.780   5.466
 5675SOL    HW217925   4.281   2.768   5.369
 5676SOL     OW17926   1.822   0.506   1.068
 5676SOL    HW117927   1.734   0.493   1.113
 5676SOL    HW217928   1.813   0.485   0.970
 5677SOL     OW17929   6.777   2.154   3.116
 5677SOL    HW117930   6.771   2.223   3.189
 5677SOL    HW217931   6.691   2.153   3.064
 5678SOL     OW17932   3.489   6.395   2.723
 5678SOL    HW117933   3.587   6.375   2.725
 5678SOL    HW217934   3.443   6.343   2.796
 5679SOL     OW17935   1.397   6.906   4.826
 5679SOL    HW117936   1.377   6.817   4.865
 5679SOL    HW217937   1.338   6.923   4.747
 5680SOL     OW17938   1.923   5.562   6.806
 5680SOL    HW117939   1.832   5.588   6.772
 5680SOL    HW217940   1.948   5.620   6.883
 5681SOL     OW17941   0.556   3.123   6.533
 5681SOL    HW117942   0.520   3.186   6.465
 5681SOL    HW217943   0.636   3.075   6.496
 5682SOL     OW17944   1.587   3.098   5.489
 5682SOL    HW117945   1.684   3.119   5.477
 5682SOL    HW217946   1.567   3.010   5.446
 5683SOL     OW17947   3.777   2.385   6.200
 5683SOL    HW117948   3.813   2.449   6.268
 5683SOL    HW217949   3.853   2.340   6.153
 5684SOL     OW17950   3.938   3.287   4.442
 5684SOL    HW117951   3.928   3.192   4.413
 5684SOL    HW217952   3.891   3.300   4.530
 5685SOL     OW17953   0.603   4.881   2.049
 5685SOL    HW117954   0.561   4.938   2.119
 5685SOL    HW217955   0.537   4.812   2.017
 5686SOL     OW17956   3.640   0.015   0.464
 5686SOL    HW117957   3.563   6.984   0.488
 5686SOL    HW217958   3.611   0.079   0.394
 5687SOL     OW17959   6.311   4.165   4.826
 5687SOL    HW117960   6.401   4.185   4.788
 5687SOL    HW217961   6.264   4.250   4.848
 5688SOL     OW17962   6.330   1.902   0.850
 5688SOL    HW117963   6.388   1.947   0.918
 5688SOL    HW217964   6.321   1.805   0.874
 5689SOL     OW17965   4.469   1.569   0.540
 5689SOL    HW117966   4.470   1.591   0.637
 5689SOL    HW217967   4.439   1.650   0.488
 5690SOL     OW17968   3.374   6.097   0.621
 5690SOL    HW117969   3.385   6.158   0.699
 5690SOL    HW217970   3.406   6.142   0.538
 5691SOL     OW17971   2.761   6.210   2.254
 5691SOL    HW117972   2.684   6.149   2.236
 5691SOL    HW217973   2.751   6.293   2.200
 5692SOL     OW17974   6.407   1.956   6.432
 5692SOL    HW117975   6.370   2.032   6.485
 5692SOL    HW217976   6.486   1.987   6.379
 5693SOL     OW17977   5.000   2.703   2.342
 5693SOL    HW117978   4.959   2.701   2.433
 5693SOL    HW217979   4.941   2.756   2.281
 5694SOL     OW17980   0.522   1.230   3.477
 5694SOL    HW117981   0.467   1.297   3.528
 5694SOL    HW217982   0.470   1.200   3.397
 5695SOL     OW17983   1.168   2.288   3.329
 5695SOL    HW117984   1.250   2.266   3.383
 5695SOL    HW217985   1.091   2.235   3.363
 5696SOL     OW17986   3.162   1.239   4.797
 5696SOL    HW117987   3.210   1.275   4.877
 5696SOL    HW217988   3.227   1.193   4.737
 5697SOL     OW17989   6.839   2.284   1.197
 5697SOL    HW117990   6.907   2.213   1.214
 5697SOL    HW217991   6.865   2.367   1.246
 5698SOL     OW17992   0.223   2.259   2.230
 5698SOL    HW117993   0.157   2.330   2.256
 5698SOL    HW217994   0.247   2.271   2.134
 5699SOL     OW17995   6.080   1.927   3.993
 5699SOL    HW117996   6.036   1.838   3.986
 5699SOL    HW217997   6.179   1.917   3.981
 5700SOL     OW17998   0.518   6.595   4.530
 5700SOL    HW117999   0.600   6.638   4.567
 5700SOL    HW218000   0.532   6.572   4.434
 5701SOL     OW18001   0.350   5.660   3.409
 5701SOL    HW118002   0.435   5.703   3.376
 5701SOL    HW218003   0.287   5.732   3.438
 5702SOL     OW18004   1.958   6.969   6.322
 5702SOL    HW118005   1.974   6.874   6.350
 5702SOL    HW218006   1.966   6.975   6.222
 5703SOL     OW18007   4.989   5.124   6.761
 5703SOL    HW118008   4.905   5.070   6.752
 5703SOL    HW218009   5.025   5.114   6.853
 5704SOL     OW18010   4.255   5.693   3.121
 5704SOL    HW118011   4.350   5.681   3.093
 5704SOL    HW218012   4.225   5.786   3.102
 5705SOL     OW18013   6.211   0.990   0.777
 5705SOL    HW118014   6.285   1.010   0.842
 5705SOL    HW218015   6.123   1.005   0.822
 5706SOL     OW18016   1.595   1.550   0.060
 5706SOL    HW118017   1.521   1.527   0.123
 5706SOL    HW218018   1.571   1.630   0.006
 5707SOL     OW18019   1.125   0.041   6.637
 5707SOL    HW118020   1.142   6.973   6.620
 5707SOL    HW218021   1.033   0.065   6.606
 5708SOL     OW18022   5.383   6.884   2.153
 5708SOL    HW118023   5.465   6.904   2.206
 5708SOL    HW218024   5.301   6.909   2.205
 5709SOL     OW18025   0.464   6.397   3.098
 5709SOL    HW118026   0.497   6.404   3.192
 5709SOL    HW218027   0.530   6.438   3.035
 5710SOL     OW18028   2.630   3.606   5.710
 5710SOL    HW118029   2.722   3.567   5.711
 5710SOL    HW218030   2.621   3.670   5.634
 5711SOL     OW18031   4.711   0.575   4.076
 5711SOL    HW118032   4.679   0.500   4.018
 5711SOL    HW218033   4.792   0.545   4.127
 5712SOL     OW18034   0.560   0.028   5.410
 5712SOL    HW118035   0.588   0.124   5.405
 5712SOL    HW218036   0.630   7.004   5.458
 5713SOL     OW18037   0.646   2.250   1.413
 5713SOL    HW118038   0.721   2.282   1.471
 5713SOL    HW218039   0.577   2.205   1.469
 5714SOL     OW18040   1.404   6.556   6.817
 5714SOL    HW118041   1.462   6.635   6.800
 5714SOL    HW218042   1.400   6.538   6.916
 5715SOL     OW18043   1.084   6.099   3.386
 5715SOL    HW118044   1.015   6.026   3.391
 5715SOL    HW218045   1.144   6.094   3.466
 5716SOL     OW18046   1.083   3.995   5.508
 5716SOL    HW118047   1.176   4.017   5.480
 5716SOL    HW218048   1.077   3.991   5.607
 5717SOL     OW18049   1.757   4.792   0.488
 5717SOL    HW118050   1.751   4.802   0.587
 5717SOL    HW218051   1.824   4.858   0.452
 5718SOL     OW18052   1.486   4.521   6.988
 5718SOL    HW118053   1.470   4.553   6.894
 5718SOL    HW218054   1.407   4.543   0.016
 5719SOL     OW18055   2.921   1.083   5.728
 5719SOL    HW118056   2.887   1.167   5.686
 5719SOL    HW218057   2.931   1.012   5.659
 5720SOL     OW18058   0.451   5.114   4.941
 5720SOL    HW118059   0.428   5.017   4.926
 5720SOL    HW218060   0.371   5.170   4.919
 5721SOL     OW18061   0.872   3.335   0.171
 5721SOL    HW118062   0.940   3.370   0.106
 5721SOL    HW218063   0.841   3.245   0.142
 5722SOL     OW18064   5.368   0.826   5.034
 5722SOL    HW118065   5.378   0.805   5.132
 5722SOL    HW218066   5.346   0.741   4.985
 5723SOL     OW18067   4.441   4.917   0.886
 5723SOL    HW118068   4.386   4.927   0.803
 5723SOL    HW218069   4.437   5.002   0.938
 5724SOL     OW18070   4.172   2.367   5.871
 5724SOL    HW118071   4.260   2.412   5.888
 5724SOL    HW218072   4.112   2.429   5.820
 5725SOL     OW18073   4.981   5.685   3.403
 5725SOL    HW118074   4.971   5.688   3.304
 5725SOL    HW218075   5.045   5.756   3.432
 5726SOL     OW18076   6.530   3.684   4.586
 5726SOL    HW118077   6.452   3.630   4.553
 5726SOL    HW218078   6.615   3.642   4.554
 5727SOL     OW18079   5.665   3.326   3.139
 5727SOL    HW118080   5.656   3.264   3.217
 5727SOL    HW218081   5.578   3.329   3.089
 5728SOL     OW18082   5.619   1.296   6.279
 5728SOL    HW118083   5.677   1.362   6.230
 5728SOL    HW218084   5.553   1.346   6.336
 5729SOL     OW18085   0.464   1.687   0.873
 5729SOL    HW118086   0.451   1.700   0.972
 5729SOL    HW218087   0.484   1.591   0.855
 5730SOL     OW18088   3.799   5.499   5.615
 5730SOL    HW118089   3.766   5.411   5.579
 5730SOL    HW218090   3.836   5.485   5.707
 5731SOL     OW18091   1.218   6.600   3.967
 5731SOL    HW118092   1.308   6.578   3.930
 5731SOL    HW218093   1.149   6.589   3.895
 5732SOL     OW18094   5.962   4.835   4.289
 5732SOL    HW118095   5.946   4.816   4.192
 5732SOL    HW218096   5.946   4.932   4.307
 5733SOL     OW18097   3.592   0.990   6.450
 5733SOL    HW118098   3.639   0.964   6.366
 5733SOL    HW218099   3.660   1.006   6.522
 5734SOL     OW18100   1.241   0.257   5.228
 5734SOL    HW118101   1.218   0.160   5.225
 5734SOL    HW218102   1.157   0.311   5.225
 5735SOL     OW18103   3.755   1.392   2.050
 5735SOL    HW118104   3.832   1.417   2.109
 5735SOL    HW218105   3.770   1.300   2.014
 5736SOL     OW18106   5.311   4.777   6.298
 5736SOL    HW118107   5.238   4.837   6.333
 5736SOL    HW218108   5.273   4.688   6.275
 5737SOL     OW18109   5.127   6.429   0.953
 5737SOL    HW118110   5.155   6.340   0.918
 5737SOL    HW218111   5.182   6.452   1.034
 5738SOL     OW18112   3.475   1.271   6.562
 5738SOL    HW118113   3.451   1.290   6.657
 5738SOL    HW218114   3.515   1.353   6.521
 5739SOL     OW18115   1.681   6.861   5.650
 5739SOL    HW118116   1.740   6.788   5.616
 5739SOL    HW218117   1.634   6.831   5.732
 5740SOL     OW18118   4.909   3.877   0.797
 5740SOL    HW118119   4.937   3.808   0.864
 5740SOL    HW218120   4.947   3.853   0.708
 5741SOL     OW18121   0.542   3.799   3.640
 5741SOL    HW118122   0.466   3.789   3.576
 5741SOL    HW218123   0.510   3.779   3.733
 5742SOL     OW18124   3.842   6.962   3.842
 5742SOL    HW118125   3.857   0.004   3.772
 5742SOL    HW218126   3.926   6.951   3.896
 5743SOL     OW18127   3.475   4.633   6.093
 5743SOL    HW118128   3.514   4.595   6.009
 5743SOL    HW218129   3.536   4.615   6.170
 5744SOL     OW18130   6.462   0.908   2.966
 5744SOL    HW118131   6.365   0.931   2.966
 5744SOL    HW218132   6.506   0.948   3.046
 5745SOL     OW18133   2.570   1.824   3.674
 5745SOL    HW118134   2.583   1.743   3.731
 5745SOL    HW218135   2.546   1.796   3.581
 5746SOL     OW18136   4.069   0.312   3.513
 5746SOL    HW118137   4.164   0.296   3.538
 5746SOL    HW218138   4.010   0.289   3.591
 5747SOL     OW18139   0.729   6.100   2.203
 5747SOL    HW118140   0.755   6.136   2.293
 5747SOL    HW218141   0.804   6.046   2.166
 5748SOL     OW18142   0.919   6.858   0.692
 5748SOL    HW118143   0.938   6.809   0.777
 5748SOL    HW218144   0.825   6.839   0.664
 5749SOL     OW18145   2.150   6.761   5.089
 5749SOL    HW118146   2.059   6.729   5.062
 5749SOL    HW218147   2.166   6.852   5.051
 5750SOL     OW18148   6.399   4.637   5.476
 5750SOL    HW118149   6.366   4.676   5.562
 5750SOL    HW218150   6.483   4.684   5.448
 5751SOL     OW18151   1.385   3.626   4.746
 5751SOL    HW118152   1.328   3.619   4.664
 5751SOL    HW218153   1.479   3.599   4.724
 5752SOL     OW18154   5.830   0.198   1.424
 5752SOL    HW118155   5.824   0.126   1.493
 5752SOL    HW218156   5.925   0.228   1.416
 5753SOL     OW18157   3.149   4.031   4.886
 5753SOL    HW118158   3.081   4.045   4.958
 5753SOL    HW218159   3.106   4.047   4.797
 5754SOL     OW18160   1.102   6.216   2.252
 5754SOL    HW118161   1.159   6.217   2.334
 5754SOL    HW218162   1.117   6.300   2.200
 5755SOL     OW18163   1.582   1.986   6.121
 5755SOL    HW118164   1.588   2.086   6.124
 5755SOL    HW218165   1.658   1.947   6.173
 5756SOL     OW18166   6.931   0.384   2.494
 5756SOL    HW118167   6.908   0.289   2.473
 5756SOL    HW218168   6.923   0.400   2.593
 5757SOL     OW18169   0.748   5.504   3.969
 5757SOL    HW118170   0.730   5.578   3.905
 5757SOL    HW218171   0.720   5.531   4.061
 5758SOL     OW18172   2.296   0.298   3.583
 5758SOL    HW118173   2.325   0.381   3.535
 5758SOL    HW218174   2.308   0.219   3.523
 5759SOL     OW18175   4.789   6.975   1.906
 5759SOL    HW118176   4.758   6.887   1.942
 5759SOL    HW218177   4.859   7.013   1.966
 5760SOL     OW18178   6.580   3.011   2.104
 5760SOL    HW118179   6.576   2.942   2.032
 5760SOL    HW218180   6.671   3.012   2.143
 5761SOL     OW18181   5.224   5.950   4.793
 5761SOL    HW118182   5.252   6.029   4.847
 5761SOL    HW218183   5.165   5.891   4.848
 5762SOL     OW18184   4.429   4.453   0.405
 5762SOL    HW118185   4.482   4.386   0.352
 5762SOL    HW218186   4.383   4.516   0.342
 5763SOL     OW18187   5.543   6.196   0.524
 5763SOL    HW118188   5.573   6.176   0.617
 5763SOL    HW218189   5.601   6.147   0.458
 5764SOL     OW18190   4.345   5.626   3.550
 5764SOL    HW118191   4.346   5.726   3.560
 5764SOL    HW218192   4.290   5.586   3.624
 5765SOL     OW18193   6.677   3.742   0.655
 5765SOL    HW118194   6.772   3.740   0.687
 5765SOL    HW218195   6.616   3.728   0.733
 5766SOL     OW18196   2.156   2.180   4.560
 5766SOL    HW118197   2.187   2.230   4.480
 5766SOL    HW218198   2.196   2.221   4.642
 5767SOL     OW18199   2.754   0.178   6.824
 5767SOL    HW118200   2.738   0.083   6.794
 5767SOL    HW218201   2.666   0.222   6.841
 5768SOL     OW18202   6.808   6.698   3.607
 5768SOL    HW118203   6.778   6.705   3.512
 5768SOL    HW218204   6.829   6.602   3.628
 5769SOL     OW18205   3.077   5.665   5.091
 5769SOL    HW118206   3.070   5.694   5.187
 5769SOL    HW218207   3.013   5.590   5.074
 5770SOL     OW18208   0.225   6.424   6.754
 5770SOL    HW118209   0.248   6.384   6.665
 5770SOL    HW218210   0.155   6.369   6.798
 5771SOL     OW18211   1.892   0.217   4.223
 5771SOL    HW118212   1.913   0.314   4.234
 5771SOL    HW218213   1.869   0.177   4.312
 5772SOL     OW18214   4.442   1.269   1.264
 5772SOL    HW118215   4.435   1.171   1.281
 5772SOL    HW218216   4.446   1.318   1.350
 5773SOL     OW18217   4.149   0.637   2.683
 5773SOL    HW118218   4.136   0.550   2.729
 5773SOL    HW218219   4.069   0.656   2.625
 5774SOL     OW18220   1.746   0.676   4.408
 5774SOL    HW118221   1.766   0.745   4.478
 5774SOL    HW218222   1.831   0.646   4.365
 5775SOL     OW18223   0.921   6.606   3.010
 5775SOL    HW118224   0.879   6.696   2.998
 5775SOL    HW218225   1.000   6.613   3.070
 5776SOL     OW18226   1.400   0.322   3.377
 5776SOL    HW118227   1.455   0.399   3.408
 5776SOL    HW218228   1.457   0.239   3.375
 5777SOL     OW18229   0.966   0.305   3.777
 5777SOL    HW118230   1.032   0.369   3.816
 5777SOL    HW218231   1.014   0.231   3.730
 5778SOL     OW18232   1.888   0.692   0.111
 5778SOL    HW118233   1.832   0.700   0.193
 5778SOL    HW218234   1.830   0.668   0.033
 5779SOL     OW18235   4.358   2.430   0.267
 5779SOL    HW118236   4.310   2.437   0.355
 5779SOL    HW218237   4.432   2.496   0.264
 5780SOL     OW18238   5.065   6.539   4.500
 5780SOL    HW118239   4.997   6.497   4.560
 5780SOL    HW218240   5.064   6.494   4.410
 5781SOL     OW18241   6.249   4.637   4.370
 5781SOL    HW118242   6.317   4.709   4.358
 5781SOL    HW218243   6.197   4.653   4.454
 5782SOL     OW18244   1.250   1.598   0.420
 5782SOL    HW118245   1.254   1.668   0.349
 5782SOL    HW218246   1.260   1.641   0.510
 5783SOL     OW18247   0.946   0.613   2.460
 5783SOL    HW118248   1.038   0.644   2.436
 5783SOL    HW218249   0.894   0.690   2.495
 5784SOL     OW18250   0.934   6.525   5.895
 5784SOL    HW118251   0.905   6.532   5.991
 5784SOL    HW218252   0.868   6.471   5.844
 5785SOL     OW18253   1.623   1.916   0.202
 5785SOL    HW118254   1.606   1.956   0.292
 5785SOL    HW218255   1.546   1.933   0.142
 5786SOL     OW18256   6.801   4.483   0.637
 5786SOL    HW118257   6.724   4.506   0.696
 5786SOL    HW218258   6.768   4.467   0.544
 5787SOL     OW18259   2.201   2.433   5.164
 5787SOL    HW118260   2.226   2.523   5.128
 5787SOL    HW218261   2.153   2.381   5.094
 5788SOL     OW18262   3.021   1.497   2.419
 5788SOL    HW118263   3.062   1.584   2.389
 5788SOL    HW218264   2.948   1.472   2.356
 5789SOL     OW18265   3.356   4.317   6.725
 5789SOL    HW118266   3.304   4.396   6.692
 5789SOL    HW218267   3.450   4.344   6.744
 5790SOL     OW18268   1.810   3.898   4.216
 5790SOL    HW118269   1.848   3.871   4.305
 5790SOL    HW218270   1.884   3.925   4.155
 5791SOL     OW18271   4.150   0.504   1.991
 5791SOL    HW118272   4.236   0.552   2.004
 5791SOL    HW218273   4.112   0.526   1.902
 5792SOL     OW18274   6.865   2.782   2.572
 5792SOL    HW118275   6.814   2.860   2.535
 5792SOL    HW218276   6.905   2.808   2.660
 5793SOL     OW18277   5.674   0.639   3.866
 5793SOL    HW118278   5.623   0.645   3.952
 5793SOL    HW218279   5.615   0.664   3.790
 5794SOL     OW18280   3.909   2.204   0.961
 5794SOL    HW118281   3.919   2.130   1.029
 5794SOL    HW218282   3.821   2.249   0.973
 5795SOL     OW18283   6.298   5.768   6.453
 5795SOL    HW118284   6.307   5.778   6.552
 5795SOL    HW218285   6.335   5.680   6.425
 5796SOL     OW18286   3.867   0.649   6.839
 5796SOL    HW118287   3.948   0.708   6.832
 5796SOL    HW218288   3.896   0.554   6.843
 5797SOL     OW18289   4.565   1.632   5.285
 5797SOL    HW118290   4.536   1.727   5.293
 5797SOL    HW218291   4.494   1.572   5.322
 5798SOL     OW18292   0.674   4.841   4.849
 5798SOL    HW118293   0.653   4.743   4.858
 5798SOL    HW218294   0.592   4.891   4.822
 5799SOL     OW18295   5.592   1.408   3.562
 5799SOL    HW118296   5.530   1.470   3.513
 5799SOL    HW218297   5.562   1.314   3.549
 5800SOL     OW18298   5.679   6.098   0.869
 5800SOL    HW118299   5.745   6.118   0.941
 5800SOL    HW218300   5.610   6.170   0.867
 5801SOL     OW18301   1.489   2.384   4.146
 5801SOL    HW118302   1.417   2.320   4.119
 5801SOL    HW218303   1.541   2.346   4.222
 5802SOL     OW18304   0.853   4.315   0.834
 5802SOL    HW118305   0.917   4.391   0.827
 5802SOL    HW218306   0.761   4.346   0.812
 5803SOL     OW18307   1.270   4.542   1.942
 5803SOL    HW118308   1.284   4.476   1.869
 5803SOL    HW218309   1.342   4.531   2.011
 5804SOL     OW18310   0.018   5.014   4.117
 5804SOL    HW118311   0.043   5.064   4.034
 5804SOL    HW218312   0.074   5.046   4.194
 5805SOL     OW18313   2.611   3.222   5.936
 5805SOL    HW118314   2.677   3.244   6.007
 5805SOL    HW218315   2.621   3.125   5.910
 5806SOL     OW18316   6.765   6.136   5.680
 5806SOL    HW118317   6.736   6.229   5.655
 5806SOL    HW218318   6.712   6.105   5.759
 5807SOL     OW18319   1.062   3.788   1.957
 5807SOL    HW118320   1.005   3.715   1.920
 5807SOL    HW218321   1.156   3.778   1.923
 5808SOL     OW18322   5.903   4.377   3.926
 5808SOL    HW118323   5.963   4.298   3.911
 5808SOL    HW218324   5.928   4.424   4.010
 5809SOL     OW18325   7.012   1.961   4.703
 5809SOL    HW118326   6.947   1.993   4.772
 5809SOL    HW218327   6.970   1.965   4.613
 5810SOL     OW18328   3.831   1.337   3.926
 5810SOL    HW118329   3.759   1.401   3.899
 5810SOL    HW218330   3.836   1.262   3.860
 5811SOL     OW18331   3.000   0.074   5.707
 5811SOL    HW118332   3.089   0.118   5.699
 5811SOL    HW218333   2.968   0.047   5.617
 5812SOL     OW18334   5.880   1.291   4.177
 5812SOL    HW118335   5.860   1.255   4.268
 5812SOL    HW218336   5.857   1.389   4.175
 5813SOL     OW18337   1.616   1.430   0.674
 5813SOL    HW118338   1.579   1.434   0.581
 5813SOL    HW218339   1.593   1.514   0.723
 5814SOL     OW18340   6.539   4.857   1.080
 5814SOL    HW118341   6.464   4.842   1.017
 5814SOL    HW218342   6.506   4.907   1.160
 5815SOL     OW18343   4.550   2.509   4.049
 5815SOL    HW118344   4.502   2.495   3.962
 5815SOL    HW218345   4.604   2.427   4.070
 5816SOL     OW18346   4.842   5.865   0.250
 5816SOL    HW118347   4.925   5.917   0.228
 5816SOL    HW218348   4.864   5.768   0.254
 5817SOL     OW18349   5.583   3.447   5.870
 5817SOL    HW118350   5.546   3.400   5.789
 5817SOL    HW218351   5.558   3.395   5.952
 5818SOL     OW18352   6.396   5.795   4.717
 5818SOL    HW118353   6.491   5.788   4.685
 5818SOL    HW218354   6.344   5.853   4.655
 5819SOL     OW18355   4.246   6.607   6.301
 5819SOL    HW118356   4.161   6.651   6.329
 5819SOL    HW218357   4.265   6.529   6.360
 5820SOL     OW18358   4.530   6.076   3.928
 5820SOL    HW118359   4.503   5.991   3.883
 5820SOL    HW218360   4.448   6.123   3.962
 5821SOL     OW18361   0.258   0.055   2.538
 5821SOL    HW118362   0.207   0.077   2.455
 5821SOL    HW218363   0.231   6.994   2.571
 5822SOL     OW18364   0.385   2.643   2.512
 5822SOL    HW118365   0.469   2.623   2.561
 5822SOL    HW218366   0.306   2.632   2.573
 5823SOL     OW18367   0.597   1.259   5.995
 5823SOL    HW118368   0.630   1.244   6.088
 5823SOL    HW218369   0.672   1.245   5.931
 5824SOL     OW18370   6.683   5.228   2.390
 5824SOL    HW118371   6.769   5.232   2.441
 5824SOL    HW218372   6.676   5.308   2.330
 5825SOL     OW18373   2.268   2.224   5.602
 5825SOL    HW118374   2.178   2.258   5.576
 5825SOL    HW218375   2.337   2.262   5.540
 5826SOL     OW18376   6.879   5.312   5.029
 5826SOL    HW118377   6.882   5.382   4.958
 5826SOL    HW218378   6.966   5.311   5.079
 5827SOL     OW18379   1.970   4.703   4.896
 5827SOL    HW118380   2.056   4.653   4.886
 5827SOL    HW218381   1.893   4.641   4.883
 5828SOL     OW18382   6.782   2.789   1.491
 5828SOL    HW118383   6.876   2.822   1.480
 5828SOL    HW218384   6.770   2.753   1.584
 5829SOL     OW18385   2.457   1.570   3.101
 5829SOL    HW118386   2.480   1.502   3.031
 5829SOL    HW218387   2.449   1.660   3.059
 5830SOL     OW18388   4.720   0.072   5.544
 5830SOL    HW118389   4.624   0.077   5.517
 5830SOL    HW218390   4.732   7.028   5.612
 5831SOL     OW18391   6.950   0.359   4.180
 5831SOL    HW118392   6.880   0.356   4.108
 5831SOL    HW218393   6.909   0.330   4.267
 5832SOL     OW18394   3.903   4.481   5.902
 5832SOL    HW118395   3.907   4.539   5.984
 5832SOL    HW218396   3.814   4.433   5.900
 5833SOL     OW18397   4.065   3.255   5.102
 5833SOL    HW118398   4.082   3.225   5.008
 5833SOL    HW218399   4.143   3.310   5.134
 5834SOL     OW18400   6.293   3.102   0.395
 5834SOL    HW118401   6.293   3.020   0.337
 5834SOL    HW218402   6.262   3.077   0.487
 5835SOL     OW18403   4.991   3.548   3.524
 5835SOL    HW118404   5.087   3.554   3.551
 5835SOL    HW218405   4.933   3.542   3.606
 5836SOL     OW18406   2.752   6.642   2.582
 5836SOL    HW118407   2.705   6.604   2.662
 5836SOL    HW218408   2.702   6.616   2.499
 5837SOL     OW18409   4.410   5.111   5.781
 5837SOL    HW118410   4.474   5.084   5.853
 5837SOL    HW218411   4.458   5.170   5.715
 5838SOL     OW18412   2.885   1.579   5.875
 5838SOL    HW118413   2.904   1.674   5.851
 5838SOL    HW218414   2.814   1.576   5.945
 5839SOL     OW18415   0.155   1.958   2.930
 5839SOL    HW118416   0.223   1.946   3.002
 5839SOL    HW218417   0.150   1.874   2.875
 5840SOL     OW18418   1.013   5.359   6.627
 5840SOL    HW118419   0.976   5.435   6.681
 5840SOL    HW218420   0.954   5.279   6.637
 5841SOL     OW18421   5.174   1.565   2.461
 5841SOL    HW118422   5.217   1.591   2.548
 5841SOL    HW218423   5.074   1.566   2.472
 5842SOL     OW18424   4.882   3.061   1.337
 5842SOL    HW118425   4.950   3.134   1.338
 5842SOL    HW218426   4.896   3.000   1.415
 5843SOL     OW18427   2.108   3.904   2.265
 5843SOL    HW118428   2.075   3.810   2.268
 5843SOL    HW218429   2.032   3.966   2.282
 5844SOL     OW18430   0.864   0.109   5.536
 5844SOL    HW118431   0.817   0.054   5.605
 5844SOL    HW218432   0.910   0.049   5.471
 5845SOL     OW18433   1.013   0.275   2.851
 5845SOL    HW118434   0.989   0.302   2.944
 5845SOL    HW218435   0.967   0.335   2.786
 5846SOL     OW18436   6.665   3.193   3.629
 5846SOL    HW118437   6.650   3.271   3.689
 5846SOL    HW218438   6.735   3.217   3.561
 5847SOL     OW18439   1.521   1.904   1.693
 5847SOL    HW118440   1.586   1.948   1.756
 5847SOL    HW218441   1.484   1.822   1.735
 5848SOL     OW18442   2.651   5.230   2.935
 5848SOL    HW118443   2.552   5.224   2.920
 5848SOL    HW218444   2.676   5.326   2.952
 5849SOL     OW18445   0.127   0.365   6.862
 5849SOL    HW118446   0.079   0.441   6.905
 5849SOL    HW218447   0.065   0.288   6.850
 5850SOL     OW18448   0.363   4.070   2.285
 5850SOL    HW118449   0.449   4.041   2.243
 5850SOL    HW218450   0.310   3.990   2.311
 5851SOL     OW18451   4.976   3.083   2.885
 5851SOL    HW118452   5.063   3.048   2.850
 5851SOL    HW218453   4.971   3.182   2.868
 5852SOL     OW18454   5.003   6.435   3.062
 5852SOL    HW118455   4.942   6.418   2.985
 5852SOL    HW218456   4.954   6.420   3.148
 5853SOL     OW18457   3.256   5.412   4.147
 5853SOL    HW118458   3.201   5.330   4.135
 5853SOL    HW218459   3.353   5.387   4.153
 5854SOL     OW18460   5.758   4.728   5.361
 5854SOL    HW118461   5.750   4.683   5.450
 5854SOL    HW218462   5.816   4.673   5.301
 5855SOL     OW18463   0.286   0.552   5.246
 5855SOL    HW118464   0.228   0.634   5.252
 5855SOL    HW218465   0.346   0.548   5.326
 5856SOL     OW18466   1.729   6.065   3.941
 5856SOL    HW118467   1.733   6.034   3.846
 5856SOL    HW218468   1.819   6.057   3.983
 5857SOL     OW18469   6.141   2.857   5.699
 5857SOL    HW118470   6.215   2.815   5.752
 5857SOL    HW218471   6.081   2.785   5.664
 5858SOL     OW18472   2.373   2.285   1.963
 5858SOL    HW118473   2.323   2.274   1.876
 5858SOL    HW218474   2.408   2.196   1.992
 5859SOL     OW18475   5.496   6.684   1.483
 5859SOL    HW118476   5.474   6.715   1.391
 5859SOL    HW218477   5.425   6.715   1.547
 5860SOL     OW18478   1.694   3.403   1.967
 5860SOL    HW118479   1.673   3.354   1.882
 5860SOL    HW218480   1.788   3.383   1.994
 5861SOL     OW18481   4.806   1.821   4.787
 5861SOL    HW118482   4.807   1.748   4.718
 5861SOL    HW218483   4.889   1.815   4.842
 5862SOL     OW18484   4.915   5.089   3.167
 5862SOL    HW118485   4.849   5.158   3.198
 5862SOL    HW218486   4.993   5.088   3.230
 5863SOL     OW18487   2.985   0.917   4.503
 5863SOL    HW118488   2.971   0.990   4.436
 5863SOL    HW218489   3.010   0.832   4.456
 5864SOL     OW18490   4.205   3.652   1.841
 5864SOL    HW118491   4.263   3.602   1.777
 5864SOL    HW218492   4.204   3.605   1.930
 5865SOL     OW18493   6.059   0.050   5.149
 5865SOL    HW118494   6.084   0.147   5.157
 5865SOL    HW218495   6.111   7.026   5.216
 5866SOL     OW18496   4.530   5.577   0.173
 5866SOL    HW118497   4.509   5.672   0.193
 5866SOL    HW218498   4.579   5.570   0.086
 5867SOL     OW18499   0.240   3.887   0.816
 5867SOL    HW118500   0.234   3.788   0.833
 5867SOL    HW218501   0.336   3.913   0.804
 5868SOL     OW18502   0.250   0.772   5.564
 5868SOL    HW118503   0.184   0.827   5.615
 5868SOL    HW218504   0.254   0.804   5.469
 5869SOL     OW18505   2.997   5.672   3.133
 5869SOL    HW118506   2.972   5.589   3.083
 5869SOL    HW218507   2.937   5.684   3.212
 5870SOL     OW18508   5.065   6.069   4.575
 5870SOL    HW118509   5.123   6.026   4.644
 5870SOL    HW218510   5.045   6.003   4.503
 5871SOL     OW18511   3.710   2.891   0.206
 5871SOL    HW118512   3.641   2.830   0.245
 5871SOL    HW218513   3.778   2.836   0.157
 5872SOL     OW18514   4.075   5.670   6.870
 5872SOL    HW118515   3.983   5.639   6.893
 5872SOL    HW218516   4.142   5.615   6.919
 5873SOL     OW18517   2.418   2.790   0.999
 5873SOL    HW118518   2.429   2.815   1.095
 5873SOL    HW218519   2.360   2.709   0.992
 5874SOL     OW18520   2.752   3.318   1.058
 5874SOL    HW118521   2.705   3.337   1.144
 5874SOL    HW218522   2.704   3.244   1.010
 5875SOL     OW18523   3.466   0.866   1.169
 5875SOL    HW118524   3.384   0.921   1.186
 5875SOL    HW218525   3.527   0.916   1.108
 5876SOL     OW18526   2.390   3.254   0.211
 5876SOL    HW118527   2.370   3.211   0.123
 5876SOL    HW218528   2.404   3.183   0.280
 5877SOL     OW18529   0.231   6.808   0.947
 5877SOL    HW118530   0.275   6.852   0.869
 5877SOL    HW218531   0.197   6.718   0.920
 5878SOL     OW18532   5.176   5.202   3.056
 5878SOL    HW118533   5.132   5.259   3.125
 5878SOL    HW218534   5.114   5.187   2.979
 5879SOL     OW18535   2.741   3.891   6.385
 5879SOL    HW118536   2.655   3.872   6.338
 5879SOL    HW218537   2.808   3.925   6.319
 5880SOL     OW18538   4.801   4.236   6.753
 5880SOL    HW118539   4.819   4.154   6.699
 5880SOL    HW218540   4.814   4.317   6.697
 5881SOL     OW18541   1.312   0.366   1.980
 5881SOL    HW118542   1.237   0.410   2.030
 5881SOL    HW218543   1.398   0.380   2.029
 5882SOL     OW18544   1.292   6.419   5.912
 5882SOL    HW118545   1.323   6.329   5.941
 5882SOL    HW218546   1.364   6.463   5.858
 5883SOL     OW18547   0.395   1.346   0.869
 5883SOL    HW118548   0.321   1.378   0.928
 5883SOL    HW218549   0.366   1.264   0.820
 5884SOL     OW18550   5.537   1.181   4.938
 5884SOL    HW118551   5.584   1.097   4.966
 5884SOL    HW218552   5.493   1.167   4.850
 5885SOL     OW18553   0.945   5.917   1.420
 5885SOL    HW118554   1.010   5.841   1.414
 5885SOL    HW218555   0.869   5.891   1.479
 5886SOL     OW18556   0.950   3.191   3.523
 5886SOL    HW118557   0.931   3.109   3.468
 5886SOL    HW218558   0.893   3.266   3.491
 5887SOL     OW18559   2.685   2.154   1.976
 5887SOL    HW118560   2.712   2.123   1.885
 5887SOL    HW218561   2.759   2.207   2.017
 5888SOL     OW18562   2.390   6.683   1.159
 5888SOL    HW118563   2.466   6.674   1.094
 5888SOL    HW218564   2.331   6.759   1.132
 5889SOL     OW18565   6.643   1.240   0.633
 5889SOL    HW118566   6.666   1.289   0.549
 5889SOL    HW218567   6.719   1.180   0.659
 5890SOL     OW18568   1.630   6.622   2.657
 5890SOL    HW118569   1.664   6.545   2.603
 5890SOL    HW218570   1.532   6.633   2.641
 5891SOL     OW18571   2.009   4.037   0.280
 5891SOL    HW118572   2.058   3.972   0.221
 5891SOL    HW218573   1.911   4.024   0.269
 5892SOL     OW18574   0.129   5.005   1.675
 5892SOL    HW118575   0.076   5.034   1.754
 5892SOL    HW218576   0.222   4.983   1.703
 5893SOL     OW18577   1.946   4.712   1.845
 5893SOL    HW118578   1.897   4.784   1.796
 5893SOL    HW218579   1.994   4.653   1.780
 5894SOL     OW18580   0.800   5.350   5.311
 5894SOL    HW118581   0.827   5.439   5.274
 5894SOL    HW218582   0.753   5.298   5.240
 5895SOL     OW18583   6.443   4.090   3.532
 5895SOL    HW118584   6.380   4.058   3.462
 5895SOL    HW218585   6.394   4.100   3.619
 5896SOL     OW18586   5.293   1.394   1.129
 5896SOL    HW118587   5.214   1.407   1.189
 5896SOL    HW218588   5.264   1.344   1.047
 5897SOL     OW18589   3.563   1.163   1.798
 5897SOL    HW118590   3.654   1.201   1.812
 5897SOL    HW218591   3.565   1.100   1.721
 5898SOL     OW18592   2.732   1.664   5.605
 5898SOL    HW118593   2.823   1.623   5.604
 5898SOL    HW218594   2.708   1.690   5.698
 5899SOL     OW18595   7.011   5.480   6.236
 5899SOL    HW118596   6.996   5.499   6.139
 5899SOL    HW218597   6.926   5.446   6.277
 5900SOL     OW18598   0.017   5.320   3.144
 5900SOL    HW118599   6.980   5.253   3.178
 5900SOL    HW218600   0.106   5.277   3.132
 5901SOL     OW18601   2.132   1.197   0.458
 5901SOL    HW118602   2.069   1.140   0.405
 5901SOL    HW218603   2.183   1.256   0.396
 5902SOL     OW18604   5.945   3.232   5.390
 5902SOL    HW118605   5.956   3.170   5.468
 5902SOL    HW218606   5.925   3.179   5.308
 5903SOL     OW18607   5.018   2.924   6.869
 5903SOL    HW118608   5.058   3.015   6.870
 5903SOL    HW218609   4.991   2.898   6.961
 5904SOL     OW18610   1.258   4.257   0.957
 5904SOL    HW118611   1.210   4.324   1.013
 5904SOL    HW218612   1.277   4.296   0.867
 5905SOL     OW18613   5.870   1.109   3.764
 5905SOL    HW118614   5.830   1.102   3.855
 5905SOL    HW218615   5.908   1.020   3.738
 5906SOL     OW18616   4.967   1.746   5.321
 5906SOL    HW118617   4.910   1.675   5.279
 5906SOL    HW218618   4.957   1.741   5.421
 5907SOL     OW18619   1.698   6.901   0.366
 5907SOL    HW118620   1.669   6.872   0.274
 5907SOL    HW218621   1.718   6.999   0.365
 5908SOL     OW18622   5.288   3.838   7.020
 5908SOL    HW118623   5.309   3.743   0.016
 5908SOL    HW218624   5.189   3.851   7.020
 5909SOL     OW18625   0.239   5.083   6.488
 5909SOL    HW118626   0.190   5.003   6.455
 5909SOL    HW218627   0.308   5.054   6.555
 5910SOL     OW18628   0.974   4.914   0.042
 5910SOL    HW118629   0.946   4.976   6.998
 5910SOL    HW218630   1.047   4.854   0.009
 5911SOL     OW18631   0.485   5.686   5.928
 5911SOL    HW118632   0.537   5.715   6.008
 5911SOL    HW218633   0.403   5.637   5.958
 5912SOL     OW18634   6.207   3.348   6.332
 5912SOL    HW118635   6.164   3.322   6.245
 5912SOL    HW218636   6.158   3.305   6.407
 5913SOL     OW18637   2.090   2.925   5.763
 5913SOL    HW118638   2.012   2.871   5.732
 5913SOL    HW218639   2.169   2.864   5.775
 5914SOL     OW18640   2.881   5.025   6.999
 5914SOL    HW118641   2.947   5.097   7.019
 5914SOL    HW218642   2.816   5.017   0.046
 5915SOL     OW18643   5.766   3.544   1.859
 5915SOL    HW118644   5.769   3.551   1.759
 5915SOL    HW218645   5.735   3.632   1.897
 5916SOL     OW18646   4.427   0.460   5.675
 5916SOL    HW118647   4.526   0.477   5.672
 5916SOL    HW218648   4.382   0.536   5.723
 5917SOL     OW18649   3.757   3.666   3.286
 5917SOL    HW118650   3.849   3.690   3.318
 5917SOL    HW218651   3.753   3.568   3.266
 5918SOL     OW18652   2.098   3.580   4.737
 5918SOL    HW118653   1.999   3.575   4.752
 5918SOL    HW218654   2.134   3.665   4.777
 5919SOL     OW18655   3.068   2.293   6.775
 5919SOL    HW118656   3.100   2.271   6.683
 5919SOL    HW218657   2.992   2.358   6.769
 5920SOL     OW18658   3.917   6.389   6.854
 5920SOL    HW118659   3.955   6.481   6.843
 5920SOL    HW218660   3.941   6.353   6.945
 5921SOL     OW18661   3.814   5.233   5.473
 5921SOL    HW118662   3.875   5.231   5.394
 5921SOL    HW218663   3.765   5.145   5.479
 5922SOL     OW18664   6.206   5.057   3.727
 5922SOL    HW118665   6.148   5.137   3.710
 5922SOL    HW218666   6.245   5.064   3.819
 5923SOL     OW18667   6.430   1.172   2.725
 5923SOL    HW118668   6.380   1.096   2.683
 5923SOL    HW218669   6.395   1.186   2.818
 5924SOL     OW18670   5.914   3.051   4.981
 5924SOL    HW118671   5.861   3.135   4.988
 5924SOL    HW218672   5.906   2.998   5.066
 5925SOL     OW18673   4.447   6.467   3.066
 5925SOL    HW118674   4.479   6.558   3.039
 5925SOL    HW218675   4.359   6.448   3.022
 5926SOL     OW18676   3.401   5.205   2.051
 5926SOL    HW118677   3.419   5.134   1.984
 5926SOL    HW218678   3.309   5.195   2.087
 5927SOL     OW18679   2.063   4.437   2.417
 5927SOL    HW118680   2.122   4.397   2.346
 5927SOL    HW218681   2.023   4.364   2.472
 5928SOL     OW18682   3.585   0.460   2.207
 5928SOL    HW118683   3.615   0.509   2.290
 5928SOL    HW218684   3.596   0.362   2.221
 5929SOL     OW18685   0.721   6.387   5.746
 5929SOL    HW118686   0.724   6.313   5.679
 5929SOL    HW218687   0.637   6.440   5.734
 5930SOL     OW18688   6.505   1.714   3.771
 5930SOL    HW118689   6.450   1.726   3.854
 5930SOL    HW218690   6.566   1.792   3.760
 5931SOL     OW18691   5.725   4.747   2.724
 5931SOL    HW118692   5.738   4.659   2.769
 5931SOL    HW218693   5.813   4.792   2.712
 5932SOL     OW18694   2.785   5.940   1.115
 5932SOL    HW118695   2.707   5.997   1.141
 5932SOL    HW218696   2.801   5.948   1.017
 5933SOL     OW18697   6.838   4.695   2.651
 5933SOL    HW118698   6.887   4.759   2.593
 5933SOL    HW218699   6.801   4.743   2.731
 5934SOL     OW18700   3.381   4.113   3.712
 5934SOL    HW118701   3.370   4.134   3.615
 5934SOL    HW218702   3.472   4.144   3.742
 5935SOL     OW18703   4.118   3.691   4.347
 5935SOL    HW118704   4.192   3.624   4.346
 5935SOL    HW218705   4.102   3.722   4.441
 5936SOL     OW18706   4.704   3.536   6.514
 5936SOL    HW118707   4.757   3.488   6.584
 5936SOL    HW218708   4.756   3.615   6.482
 5937SOL     OW18709   0.387   4.428   1.826
 5937SOL    HW118710   0.386   4.385   1.735
 5937SOL    HW218711   0.293   4.437   1.859
 5938SOL     OW18712   1.363   5.184   4.208
 5938SOL    HW118713   1.408   5.147   4.290
 5938SOL    HW218714   1.278   5.229   4.234
 5939SOL     OW18715   3.072   0.272   3.046
 5939SOL    HW118716   3.075   0.325   3.131
 5939SOL    HW218717   3.002   0.311   2.985
 5940SOL     OW18718   4.212   6.696   2.475
 5940SOL    HW118719   4.204   6.639   2.394
 5940SOL    HW218720   4.165   6.783   2.460
 5941SOL     OW18721   6.173   4.247   2.084
 5941SOL    HW118722   6.129   4.209   2.004
 5941SOL    HW218723   6.223   4.175   2.133
 5942SOL     OW18724   4.831   2.449   0.306
 5942SOL    HW118725   4.809   2.546   0.296
 5942SOL    HW218726   4.923   2.440   0.346
 5943SOL     OW18727   3.485   5.393   7.011
 5943SOL    HW118728   3.479   5.293   7.010
 5943SOL    HW218729   3.456   5.430   6.923
 5944SOL     OW18730   5.662   1.624   1.557
 5944SOL    HW118731   5.580   1.611   1.612
 5944SOL    HW218732   5.720   1.694   1.598
 5945SOL     OW18733   0.132   5.453   5.397
 5945SOL    HW118734   0.195   5.499   5.461
 5945SOL    HW218735   0.068   5.520   5.360
 5946SOL     OW18736   3.498   3.164   5.623
 5946SOL    HW118737   3.469   3.069   5.629
 5946SOL    HW218738   3.595   3.169   5.602
 5947SOL     OW18739   3.904   3.528   1.890
 5947SOL    HW118740   3.878   3.453   1.830
 5947SOL    HW218741   3.998   3.515   1.922
 5948SOL     OW18742   4.097   5.334   3.369
 5948SOL    HW118743   4.183   5.383   3.386
 5948SOL    HW218744   4.114   5.256   3.309
 5949SOL     OW18745   3.893   4.192   0.941
 5949SOL    HW118746   3.801   4.195   0.902
 5949SOL    HW218747   3.959   4.171   0.869
 5950SOL     OW18748   5.232   3.074   5.423
 5950SOL    HW118749   5.299   3.147   5.405
 5950SOL    HW218750   5.256   3.026   5.507
 5951SOL     OW18751   0.579   6.088   5.236
 5951SOL    HW118752   0.508   6.101   5.306
 5951SOL    HW218753   0.593   5.990   5.222
 5952SOL     OW18754   6.141   6.189   3.868
 5952SOL    HW118755   6.073   6.220   3.934
 5952SOL    HW218756   6.111   6.214   3.775
 5953SOL     OW18757   6.833   2.851   5.855
 5953SOL    HW118758   6.783   2.830   5.771
 5953SOL    HW218759   6.819   2.947   5.879
 5954SOL     OW18760   6.645   4.742   5.385
 5954SOL    HW118761   6.717   4.791   5.337
 5954SOL    HW218762   6.685   4.679   5.451
 5955SOL     OW18763   5.927   6.222   2.561
 5955SOL    HW118764   5.995   6.252   2.628
 5955SOL    HW218765   5.920   6.122   2.563
 5956SOL     OW18766   3.005   1.876   0.560
 5956SOL    HW118767   3.083   1.824   0.595
 5956SOL    HW218768   2.926   1.816   0.552
 5957SOL     OW18769   4.791   0.378   6.003
 5957SOL    HW118770   4.793   0.371   5.903
 5957SOL    HW218771   4.762   0.291   6.042
 5958SOL     OW18772   5.809   6.994   2.943
 5958SOL    HW118773   5.835   6.920   2.880
 5958SOL    HW218774   5.837   6.969   3.036
 5959SOL     OW18775   3.399   1.578   5.644
 5959SOL    HW118776   3.498   1.583   5.661
 5959SOL    HW218777   3.376   1.639   5.568
 5960SOL     OW18778   3.574   6.909   4.887
 5960SOL    HW118779   3.557   6.845   4.962
 5960SOL    HW218780   3.499   6.976   4.883
 5961SOL     OW18781   4.590   1.048   3.975
 5961SOL    HW118782   4.606   1.100   4.059
 5961SOL    HW218783   4.664   0.982   3.961
 5962SOL     OW18784   5.109   5.889   2.111
 5962SOL    HW118785   5.133   5.809   2.054
 5962SOL    HW218786   5.047   5.860   2.184
 5963SOL     OW18787   3.641   2.877   4.796
 5963SOL    HW118788   3.619   2.965   4.838
 5963SOL    HW218789   3.570   2.852   4.730
 5964SOL     OW18790   0.197   5.313   5.889
 5964SOL    HW118791   0.113   5.285   5.843
 5964SOL    HW218792   0.257   5.359   5.824
 5965SOL     OW18793   1.977   1.992   5.795
 5965SOL    HW118794   2.012   2.085   5.781
 5965SOL    HW218795   1.949   1.981   5.890
 5966SOL     OW18796   3.197   5.280   5.997
 5966SOL    HW118797   3.173   5.367   5.955
 5966SOL    HW218798   3.261   5.231   5.938
 5967SOL     OW18799   4.073   6.203   1.908
 5967SOL    HW118800   4.052   6.130   1.973
 5967SOL    HW218801   4.116   6.164   1.827
 5968SOL     OW18802   5.901   1.598   3.250
 5968SOL    HW118803   5.926   1.521   3.309
 5968SOL    HW218804   5.915   1.572   3.155
 5969SOL     OW18805   6.642   1.899   5.237
 5969SOL    HW118806   6.685   1.823   5.189
 5969SOL    HW218807   6.709   1.973   5.249
 5970SOL     OW18808   0.395   4.861   2.423
 5970SOL    HW118809   0.354   4.817   2.343
 5970SOL    HW218810   0.487   4.825   2.437
 5971SOL     OW18811   2.279   0.639   3.070
 5971SOL    HW118812   2.224   0.703   3.016
 5971SOL    HW218813   2.278   0.549   3.027
 5972SOL     OW18814   4.341   6.388   0.468
 5972SOL    HW118815   4.382   6.348   0.387
 5972SOL    HW218816   4.413   6.424   0.528
 5973SOL     OW18817   1.832   5.180   2.722
 5973SOL    HW118818   1.770   5.104   2.702
 5973SOL    HW218819   1.799   5.230   2.802
 5974SOL     OW18820   5.460   4.093   6.344
 5974SOL    HW118821   5.544   4.062   6.387
 5974SOL    HW218822   5.454   4.055   6.251
 5975SOL     OW18823   3.435   2.302   0.922
 5975SOL    HW118824   3.515   2.307   0.981
 5975SOL    HW218825   3.415   2.393   0.885
 5976SOL     OW18826   2.792   3.589   5.251
 5976SOL    HW118827   2.713   3.531   5.274
 5976SOL    HW218828   2.772   3.684   5.276
 5977SOL     OW18829   2.004   4.735   1.445
 5977SOL    HW118830   2.037   4.668   1.511
 5977SOL    HW218831   1.933   4.693   1.388
 5978SOL     OW18832   5.543   5.062   3.239
 5978SOL    HW118833   5.588   5.137   3.287
 5978SOL    HW218834   5.499   5.096   3.157
 5979SOL     OW18835   6.673   0.869   2.535
 5979SOL    HW118836   6.757   0.819   2.512
 5979SOL    HW218837   6.611   0.808   2.584
 5980SOL     OW18838   3.740   3.488   6.528
 5980SOL    HW118839   3.800   3.555   6.572
 5980SOL    HW218840   3.738   3.505   6.429
 5981SOL     OW18841   6.334   1.699   2.247
 5981SOL    HW118842   6.398   1.628   2.276
 5981SOL    HW218843   6.273   1.663   2.177
 5982SOL     OW18844   6.067   2.161   6.942
 5982SOL    HW118845   5.995   2.117   6.889
 5982SOL    HW218846   6.107   2.236   6.889
 5983SOL     OW18847   2.795   1.709   4.391
 5983SOL    HW118848   2.860   1.741   4.460
 5983SOL    HW218849   2.833   1.726   4.300
 5984SOL     OW18850   0.173   0.077   4.774
 5984SOL    HW118851   0.235   0.009   4.736
 5984SOL    HW218852   0.152   0.146   4.705
 5985SOL     OW18853   5.399   3.252   4.487
 5985SOL    HW118854   5.447   3.205   4.412
 5985SOL    HW218855   5.308   3.212   4.499
 5986SOL     OW18856   2.999   3.534   4.412
 5986SOL    HW118857   3.053   3.453   4.389
 5986SOL    HW218858   3.009   3.554   4.509
 5987SOL     OW18859   4.519   1.704   4.816
 5987SOL    HW118860   4.486   1.773   4.881
 5987SOL    HW218861   4.617   1.716   4.802
 5988SOL     OW18862   4.526   5.780   4.798
 5988SOL    HW118863   4.437   5.801   4.838
 5988SOL    HW218864   4.519   5.700   4.738
 5989SOL     OW18865   2.753   5.678   6.706
 5989SOL    HW118866   2.800   5.651   6.789
 5989SOL    HW218867   2.674   5.618   6.692
 5990SOL     OW18868   4.057   4.113   0.736
 5990SOL    HW118869   4.153   4.088   0.747
 5990SOL    HW218870   4.014   4.050   0.671
 5991SOL     OW18871   4.425   4.834   5.159
 5991SOL    HW118872   4.442   4.933   5.165
 5991SOL    HW218873   4.356   4.817   5.089
 5992SOL     OW18874   3.781   0.975   4.027
 5992SOL    HW118875   3.785   0.881   4.063
 5992SOL    HW218876   3.870   0.999   3.988
 5993SOL     OW18877   3.877   6.875   5.702
 5993SOL    HW118878   3.787   6.884   5.659
 5993SOL    HW218879   3.872   6.805   5.774
 5994SOL     OW18880   6.217   2.075   2.437
 5994SOL    HW118881   6.304   2.121   2.421
 5994SOL    HW218882   6.170   2.060   2.350
 5995SOL     OW18883   6.390   4.934   1.957
 5995SOL    HW118884   6.344   4.879   2.027
 5995SOL    HW218885   6.368   4.898   1.866
 5996SOL     OW18886   0.932   5.178   0.264
 5996SOL    HW118887   1.004   5.129   0.312
 5996SOL    HW218888   0.877   5.231   0.329
 5997SOL     OW18889   0.688   6.584   2.539
 5997SOL    HW118890   0.645   6.640   2.611
 5997SOL    HW218891   0.663   6.488   2.553
 5998SOL     OW18892   5.641   3.317   2.174
 5998SOL    HW118893   5.666   3.288   2.082
 5998SOL    HW218894   5.619   3.236   2.229
 5999SOL     OW18895   0.763   2.179   2.611
 5999SOL    HW118896   0.846   2.137   2.575
 5999SOL    HW218897   0.779   2.212   2.704
 6000SOL     OW18898   4.149   5.909   1.788
 6000SOL    HW118899   4.180   5.830   1.735
 6000SOL    HW218900   4.051   5.923   1.773
 6001SOL     OW18901   0.628   4.127   6.029
 6001SOL    HW118902   0.633   4.224   6.004
 6001SOL    HW218903   0.701   4.106   6.095
 6002SOL     OW18904   0.447   6.407   1.330
 6002SOL    HW118905   0.415   6.493   1.369
 6002SOL    HW218906   0.383   6.377   1.258
 6003SOL     OW18907   6.331   2.466   4.400
 6003SOL    HW118908   6.428   2.465   4.374
 6003SOL    HW218909   6.312   2.388   4.459
 6004SOL     OW18910   0.356   4.427   3.342
 6004SOL    HW118911   0.398   4.400   3.255
 6004SOL    HW218912   0.413   4.397   3.418
 6005SOL     OW18913   3.848   5.256   4.377
 6005SOL    HW118914   3.921   5.187   4.374
 6005SOL    HW218915   3.887   5.345   4.400
 6006SOL     OW18916   4.206   6.489   6.975
 6006SOL    HW118917   4.124   6.470   7.028
 6006SOL    HW218918   4.214   6.588   6.960
 6007SOL     OW18919   4.847   3.351   3.756
 6007SOL    HW118920   4.859   3.380   3.851
 6007SOL    HW218921   4.771   3.401   3.715
 6008SOL     OW18922   2.262   5.749   6.338
 6008SOL    HW118923   2.361   5.748   6.357
 6008SOL    HW218924   2.248   5.768   6.241
 6009SOL     OW18925   3.103   1.572   4.812
 6009SOL    HW118926   3.095   1.518   4.728
 6009SOL    HW218927   3.160   1.652   4.795
 6010SOL     OW18928   2.024   4.391   1.871
 6010SOL    HW118929   2.088   4.455   1.915
 6010SOL    HW218930   2.075   4.318   1.826
 6011SOL     OW18931   5.081   2.461   2.169
 6011SOL    HW118932   5.048   2.374   2.131
 6011SOL    HW218933   5.034   2.479   2.255
 6012SOL     OW18934   6.506   1.655   0.540
 6012SOL    HW118935   6.495   1.754   0.526
 6012SOL    HW218936   6.603   1.631   0.538
 6013SOL     OW18937   5.034   1.631   3.055
 6013SOL    HW118938   5.065   1.719   3.019
 6013SOL    HW218939   5.043   1.561   2.984
 6014SOL     OW18940   4.438   1.640   0.830
 6014SOL    HW118941   4.530   1.675   0.813
 6014SOL    HW218942   4.437   1.588   0.915
 6015SOL     OW18943   5.707   2.253   5.808
 6015SOL    HW118944   5.630   2.296   5.857
 6015SOL    HW218945   5.792   2.276   5.854
 6016SOL     OW18946   0.285   1.439   0.094
 6016SOL    HW118947   0.366   1.490   0.125
 6016SOL    HW218948   0.289   1.428   7.023
 6017SOL     OW18949   6.379   5.025   2.695
 6017SOL    HW118950   6.323   5.095   2.652
 6017SOL    HW218951   6.458   5.005   2.637
 6018SOL     OW18952   3.649   2.554   7.013
 6018SOL    HW118953   3.562   2.598   6.988
 6018SOL    HW218954   3.707   2.620   0.032
 6019SOL     OW18955   5.067   1.770   3.874
 6019SOL    HW118956   5.147   1.710   3.878
 6019SOL    HW218957   5.078   1.845   3.938
 6020SOL     OW18958   1.270   6.147   2.549
 6020SOL    HW118959   1.324   6.063   2.547
 6020SOL    HW218960   1.201   6.141   2.620
 6021SOL     OW18961   3.953   0.035   2.593
 6021SOL    HW118962   3.903   6.988   2.552
 6021SOL    HW218963   4.000   0.087   2.521
 6022SOL     OW18964   4.479   0.602   4.625
 6022SOL    HW118965   4.427   0.532   4.576
 6022SOL    HW218966   4.432   0.690   4.618
 6023SOL     OW18967   6.358   1.619   3.134
 6023SOL    HW118968   6.332   1.689   3.067
 6023SOL    HW218969   6.443   1.575   3.105
 6024SOL     OW18970   0.653   4.629   2.973
 6024SOL    HW118971   0.587   4.560   3.002
 6024SOL    HW218972   0.740   4.584   2.949
 6025SOL     OW18973   4.287   0.622   2.285
 6025SOL    HW118974   4.197   0.582   2.302
 6025SOL    HW218975   4.322   0.592   2.196
 6026SOL     OW18976   0.332   4.289   4.490
 6026SOL    HW118977   0.425   4.324   4.504
 6026SOL    HW218978   0.329   4.192   4.512
 6027SOL     OW18979   2.172   4.103   5.443
 6027SOL    HW118980   2.100   4.144   5.498
 6027SOL    HW218981   2.132   4.042   5.375
 6028SOL     OW18982   1.176   3.850   6.955
 6028SOL    HW118983   1.194   3.762   6.999
 6028SOL    HW218984   1.082   3.879   6.974
 6029SOL     OW18985   2.370   6.533   6.467
 6029SOL    HW118986   2.315   6.449   6.465
 6029SOL    HW218987   2.328   6.601   6.406
 6030SOL     OW18988   2.236   0.381   2.918
 6030SOL    HW118989   2.198   0.291   2.940
 6030SOL    HW218990   2.237   0.393   2.819
 6031SOL     OW18991   4.153   5.402   4.203
 6031SOL    HW118992   4.166   5.399   4.302
 6031SOL    HW218993   4.116   5.314   4.172
 6032SOL     OW18994   1.841   3.498   2.948
 6032SOL    HW118995   1.830   3.597   2.933
 6032SOL    HW218996   1.754   3.460   2.981
 6033SOL     OW18997   2.414   2.579   2.719
 6033SOL    HW118998   2.411   2.654   2.785
 6033SOL    HW218999   2.321   2.557   2.689
 6034SOL     OW19000   1.986   5.711   4.914
 6034SOL    HW119001   1.894   5.744   4.934
 6034SOL    HW219002   2.020   5.758   4.832
 6035SOL     OW19003   6.365   1.954   3.966
 6035SOL    HW119004   6.373   2.049   3.936
 6035SOL    HW219005   6.440   1.932   4.028
 6036SOL     OW19006   0.512   6.964   4.247
 6036SOL    HW119007   0.465   6.990   4.163
 6036SOL    HW219008   0.471   7.013   4.324
 6037SOL     OW19009   4.771   5.458   5.969
 6037SOL    HW119010   4.734   5.551   5.967
 6037SOL    HW219011   4.700   5.395   6.000
 6038SOL     OW19012   1.085   3.180   6.252
 6038SOL    HW119013   1.165   3.187   6.312
 6038SOL    HW219014   1.105   3.114   6.179
 6039SOL     OW19015   3.452   2.908   3.417
 6039SOL    HW119016   3.502   2.858   3.347
 6039SOL    HW219017   3.515   2.965   3.470
 6040SOL     OW19018   0.380   2.073   6.413
 6040SOL    HW119019   0.398   2.141   6.484
 6040SOL    HW219020   0.318   2.003   6.447
 6041SOL     OW19021   2.429   1.566   6.405
 6041SOL    HW119022   2.383   1.504   6.469
 6041SOL    HW219023   2.360   1.613   6.350
 6042SOL     OW19024   5.634   5.254   1.959
 6042SOL    HW119025   5.559   5.202   2.001
 6042SOL    HW219026   5.671   5.319   2.025
 6043SOL     OW19027   1.152   5.368   4.991
 6043SOL    HW119028   1.071   5.318   5.022
 6043SOL    HW219029   1.127   5.428   4.914
 6044SOL     OW19030   1.117   2.375   1.282
 6044SOL    HW119031   1.057   2.298   1.260
 6044SOL    HW219032   1.072   2.436   1.347
 6045SOL     OW19033   5.797   5.827   1.110
 6045SOL    HW119034   5.717   5.885   1.121
 6045SOL    HW219035   5.768   5.731   1.104
 6046SOL     OW19036   2.527   2.336   0.688
 6046SOL    HW119037   2.460   2.348   0.761
 6046SOL    HW219038   2.481   2.310   0.603
 6047SOL     OW19039   6.364   1.543   3.400
 6047SOL    HW119040   6.343   1.560   3.303
 6047SOL    HW219041   6.417   1.619   3.436
 6048SOL     OW19042   4.531   6.564   3.306
 6048SOL    HW119043   4.496   6.542   3.215
 6048SOL    HW219044   4.489   6.649   3.339
 6049SOL     OW19045   5.191   3.851   6.396
 6049SOL    HW119046   5.237   3.867   6.309
 6049SOL    HW219047   5.205   3.930   6.456
 6050SOL     OW19048   3.990   3.527   5.816
 6050SOL    HW119049   4.054   3.572   5.754
 6050SOL    HW219050   3.898   3.563   5.801
 6051SOL     OW19051   2.764   2.304   3.878
 6051SOL    HW119052   2.796   2.299   3.972
 6051SOL    HW219053   2.819   2.243   3.820
 6052SOL     OW19054   6.616   6.558   0.102
 6052SOL    HW119055   6.636   6.651   0.131
 6052SOL    HW219056   6.518   6.548   0.084
 6053SOL     OW19057   3.980   0.481   6.580
 6053SOL    HW119058   3.965   0.418   6.504
 6053SOL    HW219059   3.997   0.429   6.664
 6054SOL     OW19060   1.954   4.123   0.819
 6054SOL    HW119061   2.012   4.084   0.747
 6054SOL    HW219062   1.964   4.069   0.903
 6055SOL     OW19063   6.341   0.996   6.319
 6055SOL    HW119064   6.391   1.079   6.344
 6055SOL    HW219065   6.260   1.021   6.266
 6056SOL     OW19066   5.162   2.502   4.788
 6056SOL    HW119067   5.204   2.577   4.737
 6056SOL    HW219068   5.224   2.472   4.861
 6057SOL     OW19069   5.165   2.228   4.327
 6057SOL    HW119070   5.108   2.168   4.382
 6057SOL    HW219071   5.169   2.319   4.368
 6058SOL     OW19072   5.287   2.502   2.792
 6058SOL    HW119073   5.286   2.406   2.764
 6058SOL    HW219074   5.378   2.527   2.824
 6059SOL     OW19075   4.590   5.284   5.625
 6059SOL    HW119076   4.649   5.269   5.704
 6059SOL    HW219077   4.627   5.236   5.546
 6060SOL     OW19078   3.439   3.880   5.562
 6060SOL    HW119079   3.409   3.853   5.471
 6060SOL    HW219080   3.418   3.976   5.577
 6061SOL     OW19081   3.351   2.567   0.527
 6061SOL    HW119082   3.301   2.653   0.537
 6061SOL    HW219083   3.449   2.586   0.515
 6062SOL     OW19084   2.471   1.033   4.641
 6062SOL    HW119085   2.532   0.986   4.577
 6062SOL    HW219086   2.524   1.065   4.720
 6063SOL     OW19087   3.997   1.569   6.452
 6063SOL    HW119088   4.096   1.585   6.460
 6063SOL    HW219089   3.948   1.640   6.503
 6064SOL     OW19090   2.510   5.734   2.902
 6064SOL    HW119091   2.539   5.826   2.930
 6064SOL    HW219092   2.544   5.667   2.967
 6065SOL     OW19093   5.635   6.995   1.868
 6065SOL    HW119094   5.550   0.000   1.908
 6065SOL    HW219095   5.626   6.898   1.847
 6066SOL     OW19096   4.072   1.671   0.362
 6066SOL    HW119097   3.998   1.627   0.411
 6066SOL    HW219098   4.089   1.623   0.276
 6067SOL     OW19099   5.809   1.831   6.586
 6067SOL    HW119100   5.799   1.744   6.635
 6067SOL    HW219101   5.785   1.817   6.490
 6068SOL     OW19102   6.089   3.654   4.417
 6068SOL    HW119103   6.113   3.592   4.491
 6068SOL    HW219104   6.101   3.608   4.329
 6069SOL     OW19105   0.397   3.297   5.883
 6069SOL    HW119106   0.390   3.203   5.850
 6069SOL    HW219107   0.308   3.342   5.876
 6070SOL     OW19108   2.949   1.865   5.813
 6070SOL    HW119109   2.957   1.895   5.718
 6070SOL    HW219110   3.038   1.869   5.858
 6071SOL     OW19111   4.748   5.972   5.203
 6071SOL    HW119112   4.658   5.929   5.198
 6071SOL    HW219113   4.742   6.054   5.260
 6072SOL     OW19114   1.064   0.881   2.107
 6072SOL    HW119115   1.108   0.907   2.021
 6072SOL    HW219116   1.038   0.964   2.157
 6073SOL     OW19117   6.632   3.535   0.438
 6073SOL    HW119118   6.585   3.464   0.489
 6073SOL    HW219119   6.699   3.580   0.498
 6074SOL     OW19120   1.163   6.908   4.691
 6074SOL    HW119121   1.142   6.828   4.633
 6074SOL    HW219122   1.091   6.919   4.759
 6075SOL     OW19123   6.866   2.241   6.378
 6075SOL    HW119124   6.927   2.320   6.371
 6075SOL    HW219125   6.891   2.186   6.457
 6076SOL     OW19126   2.433   6.985   5.172
 6076SOL    HW119127   2.406   6.922   5.245
 6076SOL    HW219128   2.458   6.932   5.091
 6077SOL     OW19129   4.860   5.534   2.153
 6077SOL    HW119130   4.920   5.491   2.085
 6077SOL    HW219131   4.864   5.483   2.238
 6078SOL     OW19132   3.830   4.926   2.267
 6078SOL    HW119133   3.796   4.889   2.353
 6078SOL    HW219134   3.927   4.902   2.257
 6079SOL     OW19135   2.972   3.340   6.684
 6079SOL    HW119136   2.876   3.343   6.659
 6079SOL    HW219137   3.011   3.252   6.658
 6080SOL     OW19138   0.707   1.526   2.331
 6080SOL    HW119139   0.635   1.483   2.276
 6080SOL    HW219140   0.673   1.613   2.368
 6081SOL     OW19141   6.785   3.766   4.761
 6081SOL    HW119142   6.842   3.744   4.682
 6081SOL    HW219143   6.689   3.775   4.732
 6082SOL     OW19144   3.822   1.289   3.390
 6082SOL    HW119145   3.814   1.319   3.295
 6082SOL    HW219146   3.747   1.327   3.444
 6083SOL     OW19147   0.993   5.815   6.372
 6083SOL    HW119148   1.004   5.809   6.273
 6083SOL    HW219149   1.036   5.899   6.405
 6084SOL     OW19150   6.974   5.540   3.813
 6084SOL    HW119151   6.900   5.537   3.880
 6084SOL    HW219152   7.017   5.630   3.816
 6085SOL     OW19153   6.848   4.214   0.070
 6085SOL    HW119154   6.942   4.220   0.035
 6085SOL    HW219155   6.819   4.305   0.100
 6086SOL     OW19156   3.283   1.627   5.331
 6086SOL    HW119157   3.307   1.688   5.255
 6086SOL    HW219158   3.202   1.573   5.305
 6087SOL     OW19159   5.510   6.789   0.493
 6087SOL    HW119160   5.474   6.862   0.550
 6087SOL    HW219161   5.585   6.824   0.436
 6088SOL     OW19162   0.206   6.325   4.342
 6088SOL    HW119163   0.218   6.373   4.255
 6088SOL    HW219164   0.180   6.390   4.412
 6089SOL     OW19165   0.138   3.862   1.289
 6089SOL    HW119166   0.090   3.944   1.320
 6089SOL    HW219167   0.113   3.844   1.194
 6090SOL     OW19168   1.238   6.259   6.294
 6090SOL    HW119169   1.291   6.315   6.231
 6090SOL    HW219170   1.142   6.258   6.266
 6091SOL     OW19171   1.167   1.621   2.274
 6091SOL    HW119172   1.264   1.621   2.249
 6091SOL    HW219173   1.135   1.526   2.282
 6092SOL     OW19174   2.726   0.692   3.111
 6092SOL    HW119175   2.695   0.631   3.038
 6092SOL    HW219176   2.773   0.639   3.182
 6093SOL     OW19177   1.526   2.799   2.840
 6093SOL    HW119178   1.602   2.748   2.881
 6093SOL    HW219179   1.545   2.897   2.845
 6094SOL     OW19180   2.644   1.089   1.000
 6094SOL    HW119181   2.691   1.021   0.944
 6094SOL    HW219182   2.593   1.043   1.073
 6095SOL     OW19183   4.730   2.406   0.048
 6095SOL    HW119184   4.634   2.426   0.029
 6095SOL    HW219185   4.747   2.414   0.147
 6096SOL     OW19186   6.072   0.781   4.263
 6096SOL    HW119187   6.067   0.683   4.283
 6096SOL    HW219188   6.078   0.794   4.164
 6097SOL     OW19189   1.909   0.198   2.527
 6097SOL    HW119190   2.007   0.214   2.521
 6097SOL    HW219191   1.862   0.284   2.548
 6098SOL     OW19192   1.555   2.046   5.612
 6098SOL    HW119193   1.557   2.146   5.620
 6098SOL    HW219194   1.568   2.005   5.702
 6099SOL     OW19195   5.882   6.039   5.734
 6099SOL    HW119196   5.790   6.023   5.698
 6099SOL    HW219197   5.912   6.131   5.711
 6100SOL     OW19198   5.774   2.953   6.317
 6100SOL    HW119199   5.844   2.884   6.336
 6100SOL    HW219200   5.806   3.014   6.245
 6101SOL     OW19201   6.310   1.887   5.799
 6101SOL    HW119202   6.247   1.813   5.773
 6101SOL    HW219203   6.404   1.857   5.784
 6102SOL     OW19204   3.976   1.003   4.393
 6102SOL    HW119205   3.980   1.093   4.350
 6102SOL    HW219206   4.053   0.992   4.456
 6103SOL     OW19207   7.002   1.253   3.968
 6103SOL    HW119208   6.953   1.171   3.996
 6103SOL    HW219209   0.016   1.295   4.048
 6104SOL     OW19210   6.364   1.663   6.482
 6104SOL    HW119211   6.381   1.758   6.457
 6104SOL    HW219212   6.268   1.640   6.465
 6105SOL     OW19213   3.038   6.327   5.876
 6105SOL    HW119214   3.107   6.393   5.846
 6105SOL    HW219215   2.948   6.372   5.879
 6106SOL     OW19216   2.012   5.028   6.319
 6106SOL    HW119217   2.000   4.974   6.236
 6106SOL    HW219218   1.926   5.029   6.371
 6107SOL     OW19219   2.699   5.343   4.414
 6107SOL    HW119220   2.641   5.284   4.471
 6107SOL    HW219221   2.663   5.436   4.416
 6108SOL     OW19222   0.724   1.953   3.513
 6108SOL    HW119223   0.761   1.906   3.433
 6108SOL    HW219224   0.667   2.029   3.484
 6109SOL     OW19225   4.959   2.861   0.110
 6109SOL    HW119226   4.893   2.809   0.165
 6109SOL    HW219227   5.006   2.927   0.169
 6110SOL     OW19228   2.778   3.072   6.776
 6110SOL    HW119229   2.680   3.092   6.773
 6110SOL    HW219230   2.792   2.977   6.801
 6111SOL     OW19231   1.632   4.949   2.448
 6111SOL    HW119232   1.547   4.936   2.498
 6111SOL    HW219233   1.686   4.865   2.453
 6112SOL     OW19234   2.605   2.050   3.288
 6112SOL    HW119235   2.549   1.969   3.303
 6112SOL    HW219236   2.548   2.126   3.256
 6113SOL     OW19237   0.211   0.917   6.574
 6113SOL    HW119238   0.177   0.882   6.661
 6113SOL    HW219239   0.303   0.882   6.557
 6114SOL     OW19240   4.868   4.966   1.163
 6114SOL    HW119241   4.789   5.028   1.169
 6114SOL    HW219242   4.867   4.919   1.075
 6115SOL     OW19243   5.270   5.647   3.014
 6115SOL    HW119244   5.200   5.579   2.992
 6115SOL    HW219245   5.270   5.718   2.943
 6116SOL     OW19246   2.491   1.259   1.340
 6116SOL    HW119247   2.551   1.306   1.405
 6116SOL    HW219248   2.467   1.323   1.266
 6117SOL     OW19249   0.116   0.040   5.265
 6117SOL    HW119250   0.126   0.102   5.187
 6117SOL    HW219251   0.062   0.084   5.336
 6118SOL     OW19252   0.217   2.101   1.468
 6118SOL    HW119253   0.208   2.057   1.557
 6118SOL    HW219254   0.227   2.031   1.397
 6119SOL     OW19255   6.931   4.177   4.257
 6119SOL    HW119256   6.984   4.095   4.236
 6119SOL    HW219257   6.949   4.247   4.189
 6120SOL     OW19258   3.262   6.912   3.693
 6120SOL    HW119259   3.172   6.957   3.689
 6120SOL    HW219260   3.250   6.813   3.687
 6121SOL     OW19261   6.783   2.562   4.621
 6121SOL    HW119262   6.708   2.566   4.688
 6121SOL    HW219263   6.761   2.622   4.544
 6122SOL     OW19264   3.476   6.417   2.067
 6122SOL    HW119265   3.426   6.461   2.142
 6122SOL    HW219266   3.420   6.344   2.027
 6123SOL     OW19267   6.762   0.555   1.307
 6123SOL    HW119268   6.669   0.549   1.271
 6123SOL    HW219269   6.789   0.651   1.313
 6124SOL     OW19270   3.057   6.810   5.343
 6124SOL    HW119271   3.021   6.731   5.294
 6124SOL    HW219272   3.114   6.865   5.281
 6125SOL     OW19273   2.520   5.494   1.236
 6125SOL    HW119274   2.430   5.509   1.278
 6125SOL    HW219275   2.545   5.575   1.183
 6126SOL     OW19276   5.281   5.905   3.801
 6126SOL    HW119277   5.358   5.903   3.865
 6126SOL    HW219278   5.242   5.997   3.800
 6127SOL     OW19279   2.384   6.803   1.427
 6127SOL    HW119280   2.291   6.776   1.453
 6127SOL    HW219281   2.390   6.812   1.328
 6128SOL     OW19282   6.630   2.905   0.215
 6128SOL    HW119283   6.609   3.002   0.221
 6128SOL    HW219284   6.726   2.893   0.190
 6129SOL     OW19285   6.266   4.223   3.235
 6129SOL    HW119286   6.240   4.319   3.233
 6129SOL    HW219287   6.214   4.175   3.305
 6130SOL     OW19288   6.600   2.874   4.694
 6130SOL    HW119289   6.593   2.784   4.738
 6130SOL    HW219290   6.694   2.888   4.662
 6131SOL     OW19291   6.851   1.484   5.272
 6131SOL    HW119292   6.762   1.465   5.314
 6131SOL    HW219293   6.889   1.400   5.235
 6132SOL     OW19294   3.825   0.730   1.082
 6132SOL    HW119295   3.906   0.788   1.083
 6132SOL    HW219296   3.765   0.759   1.007
 6133SOL     OW19297   0.549   2.538   2.856
 6133SOL    HW119298   0.526   2.628   2.891
 6133SOL    HW219299   0.530   2.534   2.758
 6134SOL     OW19300   4.702   3.413   6.767
 6134SOL    HW119301   4.685   3.316   6.782
 6134SOL    HW219302   4.695   3.462   6.854
 6135SOL     OW19303   6.051   0.160   2.314
 6135SOL    HW119304   6.143   0.181   2.347
 6135SOL    HW219305   6.020   0.074   2.355
 6136SOL     OW19306   0.544   1.708   2.860
 6136SOL    HW119307   0.531   1.790   2.805
 6136SOL    HW219308   0.590   1.732   2.946
 6137SOL     OW19309   4.003   0.789   5.551
 6137SOL    HW119310   4.087   0.844   5.557
 6137SOL    HW219311   3.949   0.801   5.634
 6138SOL     OW19312   3.777   6.853   2.455
 6138SOL    HW119313   3.708   6.924   2.439
 6138SOL    HW219314   3.738   6.763   2.435
 6139SOL     OW19315   2.292   2.920   4.318
 6139SOL    HW119316   2.308   2.821   4.314
 6139SOL    HW219317   2.299   2.958   4.226
 6140SOL     OW19318   0.608   6.416   1.576
 6140SOL    HW119319   0.544   6.465   1.635
 6140SOL    HW219320   0.561   6.388   1.492
 6141SOL     OW19321   5.817   6.101   5.013
 6141SOL    HW119322   5.909   6.137   5.024
 6141SOL    HW219323   5.818   6.025   4.948
 6142SOL     OW19324   0.097   5.052   0.382
 6142SOL    HW119325   0.056   4.964   0.360
 6142SOL    HW219326   0.068   5.121   0.315
 6143SOL     OW19327   5.871   4.687   6.800
 6143SOL    HW119328   5.847   4.599   6.759
 6143SOL    HW219329   5.874   4.757   6.729
 6144SOL     OW19330   6.594   5.025   2.547
 6144SOL    HW119331   6.604   5.105   2.488
 6144SOL    HW219332   6.553   4.950   2.495
 6145SOL     OW19333   4.937   6.251   3.767
 6145SOL    HW119334   4.953   6.346   3.794
 6145SOL    HW219335   4.839   6.235   3.759
 6146SOL     OW19336   4.628   1.002   3.701
 6146SOL    HW119337   4.616   0.905   3.682
 6146SOL    HW219338   4.587   1.024   3.790
 6147SOL     OW19339   1.693   4.600   3.218
 6147SOL    HW119340   1.776   4.624   3.269
 6147SOL    HW219341   1.614   4.647   3.258
 6148SOL     OW19342   6.925   0.190   4.594
 6148SOL    HW119343   6.874   0.155   4.673
 6148SOL    HW219344   6.876   0.166   4.511
 6149SOL     OW19345   3.585   4.942   3.219
 6149SOL    HW119346   3.671   4.894   3.203
 6149SOL    HW219347   3.518   4.915   3.149
 6150SOL     OW19348   4.335   4.978   6.623
 6150SOL    HW119349   4.326   5.069   6.582
 6150SOL    HW219350   4.325   4.909   6.551
 6151SOL     OW19351   6.872   3.810   4.479
 6151SOL    HW119352   6.807   3.848   4.413
 6151SOL    HW219353   6.908   3.884   4.536
 6152SOL     OW19354   4.942   4.686   5.527
 6152SOL    HW119355   4.998   4.701   5.446
 6152SOL    HW219356   4.898   4.771   5.554
 6153SOL     OW19357   4.759   3.885   1.836
 6153SOL    HW119358   4.756   3.785   1.843
 6153SOL    HW219359   4.697   3.915   1.764
 6154SOL     OW19360   4.986   1.473   2.013
 6154SOL    HW119361   4.964   1.377   2.031
 6154SOL    HW219362   5.028   1.481   1.922
 6155SOL     OW19363   1.448   2.800   3.920
 6155SOL    HW119364   1.435   2.736   3.844
 6155SOL    HW219365   1.502   2.757   3.992
 6156SOL     OW19366   4.698   5.006   2.370
 6156SOL    HW119367   4.653   4.923   2.400
 6156SOL    HW219368   4.646   5.086   2.401
 6157SOL     OW19369   1.321   1.700   3.842
 6157SOL    HW119370   1.380   1.744   3.775
 6157SOL    HW219371   1.363   1.705   3.933
 6158SOL     OW19372   5.061   0.667   6.561
 6158SOL    HW119373   5.087   0.758   6.529
 6158SOL    HW219374   5.098   0.652   6.652
 6159SOL     OW19375   4.634   1.592   0.134
 6159SOL    HW119376   4.600   1.675   0.178
 6159SOL    HW219377   4.591   1.512   0.175
 6160SOL     OW19378   5.794   5.926   0.634
 6160SOL    HW119379   5.859   5.876   0.691
 6160SOL    HW219380   5.735   5.981   0.693
 6161SOL     OW19381   5.922   2.273   6.023
 6161SOL    HW119382   5.844   2.318   6.067
 6161SOL    HW219383   6.000   2.272   6.086
 6162SOL     OW19384   1.050   5.563   4.791
 6162SOL    HW119385   0.984   5.488   4.781
 6162SOL    HW219386   1.068   5.603   4.701
 6163SOL     OW19387   5.405   5.546   1.268
 6163SOL    HW119388   5.419   5.600   1.185
 6163SOL    HW219389   5.318   5.570   1.310
 6164SOL     OW19390   1.592   2.951   1.666
 6164SOL    HW119391   1.597   2.946   1.766
 6164SOL    HW219392   1.682   2.930   1.627
 6165SOL     OW19393   3.467   6.065   6.929
 6165SOL    HW119394   3.489   5.973   6.963
 6165SOL    HW219395   3.384   6.061   6.875
 6166SOL     OW19396   3.606   1.156   5.219
 6166SOL    HW119397   3.689   1.163   5.273
 6166SOL    HW219398   3.548   1.236   5.235
 6167SOL     OW19399   0.485   5.032   2.260
 6167SOL    HW119400   0.511   5.120   2.299
 6167SOL    HW219401   0.452   4.972   2.333
 6168SOL     OW19402   0.131   3.822   0.573
 6168SOL    HW119403   0.163   3.867   0.656
 6168SOL    HW219404   0.209   3.795   0.517
 6169SOL     OW19405   1.287   3.029   1.939
 6169SOL    HW119406   1.210   3.060   1.995
 6169SOL    HW219407   1.335   3.108   1.902
 6170SOL     OW19408   0.349   3.105   5.443
 6170SOL    HW119409   0.385   3.017   5.412
 6170SOL    HW219410   0.421   3.156   5.490
 6171SOL     OW19411   0.347   1.746   0.613
 6171SOL    HW119412   0.248   1.761   0.612
 6171SOL    HW219413   0.381   1.752   0.707
 6172SOL     OW19414   0.658   2.606   2.592
 6172SOL    HW119415   0.713   2.681   2.556
 6172SOL    HW219416   0.692   2.519   2.555
 6173SOL     OW19417   6.923   5.442   2.924
 6173SOL    HW119418   6.938   5.539   2.902
 6173SOL    HW219419   6.979   5.417   3.002
 6174SOL     OW19420   4.520   5.058   3.463
 6174SOL    HW119421   4.571   5.143   3.470
 6174SOL    HW219422   4.509   5.033   3.367
 6175SOL     OW19423   3.432   0.829   4.476
 6175SOL    HW119424   3.522   0.871   4.488
 6175SOL    HW219425   3.404   0.785   4.561
 6176SOL     OW19426   4.466   3.439   5.302
 6176SOL    HW119427   4.535   3.477   5.241
 6176SOL    HW219428   4.491   3.345   5.325
 6177SOL     OW19429   5.017   1.837   1.863
 6177SOL    HW119430   5.092   1.779   1.895
 6177SOL    HW219431   5.048   1.932   1.860
 6178SOL     OW19432   4.815   3.993   2.087
 6178SOL    HW119433   4.774   3.950   2.007
 6178SOL    HW219434   4.855   4.081   2.061
 6179SOL     OW19435   6.627   4.442   1.688
 6179SOL    HW119436   6.542   4.494   1.698
 6179SOL    HW219437   6.699   4.501   1.654
 6180SOL     OW19438   3.391   4.743   0.676
 6180SOL    HW119439   3.375   4.779   0.584
 6180SOL    HW219440   3.425   4.649   0.669
 6181SOL     OW19441   4.991   5.951   6.246
 6181SOL    HW119442   5.083   5.914   6.231
 6181SOL    HW219443   4.990   6.047   6.218
 6182SOL     OW19444   4.263   2.270   0.035
 6182SOL    HW119445   4.290   2.351   0.087
 6182SOL    HW219446   4.342   2.212   0.019
 6183SOL     OW19447   1.655   2.135   1.522
 6183SOL    HW119448   1.751   2.106   1.517
 6183SOL    HW219449   1.598   2.057   1.550
 6184SOL     OW19450   2.848   0.500   6.254
 6184SOL    HW119451   2.843   0.536   6.161
 6184SOL    HW219452   2.850   0.577   6.319
 6185SOL     OW19453   2.762   4.037   5.734
 6185SOL    HW119454   2.858   4.060   5.751
 6185SOL    HW219455   2.728   3.980   5.808
 6186SOL     OW19456   0.036   1.851   2.188
 6186SOL    HW119457   7.023   1.807   2.108
 6186SOL    HW219458   0.014   1.799   2.270
 6187SOL     OW19459   4.750   2.952   4.968
 6187SOL    HW119460   4.814   3.026   4.946
 6187SOL    HW219461   4.792   2.864   4.948
 6188SOL     OW19462   1.655   1.501   5.531
 6188SOL    HW119463   1.626   1.552   5.449
 6188SOL    HW219464   1.752   1.479   5.524
 6189SOL     OW19465   3.968   5.551   2.684
 6189SOL    HW119466   3.979   5.635   2.630
 6189SOL    HW219467   3.922   5.573   2.770
 6190SOL     OW19468   6.438   3.433   5.859
 6190SOL    HW119469   6.454   3.406   5.764
 6190SOL    HW219470   6.345   3.469   5.869
 6191SOL     OW19471   2.268   3.044   5.593
 6191SOL    HW119472   2.245   3.142   5.593
 6191SOL    HW219473   2.199   2.994   5.645
 6192SOL     OW19474   2.221   2.177   6.309
 6192SOL    HW119475   2.300   2.146   6.256
 6192SOL    HW219476   2.188   2.264   6.272
 6193SOL     OW19477   4.917   5.609   0.470
 6193SOL    HW119478   4.977   5.538   0.506
 6193SOL    HW219479   4.963   5.698   0.477
 6194SOL     OW19480   6.593   0.805   6.445
 6194SOL    HW119481   6.645   0.890   6.448
 6194SOL    HW219482   6.629   0.742   6.514
 6195SOL     OW19483   5.505   6.661   4.740
 6195SOL    HW119484   5.565   6.585   4.763
 6195SOL    HW219485   5.469   6.650   4.648
 6196SOL     OW19486   5.320   4.352   3.403
 6196SOL    HW119487   5.349   4.310   3.317
 6196SOL    HW219488   5.224   4.380   3.396
 6197SOL     OW19489   2.315   5.182   2.857
 6197SOL    HW119490   2.216   5.194   2.865
 6197SOL    HW219491   2.353   5.256   2.802
 6198SOL     OW19492   5.883   6.235   6.720
 6198SOL    HW119493   5.822   6.272   6.651
 6198SOL    HW219494   5.834   6.228   6.807
 6199SOL     OW19495   0.782   0.870   0.539
 6199SOL    HW119496   0.717   0.945   0.535
 6199SOL    HW219497   0.770   0.811   0.459
 6200SOL     OW19498   1.087   1.127   2.508
 6200SOL    HW119499   0.995   1.109   2.475
 6200SOL    HW219500   1.140   1.172   2.436
 6201SOL     OW19501   0.799   4.530   4.450
 6201SOL    HW119502   0.774   4.620   4.415
 6201SOL    HW219503   0.898   4.526   4.465
 6202SOL     OW19504   6.274   1.939   3.113
 6202SOL    HW119505   6.297   1.991   3.195
 6202SOL    HW219506   6.201   1.874   3.134
 6203SOL     OW19507   5.942   5.499   1.888
 6203SOL    HW119508   5.992   5.582   1.864
 6203SOL    HW219509   5.993   5.419   1.858
 6204SOL     OW19510   1.297   6.207   4.917
 6204SOL    HW119511   1.311   6.160   4.830
 6204SOL    HW219512   1.385   6.219   4.963
 6205SOL     OW19513   4.816   5.017   2.132
 6205SOL    HW119514   4.809   5.022   2.231
 6205SOL    HW219515   4.869   4.937   2.105
 6206SOL     OW19516   4.589   2.077   3.729
 6206SOL    HW119517   4.538   1.991   3.720
 6206SOL    HW219518   4.551   2.130   3.805
 6207SOL     OW19519   1.508   6.180   4.067
 6207SOL    HW119520   1.474   6.122   4.141
 6207SOL    HW219521   1.598   6.147   4.037
 6208SOL     OW19522   3.561   2.241   6.099
 6208SOL    HW119523   3.635   2.294   6.140
 6208SOL    HW219524   3.527   2.175   6.165
 6209SOL     OW19525   3.094   4.416   1.155
 6209SOL    HW119526   3.108   4.432   1.253
 6209SOL    HW219527   3.040   4.333   1.142
 6210SOL     OW19528   5.108   3.903   2.889
 6210SOL    HW119529   5.196   3.952   2.889
 6210SOL    HW219530   5.046   3.946   2.824
 6211SOL     OW19531   4.441   5.501   5.719
 6211SOL    HW119532   4.362   5.545   5.677
 6211SOL    HW219533   4.497   5.458   5.648
 6212SOL     OW19534   2.433   4.638   4.426
 6212SOL    HW119535   2.406   4.573   4.356
 6212SOL    HW219536   2.434   4.593   4.515
 6213SOL     OW19537   4.974   6.676   0.642
 6213SOL    HW119538   5.023   6.670   0.729
 6213SOL    HW219539   5.034   6.714   0.572
 6214SOL     OW19540   5.325   5.581   5.749
 6214SOL    HW119541   5.307   5.655   5.814
 6214SOL    HW219542   5.325   5.618   5.656
 6215SOL     OW19543   5.178   3.184   6.485
 6215SOL    HW119544   5.087   3.224   6.490
 6215SOL    HW219545   5.182   3.102   6.542
 6216SOL     OW19546   6.388   2.792   3.297
 6216SOL    HW119547   6.303   2.828   3.258
 6216SOL    HW219548   6.443   2.751   3.224
 6217SOL     OW19549   0.467   4.629   2.045
 6217SOL    HW119550   0.513   4.570   2.110
 6217SOL    HW219551   0.435   4.575   1.967
 6218SOL     OW19552   4.821   6.180   0.339
 6218SOL    HW119553   4.747   6.243   0.360
 6218SOL    HW219554   4.835   6.177   0.240
 6219SOL     OW19555   1.784   0.956   5.022
 6219SOL    HW119556   1.756   1.023   4.953
 6219SOL    HW219557   1.704   0.908   5.057
 6220SOL     OW19558   3.334   0.584   0.204
 6220SOL    HW119559   3.433   0.569   0.207
 6220SOL    HW219560   3.291   0.531   0.277
 6221SOL     OW19561   6.563   6.310   6.407
 6221SOL    HW119562   6.577   6.409   6.406
 6221SOL    HW219563   6.631   6.268   6.467
 6222SOL     OW19564   5.693   1.351   2.371
 6222SOL    HW119565   5.777   1.390   2.334
 6222SOL    HW219566   5.674   1.264   2.326
 6223SOL     OW19567   0.886   5.258   3.962
 6223SOL    HW119568   0.838   5.346   3.968
 6223SOL    HW219569   0.847   5.194   4.028
 6224SOL     OW19570   4.099   0.794   6.297
 6224SOL    HW119571   4.022   0.780   6.359
 6224SOL    HW219572   4.122   0.708   6.252
 6225SOL     OW19573   3.923   1.096   6.391
 6225SOL    HW119574   3.965   1.185   6.376
 6225SOL    HW219575   3.847   1.084   6.326
 6226SOL     OW19576   1.520   1.461   3.588
 6226SOL    HW119577   1.567   1.460   3.676
 6226SOL    HW219578   1.423   1.440   3.602
 6227SOL     OW19579   2.938   4.719   5.347
 6227SOL    HW119580   2.899   4.648   5.289
 6227SOL    HW219581   3.027   4.747   5.311
 6228SOL     OW19582   1.147   2.636   3.709
 6228SOL    HW119583   1.226   2.674   3.660
 6228SOL    HW219584   1.063   2.676   3.672
 6229SOL     OW19585   6.748   3.275   4.792
 6229SOL    HW119586   6.785   3.227   4.871
 6229SOL    HW219587   6.741   3.372   4.812
 6230SOL     OW19588   0.785   1.075   3.065
 6230SOL    HW119589   0.785   1.173   3.086
 6230SOL    HW219590   0.767   1.062   2.968
 6231SOL     OW19591   5.536   4.249   0.124
 6231SOL    HW119592   5.453   4.293   0.160
 6231SOL    HW219593   5.509   4.179   0.058
 6232SOL     OW19594   6.232   0.780   0.579
 6232SOL    HW119595   6.180   0.748   0.500
 6232SOL    HW219596   6.196   0.868   0.609
 6233SOL     OW19597   0.208   3.391   1.918
 6233SOL    HW119598   0.247   3.339   1.842
 6233SOL    HW219599   0.203   3.488   1.893
 6234SOL     OW19600   0.141   0.290   4.609
 6234SOL    HW119601   0.042   0.274   4.606
 6234SOL    HW219602   0.169   0.337   4.526
 6235SOL     OW19603   0.007   0.506   1.909
 6235SOL    HW119604   0.085   0.458   1.868
 6235SOL    HW219605   0.040   0.585   1.961
 6236SOL     OW19606   0.357   3.750   0.418
 6236SOL    HW119607   0.340   3.680   0.349
 6236SOL    HW219608   0.360   3.840   0.375
 6237SOL     OW19609   3.610   6.666   0.533
 6237SOL    HW119610   3.511   6.654   0.546
 6237SOL    HW219611   3.659   6.592   0.578
 6238SOL     OW19612   3.227   6.655   3.555
 6238SOL    HW119613   3.146   6.656   3.614
 6238SOL    HW219614   3.209   6.600   3.474
 6239SOL     OW19615   3.554   6.955   1.914
 6239SOL    HW119616   3.558   0.008   1.973
 6239SOL    HW219617   3.535   6.875   1.971
 6240SOL     OW19618   2.851   4.123   5.301
 6240SOL    HW119619   2.884   4.210   5.339
 6240SOL    HW219620   2.757   4.108   5.331
 6241SOL     OW19621   3.677   0.202   3.906
 6241SOL    HW119622   3.711   0.131   3.967
 6241SOL    HW219623   3.719   0.192   3.816
 6242SOL     OW19624   2.434   2.228   2.857
 6242SOL    HW119625   2.514   2.279   2.827
 6242SOL    HW219626   2.398   2.173   2.781
 6243SOL     OW19627   6.752   0.529   5.687
 6243SOL    HW119628   6.745   0.626   5.711
 6243SOL    HW219629   6.836   0.491   5.725
 6244SOL     OW19630   4.747   4.162   2.675
 6244SOL    HW119631   4.841   4.138   2.700
 6244SOL    HW219632   4.727   4.127   2.583
 6245SOL     OW19633   0.847   4.740   2.446
 6245SOL    HW119634   0.762   4.690   2.463
 6245SOL    HW219635   0.829   4.838   2.451
 6246SOL     OW19636   1.683   6.937   4.793
 6246SOL    HW119637   1.713   6.870   4.725
 6246SOL    HW219638   1.583   6.942   4.793
 6247SOL     OW19639   0.492   5.180   3.767
 6247SOL    HW119640   0.534   5.249   3.708
 6247SOL    HW219641   0.475   5.219   3.858
 6248SOL     OW19642   4.106   3.011   6.925
 6248SOL    HW119643   4.080   3.018   7.021
 6248SOL    HW219644   4.142   3.099   6.893
 6249SOL     OW19645   6.965   2.500   1.650
 6249SOL    HW119646   6.911   2.537   1.574
 6249SOL    HW219647   6.912   2.506   1.734
 6250SOL     OW19648   0.116   7.026   0.758
 6250SOL    HW119649   0.172   0.062   0.809
 6250SOL    HW219650   0.154   7.015   0.666
 6251SOL     OW19651   3.330   6.720   4.983
 6251SOL    HW119652   3.313   6.799   5.041
 6251SOL    HW219653   3.266   6.721   4.906
 6252SOL     OW19654   2.559   4.941   6.742
 6252SOL    HW119655   2.566   4.856   6.794
 6252SOL    HW219656   2.511   5.010   6.797
 6253SOL     OW19657   2.868   4.999   4.532
 6253SOL    HW119658   2.788   5.050   4.564
 6253SOL    HW219659   2.865   4.906   4.570
 6254SOL     OW19660   0.777   5.814   0.794
 6254SOL    HW119661   0.769   5.850   0.702
 6254SOL    HW219662   0.701   5.848   0.850
 6255SOL     OW19663   2.001   2.262   1.016
 6255SOL    HW119664   1.938   2.193   0.979
 6255SOL    HW219665   1.975   2.352   0.980
 6256SOL     OW19666   4.712   5.801   2.552
 6256SOL    HW119667   4.811   5.805   2.537
 6256SOL    HW219668   4.668   5.757   2.474
 6257SOL     OW19669   4.482   3.649   0.532
 6257SOL    HW119670   4.415   3.721   0.521
 6257SOL    HW219671   4.436   3.560   0.533
 6258SOL     OW19672   4.056   0.060   5.952
 6258SOL    HW119673   4.000   7.007   5.938
 6258SOL    HW219674   4.153   0.037   5.939
 6259SOL     OW19675   1.514   0.548   5.633
 6259SOL    HW119676   1.471   0.460   5.651
 6259SOL    HW219677   1.613   0.541   5.647
 6260SOL     OW19678   1.642   0.737   0.291
 6260SOL    HW119679   1.563   0.685   0.260
 6260SOL    HW219680   1.629   0.834   0.269
 6261SOL     OW19681   5.117   0.045   1.621
 6261SOL    HW119682   5.179   0.105   1.570
 6261SOL    HW219683   5.137   0.052   1.719
 6262SOL     OW19684   6.637   6.040   2.709
 6262SOL    HW119685   6.671   6.079   2.624
 6262SOL    HW219686   6.653   5.941   2.710
 6263SOL     OW19687   0.118   6.476   4.549
 6263SOL    HW119688   0.141   6.410   4.620
 6263SOL    HW219689   0.169   6.561   4.564
 6264SOL     OW19690   0.866   6.930   1.315
 6264SOL    HW119691   0.902   6.847   1.273
 6264SOL    HW219692   0.799   6.905   1.385
 6265SOL     OW19693   3.859   3.303   0.811
 6265SOL    HW119694   3.869   3.212   0.771
 6265SOL    HW219695   3.938   3.359   0.788
 6266SOL     OW19696   3.371   6.276   3.079
 6266SOL    HW119697   3.373   6.352   3.144
 6266SOL    HW219698   3.303   6.209   3.108
 6267SOL     OW19699   1.318   6.259   5.292
 6267SOL    HW119700   1.303   6.250   5.390
 6267SOL    HW219701   1.276   6.181   5.245
 6268SOL     OW19702   4.037   0.345   2.181
 6268SOL    HW119703   3.938   0.355   2.170
 6268SOL    HW219704   4.083   0.384   2.101
 6269SOL     OW19705   5.530   6.071   1.540
 6269SOL    HW119706   5.548   6.021   1.456
 6269SOL    HW219707   5.480   6.155   1.519
 6270SOL     OW19708   0.898   6.306   0.027
 6270SOL    HW119709   0.812   6.294   7.004
 6270SOL    HW219710   0.944   6.389   7.025
 6271SOL     OW19711   5.666   2.873   6.634
 6271SOL    HW119712   5.605   2.795   6.621
 6271SOL    HW219713   5.686   2.915   6.545
 6272SOL     OW19714   6.928   0.503   6.471
 6272SOL    HW119715   6.883   0.577   6.420
 6272SOL    HW219716   7.016   0.482   6.429
 6273SOL     OW19717   0.082   6.471   2.609
 6273SOL    HW119718   0.105   6.374   2.620
 6273SOL    HW219719   0.103   6.500   2.516
 6274SOL     OW19720   3.101   6.400   4.976
 6274SOL    HW119721   3.054   6.311   4.981
 6274SOL    HW219722   3.198   6.385   4.958
 6275SOL     OW19723   2.490   6.166   0.473
 6275SOL    HW119724   2.429   6.088   0.488
 6275SOL    HW219725   2.509   6.174   0.375
 6276SOL     OW19726   3.402   5.675   3.106
 6276SOL    HW119727   3.422   5.654   3.010
 6276SOL    HW219728   3.488   5.696   3.154
 6277SOL     OW19729   4.867   1.800   1.621
 6277SOL    HW119730   4.966   1.804   1.634
 6277SOL    HW219731   4.826   1.743   1.692
 6278SOL     OW19732   3.450   0.035   5.867
 6278SOL    HW119733   3.383   0.109   5.871
 6278SOL    HW219734   3.469   0.013   5.771
 6279SOL     OW19735   3.090   5.376   0.936
 6279SOL    HW119736   3.159   5.386   1.008
 6279SOL    HW219737   3.075   5.279   0.917
 6280SOL     OW19738   6.304   2.014   0.008
 6280SOL    HW119739   6.220   2.001   6.984
 6280SOL    HW219740   6.341   2.105   7.019
 6281SOL     OW19741   6.073   4.359   4.298
 6281SOL    HW119742   6.077   4.352   4.198
 6281SOL    HW219743   6.166   4.354   4.335
 6282SOL     OW19744   6.836   4.003   5.927
 6282SOL    HW119745   6.896   3.931   5.962
 6282SOL    HW219746   6.772   3.965   5.860
 6283SOL     OW19747   0.801   5.621   5.232
 6283SOL    HW119748   0.826   5.702   5.285
 6283SOL    HW219749   0.829   5.633   5.137
 6284SOL     OW19750   1.439   4.650   6.764
 6284SOL    HW119751   1.523   4.694   6.733
 6284SOL    HW219752   1.362   4.683   6.710
 6285SOL     OW19753   1.890   3.723   3.437
 6285SOL    HW119754   1.902   3.726   3.536
 6285SOL    HW219755   1.903   3.629   3.405
 6286SOL     OW19756   0.239   3.728   4.696
 6286SOL    HW119757   0.291   3.644   4.714
 6286SOL    HW219758   0.302   3.803   4.679
 6287SOL     OW19759   4.098   4.600   5.329
 6287SOL    HW119760   4.150   4.547   5.262
 6287SOL    HW219761   4.148   4.684   5.351
 6288SOL     OW19762   4.186   3.294   6.903
 6288SOL    HW119763   4.111   3.332   6.848
 6288SOL    HW219764   4.159   3.290   6.999
 6289SOL     OW19765   2.370   4.269   6.657
 6289SOL    HW119766   2.436   4.241   6.588
 6289SOL    HW219767   2.401   4.353   6.701
 6290SOL     OW19768   6.128   5.518   6.390
 6290SOL    HW119769   6.109   5.563   6.477
 6290SOL    HW219770   6.076   5.433   6.385
 6291SOL     OW19771   3.375   3.075   3.220
 6291SOL    HW119772   3.443   3.138   3.185
 6291SOL    HW219773   3.413   3.022   3.296
 6292SOL     OW19774   1.897   2.098   4.613
 6292SOL    HW119775   1.914   2.050   4.528
 6292SOL    HW219776   1.979   2.150   4.639
 6293SOL     OW19777   4.773   1.508   0.515
 6293SOL    HW119778   4.794   1.492   0.611
 6293SOL    HW219779   4.674   1.510   0.502
 6294SOL     OW19780   3.627   1.111   3.812
 6294SOL    HW119781   3.644   1.061   3.897
 6294SOL    HW219782   3.714   1.136   3.770
 6295SOL     OW19783   5.083   5.060   4.695
 6295SOL    HW119784   5.088   5.138   4.632
 6295SOL    HW219785   5.171   5.013   4.697
 6296SOL     OW19786   0.564   3.486   6.075
 6296SOL    HW119787   0.503   3.425   6.024
 6296SOL    HW219788   0.550   3.472   6.173
 6297SOL     OW19789   6.162   0.141   4.620
 6297SOL    HW119790   6.099   0.188   4.682
 6297SOL    HW219791   6.117   0.059   4.583
 6298SOL     OW19792   5.479   4.039   6.971
 6298SOL    HW119793   5.426   3.955   6.981
 6298SOL    HW219794   5.556   4.024   6.910
 6299SOL     OW19795   5.145   2.708   2.708
 6299SOL    HW119796   5.054   2.682   2.675
 6299SOL    HW219797   5.196   2.626   2.733
 6300SOL     OW19798   4.246   0.934   6.576
 6300SOL    HW119799   4.282   0.913   6.485
 6300SOL    HW219800   4.266   1.030   6.598
 6301SOL     OW19801   3.277   6.389   6.795
 6301SOL    HW119802   3.339   6.343   6.858
 6301SOL    HW219803   3.279   6.488   6.812
 6302SOL     OW19804   2.482   1.678   5.876
 6302SOL    HW119805   2.541   1.662   5.956
 6302SOL    HW219806   2.497   1.770   5.842
 6303SOL     OW19807   1.312   6.606   5.582
 6303SOL    HW119808   1.400   6.594   5.627
 6303SOL    HW219809   1.326   6.629   5.486
 6304SOL     OW19810   4.188   0.956   3.465
 6304SOL    HW119811   4.096   0.947   3.428
 6304SOL    HW219812   4.254   0.920   3.399
 6305SOL     OW19813   6.700   5.688   5.851
 6305SOL    HW119814   6.604   5.679   5.824
 6305SOL    HW219815   6.706   5.715   5.947
 6306SOL     OW19816   0.503   3.829   4.080
 6306SOL    HW119817   0.568   3.757   4.055
 6306SOL    HW219818   0.531   3.870   4.167
 6307SOL     OW19819   3.889   3.730   3.596
 6307SOL    HW119820   3.921   3.756   3.687
 6307SOL    HW219821   3.967   3.729   3.533
 6308SOL     OW19822   0.186   2.355   5.627
 6308SOL    HW119823   0.112   2.337   5.692
 6308SOL    HW219824   0.149   2.401   5.547
 6309SOL     OW19825   0.847   6.836   4.376
 6309SOL    HW119826   0.912   6.899   4.419
 6309SOL    HW219827   0.883   6.806   4.288
 6310SOL     OW19828   1.559   6.795   3.398
 6310SOL    HW119829   1.652   6.809   3.366
 6310SOL    HW219830   1.495   6.806   3.322
 6311SOL     OW19831   5.226   1.082   6.560
 6311SOL    HW119832   5.242   1.103   6.656
 6311SOL    HW219833   5.238   0.983   6.545
 6312SOL     OW19834   2.989   6.818   6.380
 6312SOL    HW119835   2.962   6.723   6.395
 6312SOL    HW219836   3.086   6.822   6.356
 6313SOL     OW19837   5.465   6.163   3.139
 6313SOL    HW119838   5.456   6.086   3.202
 6313SOL    HW219839   5.404   6.237   3.168
 6314SOL     OW19840   2.974   7.002   1.449
 6314SOL    HW119841   2.966   0.046   1.517
 6314SOL    HW219842   3.045   6.937   1.478
 6315SOL     OW19843   1.885   2.721   4.423
 6315SOL    HW119844   1.937   2.757   4.501
 6315SOL    HW219845   1.846   2.798   4.372
 6316SOL     OW19846   4.601   1.763   5.576
 6316SOL    HW119847   4.695   1.731   5.568
 6316SOL    HW219848   4.589   1.809   5.664
 6317SOL     OW19849   5.331   4.391   2.588
 6317SOL    HW119850   5.318   4.487   2.564
 6317SOL    HW219851   5.309   4.378   2.685
 6318SOL     OW19852   6.523   0.103   6.667
 6318SOL    HW119853   6.620   0.089   6.646
 6318SOL    HW219854   6.497   0.196   6.641
 6319SOL     OW19855   5.831   2.481   4.938
 6319SOL    HW119856   5.790   2.501   4.848
 6319SOL    HW219857   5.929   2.498   4.934
 6320SOL     OW19858   0.877   0.903   3.741
 6320SOL    HW119859   0.839   0.961   3.668
 6320SOL    HW219860   0.917   0.821   3.701
 6321SOL     OW19861   5.303   2.691   0.664
 6321SOL    HW119862   5.380   2.684   0.727
 6321SOL    HW219863   5.226   2.639   0.700
 6322SOL     OW19864   2.284   1.130   0.670
 6322SOL    HW119865   2.237   1.128   0.581
 6322SOL    HW219866   2.322   1.222   0.685
 6323SOL     OW19867   2.749   2.971   1.223
 6323SOL    HW119868   2.829   2.984   1.281
 6323SOL    HW219869   2.748   2.878   1.187
 6324SOL     OW19870   4.674   1.384   0.918
 6324SOL    HW119871   4.650   1.307   0.859
 6324SOL    HW219872   4.592   1.417   0.964
 6325SOL     OW19873   1.726   2.508   2.338
 6325SOL    HW119874   1.811   2.560   2.330
 6325SOL    HW219875   1.656   2.550   2.281
 6326SOL     OW19876   4.717   4.852   5.594
 6326SOL    HW119877   4.678   4.792   5.664
 6326SOL    HW219878   4.760   4.931   5.639
 6327SOL     OW19879   0.358   2.168   3.592
 6327SOL    HW119880   0.417   2.192   3.514
 6327SOL    HW219881   0.414   2.128   3.665
 6328SOL     OW19882   4.846   4.100   6.039
 6328SOL    HW119883   4.755   4.063   6.022
 6328SOL    HW219884   4.892   4.046   6.110
 6329SOL     OW19885   1.000   2.922   5.041
 6329SOL    HW119886   1.034   3.015   5.028
 6329SOL    HW219887   1.072   2.866   5.082
 6330SOL     OW19888   5.923   0.735   3.311
 6330SOL    HW119889   5.896   0.644   3.342
 6330SOL    HW219890   6.014   0.757   3.346
 6331SOL     OW19891   6.322   3.093   4.486
 6331SOL    HW119892   6.312   2.997   4.512
 6331SOL    HW219893   6.383   3.139   4.550
 6332SOL     OW19894   1.749   1.728   1.405
 6332SOL    HW119895   1.700   1.805   1.364
 6332SOL    HW219896   1.831   1.708   1.352
 6333SOL     OW19897   4.977   0.064   0.431
 6333SOL    HW119898   5.040   0.124   0.381
 6333SOL    HW219899   4.887   0.066   0.387
 6334SOL     OW19900   2.475   1.751   1.876
 6334SOL    HW119901   2.518   1.781   1.791
 6334SOL    HW219902   2.546   1.725   1.941
 6335SOL     OW19903   5.397   0.929   1.038
 6335SOL    HW119904   5.349   1.008   1.001
 6335SOL    HW219905   5.432   0.950   1.129
 6336SOL     OW19906   6.858   4.646   6.134
 6336SOL    HW119907   6.776   4.695   6.105
 6336SOL    HW219908   6.903   4.606   6.054
 6337SOL     OW19909   4.267   5.760   5.170
 6337SOL    HW119910   4.271   5.660   5.171
 6337SOL    HW219911   4.177   5.789   5.137
 6338SOL     OW19912   3.099   1.907   4.270
 6338SOL    HW119913   3.197   1.897   4.287
 6338SOL    HW219914   3.072   1.848   4.194
 6339SOL     OW19915   0.496   3.376   2.426
 6339SOL    HW119916   0.470   3.285   2.456
 6339SOL    HW219917   0.585   3.373   2.381
 6340SOL     OW19918   2.659   3.830   1.336
 6340SOL    HW119919   2.679   3.770   1.259
 6340SOL    HW219920   2.642   3.775   1.418
 6341SOL     OW19921   1.218   3.800   3.669
 6341SOL    HW119922   1.164   3.816   3.587
 6341SOL    HW219923   1.289   3.871   3.677
 6342SOL     OW19924   2.217   0.999   1.375
 6342SOL    HW119925   2.297   0.999   1.316
 6342SOL    HW219926   2.235   1.057   1.455
 6343SOL     OW19927   3.780   6.292   0.059
 6343SOL    HW119928   3.802   6.201   0.024
 6343SOL    HW219929   3.693   6.322   0.021
 6344SOL     OW19930   5.890   2.893   4.333
 6344SOL    HW119931   5.950   2.813   4.324
 6344SOL    HW219932   5.925   2.953   4.405
 6345SOL     OW19933   5.034   3.342   2.017
 6345SOL    HW119934   5.053   3.367   1.922
 6345SOL    HW219935   5.014   3.424   2.070
 6346SOL     OW19936   7.000   4.063   5.701
 6346SOL    HW119937   6.959   4.033   5.787
 6346SOL    HW219938   6.938   4.041   5.625
 6347SOL     OW19939   2.670   2.242   2.360
 6347SOL    HW119940   2.603   2.177   2.325
 6347SOL    HW219941   2.658   2.330   2.314
 6348SOL     OW19942   0.550   1.990   6.006
 6348SOL    HW119943   0.592   2.022   6.090
 6348SOL    HW219944   0.576   1.895   5.989
 6349SOL     OW19945   1.455   0.171   0.213
 6349SOL    HW119946   1.533   0.174   0.276
 6349SOL    HW219947   1.460   0.088   0.157
 6350SOL     OW19948   1.031   4.934   2.706
 6350SOL    HW119949   1.112   4.876   2.714
 6350SOL    HW219950   0.987   4.943   2.795
 6351SOL     OW19951   6.737   4.101   3.391
 6351SOL    HW119952   6.775   4.021   3.437
 6351SOL    HW219953   6.645   4.118   3.424
 6352SOL     OW19954   2.556   0.563   4.159
 6352SOL    HW119955   2.565   0.620   4.241
 6352SOL    HW219956   2.464   0.576   4.121
 6353SOL     OW19957   2.475   5.203   0.229
 6353SOL    HW119958   2.404   5.255   0.181
 6353SOL    HW219959   2.486   5.239   0.322
 6354SOL     OW19960   4.749   5.162   2.945
 6354SOL    HW119961   4.726   5.106   3.025
 6354SOL    HW219962   4.674   5.157   2.878
 6355SOL     OW19963   2.414   4.879   0.716
 6355SOL    HW119964   2.487   4.863   0.783
 6355SOL    HW219965   2.451   4.931   0.639
 6356SOL     OW19966   5.221   4.738   6.885
 6356SOL    HW119967   5.289   4.670   6.857
 6356SOL    HW219968   5.247   4.777   6.973
 6357SOL     OW19969   5.570   2.157   1.274
 6357SOL    HW119970   5.642   2.134   1.208
 6357SOL    HW219971   5.575   2.254   1.296
 6358SOL     OW19972   0.749   1.535   6.845
 6358SOL    HW119973   0.725   1.622   6.802
 6358SOL    HW219974   0.786   1.473   6.775
 6359SOL     OW19975   6.240   6.812   0.782
 6359SOL    HW119976   6.215   6.729   0.832
 6359SOL    HW219977   6.339   6.826   0.787
 6360SOL     OW19978   6.866   2.749   3.865
 6360SOL    HW119979   6.946   2.730   3.809
 6360SOL    HW219980   6.817   2.827   3.827
 6361SOL     OW19981   0.334   0.746   0.238
 6361SOL    HW119982   0.251   0.792   0.272
 6361SOL    HW219983   0.385   0.809   0.179
 6362SOL     OW19984   1.105   6.070   6.443
 6362SOL    HW119985   1.163   6.140   6.401
 6362SOL    HW219986   1.012   6.106   6.453
 6363SOL     OW19987   2.689   5.210   3.653
 6363SOL    HW119988   2.709   5.291   3.598
 6363SOL    HW219989   2.770   5.152   3.659
 6364SOL     OW19990   2.221   2.281   4.796
 6364SOL    HW119991   2.144   2.253   4.853
 6364SOL    HW219992   2.306   2.272   4.848
 6365SOL     OW19993   6.043   5.559   4.743
 6365SOL    HW119994   6.036   5.653   4.712
 6365SOL    HW219995   5.969   5.539   4.807
 6366SOL     OW19996   5.844   6.583   4.490
 6366SOL    HW119997   5.874   6.487   4.491
 6366SOL    HW219998   5.921   6.642   4.515
 6367SOL     OW19999   3.086   1.881   2.832
 6367SOL    HW120000   2.994   1.854   2.861
 6367SOL    HW220001   3.087   1.979   2.811
 6368SOL     OW20002   4.669   4.365   4.032
 6368SOL    HW120003   4.699   4.270   4.027
 6368SOL    HW220004   4.702   4.406   4.118
 6369SOL     OW20005   2.576   6.024   5.749
 6369SOL    HW120006   2.625   5.937   5.743
 6369SOL    HW220007   2.495   6.021   5.690
 6370SOL     OW20008   5.370   3.888   3.575
 6370SOL    HW120009   5.359   3.790   3.561
 6370SOL    HW220010   5.432   3.925   3.506
 6371SOL     OW20011   5.612   3.732   1.949
 6371SOL    HW120012   5.562   3.656   1.990
 6371SOL    HW220013   5.552   3.782   1.886
 6372SOL     OW20014   0.361   1.157   2.646
 6372SOL    HW120015   0.442   1.100   2.659
 6372SOL    HW220016   0.368   1.207   2.560
 6373SOL     OW20017   5.520   4.243   1.411
 6373SOL    HW120018   5.508   4.303   1.331
 6373SOL    HW220019   5.458   4.164   1.403
 6374SOL     OW20020   4.758   3.033   0.388
 6374SOL    HW120021   4.678   3.024   0.447
 6374SOL    HW220022   4.729   3.028   0.292
 6375SOL     OW20023   0.540   2.573   2.297
 6375SOL    HW120024   0.636   2.544   2.304
 6375SOL    HW220025   0.494   2.555   2.384
 6376SOL     OW20026   4.696   0.539   5.649
 6376SOL    HW120027   4.735   0.604   5.714
 6376SOL    HW220028   4.760   0.464   5.634
 6377SOL     OW20029   0.060   0.625   6.677
 6377SOL    HW120030   7.009   0.587   6.629
 6377SOL    HW220031   0.139   0.568   6.659
 6378SOL     OW20032   5.074   5.677   2.691
 6378SOL    HW120033   5.056   5.579   2.686
 6378SOL    HW220034   5.043   5.712   2.780
 6379SOL     OW20035   1.895   5.478   6.101
 6379SOL    HW120036   1.975   5.462   6.043
 6379SOL    HW220037   1.891   5.575   6.126
 6380SOL     OW20038   0.447   3.540   4.759
 6380SOL    HW120039   0.524   3.593   4.793
 6380SOL    HW220040   0.457   3.444   4.788
 6381SOL     OW20041   3.952   3.067   0.534
 6381SOL    HW120042   3.895   3.146   0.514
 6381SOL    HW220043   3.934   2.996   0.466
 6382SOL     OW20044   2.707   1.892   1.155
 6382SOL    HW120045   2.680   1.879   1.250
 6382SOL    HW220046   2.801   1.861   1.142
 6383SOL     OW20047   2.022   2.917   2.787
 6383SOL    HW120048   1.961   2.992   2.758
 6383SOL    HW220049   2.108   2.956   2.821
 6384SOL     OW20050   5.950   2.726   2.325
 6384SOL    HW120051   5.867   2.672   2.339
 6384SOL    HW220052   5.967   2.736   2.227
 6385SOL     OW20053   6.871   3.757   1.021
 6385SOL    HW120054   6.882   3.729   0.926
 6385SOL    HW220055   6.953   3.805   1.052
 6386SOL     OW20056   2.003   3.741   0.582
 6386SOL    HW120057   2.004   3.701   0.674
 6386SOL    HW220058   1.997   3.841   0.590
 6387SOL     OW20059   5.985   1.177   0.263
 6387SOL    HW120060   5.902   1.163   0.209
 6387SOL    HW220061   6.000   1.097   0.321
 6388SOL     OW20062   6.608   5.140   2.836
 6388SOL    HW120063   6.515   5.123   2.802
 6388SOL    HW220064   6.673   5.082   2.787
 6389SOL     OW20065   1.648   6.911   0.105
 6389SOL    HW120066   1.693   6.996   0.075
 6389SOL    HW220067   1.550   6.926   0.110
 6390SOL     OW20068   6.145   0.756   0.314
 6390SOL    HW120069   6.225   0.813   0.297
 6390SOL    HW220070   6.067   0.791   0.262
 6391SOL     OW20071   0.871   0.944   5.711
 6391SOL    HW120072   0.941   0.952   5.639
 6391SOL    HW220073   0.850   1.035   5.747
 6392SOL     OW20074   3.642   5.901   3.164
 6392SOL    HW120075   3.678   5.814   3.199
 6392SOL    HW220076   3.589   5.946   3.236
 6393SOL     OW20077   5.606   6.734   1.812
 6393SOL    HW120078   5.640   6.648   1.773
 6393SOL    HW220079   5.513   6.719   1.848
 6394SOL     OW20080   0.900   4.963   0.922
 6394SOL    HW120081   0.889   4.917   0.834
 6394SOL    HW220082   0.830   5.034   0.931
 6395SOL     OW20083   0.341   4.078   2.668
 6395SOL    HW120084   0.352   4.176   2.652
 6395SOL    HW220085   0.271   4.063   2.737
 6396SOL     OW20086   6.915   3.300   6.848
 6396SOL    HW120087   6.982   3.252   6.792
 6396SOL    HW220088   6.825   3.295   6.803
 6397SOL     OW20089   6.594   2.504   2.937
 6397SOL    HW120090   6.629   2.461   2.853
 6397SOL    HW220091   6.540   2.438   2.988
 6398SOL     OW20092   1.310   6.204   1.428
 6398SOL    HW120093   1.345   6.116   1.397
 6398SOL    HW220094   1.215   6.194   1.457
 6399SOL     OW20095   1.959   0.158   6.690
 6399SOL    HW120096   2.012   0.128   6.610
 6399SOL    HW220097   1.933   0.078   6.744
 6400SOL     OW20098   1.506   6.178   3.343
 6400SOL    HW120099   1.559   6.207   3.263
 6400SOL    HW220100   1.414   6.216   3.337
 6401SOL     OW20101   4.275   4.760   2.919
 6401SOL    HW120102   4.318   4.850   2.916
 6401SOL    HW220103   4.297   4.709   2.836
 6402SOL     OW20104   1.419   3.997   3.693
 6402SOL    HW120105   1.493   4.064   3.682
 6402SOL    HW220106   1.440   3.937   3.771
 6403SOL     OW20107   5.646   6.474   4.941
 6403SOL    HW120108   5.658   6.492   5.038
 6403SOL    HW220109   5.572   6.407   4.928
 6404SOL     OW20110   4.095   1.042   2.563
 6404SOL    HW120111   4.145   0.961   2.594
 6404SOL    HW220112   3.999   1.034   2.591
 6405SOL     OW20113   5.427   1.577   3.409
 6405SOL    HW120114   5.364   1.521   3.356
 6405SOL    HW220115   5.380   1.616   3.487
 6406SOL     OW20116   0.815   2.567   2.872
 6406SOL    HW120117   0.731   2.536   2.828
 6406SOL    HW220118   0.796   2.648   2.927
 6407SOL     OW20119   1.812   6.341   3.480
 6407SOL    HW120120   1.812   6.440   3.467
 6407SOL    HW220121   1.856   6.297   3.402
 6408SOL     OW20122   7.004   0.766   1.095
 6408SOL    HW120123   0.002   0.862   1.085
 6408SOL    HW220124   6.942   0.741   1.021
 6409SOL     OW20125   6.344   4.847   4.088
 6409SOL    HW120126   6.352   4.771   4.024
 6409SOL    HW220127   6.364   4.814   4.181
 6410SOL     OW20128   2.470   1.234   5.683
 6410SOL    HW120129   2.457   1.198   5.591
 6410SOL    HW220130   2.515   1.164   5.740
 6411SOL     OW20131   0.037   3.034   1.754
 6411SOL    HW120132   0.078   3.103   1.695
 6411SOL    HW220133   0.104   3.002   1.820
 6412SOL     OW20134   3.357   0.735   6.802
 6412SOL    HW120135   3.456   0.728   6.814
 6412SOL    HW220136   3.319   0.644   6.784
 6413SOL     OW20137   4.344   5.039   4.484
 6413SOL    HW120138   4.297   5.034   4.396
 6413SOL    HW220139   4.353   5.134   4.512
 6414SOL     OW20140   0.772   0.034   0.119
 6414SOL    HW120141   0.701   0.075   0.063
 6414SOL    HW220142   0.743   6.971   0.147
 6415SOL     OW20143   1.376   3.494   2.906
 6415SOL    HW120144   1.350   3.566   2.842
 6415SOL    HW220145   1.361   3.525   3.000
 6416SOL     OW20146   3.409   7.027   6.502
 6416SOL    HW120147   3.430   6.998   6.595
 6416SOL    HW220148   3.364   6.952   6.454
 6417SOL     OW20149   5.036   2.078   0.810
 6417SOL    HW120150   5.009   2.152   0.872
 6417SOL    HW220151   5.014   2.104   0.716
 6418SOL     OW20152   4.523   4.491   1.779
 6418SOL    HW120153   4.429   4.523   1.771
 6418SOL    HW220154   4.530   4.426   1.855
 6419SOL     OW20155   1.174   6.402   6.723
 6419SOL    HW120156   1.136   6.335   6.787
 6419SOL    HW220157   1.260   6.438   6.760
 6420SOL     OW20158   1.273   2.806   4.136
 6420SOL    HW120159   1.333   2.731   4.164
 6420SOL    HW220160   1.307   2.846   4.051
 6421SOL     OW20161   5.341   0.538   1.459
 6421SOL    HW120162   5.357   0.497   1.369
 6421SOL    HW220163   5.420   0.519   1.518
 6422SOL     OW20164   0.100   2.494   5.425
 6422SOL    HW120165   0.033   2.545   5.478
 6422SOL    HW220166   0.075   2.497   5.328
 6423SOL     OW20167   2.954   5.763   4.394
 6423SOL    HW120168   3.027   5.701   4.366
 6423SOL    HW220169   2.989   5.857   4.393
 6424SOL     OW20170   0.467   3.302   4.891
 6424SOL    HW120171   0.410   3.220   4.900
 6424SOL    HW220172   0.561   3.280   4.915
 6425SOL     OW20173   7.002   5.633   2.586
 6425SOL    HW120174   6.916   5.591   2.557
 6425SOL    HW220175   0.010   5.689   2.512
 6426SOL     OW20176   4.443   4.559   4.650
 6426SOL    HW120177   4.446   4.656   4.628
 6426SOL    HW220178   4.371   4.541   4.716
 6427SOL     OW20179   3.157   3.716   2.976
 6427SOL    HW120180   3.114   3.677   3.057
 6427SOL    HW220181   3.208   3.645   2.927
 6428SOL     OW20182   4.903   2.303   0.642
 6428SOL    HW120183   4.959   2.276   0.564
 6428SOL    HW220184   4.908   2.402   0.654
 6429SOL     OW20185   2.049   0.912   5.065
 6429SOL    HW120186   1.950   0.919   5.052
 6429SOL    HW220187   2.080   0.820   5.040
 6430SOL     OW20188   0.006   0.697   5.303
 6430SOL    HW120189   7.024   0.598   5.312
 6430SOL    HW220190   6.944   0.739   5.300
 6431SOL     OW20191   4.877   5.648   3.150
 6431SOL    HW120192   4.852   5.570   3.091
 6431SOL    HW220193   4.797   5.677   3.202
 6432SOL     OW20194   3.437   3.893   6.562
 6432SOL    HW120195   3.425   3.878   6.464
 6432SOL    HW220196   3.524   3.852   6.591
 6433SOL     OW20197   2.989   5.283   0.073
 6433SOL    HW120198   3.030   5.242   0.155
 6433SOL    HW220199   3.048   5.356   0.040
 6434SOL     OW20200   3.149   6.000   6.523
 6434SOL    HW120201   3.051   6.020   6.523
 6434SOL    HW220202   3.181   5.989   6.429
 6435SOL     OW20203   5.802   0.044   0.634
 6435SOL    HW120204   5.875   7.028   0.582
 6435SOL    HW220205   5.842   0.099   0.707
 6436SOL     OW20206   0.714   4.012   3.428
 6436SOL    HW120207   0.746   3.952   3.354
 6436SOL    HW220208   0.624   3.982   3.459
 6437SOL     OW20209   0.830   1.327   5.312
 6437SOL    HW120210   0.823   1.385   5.231
 6437SOL    HW220211   0.920   1.339   5.354
 6438SOL     OW20212   0.227   5.329   6.613
 6438SOL    HW120213   0.228   5.243   6.562
 6438SOL    HW220214   0.162   5.323   6.688
 6439SOL     OW20215   6.662   0.872   3.825
 6439SOL    HW120216   6.757   0.844   3.837
 6439SOL    HW220217   6.657   0.972   3.820
 6440SOL     OW20218   2.319   0.569   6.692
 6440SOL    HW120219   2.414   0.597   6.676
 6440SOL    HW220220   2.309   0.543   6.788
 6441SOL     OW20221   0.320   0.752   3.332
 6441SOL    HW120222   0.261   0.740   3.412
 6441SOL    HW220223   0.413   0.774   3.361
 6442SOL     OW20224   2.386   1.951   4.814
 6442SOL    HW120225   2.308   1.936   4.753
 6442SOL    HW220226   2.357   1.934   4.908
 6443SOL     OW20227   3.837   1.975   0.354
 6443SOL    HW120228   3.935   1.973   0.369
 6443SOL    HW220229   3.791   2.010   0.435
 6444SOL     OW20230   0.073   2.824   5.514
 6444SOL    HW120231   0.100   2.921   5.507
 6444SOL    HW220232   7.010   2.813   5.476
 6445SOL     OW20233   3.441   3.387   3.473
 6445SOL    HW120234   3.500   3.309   3.450
 6445SOL    HW220235   3.454   3.410   3.570
 6446SOL     OW20236   1.959   2.103   6.228
 6446SOL    HW120237   1.871   2.064   6.256
 6446SOL    HW220238   2.017   2.114   6.309
 6447SOL     OW20239   6.549   4.280   1.263
 6447SOL    HW120240   6.570   4.376   1.246
 6447SOL    HW220241   6.586   4.253   1.352
 6448SOL     OW20242   4.845   5.622   1.866
 6448SOL    HW120243   4.751   5.597   1.888
 6448SOL    HW220244   4.908   5.571   1.925
 6449SOL     OW20245   2.329   5.826   1.317
 6449SOL    HW120246   2.357   5.879   1.397
 6449SOL    HW220247   2.315   5.731   1.344
 6450SOL     OW20248   0.503   3.951   0.848
 6450SOL    HW120249   0.578   3.900   0.805
 6450SOL    HW220250   0.482   3.910   0.937
 6451SOL     OW20251   3.508   1.895   6.996
 6451SOL    HW120252   3.602   1.893   0.000
 6451SOL    HW220253   3.492   1.978   6.943
 6452SOL     OW20254   5.299   3.762   2.587
 6452SOL    HW120255   5.251   3.847   2.608
 6452SOL    HW220256   5.338   3.768   2.495
 6453SOL     OW20257   3.492   6.962   0.984
 6453SOL    HW120258   3.520   6.891   0.918
 6453SOL    HW220259   3.564   6.973   1.053
 6454SOL     OW20260   6.793   1.927   2.829
 6454SOL    HW120261   6.818   1.851   2.770
 6454SOL    HW220262   6.860   2.001   2.818
 6455SOL     OW20263   6.475   4.802   2.981
 6455SOL    HW120264   6.391   4.794   2.927
 6455SOL    HW220265   6.503   4.711   3.013
 6456SOL     OW20266   0.677   1.249   2.639
 6456SOL    HW120267   0.709   1.185   2.569
 6456SOL    HW220268   0.603   1.305   2.603
 6457SOL     OW20269   5.280   6.841   1.616
 6457SOL    HW120270   5.215   6.910   1.586
 6457SOL    HW220271   5.331   6.875   1.695
 6458SOL     OW20272   1.389   4.964   4.403
 6458SOL    HW120273   1.479   4.982   4.442
 6458SOL    HW220274   1.336   4.906   4.465
 6459SOL     OW20275   5.671   2.949   3.293
 6459SOL    HW120276   5.715   2.902   3.370
 6459SOL    HW220277   5.584   2.904   3.273
 6460SOL     OW20278   6.617   5.349   5.277
 6460SOL    HW120279   6.668   5.323   5.195
 6460SOL    HW220280   6.549   5.418   5.254
 6461SOL     OW20281   3.457   4.478   0.633
 6461SOL    HW120282   3.399   4.418   0.688
 6461SOL    HW220283   3.550   4.477   0.671
 6462SOL     OW20284   1.886   3.793   4.458
 6462SOL    HW120285   1.927   3.866   4.514
 6462SOL    HW220286   1.956   3.728   4.432
 6463SOL     OW20287   5.051   0.651   0.777
 6463SOL    HW120288   5.041   0.608   0.687
 6463SOL    HW220289   4.990   0.606   0.842
 6464SOL     OW20290   1.174   6.434   4.815
 6464SOL    HW120291   1.197   6.350   4.863
 6464SOL    HW220292   1.185   6.420   4.717
 6465SOL     OW20293   5.712   2.666   2.164
 6465SOL    HW120294   5.752   2.642   2.075
 6465SOL    HW220295   5.620   2.629   2.171
 6466SOL     OW20296   6.727   2.680   6.387
 6466SOL    HW120297   6.791   2.751   6.359
 6466SOL    HW220298   6.774   2.613   6.443
 6467SOL     OW20299   3.374   1.185   0.842
 6467SOL    HW120300   3.375   1.285   0.851
 6467SOL    HW220301   3.457   1.155   0.795
 6468SOL     OW20302   4.168   6.332   0.671
 6468SOL    HW120303   4.158   6.418   0.723
 6468SOL    HW220304   4.243   6.341   0.606
 6469SOL     OW20305   3.015   2.122   4.062
 6469SOL    HW120306   3.100   2.083   4.097
 6469SOL    HW220307   2.999   2.089   3.969
 6470SOL     OW20308   6.718   2.593   0.319
 6470SOL    HW120309   6.690   2.497   0.331
 6470SOL    HW220310   6.646   2.653   0.353
 6471SOL     OW20311   0.690   6.618   5.212
 6471SOL    HW120312   0.597   6.599   5.181
 6471SOL    HW220313   0.690   6.692   5.278
 6472SOL     OW20314   6.701   6.409   2.444
 6472SOL    HW120315   6.670   6.321   2.408
 6472SOL    HW220316   6.728   6.398   2.540
 6473SOL     OW20317   1.908   1.563   4.301
 6473SOL    HW120318   1.846   1.534   4.229
 6473SOL    HW220319   1.999   1.576   4.263
 6474SOL     OW20320   4.302   5.068   5.458
 6474SOL    HW120321   4.392   5.071   5.414
 6474SOL    HW220322   4.311   5.097   5.553
 6475SOL     OW20323   5.680   5.262   3.353
 6475SOL    HW120324   5.733   5.317   3.289
 6475SOL    HW220325   5.743   5.206   3.408
 6476SOL     OW20326   3.791   2.272   6.615
 6476SOL    HW120327   3.845   2.303   6.693
 6476SOL    HW220328   3.708   2.328   6.608
 6477SOL     OW20329   0.007   5.916   1.108
 6477SOL    HW120330   6.942   5.899   1.140
 6477SOL    HW220331   0.034   5.843   1.046
 6478SOL     OW20332   2.572   5.811   1.752
 6478SOL    HW120333   2.641   5.788   1.683
 6478SOL    HW220334   2.615   5.812   1.842
 6479SOL     OW20335   3.468   5.792   4.378
 6479SOL    HW120336   3.401   5.787   4.452
 6479SOL    HW220337   3.494   5.888   4.364
 6480SOL     OW20338   2.177   0.730   0.057
 6480SOL    HW120339   2.078   0.730   0.065
 6480SOL    HW220340   2.206   0.659   7.021
 6481SOL     OW20341   3.003   2.264   1.714
 6481SOL    HW120342   2.955   2.306   1.791
 6481SOL    HW220343   3.070   2.328   1.677
 6482SOL     OW20344   6.992   2.253   5.832
 6482SOL    HW120345   0.002   2.333   5.879
 6482SOL    HW220346   6.938   2.283   5.753
 6483SOL     OW20347   1.337   5.545   4.328
 6483SOL    HW120348   1.394   5.628   4.329
 6483SOL    HW220349   1.297   5.535   4.237
 6484SOL     OW20350   3.061   1.569   2.828
 6484SOL    HW120351   3.066   1.534   2.922
 6484SOL    HW220352   2.992   1.642   2.824
 6485SOL     OW20353   2.368   6.608   5.063
 6485SOL    HW120354   2.422   6.690   5.047
 6485SOL    HW220355   2.276   6.634   5.095
 6486SOL     OW20356   0.897   5.005   2.923
 6486SOL    HW120357   0.802   4.976   2.909
 6486SOL    HW220358   0.908   5.040   3.016
 6487SOL     OW20359   1.177   5.342   4.544
 6487SOL    HW120360   1.251   5.332   4.478
 6487SOL    HW220361   1.215   5.343   4.636
 6488SOL     OW20362   4.788   5.528   4.662
 6488SOL    HW120363   4.846   5.605   4.636
 6488SOL    HW220364   4.830   5.442   4.632
 6489SOL     OW20365   3.620   3.133   6.284
 6489SOL    HW120366   3.585   3.227   6.279
 6489SOL    HW220367   3.621   3.092   6.193
 6490SOL     OW20368   2.114   1.727   6.629
 6490SOL    HW120369   2.058   1.792   6.680
 6490SOL    HW220370   2.057   1.652   6.595
 6491SOL     OW20371   2.214   6.831   1.019
 6491SOL    HW120372   2.157   6.913   1.016
 6491SOL    HW220373   2.155   6.750   1.016
 6492SOL     OW20374   3.482   4.160   4.085
 6492SOL    HW120375   3.523   4.130   3.998
 6492SOL    HW220376   3.554   4.179   4.151
 6493SOL     OW20377   1.410   4.668   6.470
 6493SOL    HW120378   1.391   4.572   6.448
 6493SOL    HW220379   1.505   4.676   6.501
 6494SOL     OW20380   5.800   6.561   2.599
 6494SOL    HW120381   5.794   6.472   2.645
 6494SOL    HW220382   5.853   6.624   2.656
 6495SOL     OW20383   6.698   0.109   4.708
 6495SOL    HW120384   6.619   0.134   4.652
 6495SOL    HW220385   6.684   0.137   4.802
 6496SOL     OW20386   4.863   6.708   1.698
 6496SOL    HW120387   4.861   6.807   1.689
 6496SOL    HW220388   4.843   6.665   1.610
 6497SOL     OW20389   0.456   1.591   1.280
 6497SOL    HW120390   0.517   1.624   1.208
 6497SOL    HW220391   0.442   1.492   1.269
 6498SOL     OW20392   1.039   4.462   4.329
 6498SOL    HW120393   1.054   4.427   4.421
 6498SOL    HW220394   1.089   4.406   4.263
 6499SOL     OW20395   5.363   3.952   4.067
 6499SOL    HW120396   5.359   3.904   3.979
 6499SOL    HW220397   5.293   4.022   4.070
 6500SOL     OW20398   0.591   3.757   2.419
 6500SOL    HW120399   0.630   3.741   2.328
 6500SOL    HW220400   0.516   3.692   2.434
 6501SOL     OW20401   6.913   1.832   0.931
 6501SOL    HW120402   6.854   1.872   0.860
 6501SOL    HW220403   6.857   1.779   0.995
 6502SOL     OW20404   6.424   3.725   1.413
 6502SOL    HW120405   6.347   3.695   1.356
 6502SOL    HW220406   6.428   3.825   1.414
 6503SOL     OW20407   6.474   2.387   5.809
 6503SOL    HW120408   6.387   2.435   5.823
 6503SOL    HW220409   6.511   2.410   5.719
 6504SOL     OW20410   5.276   6.601   6.467
 6504SOL    HW120411   5.286   6.596   6.566
 6504SOL    HW220412   5.268   6.697   6.439
 6505SOL     OW20413   5.803   6.426   0.322
 6505SOL    HW120414   5.843   6.494   0.260
 6505SOL    HW220415   5.843   6.438   0.413
 6506SOL     OW20416   6.968   3.564   3.815
 6506SOL    HW120417   6.926   3.582   3.726
 6506SOL    HW220418   0.039   3.555   3.804
 6507SOL     OW20419   3.394   5.368   6.483
 6507SOL    HW120420   3.393   5.341   6.387
 6507SOL    HW220421   3.368   5.465   6.491
 6508SOL     OW20422   1.448   6.513   2.245
 6508SOL    HW120423   1.388   6.515   2.165
 6508SOL    HW220424   1.541   6.537   2.218
 6509SOL     OW20425   3.918   1.227   5.071
 6509SOL    HW120426   3.895   1.312   5.117
 6509SOL    HW220427   4.014   1.228   5.043
 6510SOL     OW20428   4.477   6.182   5.995
 6510SOL    HW120429   4.417   6.197   6.074
 6510SOL    HW220430   4.513   6.270   5.964
 6511SOL     OW20431   3.801   1.202   5.762
 6511SOL    HW120432   3.883   1.149   5.782
 6511SOL    HW220433   3.732   1.183   5.832
 6512SOL     OW20434   2.685   0.183   2.423
 6512SOL    HW120435   2.671   0.084   2.428
 6512SOL    HW220436   2.698   0.219   2.515
 6513SOL     OW20437   2.583   5.585   4.440
 6513SOL    HW120438   2.557   5.609   4.533
 6513SOL    HW220439   2.659   5.643   4.410
 6514SOL     OW20440   6.100   0.550   5.649
 6514SOL    HW120441   6.178   0.588   5.600
 6514SOL    HW220442   6.026   0.531   5.585
 6515SOL     OW20443   2.225   4.599   2.624
 6515SOL    HW120444   2.173   4.524   2.583
 6515SOL    HW220445   2.287   4.638   2.556
 6516SOL     OW20446   6.852   3.132   1.894
 6516SOL    HW120447   6.814   3.224   1.882
 6516SOL    HW220448   6.924   3.117   1.826
 6517SOL     OW20449   6.641   1.970   0.876
 6517SOL    HW120450   6.691   2.054   0.855
 6517SOL    HW220451   6.586   1.983   0.958
 6518SOL     OW20452   6.873   0.965   2.124
 6518SOL    HW120453   6.880   1.045   2.184
 6518SOL    HW220454   6.963   0.921   2.117
 6519SOL     OW20455   0.479   0.694   2.931
 6519SOL    HW120456   0.531   0.682   3.015
 6519SOL    HW220457   0.390   0.735   2.952
 6520SOL     OW20458   0.086   5.954   6.796
 6520SOL    HW120459   0.098   6.049   6.768
 6520SOL    HW220460   0.137   5.894   6.733
 6521SOL     OW20461   1.651   3.006   3.222
 6521SOL    HW120462   1.641   3.051   3.311
 6521SOL    HW220463   1.561   2.988   3.183
 6522SOL     OW20464   2.818   4.389   5.583
 6522SOL    HW120465   2.727   4.387   5.541
 6522SOL    HW220466   2.848   4.296   5.601
 6523SOL     OW20467   5.504   0.083   0.316
 6523SOL    HW120468   5.436   0.050   0.381
 6523SOL    HW220469   5.466   0.080   0.224
 6524SOL     OW20470   2.639   2.424   1.888
 6524SOL    HW120471   2.734   2.436   1.920
 6524SOL    HW220472   2.599   2.344   1.932
 6525SOL     OW20473   1.832   5.183   3.525
 6525SOL    HW120474   1.800   5.223   3.438
 6525SOL    HW220475   1.778   5.220   3.600
 6526SOL     OW20476   0.125   7.015   1.136
 6526SOL    HW120477   0.215   0.024   1.160
 6526SOL    HW220478   0.137   6.937   1.075
 6527SOL     OW20479   0.440   2.379   0.732
 6527SOL    HW120480   0.514   2.445   0.724
 6527SOL    HW220481   0.407   2.355   0.641
 6528SOL     OW20482   6.507   1.464   6.310
 6528SOL    HW120483   6.481   1.476   6.406
 6528SOL    HW220484   6.426   1.471   6.252
 6529SOL     OW20485   0.393   0.675   2.512
 6529SOL    HW120486   0.356   0.738   2.444
 6529SOL    HW220487   0.324   0.606   2.535
 6530SOL     OW20488   0.489   2.038   2.076
 6530SOL    HW120489   0.462   2.111   2.139
 6530SOL    HW220490   0.562   1.984   2.117
 6531SOL     OW20491   4.050   3.365   5.559
 6531SOL    HW120492   4.014   3.308   5.485
 6531SOL    HW220493   4.108   3.437   5.520
 6532SOL     OW20494   1.702   1.063   0.403
 6532SOL    HW120495   1.759   1.046   0.484
 6532SOL    HW220496   1.728   1.151   0.362
 6533SOL     OW20497   4.520   5.824   0.309
 6533SOL    HW120498   4.537   5.922   0.323
 6533SOL    HW220499   4.567   5.772   0.381
 6534SOL     OW20500   4.949   5.016   1.717
 6534SOL    HW120501   4.941   5.062   1.805
 6534SOL    HW220502   5.012   4.939   1.726
 6535SOL     OW20503   5.769   3.944   4.482
 6535SOL    HW120504   5.685   3.992   4.456
 6535SOL    HW220505   5.805   3.985   4.566
 6536SOL     OW20506   0.637   2.216   4.975
 6536SOL    HW120507   0.624   2.244   4.879
 6536SOL    HW220508   0.558   2.246   5.029
 6537SOL     OW20509   6.624   4.563   4.573
 6537SOL    HW120510   6.718   4.530   4.569
 6537SOL    HW220511   6.573   4.509   4.640
 6538SOL     OW20512   1.926   3.599   5.689
 6538SOL    HW120513   2.023   3.615   5.666
 6538SOL    HW220514   1.897   3.511   5.652
 6539SOL     OW20515   5.331   0.844   6.818
 6539SOL    HW120516   5.402   0.885   6.760
 6539SOL    HW220517   5.331   0.890   6.907
 6540SOL     OW20518   2.983   2.711   5.958
 6540SOL    HW120519   3.000   2.795   5.906
 6540SOL    HW220520   2.901   2.666   5.923
 6541SOL     OW20521   5.489   2.403   5.896
 6541SOL    HW120522   5.483   2.503   5.892
 6541SOL    HW220523   5.397   2.364   5.896
 6542SOL     OW20524   0.964   3.519   4.476
 6542SOL    HW120525   1.008   3.461   4.545
 6542SOL    HW220526   0.878   3.477   4.447
 6543SOL     OW20527   3.622   2.328   5.394
 6543SOL    HW120528   3.559   2.269   5.343
 6543SOL    HW220529   3.593   2.423   5.386
 6544SOL     OW20530   0.334   6.675   2.006
 6544SOL    HW120531   0.281   6.607   2.055
 6544SOL    HW220532   0.400   6.718   2.068
 6545SOL     OW20533   3.959   6.991   0.841
 6545SOL    HW120534   3.867   0.001   0.852
 6545SOL    HW220535   4.007   0.011   0.768
 6546SOL     OW20536   4.178   4.367   6.548
 6546SOL    HW120537   4.207   4.283   6.594
 6546SOL    HW220538   4.184   4.444   6.612
 6547SOL     OW20539   5.076   0.284   5.819
 6547SOL    HW120540   5.165   0.243   5.799
 6547SOL    HW220541   5.039   0.243   5.903
 6548SOL     OW20542   1.080   2.811   6.300
 6548SOL    HW120543   1.159   2.869   6.323
 6548SOL    HW220544   1.047   2.766   6.382
 6549SOL     OW20545   4.748   0.217   1.886
 6549SOL    HW120546   4.724   0.125   1.855
 6549SOL    HW220547   4.800   0.211   1.971
 6550SOL     OW20548   0.021   0.153   3.822
 6550SOL    HW120549   6.951   0.160   3.806
 6550SOL    HW220550   0.069   0.221   3.766
 6551SOL     OW20551   2.814   3.288   1.764
 6551SOL    HW120552   2.897   3.307   1.712
 6551SOL    HW220553   2.755   3.368   1.762
 6552SOL     OW20554   2.198   6.793   0.665
 6552SOL    HW120555   2.270   6.812   0.732
 6552SOL    HW220556   2.155   6.705   0.686
 6553SOL     OW20557   0.484   1.331   2.969
 6553SOL    HW120558   0.558   1.363   2.911
 6553SOL    HW220559   0.434   1.257   2.922
 6554SOL     OW20560   2.726   1.297   5.409
 6554SOL    HW120561   2.737   1.301   5.508
 6554SOL    HW220562   2.719   1.202   5.380
 6555SOL     OW20563   6.052   1.970   4.257
 6555SOL    HW120564   6.085   1.969   4.162
 6555SOL    HW220565   5.959   1.933   4.260
 6556SOL     OW20566   6.299   3.158   2.488
 6556SOL    HW120567   6.205   3.124   2.488
 6556SOL    HW220568   6.302   3.249   2.530
 6557SOL     OW20569   2.107   0.421   2.391
 6557SOL    HW120570   2.143   0.510   2.363
 6557SOL    HW220571   2.049   0.384   2.318
 6558SOL     OW20572   5.815   5.088   0.038
 6558SOL    HW120573   5.730   5.140   0.043
 6558SOL    HW220574   5.836   5.067   6.971
 6559SOL     OW20575   6.656   3.418   6.509
 6559SOL    HW120576   6.639   3.514   6.489
 6559SOL    HW220577   6.617   3.361   6.436
 6560SOL     OW20578   3.798   4.957   0.486
 6560SOL    HW120579   3.860   5.027   0.520
 6560SOL    HW220580   3.805   4.952   0.386
 6561SOL     OW20581   4.193   4.845   0.683
 6561SOL    HW120582   4.151   4.936   0.685
 6561SOL    HW220583   4.121   4.776   0.683
 6562SOL     OW20584   5.564   2.897   1.298
 6562SOL    HW120585   5.614   2.815   1.267
 6562SOL    HW220586   5.576   2.907   1.397
 6563SOL     OW20587   4.997   0.568   5.966
 6563SOL    HW120588   5.077   0.563   6.027
 6563SOL    HW220589   4.923   0.514   6.004
 6564SOL     OW20590   6.276   3.909   1.864
 6564SOL    HW120591   6.208   3.874   1.928
 6564SOL    HW220592   6.323   3.833   1.819
 6565SOL     OW20593   6.092   6.811   2.932
 6565SOL    HW120594   6.186   6.781   2.920
 6565SOL    HW220595   6.063   6.793   3.027
 6566SOL     OW20596   3.095   5.528   2.435
 6566SOL    HW120597   3.076   5.430   2.439
 6566SOL    HW220598   3.013   5.577   2.407
 6567SOL     OW20599   3.965   0.568   1.671
 6567SOL    HW120600   3.884   0.612   1.710
 6567SOL    HW220601   3.949   0.470   1.662
 6568SOL     OW20602   4.553   1.601   2.551
 6568SOL    HW120603   4.533   1.514   2.507
 6568SOL    HW220604   4.572   1.586   2.648
 6569SOL     OW20605   0.624   3.032   6.241
 6569SOL    HW120606   0.635   3.128   6.215
 6569SOL    HW220607   0.706   2.981   6.215
 6570SOL     OW20608   4.282   0.878   2.768
 6570SOL    HW120609   4.261   0.787   2.732
 6570SOL    HW220610   4.241   0.889   2.858
 6571SOL     OW20611   2.520   4.908   3.369
 6571SOL    HW120612   2.424   4.936   3.367
 6571SOL    HW220613   2.564   4.932   3.283
 6572SOL     OW20614   0.687   3.982   4.295
 6572SOL    HW120615   0.683   4.054   4.364
 6572SOL    HW220616   0.746   3.908   4.328
 6573SOL     OW20617   1.409   1.144   3.427
 6573SOL    HW120618   1.408   1.115   3.522
 6573SOL    HW220619   1.482   1.098   3.378
 6574SOL     OW20620   2.815   6.884   3.604
 6574SOL    HW120621   2.759   6.912   3.527
 6574SOL    HW220622   2.880   6.957   3.627
 6575SOL     OW20623   0.421   6.839   3.043
 6575SOL    HW120624   0.423   6.935   3.071
 6575SOL    HW220625   0.407   6.833   2.944
 6576SOL     OW20626   3.531   5.022   0.217
 6576SOL    HW120627   3.526   5.090   0.290
 6576SOL    HW220628   3.476   5.053   0.139
 6577SOL     OW20629   1.844   2.205   3.289
 6577SOL    HW120630   1.873   2.294   3.325
 6577SOL    HW220631   1.850   2.206   3.189
 6578SOL     OW20632   1.105   6.136   1.716
 6578SOL    HW120633   1.165   6.202   1.759
 6578SOL    HW220634   1.124   6.044   1.752
 6579SOL     OW20635   0.245   1.874   4.034
 6579SOL    HW120636   0.267   1.848   3.940
 6579SOL    HW220637   0.167   1.821   4.066
 6580SOL     OW20638   0.979   1.308   0.968
 6580SOL    HW120639   0.894   1.342   1.007
 6580SOL    HW220640   0.985   1.336   0.872
 6581SOL     OW20641   1.379   1.206   0.597
 6581SOL    HW120642   1.386   1.155   0.512
 6581SOL    HW220643   1.398   1.145   0.674
 6582SOL     OW20644   6.914   0.756   2.459
 6582SOL    HW120645   6.874   0.740   2.369
 6582SOL    HW220646   6.987   0.824   2.452
 6583SOL     OW20647   5.116   6.544   5.130
 6583SOL    HW120648   5.177   6.471   5.162
 6583SOL    HW220649   5.169   6.612   5.080
 6584SOL     OW20650   3.320   2.527   0.808
 6584SOL    HW120651   3.346   2.556   0.716
 6584SOL    HW220652   3.330   2.604   0.871
 6585SOL     OW20653   0.112   6.497   0.026
 6585SOL    HW120654   0.137   6.572   0.088
 6585SOL    HW220655   0.085   6.417   0.079
 6586SOL     OW20656   6.236   1.915   6.187
 6586SOL    HW120657   6.297   1.875   6.118
 6586SOL    HW220658   6.288   1.932   6.271
 6587SOL     OW20659   1.036   4.692   5.859
 6587SOL    HW120660   0.964   4.758   5.880
 6587SOL    HW220661   0.995   4.606   5.830
 6588SOL     OW20662   0.732   3.288   0.896
 6588SOL    HW120663   0.801   3.225   0.933
 6588SOL    HW220664   0.676   3.240   0.829
 6589SOL     OW20665   5.162   1.033   2.185
 6589SOL    HW120666   5.210   1.049   2.099
 6589SOL    HW220667   5.067   1.064   2.177
 6590SOL     OW20668   0.408   0.068   5.021
 6590SOL    HW120669   0.309   0.071   5.008
 6590SOL    HW220670   0.453   0.127   4.954
 6591SOL     OW20671   5.392   5.482   3.977
 6591SOL    HW120672   5.336   5.495   4.059
 6591SOL    HW220673   5.359   5.541   3.904
 6592SOL     OW20674   5.175   0.349   3.302
 6592SOL    HW120675   5.129   0.263   3.326
 6592SOL    HW220676   5.242   0.371   3.372
 6593SOL     OW20677   2.932   2.202   2.287
 6593SOL    HW120678   2.837   2.198   2.320
 6593SOL    HW220679   2.935   2.253   2.201
 6594SOL     OW20680   3.669   1.641   5.632
 6594SOL    HW120681   3.718   1.715   5.679
 6594SOL    HW220682   3.667   1.660   5.534
 6595SOL     OW20683   1.550   3.101   5.030
 6595SOL    HW120684   1.609   3.111   5.110
 6595SOL    HW220685   1.470   3.160   5.040
 6596SOL     OW20686   4.156   5.920   3.052
 6596SOL    HW120687   4.180   6.017   3.059
 6596SOL    HW220688   4.087   5.908   2.981
 6597SOL     OW20689   1.333   4.935   1.849
 6597SOL    HW120690   1.294   5.027   1.861
 6597SOL    HW220691   1.343   4.915   1.752
 6598SOL     OW20692   2.022   4.461   3.147
 6598SOL    HW120693   2.057   4.369   3.135
 6598SOL    HW220694   2.074   4.508   3.219
 6599SOL     OW20695   5.469   6.056   7.021
 6599SOL    HW120696   5.490   5.962   0.021
 6599SOL    HW220697   5.426   6.105   0.068
 6600SOL     OW20698   4.413   0.095   4.714
 6600SOL    HW120699   4.337   0.083   4.651
 6600SOL    HW220700   4.380   0.135   4.799
 6601SOL     OW20701   0.519   2.600   3.271
 6601SOL    HW120702   0.597   2.656   3.298
 6601SOL    HW220703   0.552   2.513   3.236
 6602SOL     OW20704   2.541   0.129   1.275
 6602SOL    HW120705   2.583   0.038   1.267
 6602SOL    HW220706   2.543   0.175   1.186
 6603SOL     OW20707   0.786   3.079   3.726
 6603SOL    HW120708   0.840   3.122   3.653
 6603SOL    HW220709   0.690   3.073   3.697
 6604SOL     OW20710   2.117   0.062   1.074
 6604SOL    HW120711   2.038   0.084   1.017
 6604SOL    HW220712   2.198   0.107   1.036
 6605SOL     OW20713   5.663   5.812   1.951
 6605SOL    HW120714   5.667   5.877   1.875
 6605SOL    HW220715   5.746   5.819   2.006
 6606SOL     OW20716   0.208   4.045   3.188
 6606SOL    HW120717   0.300   4.084   3.196
 6606SOL    HW220718   0.214   3.946   3.172
 6607SOL     OW20719   6.654   4.851   3.691
 6607SOL    HW120720   6.590   4.924   3.665
 6607SOL    HW220721   6.690   4.869   3.782
 6608SOL     OW20722   6.798   0.504   0.719
 6608SOL    HW120723   6.778   0.459   0.632
 6608SOL    HW220724   6.726   0.483   0.785
 6609SOL     OW20725   5.092   1.331   6.285
 6609SOL    HW120726   5.097   1.392   6.364
 6609SOL    HW220727   5.083   1.236   6.318
 6610SOL     OW20728   2.835   5.720   0.144
 6610SOL    HW120729   2.866   5.646   0.084
 6610SOL    HW220730   2.739   5.705   0.168
 6611SOL     OW20731   5.013   2.794   3.697
 6611SOL    HW120732   4.936   2.815   3.758
 6611SOL    HW220733   5.054   2.707   3.723
 6612SOL     OW20734   6.643   2.039   6.289
 6612SOL    HW120735   6.739   2.067   6.289
 6612SOL    HW220736   6.602   2.060   6.200
 6613SOL     OW20737   5.811   0.024   6.134
 6613SOL    HW120738   5.870   6.976   6.110
 6613SOL    HW220739   5.862   0.090   6.189
 6614SOL     OW20740   4.751   7.014   1.109
 6614SOL    HW120741   4.715   6.942   1.050
 6614SOL    HW220742   4.773   6.976   1.199
 6615SOL     OW20743   2.239   5.690   0.317
 6615SOL    HW120744   2.167   5.697   0.386
 6615SOL    HW220745   2.300   5.614   0.340
 6616SOL     OW20746   4.606   6.716   5.611
 6616SOL    HW120747   4.574   6.760   5.527
 6616SOL    HW220748   4.602   6.617   5.601
 6617SOL     OW20749   4.140   6.670   3.522
 6617SOL    HW120750   4.118   6.641   3.615
 6617SOL    HW220751   4.236   6.698   3.517
 6618SOL     OW20752   0.546   0.990   3.159
 6618SOL    HW120753   0.640   1.005   3.131
 6618SOL    HW220754   0.492   0.957   3.081
 6619SOL     OW20755   4.786   6.936   3.895
 6619SOL    HW120756   4.885   6.946   3.907
 6619SOL    HW220757   4.738   6.990   3.964
 6620SOL     OW20758   2.065   3.393   3.644
 6620SOL    HW120759   2.072   3.342   3.558
 6620SOL    HW220760   2.063   3.329   3.721
 6621SOL     OW20761   3.863   3.002   4.962
 6621SOL    HW120762   3.802   2.941   4.913
 6621SOL    HW220763   3.927   3.044   4.898
 6622SOL     OW20764   6.177   5.891   1.496
 6622SOL    HW120765   6.101   5.955   1.497
 6622SOL    HW220766   6.160   5.819   1.428
 6623SOL     OW20767   3.926   4.238   5.246
 6623SOL    HW120768   3.955   4.184   5.325
 6623SOL    HW220769   3.886   4.324   5.278
 6624SOL     OW20770   0.632   3.512   5.655
 6624SOL    HW120771   0.646   3.441   5.724
 6624SOL    HW220772   0.575   3.585   5.692
 6625SOL     OW20773   5.906   1.945   5.363
 6625SOL    HW120774   5.873   1.851   5.364
 6625SOL    HW220775   5.835   2.005   5.324
 6626SOL     OW20776   3.518   7.011   5.613
 6626SOL    HW120777   3.533   6.916   5.585
 6626SOL    HW220778   3.600   0.036   5.594
 6627SOL     OW20779   1.700   6.386   3.872
 6627SOL    HW120780   1.766   6.333   3.819
 6627SOL    HW220781   1.707   6.362   3.969
 6628SOL     OW20782   5.381   5.117   3.606
 6628SOL    HW120783   5.462   5.169   3.634
 6628SOL    HW220784   5.405   5.020   3.599
 6629SOL     OW20785   4.445   5.198   6.402
 6629SOL    HW120786   4.454   5.290   6.364
 6629SOL    HW220787   4.491   5.193   6.490
 6630SOL     OW20788   3.705   1.748   1.523
 6630SOL    HW120789   3.625   1.754   1.583
 6630SOL    HW220790   3.703   1.662   1.473
 6631SOL     OW20791   2.243   5.112   4.302
 6631SOL    HW120792   2.319   5.079   4.359
 6631SOL    HW220793   2.159   5.115   4.357
 6632SOL     OW20794   1.601   1.244   0.900
 6632SOL    HW120795   1.526   1.178   0.897
 6632SOL    HW220796   1.621   1.275   0.807
 6633SOL     OW20797   3.077   4.679   6.149
 6633SOL    HW120798   3.016   4.749   6.112
 6633SOL    HW220799   3.038   4.589   6.132
 6634SOL     OW20800   4.589   2.211   5.182
 6634SOL    HW120801   4.601   2.124   5.229
 6634SOL    HW220802   4.491   2.231   5.173
 6635SOL     OW20803   4.828   3.940   3.342
 6635SOL    HW120804   4.898   3.874   3.315
 6635SOL    HW220805   4.804   3.997   3.264
 6636SOL     OW20806   3.170   1.198   1.847
 6636SOL    HW120807   3.204   1.141   1.772
 6636SOL    HW220808   3.071   1.209   1.838
 6637SOL     OW20809   2.716   0.252   0.179
 6637SOL    HW120810   2.664   0.336   0.164
 6637SOL    HW220811   2.652   0.177   0.201
 6638SOL     OW20812   3.346   3.446   3.193
 6638SOL    HW120813   3.364   3.437   3.291
 6638SOL    HW220814   3.250   3.473   3.179
 6639SOL     OW20815   3.884   3.178   6.645
 6639SOL    HW120816   3.906   3.254   6.707
 6639SOL    HW220817   3.788   3.184   6.619
 6640SOL     OW20818   7.012   2.203   5.318
 6640SOL    HW120819   0.080   2.205   5.291
 6640SOL    HW220820   7.003   2.160   5.408
 6641SOL     OW20821   3.585   1.768   0.244
 6641SOL    HW120822   3.542   1.801   0.328
 6641SOL    HW220823   3.523   1.784   0.167
 6642SOL     OW20824   2.408   5.062   6.348
 6642SOL    HW120825   2.333   4.997   6.342
 6642SOL    HW220826   2.444   5.063   6.441
 6643SOL     OW20827   6.516   6.853   0.853
 6643SOL    HW120828   6.554   6.768   0.890
 6643SOL    HW220829   6.558   6.874   0.765
 6644SOL     OW20830   1.636   6.110   3.609
 6644SOL    HW120831   1.729   6.140   3.630
 6644SOL    HW220832   1.630   6.085   3.512
 6645SOL     OW20833   5.662   3.041   0.499
 6645SOL    HW120834   5.751   3.085   0.486
 6645SOL    HW220835   5.590   3.110   0.498
 6646SOL     OW20836   4.640   0.527   6.347
 6646SOL    HW120837   4.613   0.516   6.251
 6646SOL    HW220838   4.569   0.578   6.396
 6647SOL     OW20839   4.415   6.655   0.945
 6647SOL    HW120840   4.350   6.684   0.876
 6647SOL    HW220841   4.421   6.555   0.945
 6648SOL     OW20842   3.536   5.949   4.796
 6648SOL    HW120843   3.533   5.850   4.780
 6648SOL    HW220844   3.493   5.996   4.720
 6649SOL     OW20845   6.193   3.106   6.518
 6649SOL    HW120846   6.125   3.137   6.585
 6649SOL    HW220847   6.243   3.028   6.555
 6650SOL     OW20848   3.914   1.605   4.845
 6650SOL    HW120849   3.875   1.526   4.797
 6650SOL    HW220850   3.934   1.677   4.779
 6651SOL     OW20851   1.502   1.712   6.887
 6651SOL    HW120852   1.458   1.662   6.812
 6651SOL    HW220853   1.492   1.810   6.872
 6652SOL     OW20854   0.592   4.409   6.693
 6652SOL    HW120855   0.593   4.313   6.721
 6652SOL    HW220856   0.684   4.447   6.702
 6653SOL     OW20857   4.879   3.190   1.057
 6653SOL    HW120858   4.825   3.274   1.054
 6653SOL    HW220859   4.850   3.135   1.136
 6654SOL     OW20860   0.352   5.181   2.597
 6654SOL    HW120861   0.302   5.182   2.683
 6654SOL    HW220862   0.446   5.153   2.613
 6655SOL     OW20863   0.227   5.863   1.971
 6655SOL    HW120864   0.285   5.944   1.970
 6655SOL    HW220865   0.214   5.830   1.877
 6656SOL     OW20866   4.675   1.915   2.848
 6656SOL    HW120867   4.714   1.833   2.892
 6656SOL    HW220868   4.628   1.888   2.764
 6657SOL     OW20869   6.034   2.837   4.733
 6657SOL    HW120870   6.091   2.911   4.698
 6657SOL    HW220871   5.944   2.874   4.758
 6658SOL     OW20872   6.437   0.256   5.394
 6658SOL    HW120873   6.349   0.292   5.363
 6658SOL    HW220874   6.475   0.195   5.324
 6659SOL     OW20875   1.304   3.750   1.861
 6659SOL    HW120876   1.371   3.679   1.882
 6659SOL    HW220877   1.347   3.822   1.807
 6660SOL     OW20878   1.767   5.156   1.829
 6660SOL    HW120879   1.731   5.095   1.900
 6660SOL    HW220880   1.816   5.102   1.761
 6661SOL     OW20881   3.087   0.940   4.758
 6661SOL    HW120882   3.069   0.923   4.661
 6661SOL    HW220883   3.097   1.038   4.774
 6662SOL     OW20884   2.219   0.425   0.913
 6662SOL    HW120885   2.250   0.480   0.836
 6662SOL    HW220886   2.237   0.328   0.895
 6663SOL     OW20887   0.935   6.105   5.414
 6663SOL    HW120888   0.931   6.132   5.317
 6663SOL    HW220889   1.027   6.072   5.435
 6664SOL     OW20890   2.148   0.550   1.421
 6664SOL    HW120891   2.125   0.524   1.327
 6664SOL    HW220892   2.121   0.477   1.483
 6665SOL     OW20893   1.756   6.519   5.873
 6665SOL    HW120894   1.839   6.571   5.890
 6665SOL    HW220895   1.780   6.425   5.847
 6666SOL     OW20896   6.375   5.601   5.133
 6666SOL    HW120897   6.314   5.642   5.066
 6666SOL    HW220898   6.337   5.513   5.163
 6667SOL     OW20899   6.725   6.563   6.154
 6667SOL    HW120900   6.738   6.616   6.237
 6667SOL    HW220901   6.751   6.618   6.074
 6668SOL     OW20902   6.937   6.102   1.366
 6668SOL    HW120903   6.856   6.147   1.328
 6668SOL    HW220904   6.991   6.062   1.292
 6669SOL     OW20905   4.034   2.070   1.435
 6669SOL    HW120906   4.041   2.002   1.362
 6669SOL    HW220907   4.086   2.040   1.514
 6670SOL     OW20908   3.028   1.038   6.689
 6670SOL    HW120909   3.021   0.945   6.723
 6670SOL    HW220910   3.005   1.040   6.592
 6671SOL     OW20911   5.735   6.655   0.940
 6671SOL    HW120912   5.742   6.751   0.912
 6671SOL    HW220913   5.777   6.597   0.870
 6672SOL     OW20914   1.347   2.413   0.447
 6672SOL    HW120915   1.442   2.403   0.478
 6672SOL    HW220916   1.298   2.473   0.510
 6673SOL     OW20917   4.808   3.950   3.628
 6673SOL    HW120918   4.783   4.047   3.627
 6673SOL    HW220919   4.852   3.926   3.541
 6674SOL     OW20920   0.110   3.067   6.955
 6674SOL    HW120921   0.127   2.988   6.896
 6674SOL    HW220922   0.163   3.145   6.924
 6675SOL     OW20923   5.448   2.485   0.523
 6675SOL    HW120924   5.395   2.484   0.438
 6675SOL    HW220925   5.423   2.566   0.577
 6676SOL     OW20926   1.021   3.534   2.914
 6676SOL    HW120927   1.033   3.435   2.922
 6676SOL    HW220928   1.109   3.579   2.927
 6677SOL     OW20929   0.572   1.071   6.379
 6677SOL    HW120930   0.618   1.158   6.364
 6677SOL    HW220931   0.528   1.041   6.294
 6678SOL     OW20932   2.029   4.405   1.047
 6678SOL    HW120933   2.078   4.470   1.106
 6678SOL    HW220934   2.070   4.406   0.956
 6679SOL     OW20935   4.049   0.988   3.946
 6679SOL    HW120936   4.077   0.911   3.888
 6679SOL    HW220937   4.131   1.036   3.979
 6680SOL     OW20938   4.612   6.345   6.390
 6680SOL    HW120939   4.709   6.323   6.401
 6680SOL    HW220940   4.556   6.269   6.423
 6681SOL     OW20941   4.817   5.567   1.481
 6681SOL    HW120942   4.900   5.513   1.490
 6681SOL    HW220943   4.737   5.507   1.490
 6682SOL     OW20944   2.115   4.520   6.711
 6682SOL    HW120945   2.131   4.512   6.612
 6682SOL    HW220946   2.092   4.614   6.733
 6683SOL     OW20947   5.900   3.106   6.124
 6683SOL    HW120948   5.948   3.025   6.091
 6683SOL    HW220949   5.955   3.187   6.107
 6684SOL     OW20950   3.525   6.952   2.212
 6684SOL    HW120951   3.593   6.879   2.208
 6684SOL    HW220952   3.434   6.914   2.194
 6685SOL     OW20953   4.754   2.727   6.616
 6685SOL    HW120954   4.726   2.741   6.521
 6685SOL    HW220955   4.847   2.689   6.619
 6686SOL     OW20956   6.017   6.282   3.641
 6686SOL    HW120957   6.002   6.274   3.543
 6686SOL    HW220958   5.933   6.315   3.685
 6687SOL     OW20959   0.786   2.822   1.905
 6687SOL    HW120960   0.742   2.897   1.953
 6687SOL    HW220961   0.791   2.742   1.965
 6688SOL     OW20962   3.955   4.733   0.826
 6688SOL    HW120963   4.033   4.767   0.879
 6688SOL    HW220964   3.910   4.659   0.877
 6689SOL     OW20965   4.354   3.214   5.943
 6689SOL    HW120966   4.303   3.195   5.859
 6689SOL    HW220967   4.378   3.311   5.946
 6690SOL     OW20968   1.359   6.386   0.040
 6690SOL    HW120969   1.322   6.446   0.110
 6690SOL    HW220970   1.435   6.333   0.078
 6691SOL     OW20971   1.812   0.421   2.624
 6691SOL    HW120972   1.903   0.457   2.646
 6691SOL    HW220973   1.761   0.489   2.571
 6692SOL     OW20974   4.153   3.915   1.846
 6692SOL    HW120975   4.162   3.816   1.844
 6692SOL    HW220976   4.234   3.955   1.890
 6693SOL     OW20977   4.538   1.897   5.050
 6693SOL    HW120978   4.496   1.960   4.984
 6693SOL    HW220979   4.483   1.894   5.133
 6694SOL     OW20980   4.671   6.021   1.366
 6694SOL    HW120981   4.735   5.950   1.337
 6694SOL    HW220982   4.709   6.071   1.443
 6695SOL     OW20983   2.876   1.929   6.847
 6695SOL    HW120984   2.919   1.839   6.842
 6695SOL    HW220985   2.797   1.932   6.786
 6696SOL     OW20986   4.113   3.520   3.059
 6696SOL    HW120987   4.129   3.494   3.154
 6696SOL    HW220988   4.083   3.615   3.055
 6697SOL     OW20989   4.849   2.488   3.390
 6697SOL    HW120990   4.800   2.574   3.389
 6697SOL    HW220991   4.849   2.447   3.299
 6698SOL     OW20992   3.267   3.624   1.292
 6698SOL    HW120993   3.173   3.595   1.309
 6698SOL    HW220994   3.323   3.543   1.274
 6699SOL     OW20995   2.236   6.558   5.328
 6699SOL    HW120996   2.258   6.645   5.283
 6699SOL    HW220997   2.269   6.559   5.422
 6700SOL     OW20998   5.657   1.123   1.198
 6700SOL    HW120999   5.564   1.113   1.234
 6700SOL    HW221000   5.654   1.181   1.117
 6701SOL     OW21001   5.463   6.241   1.924
 6701SOL    HW121002   5.449   6.339   1.914
 6701SOL    HW221003   5.560   6.219   1.913
 6702SOL     OW21004   1.672   2.589   1.791
 6702SOL    HW121005   1.737   2.554   1.858
 6702SOL    HW221006   1.604   2.645   1.837
 6703SOL     OW21007   0.918   1.425   6.653
 6703SOL    HW121008   0.940   1.409   6.749
 6703SOL    HW221009   0.973   1.364   6.595
 6704SOL     OW21010   4.058   2.142   4.492
 6704SOL    HW121011   4.127   2.212   4.510
 6704SOL    HW221012   4.094   2.053   4.520
 6705SOL     OW21013   5.877   2.570   0.956
 6705SOL    HW121014   5.847   2.595   1.048
 6705SOL    HW221015   5.827   2.626   0.889
 6706SOL     OW21016   2.093   6.095   0.634
 6706SOL    HW121017   2.065   6.188   0.657
 6706SOL    HW221018   2.163   6.098   0.562
 6707SOL     OW21019   5.427   6.991   2.776
 6707SOL    HW121020   5.482   6.994   2.860
 6707SOL    HW221021   5.463   0.029   2.710
 6708SOL     OW21022   5.665   5.457   1.277
 6708SOL    HW121023   5.566   5.473   1.281
 6708SOL    HW221024   5.696   5.417   1.364
 6709SOL     OW21025   0.598   5.081   2.696
 6709SOL    HW121026   0.591   5.003   2.758
 6709SOL    HW221027   0.678   5.069   2.638
 6710SOL     OW21028   4.348   1.335   0.635
 6710SOL    HW121029   4.356   1.433   0.618
 6710SOL    HW221030   4.346   1.286   0.549
 6711SOL     OW21031   4.980   6.614   5.715
 6711SOL    HW121032   5.004   6.663   5.632
 6711SOL    HW221033   5.020   6.661   5.794
 6712SOL     OW21034   6.032   3.274   1.300
 6712SOL    HW121035   6.074   3.184   1.309
 6712SOL    HW221036   6.016   3.313   1.390
 6713SOL     OW21037   1.171   1.189   3.312
 6713SOL    HW121038   1.113   1.117   3.351
 6713SOL    HW221039   1.256   1.196   3.365
 6714SOL     OW21040   5.609   0.919   0.577
 6714SOL    HW121041   5.545   0.862   0.629
 6714SOL    HW221042   5.565   1.006   0.554
 6715SOL     OW21043   1.500   0.508   1.211
 6715SOL    HW121044   1.428   0.520   1.279
 6715SOL    HW221045   1.517   0.595   1.165
 6716SOL     OW21046   6.684   5.773   2.377
 6716SOL    HW121047   6.660   5.739   2.286
 6716SOL    HW221048   6.713   5.696   2.435
 6717SOL     OW21049   2.522   2.404   6.334
 6717SOL    HW121050   2.544   2.323   6.389
 6717SOL    HW221051   2.566   2.396   6.244
 6718SOL     OW21052   3.737   0.543   1.279
 6718SOL    HW121053   3.799   0.469   1.306
 6718SOL    HW221054   3.772   0.587   1.197
 6719SOL     OW21055   2.319   6.641   0.215
 6719SOL    HW121056   2.267   6.706   0.160
 6719SOL    HW221057   2.278   6.550   0.206
 6720SOL     OW21058   2.497   1.520   4.638
 6720SOL    HW121059   2.453   1.605   4.667
 6720SOL    HW221060   2.471   1.446   4.700
 6721SOL     OW21061   6.627   6.930   0.599
 6721SOL    HW121062   6.668   7.014   0.635
 6721SOL    HW221063   6.577   6.951   0.514
 6722SOL     OW21064   0.163   2.403   0.220
 6722SOL    HW121065   0.126   2.496   0.229
 6722SOL    HW221066   0.220   2.383   0.299
 6723SOL     OW21067   1.705   6.888   6.139
 6723SOL    HW121068   1.660   6.866   6.052
 6723SOL    HW221069   1.676   6.979   6.169
 6724SOL     OW21070   2.237   2.442   6.234
 6724SOL    HW121071   2.330   2.460   6.268
 6724SOL    HW221072   2.170   2.478   6.300
 6725SOL     OW21073   6.792   2.819   2.216
 6725SOL    HW121074   6.737   2.737   2.201
 6725SOL    HW221075   6.755   2.870   2.293
 6726SOL     OW21076   0.503   2.112   4.390
 6726SOL    HW121077   0.432   2.060   4.345
 6726SOL    HW221078   0.592   2.068   4.375
 6727SOL     OW21079   0.250   4.250   5.855
 6727SOL    HW121080   0.313   4.299   5.794
 6727SOL    HW221081   0.290   4.244   5.946
 6728SOL     OW21082   3.516   1.447   3.249
 6728SOL    HW121083   3.550   1.541   3.256
 6728SOL    HW221084   3.448   1.431   3.321
 6729SOL     OW21085   6.809   1.933   0.597
 6729SOL    HW121086   6.801   2.014   0.653
 6729SOL    HW221087   6.804   1.958   0.500
 6730SOL     OW21088   1.894   0.055   0.926
 6730SOL    HW121089   1.873   7.011   0.991
 6730SOL    HW221090   1.905   0.017   0.835
 6731SOL     OW21091   1.727   6.709   0.716
 6731SOL    HW121092   1.730   6.656   0.801
 6731SOL    HW221093   1.665   6.665   0.651
 6732SOL     OW21094   5.071   4.598   4.647
 6732SOL    HW121095   4.979   4.613   4.610
 6732SOL    HW221096   5.063   4.566   4.742
 6733SOL     OW21097   4.295   5.547   5.945
 6733SOL    HW121098   4.226   5.478   5.967
 6733SOL    HW221099   4.357   5.511   5.875
 6734SOL     OW21100   5.238   2.235   6.056
 6734SOL    HW121101   5.167   2.175   6.092
 6734SOL    HW221102   5.303   2.181   6.001
 6735SOL     OW21103   5.550   3.339   4.083
 6735SOL    HW121104   5.555   3.434   4.114
 6735SOL    HW221105   5.611   3.327   4.004
 6736SOL     OW21106   3.433   3.745   6.286
 6736SOL    HW121107   3.432   3.688   6.204
 6736SOL    HW221108   3.415   3.689   6.367
 6737SOL     OW21109   1.341   3.184   1.079
 6737SOL    HW121110   1.297   3.158   0.993
 6737SOL    HW221111   1.342   3.105   1.141
 6738SOL     OW21112   1.699   5.574   3.988
 6738SOL    HW121113   1.782   5.599   3.940
 6738SOL    HW221114   1.633   5.536   3.923
 6739SOL     OW21115   6.456   5.905   3.583
 6739SOL    HW121116   6.516   5.980   3.608
 6739SOL    HW221117   6.362   5.925   3.611
 6740SOL     OW21118   6.711   0.350   5.260
 6740SOL    HW121119   6.650   0.271   5.263
 6740SOL    HW221120   6.687   0.413   5.334
 6741SOL     OW21121   3.474   2.039   5.889
 6741SOL    HW121122   3.506   2.111   5.950
 6741SOL    HW221123   3.391   2.070   5.842
 6742SOL     OW21124   5.690   5.616   3.671
 6742SOL    HW121125   5.679   5.518   3.689
 6742SOL    HW221126   5.681   5.667   3.756
 6743SOL     OW21127   3.643   3.904   6.297
 6743SOL    HW121128   3.648   3.953   6.384
 6743SOL    HW221129   3.558   3.852   6.294
 6744SOL     OW21130   0.459   6.474   5.696
 6744SOL    HW121131   0.408   6.511   5.774
 6744SOL    HW221132   0.415   6.501   5.611
 6745SOL     OW21133   6.737   6.199   3.591
 6745SOL    HW121134   6.772   6.167   3.679
 6745SOL    HW221135   6.637   6.200   3.594
 6746SOL     OW21136   1.272   0.717   3.570
 6746SOL    HW121137   1.221   0.657   3.508
 6746SOL    HW221138   1.220   0.730   3.655
 6747SOL     OW21139   6.187   0.314   0.162
 6747SOL    HW121140   6.232   0.355   0.083
 6747SOL    HW221141   6.157   0.386   0.225
 6748SOL     OW21142   2.952   1.878   3.459
 6748SOL    HW121143   2.983   1.827   3.378
 6748SOL    HW221144   2.981   1.973   3.451
 6749SOL     OW21145   3.744   4.504   1.125
 6749SOL    HW121146   3.791   4.496   1.037
 6749SOL    HW221147   3.798   4.458   1.195
 6750SOL     OW21148   2.990   1.815   4.567
 6750SOL    HW121149   3.081   1.851   4.589
 6750SOL    HW221150   2.946   1.781   4.650
 6751SOL     OW21151   4.902   0.666   3.341
 6751SOL    HW121152   4.903   0.607   3.422
 6751SOL    HW221153   4.946   0.619   3.265
 6752SOL     OW21154   2.063   0.160   3.044
 6752SOL    HW121155   2.005   0.199   2.973
 6752SOL    HW221156   2.048   0.209   3.130
 6753SOL     OW21157   3.278   1.619   6.250
 6753SOL    HW121158   3.285   1.635   6.151
 6753SOL    HW221159   3.369   1.622   6.291
 6754SOL     OW21160   6.523   1.271   0.891
 6754SOL    HW121161   6.575   1.347   0.930
 6754SOL    HW221162   6.535   1.269   0.792
 6755SOL     OW21163   4.212   3.750   1.021
 6755SOL    HW121164   4.138   3.691   0.988
 6755SOL    HW221165   4.184   3.795   1.105
 6756SOL     OW21166   3.736   0.121   5.577
 6756SOL    HW121167   3.784   0.157   5.656
 6756SOL    HW221168   3.801   0.102   5.504
 6757SOL     OW21169   3.513   2.203   0.667
 6757SOL    HW121170   3.608   2.173   0.673
 6757SOL    HW221171   3.473   2.207   0.759
 6758SOL     OW21172   6.166   2.963   1.672
 6758SOL    HW121173   6.241   2.988   1.611
 6758SOL    HW221174   6.169   3.021   1.753
 6759SOL     OW21175   6.930   3.437   2.476
 6759SOL    HW121176   7.020   3.455   2.437
 6759SOL    HW221177   6.883   3.366   2.423
 6760SOL     OW21178   6.155   3.834   2.311
 6760SOL    HW121179   6.227   3.764   2.314
 6760SOL    HW221180   6.123   3.852   2.404
 6761SOL     OW21181   5.652   3.272   4.809
 6761SOL    HW121182   5.683   3.269   4.904
 6761SOL    HW221183   5.652   3.366   4.777
 6762SOL     OW21184   0.986   4.896   4.500
 6762SOL    HW121185   1.078   4.859   4.516
 6762SOL    HW221186   0.949   4.856   4.416
 6763SOL     OW21187   5.239   5.487   4.192
 6763SOL    HW121188   5.254   5.495   4.291
 6763SOL    HW221189   5.188   5.567   4.160
 6764SOL     OW21190   2.388   5.138   1.783
 6764SOL    HW121191   2.428   5.183   1.862
 6764SOL    HW221192   2.297   5.104   1.806
 6765SOL     OW21193   5.756   4.477   2.776
 6765SOL    HW121194   5.717   4.423   2.701
 6765SOL    HW221195   5.729   4.437   2.863
 6766SOL     OW21196   5.431   6.480   5.568
 6766SOL    HW121197   5.345   6.433   5.587
 6766SOL    HW221198   5.425   6.575   5.598
 6767SOL     OW21199   3.286   0.357   1.233
 6767SOL    HW121200   3.370   0.391   1.191
 6767SOL    HW221201   3.210   0.367   1.168
 6768SOL     OW21202   1.936   0.898   5.358
 6768SOL    HW121203   1.989   0.945   5.429
 6768SOL    HW221204   1.996   0.877   5.280
 6769SOL     OW21205   3.242   1.704   0.605
 6769SOL    HW121206   3.232   1.620   0.659
 6769SOL    HW221207   3.336   1.738   0.614
 6770SOL     OW21208   0.414   1.392   1.971
 6770SOL    HW121209   0.319   1.391   1.939
 6770SOL    HW221210   0.441   1.300   1.997
 6771SOL     OW21211   4.849   2.480   3.669
 6771SOL    HW121212   4.941   2.468   3.707
 6771SOL    HW221213   4.848   2.448   3.574
 6772SOL     OW21214   3.343   1.868   3.259
 6772SOL    HW121215   3.354   1.962   3.227
 6772SOL    HW221216   3.285   1.818   3.195
 6773SOL     OW21217   7.015   5.088   1.901
 6773SOL    HW121218   6.921   5.088   1.935
 6773SOL    HW221219   0.037   5.164   1.942
 6774SOL     OW21220   0.396   2.108   5.495
 6774SOL    HW121221   0.378   2.197   5.451
 6774SOL    HW221222   0.492   2.103   5.521
 6775SOL     OW21223   2.475   2.803   1.691
 6775SOL    HW121224   2.468   2.749   1.775
 6775SOL    HW221225   2.452   2.898   1.710
 6776SOL     OW21226   3.981   4.690   0.092
 6776SOL    HW121227   3.987   4.631   0.011
 6776SOL    HW221228   3.892   4.678   0.136
 6777SOL     OW21229   4.113   3.702   6.805
 6777SOL    HW121230   4.161   3.617   6.783
 6777SOL    HW221231   4.161   3.779   6.763
 6778SOL     OW21232   6.036   4.959   2.101
 6778SOL    HW121233   6.020   4.881   2.162
 6778SOL    HW221234   6.128   4.995   2.116
 6779SOL     OW21235   6.582   5.101   6.176
 6779SOL    HW121236   6.578   5.188   6.126
 6779SOL    HW221237   6.551   5.116   6.270
 6780SOL     OW21238   1.287   2.548   1.776
 6780SOL    HW121239   1.356   2.617   1.799
 6780SOL    HW221240   1.301   2.518   1.682
 6781SOL     OW21241   6.636   0.532   5.066
 6781SOL    HW121242   6.719   0.579   5.038
 6781SOL    HW221243   6.658   0.462   5.134
 6782SOL     OW21244   0.049   0.218   3.083
 6782SOL    HW121245   0.113   0.157   3.037
 6782SOL    HW221246   0.059   0.208   3.182
 6783SOL     OW21247   6.318   1.274   5.674
 6783SOL    HW121248   6.322   1.312   5.582
 6783SOL    HW221249   6.380   1.325   5.734
 6784SOL     OW21250   2.732   4.206   0.892
 6784SOL    HW121251   2.759   4.111   0.912
 6784SOL    HW221252   2.645   4.206   0.842
 6785SOL     OW21253   5.320   5.319   3.453
 6785SOL    HW121254   5.336   5.229   3.496
 6785SOL    HW221255   5.270   5.377   3.517
 6786SOL     OW21256   1.508   2.005   0.420
 6786SOL    HW121257   1.492   2.010   0.519
 6786SOL    HW221258   1.424   1.976   0.374
 6787SOL     OW21259   2.078   2.262   1.275
 6787SOL    HW121260   2.042   2.348   1.311
 6787SOL    HW221261   2.055   2.254   1.178
 6788SOL     OW21262   1.947   3.649   1.439
 6788SOL    HW121263   1.903   3.739   1.433
 6788SOL    HW221264   1.910   3.589   1.368
 6789SOL     OW21265   6.749   5.722   3.031
 6789SOL    HW121266   6.726   5.819   3.037
 6789SOL    HW221267   6.828   5.710   2.971
 6790SOL     OW21268   1.004   4.045   1.202
 6790SOL    HW121269   0.958   4.114   1.258
 6790SOL    HW221270   0.938   4.001   1.142
 6791SOL     OW21271   4.165   2.725   1.663
 6791SOL    HW121272   4.068   2.738   1.648
 6791SOL    HW221273   4.181   2.635   1.705
 6792SOL     OW21274   6.471   5.686   5.380
 6792SOL    HW121275   6.425   5.635   5.307
 6792SOL    HW221276   6.408   5.753   5.418
 6793SOL     OW21277   0.875   1.675   0.665
 6793SOL    HW121278   0.798   1.728   0.701
 6793SOL    HW221279   0.875   1.680   0.565
 6794SOL     OW21280   5.125   1.450   6.531
 6794SOL    HW121281   5.223   1.438   6.546
 6794SOL    HW221282   5.074   1.386   6.589
 6795SOL     OW21283   2.394   6.397   1.341
 6795SOL    HW121284   2.307   6.384   1.295
 6795SOL    HW221285   2.460   6.329   1.308
 6796SOL     OW21286   6.497   1.083   2.019
 6796SOL    HW121287   6.433   1.014   2.055
 6796SOL    HW221288   6.588   1.042   2.009
 6797SOL     OW21289   5.543   2.987   1.853
 6797SOL    HW121290   5.479   2.911   1.862
 6797SOL    HW221291   5.493   3.073   1.855
 6798SOL     OW21292   5.125   6.610   2.554
 6798SOL    HW121293   5.047   6.658   2.515
 6798SOL    HW221294   5.115   6.606   2.653
 6799SOL     OW21295   6.487   6.580   0.935
 6799SOL    HW121296   6.527   6.505   0.988
 6799SOL    HW221297   6.387   6.575   0.941
 6800SOL     OW21298   2.318   3.733   1.151
 6800SOL    HW121299   2.278   3.793   1.082
 6800SOL    HW221300   2.396   3.778   1.193
 6801SOL     OW21301   0.654   0.336   3.000
 6801SOL    HW121302   0.708   0.410   3.039
 6801SOL    HW221303   0.653   0.344   2.901
 6802SOL     OW21304   3.093   6.011   0.599
 6802SOL    HW121305   3.046   5.931   0.637
 6802SOL    HW221306   3.189   6.009   0.626
 6803SOL     OW21307   5.105   2.700   6.009
 6803SOL    HW121308   5.178   2.746   6.059
 6803SOL    HW221309   5.133   2.690   5.913
 6804SOL     OW21310   3.524   5.345   4.136
 6804SOL    HW121311   3.615   5.368   4.101
 6804SOL    HW221312   3.522   5.248   4.161
 6805SOL     OW21313   5.903   5.114   6.082
 6805SOL    HW121314   6.002   5.099   6.088
 6805SOL    HW221315   5.883   5.211   6.095
 6806SOL     OW21316   5.866   0.152   3.694
 6806SOL    HW121317   5.960   0.163   3.727
 6806SOL    HW221318   5.853   0.059   3.660
 6807SOL     OW21319   3.141   2.960   0.275
 6807SOL    HW121320   3.209   2.959   0.201
 6807SOL    HW221321   3.089   3.045   0.271
 6808SOL     OW21322   0.520   1.816   5.268
 6808SOL    HW121323   0.524   1.719   5.245
 6808SOL    HW221324   0.452   1.829   5.341
 6809SOL     OW21325   1.224   2.956   1.190
 6809SOL    HW121326   1.135   2.916   1.212
 6809SOL    HW221327   1.293   2.921   1.253
 6810SOL     OW21328   1.834   0.178   1.642
 6810SOL    HW121329   1.882   0.091   1.636
 6810SOL    HW221330   1.837   0.224   1.553
 6811SOL     OW21331   5.037   4.138   0.618
 6811SOL    HW121332   5.028   4.112   0.522
 6811SOL    HW221333   5.080   4.063   0.669
 6812SOL     OW21334   3.091   3.116   3.295
 6812SOL    HW121335   3.069   3.124   3.393
 6812SOL    HW221336   3.187   3.089   3.285
 6813SOL     OW21337   4.921   2.136   2.804
 6813SOL    HW121338   4.899   2.040   2.822
 6813SOL    HW221339   4.845   2.179   2.756
 6814SOL     OW21340   3.466   1.734   6.457
 6814SOL    HW121341   3.538   1.743   6.388
 6814SOL    HW221342   3.382   1.776   6.422
 6815SOL     OW21343   2.904   6.762   1.648
 6815SOL    HW121344   2.871   6.726   1.561
 6815SOL    HW221345   2.878   6.859   1.656
 6816SOL     OW21346   0.340   0.213   0.030
 6816SOL    HW121347   0.334   0.306   0.066
 6816SOL    HW221348   0.265   0.197   6.995
 6817SOL     OW21349   1.330   2.183   4.023
 6817SOL    HW121350   1.288   2.093   4.023
 6817SOL    HW221351   1.406   2.184   3.958
 6818SOL     OW21352   2.876   5.108   1.914
 6818SOL    HW121353   2.876   5.008   1.908
 6818SOL    HW221354   2.799   5.145   1.861
 6819SOL     OW21355   5.410   0.861   4.414
 6819SOL    HW121356   5.405   0.772   4.460
 6819SOL    HW221357   5.337   0.920   4.447
 6820SOL     OW21358   1.491   5.790   3.073
 6820SOL    HW121359   1.528   5.750   3.157
 6820SOL    HW221360   1.394   5.767   3.065
 6821SOL     OW21361   3.374   1.123   4.601
 6821SOL    HW121362   3.305   1.106   4.531
 6821SOL    HW221363   3.453   1.167   4.559
 6822SOL     OW21364   5.403   2.179   6.744
 6822SOL    HW121365   5.483   2.156   6.799
 6822SOL    HW221366   5.332   2.218   6.802
 6823SOL     OW21367   3.407   3.256   4.424
 6823SOL    HW121368   3.473   3.327   4.401
 6823SOL    HW221369   3.419   3.178   4.363
 6824SOL     OW21370   1.047   2.675   6.544
 6824SOL    HW121371   1.132   2.704   6.588
 6824SOL    HW221372   1.038   2.576   6.550
 6825SOL     OW21373   4.712   0.104   2.305
 6825SOL    HW121374   4.661   0.170   2.360
 6825SOL    HW221375   4.784   0.062   2.360
 6826SOL     OW21376   1.879   4.046   2.336
 6826SOL    HW121377   1.876   4.035   2.237
 6826SOL    HW221378   1.785   4.044   2.372
 6827SOL     OW21379   4.650   5.780   6.502
 6827SOL    HW121380   4.562   5.740   6.479
 6827SOL    HW221381   4.668   5.859   6.443
 6828SOL     OW21382   2.597   2.424   1.605
 6828SOL    HW121383   2.584   2.331   1.572
 6828SOL    HW221384   2.593   2.425   1.705
 6829SOL     OW21385   4.129   6.456   4.288
 6829SOL    HW121386   4.131   6.493   4.195
 6829SOL    HW221387   4.156   6.360   4.287
 6830SOL     OW21388   5.268   1.302   3.942
 6830SOL    HW121389   5.258   1.308   3.842
 6830SOL    HW221390   5.229   1.215   3.974
 6831SOL     OW21391   1.325   0.485   6.680
 6831SOL    HW121392   1.364   0.577   6.688
 6831SOL    HW221393   1.320   0.460   6.584
 6832SOL     OW21394   2.202   3.853   0.932
 6832SOL    HW121395   2.215   3.948   0.904
 6832SOL    HW221396   2.109   3.824   0.908
 6833SOL     OW21397   4.011   3.714   6.002
 6833SOL    HW121398   4.029   3.804   5.963
 6833SOL    HW221399   3.986   3.650   5.928
 6834SOL     OW21400   5.441   6.761   1.185
 6834SOL    HW121401   5.505   6.774   1.110
 6834SOL    HW221402   5.384   6.681   1.166
 6835SOL     OW21403   3.614   0.481   4.483
 6835SOL    HW121404   3.698   0.508   4.531
 6835SOL    HW221405   3.590   0.387   4.507
 6836SOL     OW21406   3.063   5.263   0.357
 6836SOL    HW121407   3.155   5.249   0.394
 6836SOL    HW221408   3.019   5.339   0.406
 6837SOL     OW21409   1.573   1.785   2.528
 6837SOL    HW121410   1.576   1.813   2.624
 6837SOL    HW221411   1.486   1.813   2.488
 6838SOL     OW21412   2.652   6.278   0.698
 6838SOL    HW121413   2.586   6.244   0.631
 6838SOL    HW221414   2.745   6.260   0.666
 6839SOL     OW21415   5.386   0.304   6.920
 6839SOL    HW121416   5.455   0.313   6.849
 6839SOL    HW221417   5.407   0.366   6.996
 6840SOL     OW21418   2.706   0.807   4.954
 6840SOL    HW121419   2.644   0.875   4.915
 6840SOL    HW221420   2.795   0.848   4.970
 6841SOL     OW21421   4.734   4.092   6.376
 6841SOL    HW121422   4.637   4.079   6.354
 6841SOL    HW221423   4.765   4.180   6.342
 6842SOL     OW21424   2.933   4.281   1.442
 6842SOL    HW121425   2.861   4.350   1.437
 6842SOL    HW221426   2.918   4.212   1.371
 6843SOL     OW21427   6.196   6.623   0.951
 6843SOL    HW121428   6.199   6.696   1.020
 6843SOL    HW221429   6.125   6.557   0.977
 6844SOL     OW21430   6.014   0.787   4.612
 6844SOL    HW121431   5.918   0.815   4.599
 6844SOL    HW221432   6.067   0.815   4.532
 6845SOL     OW21433   6.144   4.050   3.444
 6845SOL    HW121434   6.159   3.967   3.391
 6845SOL    HW221435   6.056   4.045   3.491
 6846SOL     OW21436   3.917   3.272   0.142
 6846SOL    HW121437   3.857   3.319   0.076
 6846SOL    HW221438   3.870   3.264   0.230
 6847SOL     OW21439   7.005   3.505   4.910
 6847SOL    HW121440   6.911   3.523   4.938
 6847SOL    HW221441   7.018   3.533   4.815
 6848SOL     OW21442   5.228   4.697   3.606
 6848SOL    HW121443   5.224   4.721   3.509
 6848SOL    HW221444   5.314   4.730   3.645
 6849SOL     OW21445   4.530   3.865   5.668
 6849SOL    HW121446   4.448   3.887   5.721
 6849SOL    HW221447   4.514   3.782   5.615
 6850SOL     OW21448   5.387   2.923   2.980
 6850SOL    HW121449   5.457   2.870   2.932
 6850SOL    HW221450   5.313   2.947   2.917
 6851SOL     OW21451   0.488   2.158   3.142
 6851SOL    HW121452   0.398   2.202   3.137
 6851SOL    HW221453   0.482   2.077   3.201
 6852SOL     OW21454   2.473   4.437   1.120
 6852SOL    HW121455   2.438   4.344   1.120
 6852SOL    HW221456   2.429   4.490   1.192
 6853SOL     OW21457   5.208   4.359   6.583
 6853SOL    HW121458   5.206   4.409   6.670
 6853SOL    HW221459   5.275   4.400   6.523
 6854SOL     OW21460   5.293   0.643   5.895
 6854SOL    HW121461   5.220   0.649   5.827
 6854SOL    HW221462   5.366   0.584   5.861
 6855SOL     OW21463   4.392   5.903   3.567
 6855SOL    HW121464   4.296   5.923   3.586
 6855SOL    HW221465   4.416   5.937   3.476
 6856SOL     OW21466   0.308   2.482   4.995
 6856SOL    HW121467   0.347   2.459   4.906
 6856SOL    HW221468   0.297   2.582   5.001
 6857SOL     OW21469   1.292   2.943   6.471
 6857SOL    HW121470   1.347   2.970   6.392
 6857SOL    HW221471   1.332   2.983   6.554
 6858SOL     OW21472   4.060   4.053   1.628
 6858SOL    HW121473   4.137   4.113   1.607
 6858SOL    HW221474   4.078   4.004   1.713
 6859SOL     OW21475   0.847   0.976   1.166
 6859SOL    HW121476   0.943   0.987   1.191
 6859SOL    HW221477   0.841   0.927   1.079
 6860SOL     OW21478   0.012   4.855   1.310
 6860SOL    HW121479   0.094   4.844   1.367
 6860SOL    HW221480   7.004   4.764   1.288
 6861SOL     OW21481   5.037   4.011   6.709
 6861SOL    HW121482   4.954   4.016   6.653
 6861SOL    HW221483   5.116   3.993   6.649
 6862SOL     OW21484   0.224   5.954   5.901
 6862SOL    HW121485   0.311   5.962   5.852
 6862SOL    HW221486   0.148   5.968   5.837
 6863SOL     OW21487   6.575   6.589   5.732
 6863SOL    HW121488   6.609   6.671   5.687
 6863SOL    HW221489   6.632   6.511   5.706
 6864SOL     OW21490   2.116   4.712   5.231
 6864SOL    HW121491   2.162   4.800   5.216
 6864SOL    HW221492   2.074   4.711   5.321
 6865SOL     OW21493   0.772   6.863   5.046
 6865SOL    HW121494   0.759   6.767   5.073
 6865SOL    HW221495   0.683   6.902   5.021
 6866SOL     OW21496   5.622   4.895   2.953
 6866SOL    HW121497   5.540   4.934   2.994
 6866SOL    HW221498   5.604   4.874   2.857
 6867SOL     OW21499   2.177   3.391   1.676
 6867SOL    HW121500   2.236   3.435   1.744
 6867SOL    HW221501   2.086   3.433   1.679
 6868SOL     OW21502   2.087   6.991   5.358
 6868SOL    HW121503   2.068   0.052   5.319
 6868SOL    HW221504   2.089   6.922   5.285
 6869SOL     OW21505   5.223   0.910   5.878
 6869SOL    HW121506   5.123   0.916   5.888
 6869SOL    HW221507   5.251   0.814   5.886
 6870SOL     OW21508   0.510   4.246   0.905
 6870SOL    HW121509   0.540   4.304   0.830
 6870SOL    HW221510   0.499   4.152   0.872
 6871SOL     OW21511   5.852   4.302   3.248
 6871SOL    HW121512   5.872   4.368   3.320
 6871SOL    HW221513   5.914   4.317   3.171
 6872SOL     OW21514   0.491   2.715   1.701
 6872SOL    HW121515   0.507   2.801   1.749
 6872SOL    HW221516   0.416   2.666   1.745
 6873SOL     OW21517   0.953   3.790   4.195
 6873SOL    HW121518   0.880   3.750   4.251
 6873SOL    HW221519   0.950   3.749   4.104
 6874SOL     OW21520   6.708   5.215   3.441
 6874SOL    HW121521   6.638   5.283   3.461
 6874SOL    HW221522   6.794   5.241   3.485
 6875SOL     OW21523   2.263   1.759   2.086
 6875SOL    HW121524   2.337   1.782   2.023
 6875SOL    HW221525   2.178   1.747   2.034
 6876SOL     OW21526   3.787   6.695   3.767
 6876SOL    HW121527   3.814   6.781   3.811
 6876SOL    HW221528   3.700   6.664   3.807
 6877SOL     OW21529   3.354   4.294   1.568
 6877SOL    HW121530   3.427   4.331   1.626
 6877SOL    HW221531   3.266   4.308   1.612
 6878SOL     OW21532   2.761   2.009   3.628
 6878SOL    HW121533   2.698   1.941   3.664
 6878SOL    HW221534   2.824   1.966   3.564
 6879SOL     OW21535   2.220   2.503   6.825
 6879SOL    HW121536   2.124   2.497   6.797
 6879SOL    HW221537   2.244   2.423   6.880
 6880SOL     OW21538   1.015   6.090   5.763
 6880SOL    HW121539   1.045   6.139   5.682
 6880SOL    HW221540   0.926   6.048   5.745
 6881SOL     OW21541   1.358   3.037   1.584
 6881SOL    HW121542   1.301   2.967   1.627
 6881SOL    HW221543   1.454   3.023   1.609
 6882SOL     OW21544   2.896   0.433   0.583
 6882SOL    HW121545   2.840   0.510   0.612
 6882SOL    HW221546   2.910   0.438   0.484
 6883SOL     OW21547   5.527   1.267   0.157
 6883SOL    HW121548   5.436   1.294   0.188
 6883SOL    HW221549   5.564   1.336   0.095
 6884SOL     OW21550   0.897   4.443   3.014
 6884SOL    HW121551   0.972   4.508   2.997
 6884SOL    HW221552   0.879   4.391   2.930
 6885SOL     OW21553   4.572   4.909   3.205
 6885SOL    HW121554   4.579   4.863   3.117
 6885SOL    HW221555   4.651   4.886   3.262
 6886SOL     OW21556   0.176   1.490   4.828
 6886SOL    HW121557   0.216   1.411   4.781
 6886SOL    HW221558   0.143   1.556   4.760
 6887SOL     OW21559   4.719   5.742   6.807
 6887SOL    HW121560   4.814   5.772   6.810
 6887SOL    HW221561   4.678   5.769   6.720
 6888SOL     OW21562   5.125   4.988   6.347
 6888SOL    HW121563   5.086   4.952   6.432
 6888SOL    HW221564   5.193   5.058   6.369
 6889SOL     OW21565   1.864   2.557   5.789
 6889SOL    HW121566   1.812   2.472   5.802
 6889SOL    HW221567   1.954   2.535   5.751
 6890SOL     OW21568   3.928   6.080   2.097
 6890SOL    HW121569   3.947   6.038   2.186
 6890SOL    HW221570   3.878   6.166   2.111
 6891SOL     OW21571   1.975   3.164   1.508
 6891SOL    HW121572   1.946   3.181   1.414
 6891SOL    HW221573   2.067   3.201   1.523
 6892SOL     OW21574   3.925   1.542   4.147
 6892SOL    HW121575   3.931   1.639   4.120
 6892SOL    HW221576   3.955   1.485   4.070
 6893SOL     OW21577   4.812   3.933   6.953
 6893SOL    HW121578   4.879   3.974   6.891
 6893SOL    HW221579   4.740   3.998   6.973
 6894SOL     OW21580   6.380   5.179   1.099
 6894SOL    HW121581   6.372   5.102   1.162
 6894SOL    HW221582   6.326   5.160   1.017
 6895SOL     OW21583   2.007   5.126   1.582
 6895SOL    HW121584   2.067   5.134   1.502
 6895SOL    HW221585   2.000   5.030   1.609
 6896SOL     OW21586   2.956   2.013   3.831
 6896SOL    HW121587   3.001   1.924   3.827
 6896SOL    HW221588   2.885   2.017   3.760
 6897SOL     OW21589   4.813   3.302   5.199
 6897SOL    HW121590   4.776   3.392   5.178
 6897SOL    HW221591   4.804   3.242   5.119
 6898SOL     OW21592   3.546   1.390   1.417
 6898SOL    HW121593   3.469   1.336   1.449
 6898SOL    HW221594   3.513   1.468   1.363
 6899SOL     OW21595   4.574   5.891   2.296
 6899SOL    HW121596   4.499   5.891   2.362
 6899SOL    HW221597   4.590   5.983   2.262
 6900SOL     OW21598   6.788   4.650   4.960
 6900SOL    HW121599   6.724   4.666   5.036
 6900SOL    HW221600   6.744   4.676   4.874
 6901SOL     OW21601   5.734   5.965   6.547
 6901SOL    HW121602   5.720   6.062   6.563
 6901SOL    HW221603   5.750   5.918   6.634
 6902SOL     OW21604   0.076   5.681   5.734
 6902SOL    HW121605   0.016   5.731   5.797
 6902SOL    HW221606   0.053   5.706   5.640
 6903SOL     OW21607   3.321   4.900   5.104
 6903SOL    HW121608   3.299   4.827   5.169
 6903SOL    HW221609   3.263   4.979   5.121
 6904SOL     OW21610   6.465   0.668   5.807
 6904SOL    HW121611   6.495   0.602   5.876
 6904SOL    HW221612   6.545   0.713   5.768
 6905SOL     OW21613   5.300   5.490   6.555
 6905SOL    HW121614   5.219   5.532   6.514
 6905SOL    HW221615   5.342   5.553   6.620
 6906SOL     OW21616   3.902   1.144   3.753
 6906SOL    HW121617   3.988   1.109   3.791
 6906SOL    HW221618   3.913   1.161   3.655
 6907SOL     OW21619   5.880   2.339   1.472
 6907SOL    HW121620   5.821   2.386   1.538
 6907SOL    HW221621   5.934   2.270   1.519
 6908SOL     OW21622   2.227   5.515   6.671
 6908SOL    HW121623   2.264   5.480   6.585
 6908SOL    HW221624   2.170   5.594   6.654
 6909SOL     OW21625   5.125   3.794   0.619
 6909SOL    HW121626   5.062   3.717   0.619
 6909SOL    HW221627   5.207   3.770   0.670
 6910SOL     OW21628   1.141   3.228   2.866
 6910SOL    HW121629   1.238   3.252   2.854
 6910SOL    HW221630   1.112   3.169   2.791
 6911SOL     OW21631   4.219   0.054   4.518
 6911SOL    HW121632   4.136   0.082   4.470
 6911SOL    HW221633   4.275   7.026   4.457
 6912SOL     OW21634   2.695   3.274   6.327
 6912SOL    HW121635   2.781   3.301   6.286
 6912SOL    HW221636   2.707   3.189   6.379
 6913SOL     OW21637   5.398   6.291   4.872
 6913SOL    HW121638   5.385   6.335   4.783
 6913SOL    HW221639   5.310   6.282   4.918
 6914SOL     OW21640   5.580   4.781   3.911
 6914SOL    HW121641   5.603   4.792   4.007
 6914SOL    HW221642   5.657   4.741   3.862
 6915SOL     OW21643   6.860   2.498   1.889
 6915SOL    HW121644   6.909   2.542   1.965
 6915SOL    HW221645   6.784   2.444   1.926
 6916SOL     OW21646   5.613   0.707   0.077
 6916SOL    HW121647   5.618   0.691   0.176
 6916SOL    HW221648   5.518   0.709   0.048
 6917SOL     OW21649   4.231   6.466   1.846
 6917SOL    HW121650   4.194   6.522   1.771
 6917SOL    HW221651   4.160   6.405   1.880
 6918SOL     OW21652   0.137   2.772   4.020
 6918SOL    HW121653   0.120   2.712   3.942
 6918SOL    HW221654   0.052   2.817   4.047
 6919SOL     OW21655   6.493   5.626   3.909
 6919SOL    HW121656   6.538   5.537   3.916
 6919SOL    HW221657   6.436   5.628   3.827
 6920SOL     OW21658   4.608   6.882   4.876
 6920SOL    HW121659   4.568   6.931   4.799
 6920SOL    HW221660   4.536   6.837   4.929
 6921SOL     OW21661   4.196   6.447   3.337
 6921SOL    HW121662   4.253   6.436   3.256
 6921SOL    HW221663   4.160   6.540   3.339
 6922SOL     OW21664   1.650   6.099   5.571
 6922SOL    HW121665   1.700   6.032   5.626
 6922SOL    HW221666   1.651   6.070   5.475
 6923SOL     OW21667   5.317   5.763   2.621
 6923SOL    HW121668   5.236   5.712   2.649
 6923SOL    HW221669   5.399   5.711   2.645
 6924SOL     OW21670   2.656   4.268   6.936
 6924SOL    HW121671   2.660   4.198   7.007
 6924SOL    HW221672   2.692   4.232   6.851
 6925SOL     OW21673   5.143   5.610   4.648
 6925SOL    HW121674   5.079   5.686   4.655
 6925SOL    HW221675   5.112   5.535   4.707
 6926SOL     OW21676   2.370   1.851   0.336
 6926SOL    HW121677   2.272   1.843   0.316
 6926SOL    HW221678   2.412   1.916   0.273
 6927SOL     OW21679   3.487   2.094   6.308
 6927SOL    HW121680   3.549   2.036   6.361
 6927SOL    HW221681   3.393   2.069   6.328
 6928SOL     OW21682   5.502   5.881   0.783
 6928SOL    HW121683   5.513   5.782   0.796
 6928SOL    HW221684   5.549   5.929   0.857
 6929SOL     OW21685   5.164   5.929   2.479
 6929SOL    HW121686   5.219   5.891   2.552
 6929SOL    HW221687   5.100   5.859   2.446
 6930SOL     OW21688   1.304   1.114   1.320
 6930SOL    HW121689   1.261   1.031   1.284
 6930SOL    HW221690   1.292   1.117   1.419
 6931SOL     OW21691   1.414   1.858   2.757
 6931SOL    HW121692   1.352   1.877   2.834
 6931SOL    HW221693   1.434   1.944   2.709
 6932SOL     OW21694   4.703   6.759   0.712
 6932SOL    HW121695   4.797   6.737   0.688
 6932SOL    HW221696   4.694   6.767   0.811
 6933SOL     OW21697   3.265   6.416   5.755
 6933SOL    HW121698   3.320   6.338   5.784
 6933SOL    HW221699   3.262   6.420   5.655
 6934SOL     OW21700   4.569   3.552   6.262
 6934SOL    HW121701   4.475   3.525   6.241
 6934SOL    HW221702   4.602   3.499   6.341
 6935SOL     OW21703   4.071   5.804   2.780
 6935SOL    HW121704   4.047   5.845   2.692
 6935SOL    HW221705   3.990   5.764   2.822
 6936SOL     OW21706   6.034   2.674   4.401
 6936SOL    HW121707   6.050   2.576   4.387
 6936SOL    HW221708   6.041   2.695   4.498
 6937SOL     OW21709   6.175   5.949   0.862
 6937SOL    HW121710   6.175   5.931   0.764
 6937SOL    HW221711   6.216   6.039   0.880
 6938SOL     OW21712   0.227   2.375   4.553
 6938SOL    HW121713   0.236   2.290   4.604
 6938SOL    HW221714   0.219   2.354   4.455
 6939SOL     OW21715   6.938   5.225   2.481
 6939SOL    HW121716   7.010   5.175   2.433
 6939SOL    HW221717   6.979   5.294   2.540
 6940SOL     OW21718   4.485   6.950   0.216
 6940SOL    HW121719   4.473   6.872   0.276
 6940SOL    HW221720   4.516   6.919   0.126
 6941SOL     OW21721   3.037   3.763   2.001
 6941SOL    HW121722   2.988   3.721   2.076
 6941SOL    HW221723   3.109   3.822   2.037
 6942SOL     OW21724   5.550   6.645   2.512
 6942SOL    HW121725   5.479   6.575   2.499
 6942SOL    HW221726   5.635   6.602   2.541
 6943SOL     OW21727   3.597   5.491   1.024
 6943SOL    HW121728   3.574   5.588   1.018
 6943SOL    HW221729   3.599   5.450   0.933
 6944SOL     OW21730   1.153   5.454   6.121
 6944SOL    HW121731   1.199   5.429   6.035
 6944SOL    HW221732   1.204   5.415   6.197
 6945SOL     OW21733   6.831   1.558   1.682
 6945SOL    HW121734   6.771   1.578   1.759
 6945SOL    HW221735   6.875   1.469   1.697
 6946SOL     OW21736   4.331   6.534   1.513
 6946SOL    HW121737   4.430   6.529   1.498
 6946SOL    HW221738   4.306   6.627   1.537
 6947SOL     OW21739   4.386   5.351   6.166
 6947SOL    HW121740   4.354   5.411   6.093
 6947SOL    HW221741   4.319   5.277   6.179
 6948SOL     OW21742   0.853   6.096   1.103
 6948SOL    HW121743   0.918   6.055   1.040
 6948SOL    HW221744   0.897   6.111   1.192
 6949SOL     OW21745   2.460   0.981   3.327
 6949SOL    HW121746   2.365   1.011   3.335
 6949SOL    HW221747   2.467   0.912   3.255
 6950SOL     OW21748   1.573   0.814   4.786
 6950SOL    HW121749   1.599   0.758   4.864
 6950SOL    HW221750   1.548   0.906   4.818
 6951SOL     OW21751   0.437   6.120   6.287
 6951SOL    HW121752   0.413   6.027   6.314
 6951SOL    HW221753   0.523   6.119   6.235
 6952SOL     OW21754   1.239   5.184   3.025
 6952SOL    HW121755   1.251   5.280   2.997
 6952SOL    HW221756   1.207   5.131   2.947
 6953SOL     OW21757   5.289   6.944   0.615
 6953SOL    HW121758   5.368   6.934   0.675
 6953SOL    HW221759   5.253   6.854   0.591
 6954SOL     OW21760   0.895   4.251   1.349
 6954SOL    HW121761   0.959   4.307   1.401
 6954SOL    HW221762   0.855   4.305   1.275
 6955SOL     OW21763   4.561   0.770   2.925
 6955SOL    HW121764   4.652   0.729   2.917
 6955SOL    HW221765   4.537   0.777   3.022
 6956SOL     OW21766   4.747   5.975   3.180
 6956SOL    HW121767   4.714   6.058   3.224
 6956SOL    HW221768   4.729   5.896   3.239
 6957SOL     OW21769   5.783   5.684   0.118
 6957SOL    HW121770   5.785   5.669   0.217
 6957SOL    HW221771   5.870   5.721   0.087
 6958SOL     OW21772   3.893   3.438   4.688
 6958SOL    HW121773   3.898   3.483   4.777
 6958SOL    HW221774   3.953   3.485   4.623
 6959SOL     OW21775   1.901   4.033   2.960
 6959SOL    HW121776   1.944   4.051   3.048
 6959SOL    HW221777   1.966   4.052   2.887
 6960SOL     OW21778   1.704   4.277   0.733
 6960SOL    HW121779   1.624   4.218   0.742
 6960SOL    HW221780   1.778   4.241   0.790
 6961SOL     OW21781   6.062   1.410   4.848
 6961SOL    HW121782   5.975   1.451   4.877
 6961SOL    HW221783   6.121   1.398   4.927
 6962SOL     OW21784   4.285   5.849   1.101
 6962SOL    HW121785   4.303   5.781   1.030
 6962SOL    HW221786   4.371   5.891   1.131
 6963SOL     OW21787   5.580   5.262   0.905
 6963SOL    HW121788   5.564   5.164   0.894
 6963SOL    HW221789   5.511   5.301   0.967
 6964SOL     OW21790   3.450   0.623   6.380
 6964SOL    HW121791   3.353   0.605   6.363
 6964SOL    HW221792   3.481   0.566   6.457
 6965SOL     OW21793   1.992   1.483   6.571
 6965SOL    HW121794   2.083   1.441   6.564
 6965SOL    HW221795   1.951   1.489   6.480
 6966SOL     OW21796   0.160   0.511   2.544
 6966SOL    HW121797   0.105   0.530   2.463
 6966SOL    HW221798   0.118   0.555   2.624
 6967SOL     OW21799   3.209   1.263   5.373
 6967SOL    HW121800   3.280   1.272   5.443
 6967SOL    HW221801   3.164   1.351   5.360
 6968SOL     OW21802   2.611   1.316   3.883
 6968SOL    HW121803   2.522   1.314   3.837
 6968SOL    HW221804   2.683   1.327   3.814
 6969SOL     OW21805   2.950   2.156   1.447
 6969SOL    HW121806   2.974   2.183   1.541
 6969SOL    HW221807   2.906   2.233   1.401
 6970SOL     OW21808   4.102   3.580   4.969
 6970SOL    HW121809   4.089   3.659   5.029
 6970SOL    HW221810   4.180   3.526   5.000
 6971SOL     OW21811   6.010   4.619   1.220
 6971SOL    HW121812   6.102   4.601   1.186
 6971SOL    HW221813   5.947   4.551   1.183
 6972SOL     OW21814   5.259   4.266   2.349
 6972SOL    HW121815   5.171   4.300   2.317
 6972SOL    HW221816   5.278   4.303   2.440
 6973SOL     OW21817   0.418   2.614   3.809
 6973SOL    HW121818   0.401   2.587   3.715
 6973SOL    HW221819   0.422   2.533   3.867
 6974SOL     OW21820   3.071   3.881   2.656
 6974SOL    HW121821   3.105   3.844   2.743
 6974SOL    HW221822   3.041   3.805   2.598
 6975SOL     OW21823   1.617   6.757   4.562
 6975SOL    HW121824   1.689   6.698   4.600
 6975SOL    HW221825   1.564   6.706   4.495
 6976SOL     OW21826   6.152   4.361   5.856
 6976SOL    HW121827   6.200   4.395   5.776
 6976SOL    HW221828   6.053   4.371   5.843
 6977SOL     OW21829   3.341   3.372   1.172
 6977SOL    HW121830   3.437   3.362   1.199
 6977SOL    HW221831   3.319   3.303   1.102
 6978SOL     OW21832   5.711   2.447   1.670
 6978SOL    HW121833   5.672   2.538   1.662
 6978SOL    HW221834   5.648   2.379   1.631
 6979SOL     OW21835   1.110   3.637   1.385
 6979SOL    HW121836   1.101   3.733   1.408
 6979SOL    HW221837   1.042   3.584   1.435
 6980SOL     OW21838   2.203   1.074   3.522
 6980SOL    HW121839   2.285   1.131   3.529
 6980SOL    HW221840   2.132   1.110   3.582
 6981SOL     OW21841   3.924   3.124   5.970
 6981SOL    HW121842   3.954   3.135   5.875
 6981SOL    HW221843   3.908   3.214   6.010
 6982SOL     OW21844   0.975   1.030   4.337
 6982SOL    HW121845   0.989   1.084   4.253
 6982SOL    HW221846   1.055   0.972   4.352
 6983SOL     OW21847   4.859   1.486   4.946
 6983SOL    HW121848   4.922   1.541   4.890
 6983SOL    HW221849   4.837   1.537   5.030
 6984SOL     OW21850   2.177   1.758   2.532
 6984SOL    HW121851   2.221   1.676   2.566
 6984SOL    HW221852   2.104   1.785   2.594
 6985SOL     OW21853   6.470   5.222   0.715
 6985SOL    HW121854   6.497   5.177   0.630
 6985SOL    HW221855   6.523   5.306   0.726
 6986SOL     OW21856   3.605   6.446   6.759
 6986SOL    HW121857   3.696   6.406   6.752
 6986SOL    HW221858   3.569   6.431   6.851
 6987SOL     OW21859   6.513   1.202   6.414
 6987SOL    HW121860   6.526   1.260   6.334
 6987SOL    HW221861   6.476   1.256   6.489
 6988SOL     OW21862   1.554   6.829   5.880
 6988SOL    HW121863   1.478   6.877   5.837
 6988SOL    HW221864   1.520   6.754   5.936
 6989SOL     OW21865   7.024   4.691   2.903
 6989SOL    HW121866   6.926   4.712   2.898
 6989SOL    HW221867   0.008   4.599   2.939
 6990SOL     OW21868   3.938   2.878   1.207
 6990SOL    HW121869   3.970   2.952   1.266
 6990SOL    HW221870   4.017   2.834   1.164
 6991SOL     OW21871   5.139   4.111   3.366
 6991SOL    HW121872   5.162   4.085   3.460
 6991SOL    HW221873   5.057   4.168   3.366
 6992SOL     OW21874   6.522   6.581   6.455
 6992SOL    HW121875   6.502   6.665   6.505
 6992SOL    HW221876   6.461   6.574   6.375
 6993SOL     OW21877   6.150   0.661   1.892
 6993SOL    HW121878   6.166   0.694   1.799
 6993SOL    HW221879   6.078   0.715   1.935
 6994SOL     OW21880   0.967   1.665   4.262
 6994SOL    HW121881   0.888   1.606   4.279
 6994SOL    HW221882   0.946   1.758   4.290
 6995SOL     OW21883   6.691   3.847   6.878
 6995SOL    HW121884   6.646   3.882   6.796
 6995SOL    HW221885   6.775   3.800   6.851
 6996SOL     OW21886   1.437   0.673   0.084
 6996SOL    HW121887   1.376   0.706   0.013
 6996SOL    HW221888   1.449   0.574   0.076
 6997SOL     OW21889   0.368   4.847   5.217
 6997SOL    HW121890   0.459   4.805   5.218
 6997SOL    HW221891   0.331   4.846   5.124
 6998SOL     OW21892   1.627   1.710   1.040
 6998SOL    HW121893   1.539   1.687   1.082
 6998SOL    HW221894   1.670   1.784   1.091
 6999SOL     OW21895   1.899   2.315   6.088
 6999SOL    HW121896   1.924   2.238   6.147
 6999SOL    HW221897   1.982   2.356   6.049
 7000SOL     OW21898   6.044   0.465   2.515
 7000SOL    HW121899   6.143   0.468   2.523
 7000SOL    HW221900   6.018   0.390   2.454
 7001SOL     OW21901   1.027   2.455   5.179
 7001SOL    HW121902   0.968   2.375   5.170
 7001SOL    HW221903   1.062   2.481   5.089
 7002SOL     OW21904   2.054   4.924   3.889
 7002SOL    HW121905   2.109   4.875   3.957
 7002SOL    HW221906   2.091   5.016   3.877
 7003SOL     OW21907   4.497   6.071   1.660
 7003SOL    HW121908   4.440   6.018   1.597
 7003SOL    HW221909   4.548   6.140   1.609
 7004SOL     OW21910   0.655   6.583   0.535
 7004SOL    HW121911   0.590   6.567   0.460
 7004SOL    HW221912   0.721   6.508   0.538
 7005SOL     OW21913   0.981   1.228   0.595
 7005SOL    HW121914   1.047   1.231   0.520
 7005SOL    HW221915   1.001   1.301   0.660
 7006SOL     OW21916   5.480   5.988   3.606
 7006SOL    HW121917   5.478   5.889   3.596
 7006SOL    HW221918   5.394   6.027   3.573
 7007SOL     OW21919   3.841   0.614   4.604
 7007SOL    HW121920   3.902   0.657   4.670
 7007SOL    HW221921   3.774   0.681   4.572
 7008SOL     OW21922   0.579   4.372   4.500
 7008SOL    HW121923   0.661   4.426   4.483
 7008SOL    HW221924   0.604   4.287   4.546
 7009SOL     OW21925   3.921   6.819   2.202
 7009SOL    HW121926   3.908   6.751   2.129
 7009SOL    HW221927   3.857   6.800   2.277
 7010SOL     OW21928   5.660   4.434   3.848
 7010SOL    HW121929   5.677   4.518   3.797
 7010SOL    HW221930   5.745   4.403   3.891
 7011SOL     OW21931   3.822   6.788   0.430
 7011SOL    HW121932   3.797   6.884   0.420
 7011SOL    HW221933   3.743   6.736   0.462
 7012SOL     OW21934   0.773   1.869   1.093
 7012SOL    HW121935   0.740   1.931   1.164
 7012SOL    HW221936   0.858   1.827   1.122
 7013SOL     OW21937   1.613   0.013   6.731
 7013SOL    HW121938   1.618   0.015   6.631
 7013SOL    HW221939   1.572   0.099   6.763
 7014SOL     OW21940   5.439   3.226   0.574
 7014SOL    HW121941   5.409   3.207   0.667
 7014SOL    HW221942   5.359   3.249   0.517
 7015SOL     OW21943   5.498   4.800   1.547
 7015SOL    HW121944   5.423   4.760   1.494
 7015SOL    HW221945   5.477   4.896   1.567
 7016SOL     OW21946   4.011   5.069   1.382
 7016SOL    HW121947   4.068   4.992   1.411
 7016SOL    HW221948   3.994   5.064   1.284
 7017SOL     OW21949   3.288   5.250   3.105
 7017SOL    HW121950   3.282   5.303   3.021
 7017SOL    HW221951   3.378   5.265   3.147
 7018SOL     OW21952   5.133   4.137   4.632
 7018SOL    HW121953   5.185   4.190   4.565
 7018SOL    HW221954   5.054   4.095   4.586
 7019SOL     OW21955   4.166   4.862   1.517
 7019SOL    HW121956   4.247   4.867   1.575
 7019SOL    HW221957   4.116   4.777   1.536
 7020SOL     OW21958   0.232   4.007   5.755
 7020SOL    HW121959   0.248   4.090   5.809
 7020SOL    HW221960   0.142   4.012   5.711
 7021SOL     OW21961   1.825   3.156   3.953
 7021SOL    HW121962   1.901   3.201   3.907
 7021SOL    HW221963   1.860   3.098   4.027
 7022SOL     OW21964   5.142   0.212   0.270
 7022SOL    HW121965   5.143   0.172   0.179
 7022SOL    HW221966   5.166   0.309   0.264
 7023SOL     OW21967   0.348   2.800   1.472
 7023SOL    HW121968   0.409   2.788   1.550
 7023SOL    HW221969   0.256   2.768   1.496
 7024SOL     OW21970   3.810   3.546   4.315
 7024SOL    HW121971   3.772   3.582   4.230
 7024SOL    HW221972   3.910   3.541   4.307
 7025SOL     OW21973   3.508   1.147   1.084
 7025SOL    HW121974   3.447   1.167   1.008
 7025SOL    HW221975   3.594   1.197   1.071
 7026SOL     OW21976   3.624   1.994   2.167
 7026SOL    HW121977   3.643   2.069   2.104
 7026SOL    HW221978   3.591   1.915   2.116
 7027SOL     OW21979   2.404   5.656   3.758
 7027SOL    HW121980   2.363   5.725   3.818
 7027SOL    HW221981   2.333   5.593   3.727
 7028SOL     OW21982   4.007   0.464   3.982
 7028SOL    HW121983   3.916   0.454   3.942
 7028SOL    HW221984   4.003   0.527   4.059
 7029SOL     OW21985   4.940   3.585   5.672
 7029SOL    HW121986   5.007   3.524   5.630
 7029SOL    HW221987   4.873   3.531   5.724
 7030SOL     OW21988   0.688   1.002   4.315
 7030SOL    HW121989   0.785   1.021   4.309
 7030SOL    HW221990   0.674   0.906   4.339
 7031SOL     OW21991   4.080   6.059   0.275
 7031SOL    HW121992   4.144   5.985   0.295
 7031SOL    HW221993   4.124   6.128   0.219
 7032SOL     OW21994   4.109   1.244   3.463
 7032SOL    HW121995   4.010   1.252   3.451
 7032SOL    HW221996   4.137   1.149   3.451
 7033SOL     OW21997   1.410   2.962   3.145
 7033SOL    HW121998   1.316   2.975   3.179
 7033SOL    HW221999   1.413   2.986   3.048
 7034SOL     OW22000   0.007   2.087   3.120
 7034SOL    HW122001   6.938   2.106   3.108
 7034SOL    HW222002   0.041   2.038   3.040
 7035SOL     OW22003   1.690   0.213   0.627
 7035SOL    HW122004   1.629   0.287   0.598
 7035SOL    HW222005   1.636   0.133   0.653
 7036SOL     OW22006   6.720   1.908   2.198
 7036SOL    HW122007   6.757   1.938   2.110
 7036SOL    HW222008   6.742   1.811   2.212
 7037SOL     OW22009   0.393   1.399   6.529
 7037SOL    HW122010   0.346   1.318   6.493
 7037SOL    HW222011   0.492   1.380   6.533
 7038SOL     OW22012   2.551   4.655   5.017
 7038SOL    HW122013   2.502   4.569   5.012
 7038SOL    HW222014   2.650   4.637   5.011
 7039SOL     OW22015   0.233   6.157   3.902
 7039SOL    HW122016   0.234   6.115   3.992
 7039SOL    HW222017   0.182   6.243   3.906
 7040SOL     OW22018   4.919   2.483   5.938
 7040SOL    HW122019   4.939   2.424   6.015
 7040SOL    HW222020   4.932   2.579   5.964
 7041SOL     OW22021   0.245   1.741   3.140
 7041SOL    HW122022   0.234   1.801   3.220
 7041SOL    HW222023   0.303   1.663   3.165
 7042SOL     OW22024   4.220   6.182   4.297
 7042SOL    HW122025   4.143   6.151   4.241
 7042SOL    HW222026   4.287   6.108   4.307
 7043SOL     OW22027   2.916   5.051   3.644
 7043SOL    HW122028   2.987   5.121   3.647
 7043SOL    HW222029   2.922   5.001   3.557
 7044SOL     OW22030   4.860   6.418   4.919
 7044SOL    HW122031   4.873   6.416   5.018
 7044SOL    HW222032   4.942   6.382   4.874
 7045SOL     OW22033   5.415   5.756   2.302
 7045SOL    HW122034   5.414   5.679   2.238
 7045SOL    HW222035   5.372   5.728   2.388
 7046SOL     OW22036   3.321   1.613   4.002
 7046SOL    HW122037   3.274   1.590   4.087
 7046SOL    HW222038   3.283   1.698   3.965
 7047SOL     OW22039   0.041   1.080   1.692
 7047SOL    HW122040   7.006   1.002   1.692
 7047SOL    HW222041   0.034   1.129   1.605
 7048SOL     OW22042   5.729   6.343   4.705
 7048SOL    HW122043   5.654   6.302   4.653
 7048SOL    HW222044   5.693   6.382   4.790
 7049SOL     OW22045   3.281   1.786   1.841
 7049SOL    HW122046   3.272   1.714   1.910
 7049SOL    HW222047   3.274   1.876   1.885
 7050SOL     OW22048   4.086   4.184   1.168
 7050SOL    HW122049   4.029   4.178   1.085
 7050SOL    HW222050   4.032   4.156   1.247
 7051SOL     OW22051   6.795   6.334   1.265
 7051SOL    HW122052   6.870   6.386   1.225
 7051SOL    HW222053   6.713   6.344   1.208
 7052SOL     OW22054   5.949   0.611   3.872
 7052SOL    HW122055   5.999   0.549   3.932
 7052SOL    HW222056   5.852   0.589   3.873
 7053SOL     OW22057   1.604   3.965   4.389
 7053SOL    HW122058   1.537   4.020   4.339
 7053SOL    HW222059   1.674   3.931   4.326
 7054SOL     OW22060   0.233   6.771   1.707
 7054SOL    HW122061   0.212   6.827   1.787
 7054SOL    HW222062   0.171   6.796   1.632
 7055SOL     OW22063   2.839   0.062   0.047
 7055SOL    HW122064   2.808   0.100   6.989
 7055SOL    HW222065   2.820   0.127   0.121
 7056SOL     OW22066   6.996   5.516   1.202
 7056SOL    HW122067   6.932   5.453   1.158
 7056SOL    HW222068   6.999   5.601   1.150
 7057SOL     OW22069   2.948   5.762   3.823
 7057SOL    HW122070   3.029   5.765   3.882
 7057SOL    HW222071   2.910   5.669   3.824
 7058SOL     OW22072   5.087   1.661   6.365
 7058SOL    HW122073   4.999   1.708   6.372
 7058SOL    HW222074   5.089   1.584   6.429
 7059SOL     OW22075   1.749   1.171   4.149
 7059SOL    HW122076   1.845   1.158   4.126
 7059SOL    HW222077   1.692   1.126   4.081
 7060SOL     OW22078   3.938   6.685   1.177
 7060SOL    HW122079   3.993   6.766   1.159
 7060SOL    HW222080   3.984   6.604   1.141
 7061SOL     OW22081   0.374   2.814   3.219
 7061SOL    HW122082   0.437   2.878   3.263
 7061SOL    HW222083   0.401   2.720   3.239
 7062SOL     OW22084   4.058   2.098   5.259
 7062SOL    HW122085   4.087   2.020   5.204
 7062SOL    HW222086   3.973   2.136   5.223
 7063SOL     OW22087   1.217   0.424   1.688
 7063SOL    HW122088   1.240   0.352   1.623
 7063SOL    HW222089   1.235   0.392   1.781
 7064SOL     OW22090   4.473   1.633   6.419
 7064SOL    HW122091   4.423   1.613   6.334
 7064SOL    HW222092   4.410   1.664   6.489
 7065SOL     OW22093   3.641   4.349   5.237
 7065SOL    HW122094   3.711   4.418   5.256
 7065SOL    HW222095   3.552   4.383   5.266
 7066SOL     OW22096   4.409   0.201   5.713
 7066SOL    HW122097   4.419   0.300   5.704
 7066SOL    HW222098   4.428   0.158   5.625
 7067SOL     OW22099   1.285   3.352   6.383
 7067SOL    HW122100   1.298   3.408   6.465
 7067SOL    HW222101   1.366   3.294   6.370
 7068SOL     OW22102   5.545   4.272   4.515
 7068SOL    HW122103   5.602   4.332   4.459
 7068SOL    HW222104   5.529   4.186   4.467
 7069SOL     OW22105   5.642   1.840   5.550
 7069SOL    HW122106   5.701   1.786   5.491
 7069SOL    HW222107   5.674   1.935   5.552
 7070SOL     OW22108   1.161   6.445   4.180
 7070SOL    HW122109   1.091   6.475   4.244
 7070SOL    HW222110   1.159   6.503   4.099
 7071SOL     OW22111   4.995   5.819   6.522
 7071SOL    HW122112   4.964   5.838   6.615
 7071SOL    HW222113   4.973   5.897   6.463
 7072SOL     OW22114   2.077   5.047   6.909
 7072SOL    HW122115   2.144   5.021   6.977
 7072SOL    HW222116   2.090   5.144   6.884
 7073SOL     OW22117   3.515   0.195   3.139
 7073SOL    HW122118   3.502   0.273   3.200
 7073SOL    HW222119   3.604   0.153   3.159
 7074SOL     OW22120   6.553   3.311   3.238
 7074SOL    HW122121   6.480   3.319   3.305
 7074SOL    HW222122   6.528   3.360   3.155
 7075SOL     OW22123   2.663   5.241   4.777
 7075SOL    HW122124   2.587   5.285   4.728
 7075SOL    HW222125   2.749   5.284   4.750
 7076SOL     OW22126   5.920   2.886   0.845
 7076SOL    HW122127   6.007   2.845   0.872
 7076SOL    HW222128   5.855   2.814   0.820
 7077SOL     OW22129   2.346   4.256   2.987
 7077SOL    HW122130   2.439   4.228   2.965
 7077SOL    HW222131   2.334   4.353   2.968
 7078SOL     OW22132   5.982   6.206   0.916
 7078SOL    HW122133   6.073   6.231   0.883
 7078SOL    HW222134   5.990   6.160   1.004
 7079SOL     OW22135   1.270   6.869   4.183
 7079SOL    HW122136   1.203   6.879   4.110
 7079SOL    HW222137   1.362   6.865   4.144
 7080SOL     OW22138   3.917   2.011   3.901
 7080SOL    HW122139   3.917   2.084   3.969
 7080SOL    HW222140   3.899   2.049   3.810
 7081SOL     OW22141   1.378   5.964   0.576
 7081SOL    HW122142   1.292   6.012   0.592
 7081SOL    HW222143   1.386   5.938   0.480
 7082SOL     OW22144   6.869   4.148   0.771
 7082SOL    HW122145   6.890   4.121   0.864
 7082SOL    HW222146   6.775   4.123   0.749
 7083SOL     OW22147   0.387   1.564   2.671
 7083SOL    HW122148   0.306   1.609   2.636
 7083SOL    HW222149   0.427   1.619   2.744
 7084SOL     OW22150   0.692   5.518   5.490
 7084SOL    HW122151   0.723   5.441   5.435
 7084SOL    HW222152   0.770   5.578   5.509
 7085SOL     OW22153   6.715   2.315   2.738
 7085SOL    HW122154   6.742   2.223   2.766
 7085SOL    HW222155   6.622   2.313   2.701
 7086SOL     OW22156   5.620   0.315   6.736
 7086SOL    HW122157   5.605   0.410   6.708
 7086SOL    HW222158   5.705   0.308   6.788
 7087SOL     OW22159   5.236   3.564   2.261
 7087SOL    HW122160   5.261   3.506   2.184
 7087SOL    HW222161   5.300   3.548   2.336
 7088SOL     OW22162   5.167   2.306   5.718
 7088SOL    HW122163   5.134   2.212   5.711
 7088SOL    HW222164   5.133   2.348   5.802
 7089SOL     OW22165   2.408   4.929   2.869
 7089SOL    HW122166   2.492   4.907   2.818
 7089SOL    HW222167   2.394   5.028   2.869
 7090SOL     OW22168   2.832   1.662   0.615
 7090SOL    HW122169   2.811   1.614   0.530
 7090SOL    HW222170   2.790   1.614   0.692
 7091SOL     OW22171   0.879   0.742   1.555
 7091SOL    HW122172   0.948   0.727   1.626
 7091SOL    HW222173   0.798   0.686   1.574
 7092SOL     OW22174   4.015   2.842   5.900
 7092SOL    HW122175   3.962   2.925   5.915
 7092SOL    HW222176   4.103   2.866   5.859
 7093SOL     OW22177   3.579   3.363   1.628
 7093SOL    HW122178   3.511   3.433   1.652
 7093SOL    HW222179   3.534   3.284   1.588
 7094SOL     OW22180   1.451   0.148   5.440
 7094SOL    HW122181   1.441   0.051   5.462
 7094SOL    HW222182   1.545   0.167   5.414
 7095SOL     OW22183   3.517   4.915   6.156
 7095SOL    HW122184   3.554   4.925   6.064
 7095SOL    HW222185   3.457   4.835   6.160
 7096SOL     OW22186   6.783   0.487   2.048
 7096SOL    HW122187   6.760   0.562   2.110
 7096SOL    HW222188   6.864   0.512   1.995
 7097SOL     OW22189   4.715   0.844   1.915
 7097SOL    HW122190   4.711   0.754   1.873
 7097SOL    HW222191   4.646   0.903   1.873
 7098SOL     OW22192   1.528   6.490   5.726
 7098SOL    HW122193   1.559   6.444   5.643
 7098SOL    HW222194   1.607   6.511   5.784
 7099SOL     OW22195   3.823   1.840   4.299
 7099SOL    HW122196   3.815   1.771   4.370
 7099SOL    HW222197   3.918   1.845   4.268
 7100SOL     OW22198   6.545   3.084   0.826
 7100SOL    HW122199   6.595   3.059   0.909
 7100SOL    HW222200   6.547   3.184   0.816
 7101SOL     OW22201   2.655   0.232   5.872
 7101SOL    HW122202   2.741   0.207   5.916
 7101SOL    HW222203   2.590   0.156   5.883
 7102SOL     OW22204   5.841   0.484   1.395
 7102SOL    HW122205   5.827   0.390   1.426
 7102SOL    HW222206   5.827   0.489   1.296
 7103SOL     OW22207   5.017   5.418   1.957
 7103SOL    HW122208   5.110   5.454   1.949
 7103SOL    HW222209   5.019   5.319   1.960
 7104SOL     OW22210   5.293   4.018   2.457
 7104SOL    HW122211   5.204   4.000   2.415
 7104SOL    HW222212   5.328   4.105   2.424
 7105SOL     OW22213   3.846   4.112   4.330
 7105SOL    HW122214   3.746   4.106   4.329
 7105SOL    HW222215   3.873   4.205   4.357
 7106SOL     OW22216   2.954   3.057   0.960
 7106SOL    HW122217   2.989   2.975   1.005
 7106SOL    HW222218   2.927   3.124   1.029
 7107SOL     OW22219   3.857   0.154   0.350
 7107SOL    HW122220   3.798   0.110   0.418
 7107SOL    HW222221   3.815   0.147   0.260
 7108SOL     OW22222   2.402   6.392   2.314
 7108SOL    HW122223   2.307   6.403   2.284
 7108SOL    HW222224   2.416   6.297   2.343
 7109SOL     OW22225   1.747   1.023   6.657
 7109SOL    HW122226   1.745   0.929   6.623
 7109SOL    HW222227   1.815   1.076   6.606
 7110SOL     OW22228   3.400   6.087   4.109
 7110SOL    HW122229   3.484   6.105   4.058
 7110SOL    HW222230   3.368   6.172   4.151
 7111SOL     OW22231   1.450   1.757   4.079
 7111SOL    HW122232   1.485   1.736   4.170
 7111SOL    HW222233   1.518   1.810   4.028
 7112SOL     OW22234   2.209   4.072   4.757
 7112SOL    HW122235   2.191   4.098   4.852
 7112SOL    HW222236   2.260   4.145   4.712
 7113SOL     OW22237   3.286   4.735   5.325
 7113SOL    HW122238   3.335   4.648   5.322
 7113SOL    HW222239   3.292   4.773   5.417
 7114SOL     OW22240   4.273   5.469   1.468
 7114SOL    HW122241   4.368   5.482   1.440
 7114SOL    HW222242   4.223   5.420   1.397
 7115SOL     OW22243   5.637   3.595   6.838
 7115SOL    HW122244   5.679   3.609   6.928
 7115SOL    HW222245   5.698   3.628   6.767
 7116SOL     OW22246   5.771   3.920   3.271
 7116SOL    HW122247   5.724   3.836   3.299
 7116SOL    HW222248   5.826   3.955   3.346
 7117SOL     OW22249   6.977   6.964   4.303
 7117SOL    HW122250   6.931   6.986   4.389
 7117SOL    HW222251   0.007   6.884   4.315
 7118SOL     OW22252   3.815   4.201   5.669
 7118SOL    HW122253   3.828   4.300   5.676
 7118SOL    HW222254   3.754   4.181   5.592
 7119SOL     OW22255   5.173   0.986   4.950
 7119SOL    HW122256   5.261   0.940   4.961
 7119SOL    HW222257   5.109   0.927   4.901
 7120SOL     OW22258   4.621   1.649   1.436
 7120SOL    HW122259   4.597   1.691   1.524
 7120SOL    HW222260   4.668   1.717   1.379
 7121SOL     OW22261   0.409   6.402   2.784
 7121SOL    HW122262   0.322   6.370   2.746
 7121SOL    HW222263   0.403   6.406   2.884
 7122SOL     OW22264   1.669   0.293   5.869
 7122SOL    HW122265   1.603   0.243   5.814
 7122SOL    HW222266   1.624   0.372   5.912
 7123SOL     OW22267   6.840   5.151   4.235
 7123SOL    HW122268   6.906   5.116   4.170
 7123SOL    HW222269   6.887   5.198   4.310
 7124SOL     OW22270   0.507   1.984   1.636
 7124SOL    HW122271   0.418   2.027   1.627
 7124SOL    HW222272   0.508   1.898   1.585
 7125SOL     OW22273   1.473   1.394   1.362
 7125SOL    HW122274   1.398   1.331   1.341
 7125SOL    HW222275   1.516   1.423   1.277
 7126SOL     OW22276   4.106   5.898   0.600
 7126SOL    HW122277   4.140   5.976   0.652
 7126SOL    HW222278   4.017   5.921   0.560
 7127SOL     OW22279   2.776   6.249   6.101
 7127SOL    HW122280   2.829   6.169   6.129
 7127SOL    HW222281   2.761   6.246   6.002
 7128SOL     OW22282   3.898   3.683   6.618
 7128SOL    HW122283   3.949   3.713   6.699
 7128SOL    HW222284   3.953   3.698   6.536
 7129SOL     OW22285   1.086   1.369   1.319
 7129SOL    HW122286   1.059   1.282   1.360
 7129SOL    HW222287   1.149   1.352   1.243
 7130SOL     OW22288   3.703   6.996   4.449
 7130SOL    HW122289   3.769   6.928   4.480
 7130SOL    HW222290   3.612   6.971   4.481
 7131SOL     OW22291   3.228   1.394   1.611
 7131SOL    HW122292   3.140   1.397   1.563
 7131SOL    HW222293   3.234   1.309   1.664
 7132SOL     OW22294   5.240   4.484   0.093
 7132SOL    HW122295   5.297   4.423   0.148
 7132SOL    HW222296   5.277   4.577   0.098
 7133SOL     OW22297   4.341   5.016   4.157
 7133SOL    HW122298   4.418   5.075   4.130
 7133SOL    HW222299   4.349   4.927   4.112
 7134SOL     OW22300   5.417   6.494   1.856
 7134SOL    HW122301   5.348   6.536   1.797
 7134SOL    HW222302   5.423   6.546   1.941
 7135SOL     OW22303   2.127   3.072   2.135
 7135SOL    HW122304   2.135   3.087   2.036
 7135SOL    HW222305   2.150   3.156   2.184
 7136SOL     OW22306   2.388   1.648   1.021
 7136SOL    HW122307   2.436   1.625   0.936
 7136SOL    HW222308   2.388   1.748   1.033
 7137SOL     OW22309   3.057   1.515   0.742
 7137SOL    HW122310   3.032   1.420   0.723
 7137SOL    HW222311   3.012   1.575   0.676
 7138SOL     OW22312   1.926   1.140   1.065
 7138SOL    HW122313   1.923   1.064   1.129
 7138SOL    HW222314   1.994   1.122   0.994
 7139SOL     OW22315   4.916   4.795   1.978
 7139SOL    HW122316   5.009   4.807   1.943
 7139SOL    HW222317   4.871   4.722   1.928
 7140SOL     OW22318   5.703   4.839   1.074
 7140SOL    HW122319   5.712   4.875   0.981
 7140SOL    HW222320   5.792   4.841   1.119
 7141SOL     OW22321   4.426   6.817   1.439
 7141SOL    HW122322   4.460   6.911   1.446
 7141SOL    HW222323   4.340   6.810   1.489
 7142SOL     OW22324   3.568   0.237   4.224
 7142SOL    HW122325   3.540   0.141   4.217
 7142SOL    HW222326   3.668   0.243   4.227
 7143SOL     OW22327   1.443   3.933   6.745
 7143SOL    HW122328   1.368   3.922   6.809
 7143SOL    HW222329   1.499   4.011   6.773
 7144SOL     OW22330   0.462   1.117   3.767
 7144SOL    HW122331   0.452   1.212   3.737
 7144SOL    HW222332   0.448   1.056   3.689
 7145SOL     OW22333   4.664   0.691   6.779
 7145SOL    HW122334   4.707   0.698   6.688
 7145SOL    HW222335   4.685   0.774   6.831
 7146SOL     OW22336   1.760   1.843   6.290
 7146SOL    HW122337   1.714   1.770   6.340
 7146SOL    HW222338   1.859   1.827   6.291
 7147SOL     OW22339   6.053   5.946   3.332
 7147SOL    HW122340   6.002   5.883   3.273
 7147SOL    HW222341   6.007   5.954   3.420
 7148SOL     OW22342   5.971   5.777   1.334
 7148SOL    HW122343   5.924   5.724   1.404
 7148SOL    HW222344   5.903   5.815   1.271
 7149SOL     OW22345   0.019   5.132   3.819
 7149SOL    HW122346   7.001   5.044   3.829
 7149SOL    HW222347   0.088   5.126   3.746
 7150SOL     OW22348   4.373   3.146   0.242
 7150SOL    HW122349   4.407   3.116   0.153
 7150SOL    HW222350   4.289   3.198   0.230
 7151SOL     OW22351   3.602   6.370   0.890
 7151SOL    HW122352   3.655   6.364   0.806
 7151SOL    HW222353   3.509   6.336   0.874
 7152SOL     OW22354   6.239   0.780   6.456
 7152SOL    HW122355   6.277   0.688   6.457
 7152SOL    HW222356   6.296   0.839   6.397
 7153SOL     OW22357   3.528   4.981   2.272
 7153SOL    HW122358   3.617   4.960   2.233
 7153SOL    HW222359   3.456   4.947   2.211
 7154SOL     OW22360   4.116   0.910   3.002
 7154SOL    HW122361   4.109   0.827   3.057
 7154SOL    HW222362   4.090   0.990   3.057
 7155SOL     OW22363   2.652   2.459   0.989
 7155SOL    HW122364   2.657   2.417   1.080
 7155SOL    HW222365   2.730   2.429   0.934
 7156SOL     OW22366   4.963   3.678   2.746
 7156SOL    HW122367   4.946   3.766   2.701
 7156SOL    HW222368   5.002   3.694   2.836
 7157SOL     OW22369   6.350   4.561   0.943
 7157SOL    HW122370   6.348   4.555   1.042
 7157SOL    HW222371   6.261   4.535   0.906
 7158SOL     OW22372   6.750   0.404   3.545
 7158SOL    HW122373   6.690   0.461   3.602
 7158SOL    HW222374   6.783   0.327   3.600
 7159SOL     OW22375   0.738   4.788   4.359
 7159SOL    HW122376   0.657   4.834   4.395
 7159SOL    HW222377   0.747   4.809   4.261
 7160SOL     OW22378   5.931   6.482   2.849
 7160SOL    HW122379   5.844   6.441   2.879
 7160SOL    HW222380   5.918   6.580   2.836
 7161SOL     OW22381   3.831   4.038   3.023
 7161SOL    HW122382   3.774   3.957   3.005
 7161SOL    HW222383   3.836   4.094   2.941
 7162SOL     OW22384   0.263   4.834   0.148
 7162SOL    HW122385   0.272   4.836   0.247
 7162SOL    HW222386   0.350   4.804   0.107
 7163SOL     OW22387   1.800   0.848   2.789
 7163SOL    HW122388   1.858   0.791   2.731
 7163SOL    HW222389   1.833   0.942   2.786
 7164SOL     OW22390   2.082   1.065   4.733
 7164SOL    HW122391   2.084   0.965   4.729
 7164SOL    HW222392   2.126   1.103   4.652
 7165SOL     OW22393   6.311   5.915   1.737
 7165SOL    HW122394   6.280   5.912   1.642
 7165SOL    HW222395   6.279   5.999   1.781
 7166SOL     OW22396   5.824   0.412   6.458
 7166SOL    HW122397   5.773   0.498   6.463
 7166SOL    HW222398   5.845   0.391   6.363
 7167SOL     OW22399   5.280   1.909   5.667
 7167SOL    HW122400   5.331   1.920   5.582
 7167SOL    HW222401   5.285   1.814   5.697
 7168SOL     OW22402   3.180   1.436   2.614
 7168SOL    HW122403   3.130   1.443   2.527
 7168SOL    HW222404   3.136   1.494   2.682
 7169SOL     OW22405   0.732   4.265   4.828
 7169SOL    HW122406   0.667   4.190   4.843
 7169SOL    HW222407   0.683   4.351   4.821
 7170SOL     OW22408   4.165   6.956   2.296
 7170SOL    HW122409   4.075   6.921   2.269
 7170SOL    HW222410   4.154   0.012   2.348
 7171SOL     OW22411   5.842   4.435   1.139
 7171SOL    HW122412   5.851   4.335   1.132
 7171SOL    HW222413   5.778   4.467   1.070
 7172SOL     OW22414   2.034   1.696   5.084
 7172SOL    HW122415   1.967   1.624   5.072
 7172SOL    HW222416   2.051   1.711   5.181
 7173SOL     OW22417   6.513   5.202   6.412
 7173SOL    HW122418   6.550   5.201   6.504
 7173SOL    HW222419   6.507   5.296   6.378
 7174SOL     OW22420   6.600   4.545   1.192
 7174SOL    HW122421   6.571   4.598   1.113
 7174SOL    HW222422   6.594   4.601   1.274
 7175SOL     OW22423   6.485   3.995   5.234
 7175SOL    HW122424   6.403   4.001   5.177
 7175SOL    HW222425   6.530   3.907   5.218
 7176SOL     OW22426   0.703   1.470   4.093
 7176SOL    HW122427   0.794   1.427   4.088
 7176SOL    HW222428   0.633   1.399   4.098
 7177SOL     OW22429   1.910   5.714   5.547
 7177SOL    HW122430   1.954   5.739   5.634
 7177SOL    HW222431   1.902   5.615   5.541
 7178SOL     OW22432   1.111   1.044   5.891
 7178SOL    HW122433   1.142   0.962   5.843
 7178SOL    HW222434   1.178   1.070   5.960
 7179SOL     OW22435   2.375   4.469   4.939
 7179SOL    HW122436   2.409   4.491   4.848
 7179SOL    HW222437   2.278   4.444   4.933
 7180SOL     OW22438   2.491   3.958   1.140
 7180SOL    HW122439   2.562   3.931   1.205
 7180SOL    HW222440   2.520   3.936   1.047
 7181SOL     OW22441   2.273   1.136   6.197
 7181SOL    HW122442   2.288   1.232   6.171
 7181SOL    HW222443   2.175   1.117   6.196
 7182SOL     OW22444   1.215   3.827   3.318
 7182SOL    HW122445   1.233   3.918   3.356
 7182SOL    HW222446   1.230   3.829   3.219
 7183SOL     OW22447   2.024   5.798   2.036
 7183SOL    HW122448   2.031   5.835   2.128
 7183SOL    HW222449   2.080   5.851   1.973
 7184SOL     OW22450   5.867   1.159   3.473
 7184SOL    HW122451   5.783   1.156   3.419
 7184SOL    HW222452   5.845   1.155   3.571
 7185SOL     OW22453   5.578   0.978   5.517
 7185SOL    HW122454   5.546   1.048   5.581
 7185SOL    HW222455   5.661   0.936   5.552
 7186SOL     OW22456   0.408   0.743   0.837
 7186SOL    HW122457   0.382   0.683   0.912
 7186SOL    HW222458   0.453   0.690   0.765
 7187SOL     OW22459   3.096   3.726   5.414
 7187SOL    HW122460   3.064   3.717   5.320
 7187SOL    HW222461   3.058   3.809   5.454
 7188SOL     OW22462   4.721   4.046   0.239
 7188SOL    HW122463   4.819   4.031   0.229
 7188SOL    HW222464   4.672   3.967   0.202
 7189SOL     OW22465   6.321   3.652   5.364
 7189SOL    HW122466   6.365   3.712   5.430
 7189SOL    HW222467   6.361   3.560   5.370
 7190SOL     OW22468   6.020   6.152   1.187
 7190SOL    HW122469   6.028   6.239   1.235
 7190SOL    HW222470   5.926   6.118   1.193
 7191SOL     OW22471   0.476   4.082   3.244
 7191SOL    HW122472   0.490   4.138   3.326
 7191SOL    HW222473   0.549   4.100   3.178
 7192SOL     OW22474   1.597   4.258   5.927
 7192SOL    HW122475   1.611   4.165   5.892
 7192SOL    HW222476   1.669   4.279   5.993
 7193SOL     OW22477   2.541   1.553   2.745
 7193SOL    HW122478   2.596   1.518   2.821
 7193SOL    HW222479   2.579   1.518   2.659
 7194SOL     OW22480   2.197   2.083   6.784
 7194SOL    HW122481   2.294   2.100   6.804
 7194SOL    HW222482   2.160   2.159   6.730
 7195SOL     OW22483   6.073   4.158   6.707
 7195SOL    HW122484   5.988   4.188   6.749
 7195SOL    HW222485   6.145   4.156   6.777
 7196SOL     OW22486   3.273   3.890   2.134
 7196SOL    HW122487   3.271   3.976   2.184
 7196SOL    HW222488   3.362   3.878   2.089
 7197SOL     OW22489   1.192   4.288   5.678
 7197SOL    HW122490   1.204   4.270   5.581
 7197SOL    HW222491   1.272   4.337   5.713
 7198SOL     OW22492   0.790   0.789   0.036
 7198SOL    HW122493   0.809   0.691   0.041
 7198SOL    HW222494   0.692   0.804   0.026
 7199SOL     OW22495   0.971   0.083   2.478
 7199SOL    HW122496   1.062   0.114   2.504
 7199SOL    HW222497   0.960   0.089   2.378
 7200SOL     OW22498   1.905   3.489   0.879
 7200SOL    HW122499   1.843   3.462   0.806
 7200SOL    HW222500   1.984   3.428   0.881
 7201SOL     OW22501   0.390   5.454   4.233
 7201SOL    HW122502   0.309   5.511   4.245
 7201SOL    HW222503   0.373   5.364   4.276
 7202SOL     OW22504   5.302   0.163   5.759
 7202SOL    HW122505   5.372   0.167   5.831
 7202SOL    HW222506   5.334   0.103   5.685
 7203SOL     OW22507   1.298   1.085   1.603
 7203SOL    HW122508   1.348   1.001   1.624
 7203SOL    HW222509   1.356   1.164   1.623
 7204SOL     OW22510   6.204   1.632   0.100
 7204SOL    HW122511   6.181   1.536   0.084
 7204SOL    HW222512   6.275   1.639   0.170
 7205SOL     OW22513   1.328   3.252   4.572
 7205SOL    HW122514   1.270   3.334   4.573
 7205SOL    HW222515   1.390   3.255   4.650
 7206SOL     OW22516   1.124   1.566   1.514
 7206SOL    HW122517   1.223   1.570   1.515
 7206SOL    HW222518   1.093   1.511   1.436
 7207SOL     OW22519   2.845   1.370   3.681
 7207SOL    HW122520   2.940   1.398   3.685
 7207SOL    HW222521   2.839   1.271   3.668
 7208SOL     OW22522   4.783   0.085   4.115
 7208SOL    HW122523   4.689   0.119   4.122
 7208SOL    HW222524   4.844   0.161   4.092
 7209SOL     OW22525   1.970   2.642   2.291
 7209SOL    HW122526   2.034   2.706   2.250
 7209SOL    HW222527   1.993   2.629   2.388
 7210SOL     OW22528   3.886   1.870   3.283
 7210SOL    HW122529   3.982   1.847   3.264
 7210SOL    HW222530   3.858   1.946   3.224
 7211SOL     OW22531   3.091   5.979   5.313
 7211SOL    HW122532   3.076   6.032   5.396
 7211SOL    HW222533   3.064   5.884   5.329
 7212SOL     OW22534   6.958   6.782   6.394
 7212SOL    HW122535   0.013   6.816   6.439
 7212SOL    HW222536   6.915   6.713   6.451
 7213SOL     OW22537   3.791   6.588   6.510
 7213SOL    HW122538   3.739   6.600   6.425
 7213SOL    HW222539   3.804   6.490   6.526
 7214SOL     OW22540   0.033   0.919   5.663
 7214SOL    HW122541   6.975   0.922   5.613
 7214SOL    HW222542   0.032   0.988   5.736
 7215SOL     OW22543   6.308   2.832   4.593
 7215SOL    HW122544   6.269   2.811   4.682
 7215SOL    HW222545   6.408   2.822   4.596
 7216SOL     OW22546   3.080   6.245   2.189
 7216SOL    HW122547   3.084   6.342   2.165
 7216SOL    HW222548   3.009   6.200   2.135
 7217SOL     OW22549   1.552   3.951   3.252
 7217SOL    HW122550   1.572   3.884   3.323
 7217SOL    HW222551   1.520   4.036   3.295
 7218SOL     OW22552   0.305   3.455   3.529
 7218SOL    HW122553   0.324   3.548   3.497
 7218SOL    HW222554   0.348   3.442   3.619
 7219SOL     OW22555   3.359   6.981   1.728
 7219SOL    HW122556   3.439   6.994   1.787
 7219SOL    HW222557   3.301   0.033   1.731
 7220SOL     OW22558   6.649   4.869   3.983
 7220SOL    HW122559   6.618   4.920   4.063
 7220SOL    HW222560   6.594   4.785   3.973
 7221SOL     OW22561   3.207   5.955   4.768
 7221SOL    HW122562   3.253   5.924   4.852
 7221SOL    HW222563   3.267   6.017   4.718
 7222SOL     OW22564   5.418   0.187   3.049
 7222SOL    HW122565   5.372   0.163   3.135
 7222SOL    HW222566   5.464   0.275   3.060
 7223SOL     OW22567   2.742   0.681   0.623
 7223SOL    HW122568   2.703   0.726   0.703
 7223SOL    HW222569   2.825   0.730   0.595
 7224SOL     OW22570   4.804   2.190   4.391
 7224SOL    HW122571   4.836   2.240   4.472
 7224SOL    HW222572   4.712   2.156   4.406
 7225SOL     OW22573   2.038   6.626   1.050
 7225SOL    HW122574   2.025   6.569   0.969
 7225SOL    HW222575   2.039   6.567   1.131
 7226SOL     OW22576   6.106   0.423   1.667
 7226SOL    HW122577   6.115   0.517   1.635
 7226SOL    HW222578   6.183   0.400   1.727
 7227SOL     OW22579   2.656   1.324   1.810
 7227SOL    HW122580   2.641   1.384   1.732
 7227SOL    HW222581   2.632   1.373   1.895
 7228SOL     OW22582   0.952   1.270   3.580
 7228SOL    HW122583   0.970   1.360   3.621
 7228SOL    HW222584   1.033   1.240   3.529
 7229SOL     OW22585   0.016   6.900   4.893
 7229SOL    HW122586   7.001   6.839   4.827
 7229SOL    HW222587   0.050   6.981   4.846
 7230SOL     OW22588   3.102   5.484   3.429
 7230SOL    HW122589   3.183   5.542   3.420
 7230SOL    HW222590   3.079   5.445   3.340
 7231SOL     OW22591   4.159   0.724   0.790
 7231SOL    HW122592   4.139   0.749   0.885
 7231SOL    HW222593   4.076   0.732   0.735
 7232SOL     OW22594   4.632   6.284   2.515
 7232SOL    HW122595   4.602   6.266   2.609
 7232SOL    HW222596   4.670   6.376   2.510
 7233SOL     OW22597   1.252   1.099   4.994
 7233SOL    HW122598   1.309   1.017   5.001
 7233SOL    HW222599   1.176   1.093   5.058
 7234SOL     OW22600   5.420   3.395   3.025
 7234SOL    HW122601   5.338   3.403   3.081
 7234SOL    HW222602   5.404   3.437   2.936
 7235SOL     OW22603   6.201   5.069   1.443
 7235SOL    HW122604   6.129   5.002   1.422
 7235SOL    HW222605   6.164   5.141   1.501
 7236SOL     OW22606   2.163   2.461   2.642
 7236SOL    HW122607   2.190   2.455   2.546
 7236SOL    HW222608   2.073   2.418   2.653
 7237SOL     OW22609   4.240   7.024   6.432
 7237SOL    HW122610   4.277   7.022   6.338
 7237SOL    HW222611   4.291   0.063   6.486
 7238SOL     OW22612   4.558   2.282   6.574
 7238SOL    HW122613   4.626   2.271   6.646
 7238SOL    HW222614   4.588   2.354   6.511
 7239SOL     OW22615   1.071   2.737   2.113
 7239SOL    HW122616   1.163   2.729   2.152
 7239SOL    HW222617   1.077   2.783   2.025
 7240SOL     OW22618   6.630   1.636   6.999
 7240SOL    HW122619   6.644   1.537   7.003
 7240SOL    HW222620   6.552   1.656   6.941
 7241SOL     OW22621   2.703   6.753   0.409
 7241SOL    HW122622   2.631   6.776   0.343
 7241SOL    HW222623   2.662   6.727   0.496
 7242SOL     OW22624   6.924   5.424   5.577
 7242SOL    HW122625   6.843   5.482   5.577
 7242SOL    HW222626   6.956   5.409   5.483
 7243SOL     OW22627   7.024   4.567   6.341
 7243SOL    HW122628   6.967   4.617   6.275
 7243SOL    HW222629   0.027   4.481   6.299
 7244SOL     OW22630   0.384   0.551   1.082
 7244SOL    HW122631   0.433   0.568   1.168
 7244SOL    HW222632   0.288   0.530   1.103
 7245SOL     OW22633   1.239   2.573   5.316
 7245SOL    HW122634   1.284   2.532   5.395
 7245SOL    HW222635   1.151   2.528   5.301
 7246SOL     OW22636   1.732   0.528   4.024
 7246SOL    HW122637   1.707   0.622   4.001
 7246SOL    HW222638   1.817   0.528   4.077
 7247SOL     OW22639   3.068   2.215   5.588
 7247SOL    HW122640   3.077   2.243   5.493
 7247SOL    HW222641   2.975   2.236   5.621
 7248SOL     OW22642   3.081   0.866   3.045
 7248SOL    HW122643   3.087   0.936   2.974
 7248SOL    HW222644   3.038   0.784   3.007
 7249SOL     OW22645   4.759   5.204   1.868
 7249SOL    HW122646   4.694   5.239   1.801
 7249SOL    HW222647   4.852   5.229   1.841
 7250SOL     OW22648   5.103   5.315   5.752
 7250SOL    HW122649   5.165   5.362   5.814
 7250SOL    HW222650   5.105   5.361   5.663
 7251SOL     OW22651   1.023   0.263   4.953
 7251SOL    HW122652   1.023   0.275   5.053
 7251SOL    HW222653   1.108   0.300   4.916
 7252SOL     OW22654   3.176   3.534   1.878
 7252SOL    HW122655   3.114   3.456   1.888
 7252SOL    HW222656   3.129   3.617   1.906
 7253SOL     OW22657   1.880   6.019   6.829
 7253SOL    HW122658   1.888   6.044   6.733
 7253SOL    HW222659   1.970   5.995   6.866
 7254SOL     OW22660   5.289   5.507   4.456
 7254SOL    HW122661   5.315   5.416   4.487
 7254SOL    HW222662   5.242   5.556   4.530
 7255SOL     OW22663   4.492   3.591   6.889
 7255SOL    HW122664   4.433   3.545   6.955
 7255SOL    HW222665   4.568   3.636   6.936
 7256SOL     OW22666   3.461   5.847   5.756
 7256SOL    HW122667   3.453   5.856   5.855
 7256SOL    HW222668   3.554   5.821   5.732
 7257SOL     OW22669   0.806   2.026   3.747
 7257SOL    HW122670   0.791   1.978   3.660
 7257SOL    HW222671   0.888   1.989   3.791
 7258SOL     OW22672   5.110   1.898   2.678
 7258SOL    HW122673   5.109   1.990   2.637
 7258SOL    HW222674   5.026   1.850   2.655
 7259SOL     OW22675   1.166   2.997   2.360
 7259SOL    HW122676   1.256   2.995   2.317
 7259SOL    HW222677   1.109   3.065   2.314
 7260SOL     OW22678   5.779   1.638   2.053
 7260SOL    HW122679   5.785   1.731   2.016
 7260SOL    HW222680   5.684   1.617   2.076
 7261SOL     OW22681   0.827   4.365   1.108
 7261SOL    HW122682   0.790   4.457   1.109
 7261SOL    HW222683   0.829   4.330   1.014
 7262SOL     OW22684   5.268   1.934   6.634
 7262SOL    HW122685   5.301   2.024   6.661
 7262SOL    HW222686   5.344   1.869   6.636
 7263SOL     OW22687   0.370   6.339   0.144
 7263SOL    HW122688   0.355   6.365   0.048
 7263SOL    HW222689   0.388   6.421   0.199
 7264SOL     OW22690   5.212   1.104   0.554
 7264SOL    HW122691   5.119   1.136   0.539
 7264SOL    HW222692   5.265   1.176   0.599
 7265SOL     OW22693   5.644   4.566   5.632
 7265SOL    HW122694   5.590   4.568   5.716
 7265SOL    HW222695   5.590   4.526   5.558
 7266SOL     OW22696   6.278   1.233   3.252
 7266SOL    HW122697   6.229   1.313   3.216
 7266SOL    HW222698   6.218   1.182   3.313
 7267SOL     OW22699   6.538   6.625   4.775
 7267SOL    HW122700   6.487   6.609   4.860
 7267SOL    HW222701   6.544   6.723   4.758
 7268SOL     OW22702   0.008   6.170   4.482
 7268SOL    HW122703   7.007   6.246   4.540
 7268SOL    HW222704   0.072   6.204   4.413
 7269SOL     OW22705   1.975   6.238   6.120
 7269SOL    HW122706   2.016   6.327   6.136
 7269SOL    HW222707   1.896   6.227   6.180
 7270SOL     OW22708   0.281   3.090   4.922
 7270SOL    HW122709   0.200   3.145   4.943
 7270SOL    HW222710   0.255   3.011   4.866
 7271SOL     OW22711   1.677   4.924   4.322
 7271SOL    HW122712   1.671   4.946   4.420
 7271SOL    HW222713   1.669   5.008   4.268
 7272SOL     OW22714   5.958   5.950   2.505
 7272SOL    HW122715   6.036   5.896   2.473
 7272SOL    HW222716   5.882   5.938   2.442
 7273SOL     OW22717   5.996   3.976   0.494
 7273SOL    HW122718   6.072   3.996   0.432
 7273SOL    HW222719   5.949   3.893   0.463
 7274SOL     OW22720   0.158   4.917   6.778
 7274SOL    HW122721   0.238   4.886   6.727
 7274SOL    HW222722   0.075   4.877   6.738
 7275SOL     OW22723   6.985   5.685   2.848
 7275SOL    HW122724   7.008   5.778   2.877
 7275SOL    HW222725   7.005   5.673   2.751
 7276SOL     OW22726   5.305   0.823   3.515
 7276SOL    HW122727   5.206   0.835   3.509
 7276SOL    HW222728   5.346   0.839   3.425
 7277SOL     OW22729   5.386   0.499   4.456
 7277SOL    HW122730   5.345   0.424   4.508
 7277SOL    HW222731   5.480   0.476   4.431
 7278SOL     OW22732   3.443   2.979   1.449
 7278SOL    HW122733   3.461   2.891   1.492
 7278SOL    HW222734   3.517   3.000   1.384
 7279SOL     OW22735   4.541   4.821   6.227
 7279SOL    HW122736   4.487   4.741   6.201
 7279SOL    HW222737   4.585   4.804   6.315
 7280SOL     OW22738   0.176   1.181   3.610
 7280SOL    HW122739   0.230   1.257   3.644
 7280SOL    HW222740   0.204   1.159   3.516
 7281SOL     OW22741   3.211   1.809   6.841
 7281SOL    HW122742   3.178   1.904   6.845
 7281SOL    HW222743   3.223   1.774   6.934
 7282SOL     OW22744   5.829   5.043   2.990
 7282SOL    HW122745   5.874   5.049   2.901
 7282SOL    HW222746   5.738   5.004   2.979
 7283SOL     OW22747   4.054   1.664   2.985
 7283SOL    HW122748   3.964   1.622   2.971
 7283SOL    HW222749   4.072   1.671   3.083
 7284SOL     OW22750   0.741   3.281   6.243
 7284SOL    HW122751   0.808   3.336   6.194
 7284SOL    HW222752   0.740   3.307   6.339
 7285SOL     OW22753   5.197   3.423   2.601
 7285SOL    HW122754   5.277   3.414   2.541
 7285SOL    HW222755   5.130   3.484   2.557
 7286SOL     OW22756   3.016   0.485   0.048
 7286SOL    HW122757   3.102   0.451   0.010
 7286SOL    HW222758   3.025   0.582   0.069
 7287SOL     OW22759   0.322   2.429   6.069
 7287SOL    HW122760   0.323   2.427   6.169
 7287SOL    HW222761   0.347   2.339   6.033
 7288SOL     OW22762   3.211   0.395   0.407
 7288SOL    HW122763   3.248   0.312   0.450
 7288SOL    HW222764   3.124   0.419   0.450
 7289SOL     OW22765   5.358   2.069   4.245
 7289SOL    HW122766   5.289   2.135   4.274
 7289SOL    HW222767   5.394   2.021   4.325
 7290SOL     OW22768   3.567   0.612   5.833
 7290SOL    HW122769   3.473   0.639   5.814
 7290SOL    HW222770   3.576   0.582   5.928
 7291SOL     OW22771   1.914   6.411   0.854
 7291SOL    HW122772   1.901   6.352   0.774
 7291SOL    HW222773   1.933   6.354   0.934
 7292SOL     OW22774   3.240   1.100   3.297
 7292SOL    HW122775   3.340   1.097   3.304
 7292SOL    HW222776   3.213   1.104   3.201
 7293SOL     OW22777   1.420   2.072   5.166
 7293SOL    HW122778   1.429   2.038   5.260
 7293SOL    HW222779   1.434   2.171   5.165
 7294SOL     OW22780   2.107   4.797   6.783
 7294SOL    HW122781   2.102   4.896   6.794
 7294SOL    HW222782   2.191   4.763   6.826
 7295SOL     OW22783   0.543   2.706   1.031
 7295SOL    HW122784   0.596   2.668   1.107
 7295SOL    HW222785   0.590   2.687   0.945
 7296SOL     OW22786   2.895   5.307   1.512
 7296SOL    HW122787   2.855   5.216   1.511
 7296SOL    HW222788   2.877   5.351   1.601
 7297SOL     OW22789   3.672   6.244   1.405
 7297SOL    HW122790   3.591   6.297   1.380
 7297SOL    HW222791   3.719   6.214   1.321
 7298SOL     OW22792   4.710   4.671   5.185
 7298SOL    HW122793   4.703   4.598   5.254
 7298SOL    HW222794   4.739   4.755   5.230
 7299SOL     OW22795   0.371   1.702   0.339
 7299SOL    HW122796   0.384   1.723   0.435
 7299SOL    HW222797   0.369   1.602   0.327
 7300SOL     OW22798   6.374   5.880   3.039
 7300SOL    HW122799   6.364   5.852   3.135
 7300SOL    HW222800   6.469   5.906   3.022
 7301SOL     OW22801   5.765   1.411   4.793
 7301SOL    HW122802   5.668   1.436   4.795
 7301SOL    HW222803   5.814   1.473   4.731
 7302SOL     OW22804   0.677   1.887   5.710
 7302SOL    HW122805   0.688   1.836   5.796
 7302SOL    HW222806   0.726   1.839   5.637
 7303SOL     OW22807   4.083   0.330   0.321
 7303SOL    HW122808   4.170   0.302   0.280
 7303SOL    HW222809   4.017   0.256   0.314
 7304SOL     OW22810   3.797   4.941   0.781
 7304SOL    HW122811   3.834   4.849   0.766
 7304SOL    HW222812   3.831   5.002   0.710
 7305SOL     OW22813   4.901   1.024   0.309
 7305SOL    HW122814   4.970   1.071   0.254
 7305SOL    HW222815   4.946   0.965   0.376
 7306SOL     OW22816   5.025   2.237   1.884
 7306SOL    HW122817   5.018   2.202   1.978
 7306SOL    HW222818   4.956   2.192   1.827
 7307SOL     OW22819   2.185   0.004   2.239
 7307SOL    HW122820   2.268   0.046   2.204
 7307SOL    HW222821   2.180   0.017   2.338
 7308SOL     OW22822   0.156   3.589   5.957
 7308SOL    HW122823   0.184   3.549   5.870
 7308SOL    HW222824   0.113   3.519   6.014
 7309SOL     OW22825   4.809   5.769   1.254
 7309SOL    HW122826   4.806   5.684   1.306
 7309SOL    HW222827   4.898   5.813   1.268
 7310SOL     OW22828   2.121   3.918   1.626
 7310SOL    HW122829   2.186   3.861   1.677
 7310SOL    HW222830   2.030   3.910   1.668
 7311SOL     OW22831   3.428   2.073   1.894
 7311SOL    HW122832   3.517   2.033   1.916
 7311SOL    HW222833   3.358   2.034   1.953
 7312SOL     OW22834   0.438   3.446   5.421
 7312SOL    HW122835   0.492   3.362   5.409
 7312SOL    HW222836   0.463   3.488   5.509
 7313SOL     OW22837   2.845   1.578   6.476
 7313SOL    HW122838   2.936   1.550   6.506
 7313SOL    HW222839   2.791   1.607   6.556
 7314SOL     OW22840   6.907   5.504   5.994
 7314SOL    HW122841   6.944   5.419   5.958
 7314SOL    HW222842   6.835   5.538   5.934
 7315SOL     OW22843   6.749   0.702   2.214
 7315SOL    HW122844   6.657   0.735   2.235
 7315SOL    HW222845   6.801   0.774   2.168
 7316SOL     OW22846   2.901   3.906   6.637
 7316SOL    HW122847   2.848   3.945   6.562
 7316SOL    HW222848   2.963   3.836   6.601
 7317SOL     OW22849   5.168   0.882   2.786
 7317SOL    HW122850   5.205   0.964   2.743
 7317SOL    HW222851   5.115   0.908   2.867
 7318SOL     OW22852   1.532   0.729   1.035
 7318SOL    HW122853   1.531   0.776   0.946
 7318SOL    HW222854   1.616   0.751   1.083
 7319SOL     OW22855   6.523   4.593   6.332
 7319SOL    HW122856   6.615   4.626   6.356
 7319SOL    HW222857   6.525   4.558   6.238
 7320SOL     OW22858   6.365   3.624   2.111
 7320SOL    HW122859   6.398   3.636   2.205
 7320SOL    HW222860   6.413   3.688   2.051
 7321SOL     OW22861   2.522   0.306   5.527
 7321SOL    HW122862   2.527   0.396   5.484
 7321SOL    HW222863   2.586   0.301   5.604
 7322SOL     OW22864   6.763   2.887   3.460
 7322SOL    HW122865   6.714   2.817   3.511
 7322SOL    HW222866   6.701   2.963   3.439
 7323SOL     OW22867   1.722   2.166   1.953
 7323SOL    HW122868   1.808   2.132   1.912
 7323SOL    HW222869   1.735   2.179   2.051
 7324SOL     OW22870   4.622   6.184   2.260
 7324SOL    HW122871   4.634   6.191   2.359
 7324SOL    HW222872   4.712   6.182   2.215
 7325SOL     OW22873   3.356   6.397   0.454
 7325SOL    HW122874   3.269   6.356   0.425
 7325SOL    HW222875   3.338   6.463   0.527
 7326SOL     OW22876   3.169   5.802   5.802
 7326SOL    HW122877   3.266   5.823   5.791
 7326SOL    HW222878   3.116   5.887   5.800
 7327SOL     OW22879   5.973   1.999   6.188
 7327SOL    HW122880   5.975   1.999   6.088
 7327SOL    HW222881   6.066   1.991   6.223
 7328SOL     OW22882   3.661   0.452   6.619
 7328SOL    HW122883   3.750   0.498   6.611
 7328SOL    HW222884   3.675   0.355   6.636
 7329SOL     OW22885   5.875   4.153   1.153
 7329SOL    HW122886   5.821   4.112   1.227
 7329SOL    HW222887   5.946   4.089   1.124
 7330SOL     OW22888   2.455   2.148   6.860
 7330SOL    HW122889   2.492   2.058   6.839
 7330SOL    HW222890   2.490   2.215   6.794
 7331SOL     OW22891   5.674   6.986   2.181
 7331SOL    HW122892   5.669   6.979   2.281
 7331SOL    HW222893   5.719   0.044   2.156
 7332SOL     OW22894   2.288   6.005   0.932
 7332SOL    HW122895   2.291   6.100   0.902
 7332SOL    HW222896   2.266   5.946   0.854
 7333SOL     OW22897   0.330   2.328   2.560
 7333SOL    HW122898   0.239   2.328   2.601
 7333SOL    HW222899   0.394   2.282   2.622
 7334SOL     OW22900   3.041   5.388   6.591
 7334SOL    HW122901   2.985   5.347   6.664
 7334SOL    HW222902   3.072   5.315   6.529
 7335SOL     OW22903   1.354   2.479   3.135
 7335SOL    HW122904   1.378   2.408   3.070
 7335SOL    HW222905   1.429   2.545   3.143
 7336SOL     OW22906   1.350   6.729   3.198
 7336SOL    HW122907   1.253   6.709   3.184
 7336SOL    HW222908   1.395   6.738   3.110
 7337SOL     OW22909   0.051   3.535   1.693
 7337SOL    HW122910   0.147   3.509   1.697
 7337SOL    HW222911   0.043   3.634   1.680
 7338SOL     OW22912   6.455   2.071   1.516
 7338SOL    HW122913   6.504   2.130   1.580
 7338SOL    HW222914   6.363   2.107   1.501
 7339SOL     OW22915   5.998   6.620   3.563
 7339SOL    HW122916   5.902   6.592   3.557
 7339SOL    HW222917   6.045   6.595   3.478
 7340SOL     OW22918   2.529   0.746   1.224
 7340SOL    HW122919   2.504   0.843   1.231
 7340SOL    HW222920   2.479   0.694   1.293
 7341SOL     OW22921   6.803   3.006   6.848
 7341SOL    HW122922   6.762   3.096   6.862
 7341SOL    HW222923   6.848   2.975   6.932
 7342SOL     OW22924   0.038   1.617   1.813
 7342SOL    HW122925   7.016   1.600   1.728
 7342SOL    HW222926   0.131   1.647   1.791
 7343SOL     OW22927   5.502   3.605   0.272
 7343SOL    HW122928   5.447   3.682   0.307
 7343SOL    HW222929   5.453   3.561   0.197
 7344SOL     OW22930   0.343   1.134   6.749
 7344SOL    HW122931   0.434   1.124   6.708
 7344SOL    HW222932   0.279   1.073   6.701
 7345SOL     OW22933   4.551   3.673   5.500
 7345SOL    HW122934   4.505   3.614   5.433
 7345SOL    HW222935   4.649   3.672   5.483
 7346SOL     OW22936   4.001   5.767   2.524
 7346SOL    HW122937   4.082   5.816   2.489
 7346SOL    HW222938   3.926   5.776   2.459
 7347SOL     OW22939   1.099   1.825   0.781
 7347SOL    HW122940   1.025   1.781   0.730
 7347SOL    HW222941   1.068   1.915   0.813
 7348SOL     OW22942   1.264   4.083   3.496
 7348SOL    HW122943   1.310   4.049   3.578
 7348SOL    HW222944   1.332   4.117   3.431
 7349SOL     OW22945   4.012   0.269   1.613
 7349SOL    HW122946   4.108   0.277   1.640
 7349SOL    HW222947   3.964   0.212   1.679
 7350SOL     OW22948   2.624   2.340   5.527
 7350SOL    HW122949   2.547   2.394   5.492
 7350SOL    HW222950   2.644   2.265   5.463
 7351SOL     OW22951   5.876   5.511   3.883
 7351SOL    HW122952   5.875   5.456   3.800
 7351SOL    HW222953   5.783   5.536   3.908
 7352SOL     OW22954   1.873   1.997   2.825
 7352SOL    HW122955   1.833   1.907   2.808
 7352SOL    HW222956   1.944   2.016   2.757
 7353SOL     OW22957   0.562   0.381   6.599
 7353SOL    HW122958   0.640   0.412   6.544
 7353SOL    HW222959   0.488   0.447   6.593
 7354SOL     OW22960   1.169   1.848   4.830
 7354SOL    HW122961   1.190   1.943   4.853
 7354SOL    HW222962   1.233   1.787   4.876
 7355SOL     OW22963   1.412   1.077   0.864
 7355SOL    HW122964   1.433   0.980   0.848
 7355SOL    HW222965   1.319   1.085   0.900
 7356SOL     OW22966   4.042   3.299   6.420
 7356SOL    HW122967   3.998   3.242   6.489
 7356SOL    HW222968   3.972   3.353   6.372
 7357SOL     OW22969   3.303   6.134   2.340
 7357SOL    HW122970   3.233   6.177   2.283
 7357SOL    HW222971   3.394   6.155   2.304
 7358SOL     OW22972   6.461   3.414   2.583
 7358SOL    HW122973   6.373   3.407   2.631
 7358SOL    HW222974   6.518   3.482   2.628
 7359SOL     OW22975   4.615   2.333   5.610
 7359SOL    HW122976   4.618   2.406   5.678
 7359SOL    HW222977   4.692   2.343   5.547
 7360SOL     OW22978   3.082   3.346   5.713
 7360SOL    HW122979   2.999   3.291   5.720
 7360SOL    HW222980   3.093   3.380   5.620
 7361SOL     OW22981   5.260   0.660   2.517
 7361SOL    HW122982   5.339   0.673   2.456
 7361SOL    HW222983   5.292   0.631   2.607
 7362SOL     OW22984   1.384   5.721   6.298
 7362SOL    HW122985   1.350   5.732   6.204
 7362SOL    HW222986   1.483   5.718   6.297
 7363SOL     OW22987   4.432   1.474   1.058
 7363SOL    HW122988   4.443   1.401   1.124
 7363SOL    HW222989   4.419   1.561   1.106
 7364SOL     OW22990   4.127   1.163   2.067
 7364SOL    HW122991   4.224   1.136   2.065
 7364SOL    HW222992   4.076   1.100   2.125
 7365SOL     OW22993   0.551   6.238   2.056
 7365SOL    HW122994   0.515   6.313   2.110
 7365SOL    HW222995   0.617   6.187   2.110
 7366SOL     OW22996   2.024   0.099   5.581
 7366SOL    HW122997   2.107   0.154   5.587
 7366SOL    HW222998   2.041   0.018   5.525
 7367SOL     OW22999   4.494   2.835   0.982
 7367SOL    HW123000   4.425   2.785   1.035
 7367SOL    HW223001   4.585   2.816   1.018
 7368SOL     OW23002   3.782   2.994   2.353
 7368SOL    HW123003   3.779   3.024   2.449
 7368SOL    HW223004   3.864   2.939   2.338
 7369SOL     OW23005   2.968   2.131   0.957
 7369SOL    HW123006   3.049   2.160   0.906
 7369SOL    HW223007   2.890   2.126   0.895
 7370SOL     OW23008   2.646   1.366   6.365
 7370SOL    HW123009   2.723   1.429   6.373
 7370SOL    HW223010   2.561   1.417   6.378
 7371SOL     OW23011   2.650   6.633   3.083
 7371SOL    HW123012   2.711   6.688   3.139
 7371SOL    HW223013   2.555   6.653   3.108
 7372SOL     OW23014   4.629   6.613   4.710
 7372SOL    HW123015   4.709   6.672   4.718
 7372SOL    HW223016   4.571   6.624   4.791
 7373SOL     OW23017   6.240   1.720   4.503
 7373SOL    HW123018   6.331   1.680   4.512
 7373SOL    HW223019   6.208   1.752   4.592
 7374SOL     OW23020   2.450   2.282   4.967
 7374SOL    HW123021   2.526   2.269   4.902
 7374SOL    HW223022   2.460   2.370   5.013
 7375SOL     OW23023   2.310   2.542   2.076
 7375SOL    HW123024   2.344   2.448   2.072
 7375SOL    HW223025   2.279   2.563   2.168
 7376SOL     OW23026   1.223   1.895   1.680
 7376SOL    HW123027   1.287   1.821   1.657
 7376SOL    HW223028   1.275   1.980   1.693
 7377SOL     OW23029   5.082   5.059   0.534
 7377SOL    HW123030   5.083   4.971   0.582
 7377SOL    HW223031   5.160   5.113   0.563
 7378SOL     OW23032   1.310   0.641   4.559
 7378SOL    HW123033   1.272   0.651   4.651
 7378SOL    HW223034   1.379   0.711   4.544
 7379SOL     OW23035   3.477   1.281   2.107
 7379SOL    HW123036   3.456   1.320   2.017
 7379SOL    HW223037   3.540   1.341   2.156
 7380SOL     OW23038   0.282   4.375   4.228
 7380SOL    HW123039   0.363   4.328   4.193
 7380SOL    HW223040   0.263   4.344   4.321
 7381SOL     OW23041   4.143   3.250   0.629
 7381SOL    HW123042   4.103   3.341   0.639
 7381SOL    HW223043   4.070   3.183   0.611
 7382SOL     OW23044   6.968   1.324   4.889
 7382SOL    HW123045   6.987   1.227   4.875
 7382SOL    HW223046   0.019   1.378   4.860
 7383SOL     OW23047   2.992   5.856   1.277
 7383SOL    HW123048   2.998   5.756   1.277
 7383SOL    HW223049   2.921   5.884   1.213
 7384SOL     OW23050   6.668   6.923   2.660
 7384SOL    HW123051   6.582   6.919   2.609
 7384SOL    HW223052   6.738   6.873   2.609
 7385SOL     OW23053   2.865   5.371   2.769
 7385SOL    HW123054   2.871   5.455   2.714
 7385SOL    HW223055   2.953   5.324   2.767
 7386SOL     OW23056   6.898   2.692   6.664
 7386SOL    HW123057   6.815   2.698   6.719
 7386SOL    HW223058   6.957   2.770   6.685
 7387SOL     OW23059   6.823   5.054   5.115
 7387SOL    HW123060   6.835   5.139   5.064
 7387SOL    HW223061   6.760   5.069   5.191
 7388SOL     OW23062   1.233   5.046   2.173
 7388SOL    HW123063   1.161   5.095   2.123
 7388SOL    HW223064   1.234   4.950   2.144
 7389SOL     OW23065   6.630   3.684   6.476
 7389SOL    HW123066   6.589   3.679   6.567
 7389SOL    HW223067   6.633   3.779   6.445
 7390SOL     OW23068   2.519   1.820   2.230
 7390SOL    HW123069   2.601   1.783   2.185
 7390SOL    HW223070   2.438   1.776   2.193
 7391SOL     OW23071   4.058   3.191   3.180
 7391SOL    HW123072   4.066   3.131   3.100
 7391SOL    HW223073   4.144   3.240   3.193
 7392SOL     OW23074   3.640   6.105   6.674
 7392SOL    HW123075   3.576   6.089   6.749
 7392SOL    HW223076   3.703   6.028   6.666
 7393SOL     OW23077   6.055   4.661   3.035
 7393SOL    HW123078   6.099   4.673   2.946
 7393SOL    HW223079   6.077   4.739   3.094
 7394SOL     OW23080   1.460   2.802   5.853
 7394SOL    HW123081   1.410   2.731   5.902
 7394SOL    HW223082   1.436   2.892   5.890
 7395SOL     OW23083   1.711   3.537   1.325
 7395SOL    HW123084   1.626   3.563   1.370
 7395SOL    HW223085   1.700   3.546   1.226
 7396SOL     OW23086   2.003   6.437   1.354
 7396SOL    HW123087   1.903   6.442   1.349
 7396SOL    HW223088   2.030   6.342   1.368
 7397SOL     OW23089   5.124   5.222   4.487
 7397SOL    HW123090   5.209   5.192   4.444
 7397SOL    HW223091   5.048   5.207   4.424
 7398SOL     OW23092   0.918   5.378   3.187
 7398SOL    HW123093   0.951   5.381   3.093
 7398SOL    HW223094   0.992   5.349   3.247
 7399SOL     OW23095   0.080   2.907   4.379
 7399SOL    HW123096   0.034   2.911   4.467
 7399SOL    HW223097   0.175   2.937   4.389
 7400SOL     OW23098   3.947   2.754   6.150
 7400SOL    HW123099   3.915   2.839   6.193
 7400SOL    HW223100   3.989   2.775   6.062
 7401SOL     OW23101   1.344   3.612   3.141
 7401SOL    HW123102   1.302   3.563   3.216
 7401SOL    HW223103   1.285   3.687   3.113
 7402SOL     OW23104   3.402   4.294   6.276
 7402SOL    HW123105   3.365   4.247   6.357
 7402SOL    HW223106   3.355   4.381   6.265
 7403SOL     OW23107   1.595   3.781   2.467
 7403SOL    HW123108   1.514   3.723   2.465
 7403SOL    HW223109   1.661   3.749   2.399
 7404SOL     OW23110   2.903   4.836   1.855
 7404SOL    HW123111   2.867   4.813   1.765
 7404SOL    HW223112   2.867   4.773   1.923
 7405SOL     OW23113   3.495   5.035   4.222
 7405SOL    HW123114   3.480   4.978   4.142
 7405SOL    HW223115   3.414   5.032   4.281
 7406SOL     OW23116   0.814   1.596   4.754
 7406SOL    HW123117   0.894   1.629   4.702
 7406SOL    HW223118   0.813   1.638   4.844
 7407SOL     OW23119   1.445   6.900   5.484
 7407SOL    HW123120   1.537   6.896   5.524
 7407SOL    HW223121   1.427   6.816   5.433
 7408SOL     OW23122   3.824   3.983   5.844
 7408SOL    HW123123   3.798   4.062   5.788
 7408SOL    HW223124   3.789   3.995   5.937
 7409SOL     OW23125   5.390   3.808   0.442
 7409SOL    HW123126   5.478   3.766   0.463
 7409SOL    HW223127   5.324   3.786   0.514
 7410SOL     OW23128   0.342   1.093   0.717
 7410SOL    HW123129   0.380   1.096   0.625
 7410SOL    HW223130   0.242   1.094   0.713
 7411SOL     OW23131   1.999   0.749   6.740
 7411SOL    HW123132   2.070   0.679   6.752
 7411SOL    HW223133   1.913   0.716   6.782
 7412SOL     OW23134   4.205   6.849   0.812
 7412SOL    HW123135   4.244   6.882   0.726
 7412SOL    HW223136   4.109   6.876   0.818
 7413SOL     OW23137   4.290   5.042   3.639
 7413SOL    HW123138   4.385   5.024   3.614
 7413SOL    HW223139   4.240   4.956   3.648
 7414SOL     OW23140   2.193   1.340   3.164
 7414SOL    HW123141   2.138   1.323   3.082
 7414SOL    HW223142   2.288   1.312   3.146
 7415SOL     OW23143   1.987   4.471   5.126
 7415SOL    HW123144   1.972   4.570   5.129
 7415SOL    HW223145   2.055   4.445   5.194
 7416SOL     OW23146   2.458   0.498   2.098
 7416SOL    HW123147   2.532   0.453   2.147
 7416SOL    HW223148   2.487   0.518   2.004
 7417SOL     OW23149   1.975   2.024   1.921
 7417SOL    HW123150   1.967   2.072   2.009
 7417SOL    HW223151   2.056   2.057   1.873
 7418SOL     OW23152   1.672   4.907   6.356
 7418SOL    HW123153   1.638   4.827   6.406
 7418SOL    HW223154   1.713   4.972   6.420
 7419SOL     OW23155   6.677   4.304   3.988
 7419SOL    HW123156   6.768   4.263   3.997
 7419SOL    HW223157   6.663   4.333   3.893
 7420SOL     OW23158   0.072   6.560   0.925
 7420SOL    HW123159   0.111   6.480   0.878
 7420SOL    HW223160   7.014   6.585   0.882
 7421SOL     OW23161   4.346   3.486   1.137
 7421SOL    HW123162   4.283   3.562   1.150
 7421SOL    HW223163   4.368   3.477   1.040
 7422SOL     OW23164   6.850   4.348   1.969
 7422SOL    HW123165   6.760   4.305   1.968
 7422SOL    HW223166   6.914   4.291   1.916
 7423SOL     OW23167   6.403   2.746   5.819
 7423SOL    HW123168   6.487   2.725   5.869
 7423SOL    HW223169   6.364   2.662   5.783
 7424SOL     OW23170   6.872   1.700   5.689
 7424SOL    HW123171   6.959   1.689   5.639
 7424SOL    HW223172   6.852   1.798   5.698
 7425SOL     OW23173   5.114   6.784   0.442
 7425SOL    HW123174   5.201   6.749   0.407
 7425SOL    HW223175   5.100   6.877   0.409
 7426SOL     OW23176   3.355   1.821   5.511
 7426SOL    HW123177   3.312   1.790   5.426
 7426SOL    HW223178   3.447   1.853   5.492
 7427SOL     OW23179   5.109   0.790   4.314
 7427SOL    HW123180   5.166   0.822   4.239
 7427SOL    HW223181   5.070   0.869   4.362
 7428SOL     OW23182   4.336   0.435   5.419
 7428SOL    HW123183   4.356   0.479   5.507
 7428SOL    HW223184   4.413   0.375   5.395
 7429SOL     OW23185   0.961   6.422   3.430
 7429SOL    HW123186   0.874   6.453   3.469
 7429SOL    HW223187   0.944   6.370   3.347
 7430SOL     OW23188   0.005   3.490   1.026
 7430SOL    HW123189   7.021   3.566   1.089
 7430SOL    HW223190   6.951   3.478   0.971
 7431SOL     OW23191   0.630   2.389   3.091
 7431SOL    HW123192   0.623   2.430   3.000
 7431SOL    HW223193   0.555   2.324   3.104
 7432SOL     OW23194   1.944   0.503   3.308
 7432SOL    HW123195   1.944   0.578   3.374
 7432SOL    HW223196   1.850   0.473   3.292
 7433SOL     OW23197   4.265   6.371   6.432
 7433SOL    HW123198   4.336   6.352   6.500
 7433SOL    HW223199   4.182   6.321   6.455
 7434SOL     OW23200   5.473   5.438   5.332
 7434SOL    HW123201   5.565   5.466   5.304
 7434SOL    HW223202   5.419   5.416   5.250
 7435SOL     OW23203   4.597   6.681   1.276
 7435SOL    HW123204   4.569   6.588   1.252
 7435SOL    HW223205   4.522   6.727   1.323
 7436SOL     OW23206   4.614   4.246   5.938
 7436SOL    HW123207   4.693   4.283   5.988
 7436SOL    HW223208   4.636   4.154   5.905
 7437SOL     OW23209   3.328   5.217   0.702
 7437SOL    HW123210   3.335   5.185   0.608
 7437SOL    HW223211   3.377   5.154   0.763
 7438SOL     OW23212   1.201   0.165   6.875
 7438SOL    HW123213   1.169   0.115   6.795
 7438SOL    HW223214   1.141   0.146   6.953
 7439SOL     OW23215   1.599   6.353   5.506
 7439SOL    HW123216   1.609   6.368   5.408
 7439SOL    HW223217   1.607   6.255   5.526
 7440SOL     OW23218   6.671   3.001   4.097
 7440SOL    HW123219   6.697   2.972   4.005
 7440SOL    HW223220   6.641   3.096   4.095
 7441SOL     OW23221   5.808   0.187   4.453
 7441SOL    HW123222   5.799   0.122   4.378
 7441SOL    HW223223   5.799   0.139   4.540
 7442SOL     OW23224   5.845   1.404   0.607
 7442SOL    HW123225   5.782   1.378   0.534
 7442SOL    HW223226   5.926   1.448   0.567
 7443SOL     OW23227   6.240   5.376   2.154
 7443SOL    HW123228   6.255   5.314   2.077
 7443SOL    HW223229   6.247   5.471   2.123
 7444SOL     OW23230   5.775   1.105   6.160
 7444SOL    HW123231   5.714   1.181   6.181
 7444SOL    HW223232   5.860   1.116   6.212
 7445SOL     OW23233   3.228   0.640   1.702
 7445SOL    HW123234   3.265   0.577   1.634
 7445SOL    HW223235   3.170   0.590   1.767
 7446SOL     OW23236   5.096   2.237   0.461
 7446SOL    HW123237   5.195   2.234   0.474
 7446SOL    HW223238   5.065   2.152   0.417
 7447SOL     OW23239   6.403   4.950   6.425
 7447SOL    HW123240   6.425   5.046   6.441
 7447SOL    HW223241   6.401   4.932   6.327
 7448SOL     OW23242   5.638   6.754   4.441
 7448SOL    HW123243   5.610   6.736   4.347
 7448SOL    HW223244   5.705   6.685   4.470
 7449SOL     OW23245   1.089   5.790   0.593
 7449SOL    HW123246   1.123   5.759   0.504
 7449SOL    HW223247   1.084   5.713   0.655
 7450SOL     OW23248   5.354   2.545   4.970
 7450SOL    HW123249   5.373   2.616   4.902
 7450SOL    HW223250   5.439   2.519   5.015
 7451SOL     OW23251   6.113   5.684   2.254
 7451SOL    HW123252   6.162   5.669   2.168
 7451SOL    HW223253   6.160   5.755   2.307
 7452SOL     OW23254   5.922   5.789   4.660
 7452SOL    HW123255   5.962   5.877   4.636
 7452SOL    HW223256   5.878   5.749   4.580
 7453SOL     OW23257   4.278   5.206   5.017
 7453SOL    HW123258   4.226   5.132   4.975
 7453SOL    HW223259   4.256   5.212   5.114
 7454SOL     OW23260   2.614   1.655   0.835
 7454SOL    HW123261   2.632   1.749   0.804
 7454SOL    HW223262   2.676   1.632   0.909
 7455SOL     OW23263   6.606   3.425   2.132
 7455SOL    HW123264   6.533   3.383   2.078
 7455SOL    HW223265   6.599   3.525   2.126
 7456SOL     OW23266   2.333   1.286   4.763
 7456SOL    HW123267   2.258   1.348   4.739
 7456SOL    HW223268   2.328   1.204   4.706
 7457SOL     OW23269   2.984   0.290   4.631
 7457SOL    HW123270   3.022   0.369   4.679
 7457SOL    HW223271   2.978   0.310   4.533
 7458SOL     OW23272   1.351   0.210   6.020
 7458SOL    HW123273   1.420   0.277   5.990
 7458SOL    HW223274   1.297   0.181   5.942
 7459SOL     OW23275   6.311   1.531   2.810
 7459SOL    HW123276   6.244   1.541   2.736
 7459SOL    HW223277   6.353   1.620   2.829
 7460SOL     OW23278   1.382   5.596   0.086
 7460SOL    HW123279   1.418   5.686   0.058
 7460SOL    HW223280   1.429   5.567   0.170
 7461SOL     OW23281   5.864   6.113   6.041
 7461SOL    HW123282   5.886   6.025   5.998
 7461SOL    HW223283   5.859   6.184   5.970
 7462SOL     OW23284   1.774   4.451   1.680
 7462SOL    HW123285   1.738   4.512   1.751
 7462SOL    HW223286   1.865   4.419   1.707
 7463SOL     OW23287   3.122   4.253   0.270
 7463SOL    HW123288   3.148   4.249   0.173
 7463SOL    HW223289   3.027   4.223   0.279
 7464SOL     OW23290   6.081   6.807   5.552
 7464SOL    HW123291   6.128   6.722   5.577
 7464SOL    HW223292   6.090   6.873   5.626
 7465SOL     OW23293   2.363   4.715   6.564
 7465SOL    HW123294   2.298   4.758   6.501
 7465SOL    HW223295   2.433   4.782   6.590
 7466SOL     OW23296   0.359   0.861   5.916
 7466SOL    HW123297   0.390   0.802   5.841
 7466SOL    HW223298   0.367   0.957   5.889
 7467SOL     OW23299   0.411   2.532   5.664
 7467SOL    HW123300   0.338   2.464   5.673
 7467SOL    HW223301   0.376   2.622   5.691
 7468SOL     OW23302   5.102   3.275   4.286
 7468SOL    HW123303   5.011   3.285   4.246
 7468SOL    HW223304   5.093   3.253   4.383
 7469SOL     OW23305   6.529   1.378   0.250
 7469SOL    HW123306   6.586   1.386   0.332
 7469SOL    HW223307   6.440   1.342   0.274
 7470SOL     OW23308   5.308   4.174   3.627
 7470SOL    HW123309   5.306   4.235   3.548
 7470SOL    HW223310   5.374   4.100   3.610
 7471SOL     OW23311   5.443   6.207   6.354
 7471SOL    HW123312   5.407   6.300   6.358
 7471SOL    HW223313   5.471   6.186   6.260
 7472SOL     OW23314   6.621   1.357   5.347
 7472SOL    HW123315   6.651   1.263   5.331
 7472SOL    HW223316   6.558   1.359   5.424
 7473SOL     OW23317   5.072   5.710   4.121
 7473SOL    HW123318   4.977   5.680   4.109
 7473SOL    HW223319   5.073   5.806   4.150
 7474SOL     OW23320   6.467   1.639   6.728
 7474SOL    HW123321   6.416   1.628   6.643
 7474SOL    HW223322   6.534   1.712   6.717
 7475SOL     OW23323   4.736   2.424   2.106
 7475SOL    HW123324   4.688   2.407   2.020
 7475SOL    HW223325   4.670   2.434   2.180
 7476SOL     OW23326   2.299   1.572   3.332
 7476SOL    HW123327   2.230   1.500   3.322
 7476SOL    HW223328   2.353   1.577   3.248
 7477SOL     OW23329   0.039   2.968   5.194
 7477SOL    HW123330   0.106   2.899   5.222
 7477SOL    HW223331   0.002   2.944   5.105
 7478SOL     OW23332   5.954   3.497   5.333
 7478SOL    HW123333   5.869   3.517   5.285
 7478SOL    HW223334   5.955   3.401   5.361
 7479SOL     OW23335   5.152   2.666   1.958
 7479SOL    HW123336   5.143   2.591   2.024
 7479SOL    HW223337   5.064   2.713   1.949
 7480SOL     OW23338   1.519   4.533   2.113
 7480SOL    HW123339   1.570   4.598   2.169
 7480SOL    HW223340   1.568   4.446   2.111
 7481SOL     OW23341   6.400   4.972   0.157
 7481SOL    HW123342   6.340   4.970   0.077
 7481SOL    HW223343   6.346   4.957   0.239
 7482SOL     OW23344   4.566   2.515   2.305
 7482SOL    HW123345   4.530   2.601   2.268
 7482SOL    HW223346   4.506   2.483   2.379
 7483SOL     OW23347   4.845   3.120   4.639
 7483SOL    HW123348   4.896   3.201   4.667
 7483SOL    HW223349   4.770   3.103   4.704
 7484SOL     OW23350   1.946   5.154   4.400
 7484SOL    HW123351   1.989   5.093   4.467
 7484SOL    HW223352   1.849   5.167   4.423
 7485SOL     OW23353   2.531   0.440   4.741
 7485SOL    HW123354   2.545   0.427   4.839
 7485SOL    HW223355   2.588   0.376   4.690
 7486SOL     OW23356   0.987   6.062   0.200
 7486SOL    HW123357   0.996   6.112   0.286
 7486SOL    HW223358   0.948   6.122   0.130
 7487SOL     OW23359   3.006   0.518   3.497
 7487SOL    HW123360   2.963   0.608   3.509
 7487SOL    HW223361   3.100   0.530   3.465
 7488SOL     OW23362   2.345   5.872   4.450
 7488SOL    HW123363   2.285   5.831   4.380
 7488SOL    HW223364   2.436   5.887   4.411
 7489SOL     OW23365   6.112   3.219   6.793
 7489SOL    HW123366   6.040   3.214   6.862
 7489SOL    HW223367   6.195   3.176   6.828
 7490SOL     OW23368   1.517   0.573   3.253
 7490SOL    HW123369   1.461   0.622   3.187
 7490SOL    HW223370   1.507   0.614   3.344
 7491SOL     OW23371   4.562   2.805   6.846
 7491SOL    HW123372   4.498   2.824   6.771
 7491SOL    HW223373   4.649   2.773   6.807
 7492SOL     OW23374   2.016   0.746   4.324
 7492SOL    HW123375   1.974   0.837   4.333
 7492SOL    HW223376   2.107   0.747   4.367
 7493SOL     OW23377   6.398   3.136   5.763
 7493SOL    HW123378   6.436   3.066   5.702
 7493SOL    HW223379   6.454   3.142   5.845
 7494SOL     OW23380   6.036   1.627   3.842
 7494SOL    HW123381   6.092   1.546   3.826
 7494SOL    HW223382   5.973   1.639   3.766
 7495SOL     OW23383   1.260   2.874   5.634
 7495SOL    HW123384   1.347   2.837   5.602
 7495SOL    HW223385   1.198   2.799   5.656
 7496SOL     OW23386   5.589   3.591   4.188
 7496SOL    HW123387   5.516   3.650   4.222
 7496SOL    HW223388   5.676   3.617   4.230
 7497SOL     OW23389   1.778   5.168   0.998
 7497SOL    HW123390   1.729   5.206   1.076
 7497SOL    HW223391   1.876   5.181   1.010
 7498SOL     OW23392   3.241   0.903   4.266
 7498SOL    HW123393   3.291   0.866   4.344
 7498SOL    HW223394   3.213   0.997   4.285
 7499SOL     OW23395   4.435   2.222   3.545
 7499SOL    HW123396   4.500   2.196   3.616
 7499SOL    HW223397   4.470   2.301   3.495
 7500SOL     OW23398   3.330   5.928   2.807
 7500SOL    HW123399   3.302   5.989   2.733
 7500SOL    HW223400   3.261   5.857   2.820
 7501SOL     OW23401   5.242   4.489   3.852
 7501SOL    HW123402   5.289   4.556   3.795
 7501SOL    HW223403   5.212   4.533   3.937
 7502SOL     OW23404   3.096   6.788   4.105
 7502SOL    HW123405   3.052   6.873   4.135
 7502SOL    HW223406   3.038   6.710   4.130
 7503SOL     OW23407   2.564   6.179   1.309
 7503SOL    HW123408   2.638   6.158   1.373
 7503SOL    HW223409   2.599   6.172   1.215
 7504SOL     OW23410   0.186   6.218   2.750
 7504SOL    HW123411   0.227   6.128   2.759
 7504SOL    HW223412   0.086   6.211   2.755
 7505SOL     OW23413   1.706   2.138   6.382
 7505SOL    HW123414   1.725   2.109   6.476
 7505SOL    HW223415   1.680   2.235   6.383
 7506SOL     OW23416   4.505   2.461   3.433
 7506SOL    HW123417   4.527   2.553   3.465
 7506SOL    HW223418   4.497   2.461   3.333
 7507SOL     OW23419   5.924   2.664   3.241
 7507SOL    HW123420   5.912   2.746   3.297
 7507SOL    HW223421   5.882   2.586   3.288
 7508SOL     OW23422   2.217   4.933   0.085
 7508SOL    HW123423   2.268   4.862   0.036
 7508SOL    HW223424   2.264   4.954   0.171
 7509SOL     OW23425   5.802   3.478   0.616
 7509SOL    HW123426   5.873   3.510   0.553
 7509SOL    HW223427   5.717   3.464   0.565
 7510SOL     OW23428   3.945   3.951   4.543
 7510SOL    HW123429   3.941   4.030   4.482
 7510SOL    HW223430   3.858   3.901   4.540
 7511SOL     OW23431   2.881   6.137   3.171
 7511SOL    HW123432   2.815   6.103   3.238
 7511SOL    HW223433   2.849   6.118   3.079
 7512SOL     OW23434   2.561   1.087   7.000
 7512SOL    HW123435   2.491   1.021   0.000
 7512SOL    HW223436   2.534   1.129   6.913
 7513SOL     OW23437   1.746   2.089   2.585
 7513SOL    HW123438   1.762   2.040   2.499
 7513SOL    HW223439   1.795   2.044   2.659
 7514SOL     OW23440   2.280   5.442   2.979
 7514SOL    HW123441   2.306   5.383   2.903
 7514SOL    HW223442   2.182   5.461   2.975
 7515SOL     OW23443   0.164   4.626   4.923
 7515SOL    HW123444   0.167   4.570   4.840
 7515SOL    HW223445   0.125   4.574   4.998
 7516SOL     OW23446   0.320   5.270   6.290
 7516SOL    HW123447   0.296   5.207   6.364
 7516SOL    HW223448   0.413   5.250   6.258
 7517SOL     OW23449   0.915   2.189   0.202
 7517SOL    HW123450   1.005   2.230   0.215
 7517SOL    HW223451   0.883   2.149   0.288
 7518SOL     OW23452   5.317   3.610   3.586
 7518SOL    HW123453   5.339   3.534   3.525
 7518SOL    HW223454   5.367   3.598   3.672
 7519SOL     OW23455   6.416   6.525   4.564
 7519SOL    HW123456   6.467   6.570   4.637
 7519SOL    HW223457   6.465   6.442   4.536
 7520SOL     OW23458   1.709   0.603   2.445
 7520SOL    HW123459   1.609   0.599   2.440
 7520SOL    HW223460   1.746   0.615   2.353
 7521SOL     OW23461   5.288   2.749   4.654
 7521SOL    HW123462   5.269   2.847   4.664
 7521SOL    HW223463   5.334   2.733   4.567
 7522SOL     OW23464   1.536   0.427   5.340
 7522SOL    HW123465   1.588   0.401   5.422
 7522SOL    HW223466   1.525   0.526   5.337
 7523SOL     OW23467   5.225   0.847   6.419
 7523SOL    HW123468   5.249   0.890   6.332
 7523SOL    HW223469   5.214   0.748   6.404
 7524SOL     OW23470   6.955   2.890   4.935
 7524SOL    HW123471   6.946   2.797   4.899
 7524SOL    HW223472   6.927   2.955   4.865
 7525SOL     OW23473   4.645   6.649   6.978
 7525SOL    HW123474   4.607   6.741   6.975
 7525SOL    HW223475   4.577   6.586   7.016
 7526SOL     OW23476   2.529   3.141   1.399
 7526SOL    HW123477   2.441   3.145   1.447
 7526SOL    HW223478   2.596   3.095   1.456
 7527SOL     OW23479   3.416   5.940   3.672
 7527SOL    HW123480   3.458   6.030   3.664
 7527SOL    HW223481   3.342   5.932   3.605
 7528SOL     OW23482   5.889   2.510   0.079
 7528SOL    HW123483   5.889   2.499   7.008
 7528SOL    HW223484   5.898   2.420   0.122
 7529SOL     OW23485   5.162   1.747   4.567
 7529SOL    HW123486   5.102   1.785   4.497
 7529SOL    HW223487   5.218   1.821   4.606
 7530SOL     OW23488   6.097   2.018   2.193
 7530SOL    HW123489   6.189   1.997   2.159
 7530SOL    HW223490   6.031   2.008   2.119
 7531SOL     OW23491   5.114   3.196   3.283
 7531SOL    HW123492   5.069   3.129   3.224
 7531SOL    HW223493   5.047   3.265   3.313
 7532SOL     OW23494   4.739   6.313   6.971
 7532SOL    HW123495   4.792   6.372   6.910
 7532SOL    HW223496   4.642   6.325   6.953
 7533SOL     OW23497   3.747   2.009   1.859
 7533SOL    HW123498   3.764   2.093   1.912
 7533SOL    HW223499   3.753   2.030   1.762
 7534SOL     OW23500   4.716   6.026   4.303
 7534SOL    HW123501   4.761   6.074   4.227
 7534SOL    HW223502   4.704   5.930   4.278
 7535SOL     OW23503   1.780   6.577   4.674
 7535SOL    HW123504   1.811   6.485   4.650
 7535SOL    HW223505   1.860   6.637   4.687
 7536SOL     OW23506   5.172   6.152   3.864
 7536SOL    HW123507   5.210   6.194   3.947
 7536SOL    HW223508   5.080   6.189   3.848
 7537SOL     OW23509   1.835   4.483   2.254
 7537SOL    HW123510   1.919   4.485   2.308
 7537SOL    HW223511   1.841   4.551   2.181
 7538SOL     OW23512   1.956   2.515   1.345
 7538SOL    HW123513   2.007   2.601   1.339
 7538SOL    HW223514   1.941   2.492   1.441
 7539SOL     OW23515   1.249   4.466   3.662
 7539SOL    HW123516   1.238   4.497   3.568
 7539SOL    HW223517   1.212   4.535   3.725
 7540SOL     OW23518   4.089   6.429   4.768
 7540SOL    HW123519   4.113   6.383   4.682
 7540SOL    HW223520   4.011   6.489   4.752
 7541SOL     OW23521   1.117   4.306   6.021
 7541SOL    HW123522   1.130   4.258   5.934
 7541SOL    HW223523   1.145   4.401   6.012
 7542SOL     OW23524   6.551   5.504   6.700
 7542SOL    HW123525   6.470   5.467   6.655
 7542SOL    HW223526   6.564   5.599   6.671
 7543SOL     OW23527   2.972   0.741   5.097
 7543SOL    HW123528   3.029   0.760   5.017
 7543SOL    HW223529   3.003   0.795   5.174
 7544SOL     OW23530   0.006   2.636   4.383
 7544SOL    HW123531   0.029   2.729   4.353
 7544SOL    HW223532   6.936   2.623   4.380
 7545SOL     OW23533   0.452   6.591   6.113
 7545SOL    HW123534   0.450   6.677   6.165
 7545SOL    HW223535   0.510   6.525   6.161
 7546SOL     OW23536   4.707   2.380   1.565
 7546SOL    HW123537   4.612   2.396   1.539
 7546SOL    HW223538   4.731   2.438   1.642
 7547SOL     OW23539   4.783   0.786   0.861
 7547SOL    HW123540   4.835   0.764   0.943
 7547SOL    HW223541   4.825   0.865   0.816
 7548SOL     OW23542   4.461   2.186   6.884
 7548SOL    HW123543   4.378   2.139   6.854
 7548SOL    HW223544   4.541   2.134   6.854
 7549SOL     OW23545   3.758   2.763   6.539
 7549SOL    HW123546   3.672   2.794   6.497
 7549SOL    HW223547   3.823   2.839   6.538
 7550SOL     OW23548   1.888   4.910   3.156
 7550SOL    HW123549   1.860   4.843   3.225
 7550SOL    HW223550   1.985   4.897   3.135
 7551SOL     OW23551   5.683   3.262   5.613
 7551SOL    HW123552   5.639   3.184   5.568
 7551SOL    HW223553   5.719   3.232   5.702
 7552SOL     OW23554   1.501   5.752   4.302
 7552SOL    HW123555   1.468   5.846   4.312
 7552SOL    HW223556   1.553   5.744   4.217
 7553SOL     OW23557   5.353   6.734   5.619
 7553SOL    HW123558   5.277   6.780   5.572
 7553SOL    HW223559   5.354   6.762   5.715
 7554SOL     OW23560   4.723   0.784   0.380
 7554SOL    HW123561   4.660   0.783   0.457
 7554SOL    HW223562   4.774   0.871   0.380
 7555SOL     OW23563   3.394   5.646   6.527
 7555SOL    HW123564   3.322   5.703   6.566
 7555SOL    HW223565   3.478   5.659   6.579
 7556SOL     OW23566   2.404   1.391   0.283
 7556SOL    HW123567   2.445   1.479   0.309
 7556SOL    HW223568   2.477   1.327   0.256
 7557SOL     OW23569   5.136   0.167   6.701
 7557SOL    HW123570   5.202   0.230   6.660
 7557SOL    HW223571   5.044   0.204   6.690
 7558SOL     OW23572   2.110   3.112   3.567
 7558SOL    HW123573   2.138   3.022   3.533
 7558SOL    HW223574   2.138   3.182   3.501
 7559SOL     OW23575   4.225   2.134   5.727
 7559SOL    HW123576   4.188   2.145   5.635
 7559SOL    HW223577   4.215   2.220   5.778
 7560SOL     OW23578   6.314   0.052   0.077
 7560SOL    HW123579   6.280   0.130   0.129
 7560SOL    HW223580   6.263   0.044   7.020
 7561SOL     OW23581   6.195   3.291   5.822
 7561SOL    HW123582   6.262   3.220   5.799
 7561SOL    HW223583   6.136   3.308   5.743
 7562SOL     OW23584   0.862   4.914   5.058
 7562SOL    HW123585   0.820   4.882   4.973
 7562SOL    HW223586   0.790   4.946   5.121
 7563SOL     OW23587   2.580   6.002   2.175
 7563SOL    HW123588   2.621   5.951   2.099
 7563SOL    HW223589   2.486   5.972   2.188
 7564SOL     OW23590   3.725   0.338   4.762
 7564SOL    HW123591   3.749   0.248   4.800
 7564SOL    HW223592   3.798   0.403   4.783
 7565SOL     OW23593   5.397   4.135   5.590
 7565SOL    HW123594   5.495   4.117   5.578
 7565SOL    HW223595   5.351   4.051   5.619
 7566SOL     OW23596   5.459   5.441   2.432
 7566SOL    HW123597   5.488   5.349   2.459
 7566SOL    HW223598   5.378   5.435   2.374
 7567SOL     OW23599   0.678   0.903   5.871
 7567SOL    HW123600   0.599   0.958   5.844
 7567SOL    HW223601   0.748   0.908   5.800
 7568SOL     OW23602   5.207   4.948   2.099
 7568SOL    HW123603   5.151   4.928   2.179
 7568SOL    HW223604   5.225   4.863   2.049
 7569SOL     OW23605   3.913   4.175   6.247
 7569SOL    HW123606   3.960   4.113   6.310
 7569SOL    HW223607   3.925   4.269   6.279
 7570SOL     OW23608   6.346   4.173   3.779
 7570SOL    HW123609   6.263   4.119   3.792
 7570SOL    HW223610   6.371   4.217   3.866
 7571SOL     OW23611   5.278   3.728   3.231
 7571SOL    HW123612   5.352   3.777   3.185
 7571SOL    HW223613   5.286   3.630   3.213
 7572SOL     OW23614   5.291   0.666   3.212
 7572SOL    HW123615   5.317   0.760   3.234
 7572SOL    HW223616   5.323   0.605   3.286
 7573SOL     OW23617   6.653   0.568   5.416
 7573SOL    HW123618   6.689   0.593   5.506
 7573SOL    HW223619   6.678   0.639   5.350
 7574SOL     OW23620   5.873   1.286   4.470
 7574SOL    HW123621   5.942   1.253   4.535
 7574SOL    HW223622   5.889   1.383   4.451
 7575SOL     OW23623   6.398   6.524   0.435
 7575SOL    HW123624   6.469   6.526   0.364
 7575SOL    HW223625   6.308   6.524   0.391
 7576SOL     OW23626   5.021   1.995   0.360
 7576SOL    HW123627   5.010   1.928   0.434
 7576SOL    HW223628   4.931   2.025   0.328
 7577SOL     OW23629   0.247   6.036   0.479
 7577SOL    HW123630   0.331   6.070   0.436
 7577SOL    HW223631   0.202   5.972   0.417
 7578SOL     OW23632   1.590   5.527   2.409
 7578SOL    HW123633   1.620   5.623   2.410
 7578SOL    HW223634   1.583   5.496   2.314
 7579SOL     OW23635   6.817   1.175   1.263
 7579SOL    HW123636   6.809   1.254   1.324
 7579SOL    HW223637   6.788   1.092   1.310
 7580SOL     OW23638   1.282   4.382   3.161
 7580SOL    HW123639   1.299   4.476   3.130
 7580SOL    HW223640   1.214   4.384   3.234
 7581SOL     OW23641   0.523   1.385   1.684
 7581SOL    HW123642   0.593   1.442   1.641
 7581SOL    HW223643   0.483   1.434   1.762
 7582SOL     OW23644   3.916   1.725   3.844
 7582SOL    HW123645   3.915   1.821   3.818
 7582SOL    HW223646   4.010   1.691   3.847
 7583SOL     OW23647   5.443   3.589   2.779
 7583SOL    HW123648   5.357   3.633   2.751
 7583SOL    HW223649   5.493   3.559   2.698
 7584SOL     OW23650   1.474   0.206   2.609
 7584SOL    HW123651   1.509   0.298   2.626
 7584SOL    HW223652   1.542   0.139   2.637
 7585SOL     OW23653   1.228   1.939   5.968
 7585SOL    HW123654   1.229   1.879   6.048
 7585SOL    HW223655   1.307   1.919   5.910
 7586SOL     OW23656   1.876   6.485   3.215
 7586SOL    HW123657   1.790   6.496   3.265
 7586SOL    HW223658   1.908   6.574   3.183
 7587SOL     OW23659   2.791   1.415   0.056
 7587SOL    HW123660   2.730   1.365   0.117
 7587SOL    HW223661   2.755   1.508   0.042
 7588SOL     OW23662   1.561   2.661   4.126
 7588SOL    HW123663   1.599   2.720   4.198
 7588SOL    HW223664   1.528   2.576   4.167
 7589SOL     OW23665   6.906   0.850   2.844
 7589SOL    HW123666   6.935   0.946   2.832
 7589SOL    HW223667   6.840   0.844   2.918
 7590SOL     OW23668   5.968   0.611   0.063
 7590SOL    HW123669   5.983   0.561   0.148
 7590SOL    HW223670   5.971   0.548   7.014
 7591SOL     OW23671   5.472   3.499   6.648
 7591SOL    HW123672   5.393   3.484   6.708
 7591SOL    HW223673   5.546   3.541   6.701
 7592SOL     OW23674   6.392   5.125   4.382
 7592SOL    HW123675   6.343   5.046   4.345
 7592SOL    HW223676   6.334   5.173   4.447
 7593SOL     OW23677   0.199   2.581   6.828
 7593SOL    HW123678   0.129   2.560   6.896
 7593SOL    HW223679   0.276   2.518   6.838
 7594SOL     OW23680   0.995   4.787   1.117
 7594SOL    HW123681   0.957   4.842   1.042
 7594SOL    HW223682   1.027   4.699   1.081
 7595SOL     OW23683   6.713   3.031   6.264
 7595SOL    HW123684   6.638   2.995   6.209
 7595SOL    HW223685   6.683   3.038   6.360
 7596SOL     OW23686   3.013   6.643   5.117
 7596SOL    HW123687   3.028   6.553   5.076
 7596SOL    HW223688   2.938   6.689   5.070
 7597SOL     OW23689   1.941   6.745   3.146
 7597SOL    HW123690   1.901   6.729   3.055
 7597SOL    HW223691   2.009   6.818   3.139
 7598SOL     OW23692   6.331   0.737   3.222
 7598SOL    HW123693   6.347   0.800   3.146
 7598SOL    HW223694   6.418   0.712   3.264
 7599SOL     OW23695   5.494   3.305   1.398
 7599SOL    HW123696   5.564   3.370   1.369
 7599SOL    HW223697   5.508   3.282   1.495
 7600SOL     OW23698   1.106   0.969   3.456
 7600SOL    HW123699   1.205   0.959   3.466
 7600SOL    HW223700   1.061   0.886   3.490
 7601SOL     OW23701   2.944   5.332   2.087
 7601SOL    HW123702   2.895   5.250   2.059
 7601SOL    HW223703   3.034   5.307   2.122
 7602SOL     OW23704   1.180   3.305   6.839
 7602SOL    HW123705   1.147   3.211   6.843
 7602SOL    HW223706   1.272   3.306   6.799
 7603SOL     OW23707   1.566   6.606   6.040
 7603SOL    HW123708   1.633   6.581   5.971
 7603SOL    HW223709   1.592   6.566   6.128
 7604SOL     OW23710   1.418   1.952   5.389
 7604SOL    HW123711   1.344   1.891   5.416
 7604SOL    HW223712   1.465   1.986   5.471
 7605SOL     OW23713   1.070   0.665   0.646
 7605SOL    HW123714   1.060   0.764   0.659
 7605SOL    HW223715   1.041   0.617   0.729
 7606SOL     OW23716   5.559   2.751   4.886
 7606SOL    HW123717   5.518   2.840   4.868
 7606SOL    HW223718   5.613   2.756   4.971
 7607SOL     OW23719   3.948   5.322   6.940
 7607SOL    HW123720   3.910   5.415   6.949
 7607SOL    HW223721   4.032   5.316   6.994
 7608SOL     OW23722   5.037   2.776   0.429
 7608SOL    HW123723   5.129   2.811   0.410
 7608SOL    HW223724   5.045   2.683   0.467
 7609SOL     OW23725   1.059   4.060   3.914
 7609SOL    HW123726   1.128   4.067   3.985
 7609SOL    HW223727   1.070   4.136   3.849
 7610SOL     OW23728   3.801   4.845   5.717
 7610SOL    HW123729   3.878   4.794   5.757
 7610SOL    HW223730   3.727   4.782   5.695
 7611SOL     OW23731   5.477   3.603   1.197
 7611SOL    HW123732   5.496   3.505   1.189
 7611SOL    HW223733   5.554   3.654   1.160
 7612SOL     OW23734   4.842   2.679   2.961
 7612SOL    HW123735   4.780   2.632   3.024
 7612SOL    HW223736   4.934   2.641   2.971
 7613SOL     OW23737   0.692   1.912   2.172
 7613SOL    HW123738   0.654   1.871   2.255
 7613SOL    HW223739   0.780   1.868   2.152
 7614SOL     OW23740   5.204   3.565   1.187
 7614SOL    HW123741   5.301   3.587   1.202
 7614SOL    HW223742   5.164   3.633   1.125
 7615SOL     OW23743   4.645   3.982   5.892
 7615SOL    HW123744   4.642   3.944   5.800
 7615SOL    HW223745   4.604   3.916   5.956
 7616SOL     OW23746   0.023   6.973   4.021
 7616SOL    HW123747   0.001   6.990   4.117
 7616SOL    HW223748   0.005   0.027   3.967
 7617SOL     OW23749   5.666   6.025   3.378
 7617SOL    HW123750   5.661   5.985   3.469
 7617SOL    HW223751   5.624   5.963   3.312
 7618SOL     OW23752   1.161   2.923   6.730
 7618SOL    HW123753   1.126   2.967   6.813
 7618SOL    HW223754   1.084   2.899   6.670
 7619SOL     OW23755   6.917   2.391   4.265
 7619SOL    HW123756   6.955   2.316   4.319
 7619SOL    HW223757   6.991   2.445   4.226
 7620SOL     OW23758   4.093   5.120   1.101
 7620SOL    HW123759   3.994   5.131   1.095
 7620SOL    HW223760   4.131   5.109   1.008
 7621SOL     OW23761   0.492   0.185   0.981
 7621SOL    HW123762   0.570   0.216   1.035
 7621SOL    HW223763   0.524   0.154   0.891
 7622SOL     OW23764   4.543   4.772   6.510
 7622SOL    HW123765   4.586   4.699   6.563
 7622SOL    HW223766   4.600   4.854   6.513
 7623SOL     OW23767   4.181   4.539   0.971
 7623SOL    HW123768   4.221   4.488   0.895
 7623SOL    HW223769   4.251   4.557   1.040
 7624SOL     OW23770   6.612   3.537   3.478
 7624SOL    HW123771   6.568   3.623   3.451
 7624SOL    HW223772   6.635   3.485   3.395
 7625SOL     OW23773   6.815   1.765   0.141
 7625SOL    HW123774   6.752   1.812   0.203
 7625SOL    HW223775   6.764   1.698   0.087
 7626SOL     OW23776   6.745   1.186   5.730
 7626SOL    HW123777   6.791   1.207   5.817
 7626SOL    HW223778   6.794   1.229   5.655
 7627SOL     OW23779   2.711   1.958   0.162
 7627SOL    HW123780   2.703   1.919   0.254
 7627SOL    HW223781   2.805   1.948   0.130
 7628SOL     OW23782   3.847   2.816   1.662
 7628SOL    HW123783   3.835   2.774   1.572
 7628SOL    HW223784   3.804   2.759   1.732
 7629SOL     OW23785   0.166   4.553   3.135
 7629SOL    HW123786   0.221   4.519   3.211
 7629SOL    HW223787   0.142   4.477   3.075
 7630SOL     OW23788   0.953   0.989   6.280
 7630SOL    HW123789   1.042   0.951   6.255
 7630SOL    HW223790   0.908   1.026   6.199
 7631SOL     OW23791   1.475   1.307   5.622
 7631SOL    HW123792   1.508   1.214   5.642
 7631SOL    HW223793   1.553   1.366   5.603
 7632SOL     OW23794   4.460   5.185   1.051
 7632SOL    HW123795   4.474   5.284   1.047
 7632SOL    HW223796   4.410   5.161   1.134
 7633SOL     OW23797   5.100   0.562   1.981
 7633SOL    HW123798   5.072   0.574   2.076
 7633SOL    HW223799   5.196   0.534   1.977
 7634SOL     OW23800   1.922   1.191   1.488
 7634SOL    HW123801   1.853   1.195   1.415
 7634SOL    HW223802   1.898   1.120   1.553
 7635SOL     OW23803   3.291   5.141   4.388
 7635SOL    HW123804   3.219   5.080   4.422
 7635SOL    HW223805   3.299   5.219   4.450
 7636SOL     OW23806   1.399   4.107   4.569
 7636SOL    HW123807   1.480   4.050   4.562
 7636SOL    HW223808   1.379   4.148   4.480
 7637SOL     OW23809   1.611   6.268   2.849
 7637SOL    HW123810   1.597   6.332   2.773
 7637SOL    HW223811   1.525   6.220   2.869
 7638SOL     OW23812   1.117   5.467   2.195
 7638SOL    HW123813   1.164   5.414   2.124
 7638SOL    HW223814   1.174   5.546   2.219
 7639SOL     OW23815   0.487   1.106   0.469
 7639SOL    HW123816   0.458   1.104   0.373
 7639SOL    HW223817   0.576   1.150   0.476
 7640SOL     OW23818   3.127   2.686   6.992
 7640SOL    HW123819   3.061   2.721   0.029
 7640SOL    HW223820   3.170   2.603   7.028
 7641SOL     OW23821   6.906   4.052   2.616
 7641SOL    HW123822   6.982   4.027   2.676
 7641SOL    HW223823   6.854   4.126   2.657
 7642SOL     OW23824   6.063   1.090   2.763
 7642SOL    HW123825   6.127   1.075   2.688
 7642SOL    HW223826   5.994   1.016   2.763
 7643SOL     OW23827   5.241   1.419   2.894
 7643SOL    HW123828   5.309   1.363   2.847
 7643SOL    HW223829   5.152   1.373   2.892
 7644SOL     OW23830   4.935   3.060   2.383
 7644SOL    HW123831   5.003   2.994   2.415
 7644SOL    HW223832   4.950   3.078   2.285
 7645SOL     OW23833   4.349   3.503   5.792
 7645SOL    HW123834   4.405   3.454   5.725
 7645SOL    HW223835   4.285   3.563   5.744
 7646SOL     OW23836   0.678   2.840   4.211
 7646SOL    HW123837   0.715   2.850   4.119
 7646SOL    HW223838   0.579   2.835   4.208
 7647SOL     OW23839   0.612   2.864   4.478
 7647SOL    HW123840   0.659   2.833   4.396
 7647SOL    HW223841   0.609   2.790   4.545
 7648SOL     OW23842   2.237   1.459   2.216
 7648SOL    HW123843   2.188   1.505   2.290
 7648SOL    HW223844   2.189   1.475   2.130
 7649SOL     OW23845   1.442   1.407   4.338
 7649SOL    HW123846   1.437   1.310   4.314
 7649SOL    HW223847   1.497   1.456   4.270
 7650SOL     OW23848   6.097   0.276   1.449
 7650SOL    HW123849   6.154   0.194   1.445
 7650SOL    HW223850   6.118   0.327   1.532
 7651SOL     OW23851   2.603   6.057   4.426
 7651SOL    HW123852   2.666   6.122   4.467
 7651SOL    HW223853   2.654   5.986   4.377
 7652SOL     OW23854   5.542   2.933   5.358
 7652SOL    HW123855   5.617   2.950   5.421
 7652SOL    HW223856   5.481   3.012   5.356
 7653SOL     OW23857   1.285   1.339   0.072
 7653SOL    HW123858   1.350   1.351   0.148
 7653SOL    HW223859   1.232   1.256   0.086
 7654SOL     OW23860   5.390   3.666   4.609
 7654SOL    HW123861   5.358   3.629   4.696
 7654SOL    HW223862   5.457   3.604   4.568
 7655SOL     OW23863   3.889   0.732   3.583
 7655SOL    HW123864   3.799   0.737   3.627
 7655SOL    HW223865   3.890   0.658   3.516
 7656SOL     OW23866   5.073   2.608   6.420
 7656SOL    HW123867   5.054   2.575   6.512
 7656SOL    HW223868   5.172   2.615   6.407
 7657SOL     OW23869   1.908   2.597   3.950
 7657SOL    HW123870   1.967   2.544   3.889
 7657SOL    HW223871   1.965   2.648   4.015
 7658SOL     OW23872   3.092   0.455   0.770
 7658SOL    HW123873   3.063   0.545   0.803
 7658SOL    HW223874   3.032   0.427   0.694
 7659SOL     OW23875   4.786   4.256   7.016
 7659SOL    HW123876   4.768   4.257   6.918
 7659SOL    HW223877   4.881   4.279   0.005
 7660SOL     OW23878   6.187   5.472   4.200
 7660SOL    HW123879   6.167   5.467   4.298
 7660SOL    HW223880   6.136   5.549   4.160
 7661SOL     OW23881   4.877   1.784   5.570
 7661SOL    HW123882   4.937   1.722   5.620
 7661SOL    HW223883   4.899   1.879   5.594
 7662SOL     OW23884   0.705   2.802   3.423
 7662SOL    HW123885   0.701   2.878   3.358
 7662SOL    HW223886   0.682   2.835   3.514
 7663SOL     OW23887   5.066   5.587   6.446
 7663SOL    HW123888   5.041   5.672   6.493
 7663SOL    HW223889   4.984   5.530   6.438
 7664SOL     OW23890   3.429   1.602   2.880
 7664SOL    HW123891   3.528   1.614   2.891
 7664SOL    HW223892   3.402   1.632   2.789
 7665SOL     OW23893   5.437   1.643   4.134
 7665SOL    HW123894   5.401   1.636   4.228
 7665SOL    HW223895   5.481   1.731   4.122
 7666SOL     OW23896   0.101   4.760   4.114
 7666SOL    HW123897   0.050   4.846   4.116
 7666SOL    HW223898   0.193   4.776   4.080
 7667SOL     OW23899   4.093   0.411   2.856
 7667SOL    HW123900   4.140   0.444   2.938
 7667SOL    HW223901   3.997   0.393   2.878
 7668SOL     OW23902   2.619   4.715   0.247
 7668SOL    HW123903   2.714   4.722   0.218
 7668SOL    HW223904   2.571   4.650   0.187
 7669SOL     OW23905   4.426   0.893   5.301
 7669SOL    HW123906   4.472   0.824   5.357
 7669SOL    HW223907   4.404   0.972   5.358
 7670SOL     OW23908   0.974   5.975   0.876
 7670SOL    HW123909   1.030   6.001   0.798
 7670SOL    HW223910   0.922   5.893   0.853
 7671SOL     OW23911   4.408   0.133   2.518
 7671SOL    HW123912   4.401   0.055   2.456
 7671SOL    HW223913   4.485   0.191   2.490
 7672SOL     OW23914   6.680   4.762   3.443
 7672SOL    HW123915   6.674   4.849   3.395
 7672SOL    HW223916   6.690   4.778   3.541
 7673SOL     OW23917   1.803   5.697   2.404
 7673SOL    HW123918   1.896   5.707   2.368
 7673SOL    HW223919   1.805   5.639   2.486
 7674SOL     OW23920   4.502   0.113   4.171
 7674SOL    HW123921   4.492   0.021   4.209
 7674SOL    HW223922   4.471   0.180   4.238
 7675SOL     OW23923   4.530   6.303   3.498
 7675SOL    HW123924   4.432   6.297   3.480
 7675SOL    HW223925   4.556   6.399   3.504
 7676SOL     OW23926   2.884   2.015   6.064
 7676SOL    HW123927   2.964   1.959   6.047
 7676SOL    HW223928   2.871   2.080   5.989
 7677SOL     OW23929   0.252   4.598   0.580
 7677SOL    HW123930   0.166   4.644   0.600
 7677SOL    HW223931   0.234   4.501   0.560
 7678SOL     OW23932   1.573   2.905   5.297
 7678SOL    HW123933   1.572   2.842   5.219
 7678SOL    HW223934   1.636   2.980   5.279
 7679SOL     OW23935   1.903   5.437   5.535
 7679SOL    HW123936   1.916   5.385   5.620
 7679SOL    HW223937   1.880   5.373   5.461
 7680SOL     OW23938   1.371   0.459   6.370
 7680SOL    HW123939   1.458   0.410   6.372
 7680SOL    HW223940   1.339   0.465   6.276
 7681SOL     OW23941   2.793   1.056   0.494
 7681SOL    HW123942   2.838   1.138   0.461
 7681SOL    HW223943   2.702   1.079   0.529
 7682SOL     OW23944   4.660   1.198   2.145
 7682SOL    HW123945   4.646   1.167   2.239
 7682SOL    HW223946   4.631   1.293   2.136
 7683SOL     OW23947   0.472   1.436   4.747
 7683SOL    HW123948   0.515   1.488   4.674
 7683SOL    HW223949   0.541   1.407   4.813
 7684SOL     OW23950   3.792   2.461   1.573
 7684SOL    HW123951   3.755   2.530   1.635
 7684SOL    HW223952   3.799   2.373   1.620
 7685SOL     OW23953   3.433   1.376   6.793
 7685SOL    HW123954   3.369   1.340   6.861
 7685SOL    HW223955   3.409   1.471   6.771
 7686SOL     OW23956   5.667   6.972   4.028
 7686SOL    HW123957   5.645   0.005   3.953
 7686SOL    HW223958   5.744   6.914   4.002
 7687SOL     OW23959   4.642   4.981   4.791
 7687SOL    HW123960   4.721   5.031   4.826
 7687SOL    HW223961   4.633   4.894   4.840
 7688SOL     OW23962   6.861   6.285   5.950
 7688SOL    HW123963   6.917   6.246   5.877
 7688SOL    HW223964   6.766   6.257   5.938
 7689SOL     OW23965   5.080   0.262   2.748
 7689SOL    HW123966   5.091   0.164   2.729
 7689SOL    HW223967   5.169   0.301   2.772
 7690SOL     OW23968   5.589   5.239   0.608
 7690SOL    HW123969   5.606   5.237   0.706
 7690SOL    HW223970   5.676   5.235   0.559
 7691SOL     OW23971   4.741   4.632   1.860
 7691SOL    HW123972   4.766   4.693   1.786
 7691SOL    HW223973   4.666   4.573   1.831
 7692SOL     OW23974   0.807   6.092   1.718
 7692SOL    HW123975   0.906   6.089   1.701
 7692SOL    HW223976   0.784   6.179   1.762
 7693SOL     OW23977   2.969   0.196   1.616
 7693SOL    HW123978   2.928   0.280   1.580
 7693SOL    HW223979   3.068   0.207   1.623
 7694SOL     OW23980   5.604   2.862   4.475
 7694SOL    HW123981   5.664   2.860   4.395
 7694SOL    HW223982   5.653   2.828   4.555
 7695SOL     OW23983   5.817   0.659   1.621
 7695SOL    HW123984   5.896   0.720   1.609
 7695SOL    HW223985   5.828   0.579   1.562
 7696SOL     OW23986   6.809   1.403   6.097
 7696SOL    HW123987   6.793   1.305   6.095
 7696SOL    HW223988   6.784   1.439   6.187
 7697SOL     OW23989   2.862   1.132   2.686
 7697SOL    HW123990   2.868   1.222   2.641
 7697SOL    HW223991   2.954   1.093   2.694
 7698SOL     OW23992   6.758   1.675   5.108
 7698SOL    HW123993   6.829   1.618   5.150
 7698SOL    HW223994   6.668   1.639   5.129
 7699SOL     OW23995   2.489   5.181   6.882
 7699SOL    HW123996   2.451   5.274   6.880
 7699SOL    HW223997   2.483   5.145   6.975
 7700SOL     OW23998   4.147   6.007   3.412
 7700SOL    HW123999   4.148   5.990   3.511
 7700SOL    HW224000   4.079   5.947   3.369
 7701SOL     OW24001   0.434   2.276   6.617
 7701SOL    HW124002   0.454   2.374   6.618
 7701SOL    HW224003   0.517   2.225   6.639
 7702SOL     OW24004   4.294   6.355   5.247
 7702SOL    HW124005   4.324   6.450   5.243
 7702SOL    HW224006   4.195   6.350   5.229
 7703SOL     OW24007   6.442   6.903   5.401
 7703SOL    HW124008   6.471   6.927   5.494
 7703SOL    HW224009   6.509   6.841   5.361
 7704SOL     OW24010   6.397   2.139   3.625
 7704SOL    HW124011   6.355   2.222   3.661
 7704SOL    HW224012   6.443   2.090   3.699
 7705SOL     OW24013   2.323   4.864   1.216
 7705SOL    HW124014   2.399   4.892   1.157
 7705SOL    HW224015   2.240   4.912   1.188
 7706SOL     OW24016   3.603   3.165   3.472
 7706SOL    HW124017   3.658   3.190   3.552
 7706SOL    HW224018   3.663   3.133   3.399
 7707SOL     OW24019   0.337   4.802   6.565
 7707SOL    HW124020   0.264   4.821   6.500
 7707SOL    HW224021   0.361   4.705   6.562
 7708SOL     OW24022   1.471   6.593   4.341
 7708SOL    HW124023   1.518   6.640   4.266
 7708SOL    HW224024   1.443   6.502   4.310
 7709SOL     OW24025   6.461   5.203   1.596
 7709SOL    HW124026   6.389   5.140   1.625
 7709SOL    HW224027   6.426   5.265   1.526
 7710SOL     OW24028   2.054   2.602   0.635
 7710SOL    HW124029   2.108   2.667   0.583
 7710SOL    HW224030   1.958   2.630   0.634
 7711SOL     OW24031   5.869   5.567   5.769
 7711SOL    HW124032   5.859   5.475   5.807
 7711SOL    HW224033   5.817   5.632   5.824
 7712SOL     OW24034   6.113   4.703   0.077
 7712SOL    HW124035   6.166   4.654   0.145
 7712SOL    HW224036   6.024   4.729   0.115
 7713SOL     OW24037   1.953   3.777   0.944
 7713SOL    HW124038   1.973   3.681   0.924
 7713SOL    HW224039   1.889   3.782   1.021
 7714SOL     OW24040   0.231   6.611   5.249
 7714SOL    HW124041   0.244   6.536   5.184
 7714SOL    HW224042   0.221   6.697   5.199
 7715SOL     OW24043   2.646   2.218   6.496
 7715SOL    HW124044   2.686   2.131   6.523
 7715SOL    HW224045   2.605   2.261   6.577
 7716SOL     OW24046   6.914   5.224   0.057
 7716SOL    HW124047   6.836   5.173   0.021
 7716SOL    HW224048   6.996   5.167   0.052
 7717SOL     OW24049   1.641   1.694   5.317
 7717SOL    HW124050   1.675   1.748   5.240
 7717SOL    HW224051   1.595   1.755   5.382
 7718SOL     OW24052   6.665   4.480   2.736
 7718SOL    HW124053   6.608   4.443   2.662
 7718SOL    HW224054   6.711   4.562   2.704
 7719SOL     OW24055   1.008   4.183   4.888
 7719SOL    HW124056   0.925   4.206   4.838
 7719SOL    HW224057   1.063   4.120   4.833
 7720SOL     OW24058   6.122   1.697   5.711
 7720SOL    HW124059   6.031   1.701   5.669
 7720SOL    HW224060   6.190   1.675   5.641
 7721SOL     OW24061   0.661   0.283   2.633
 7721SOL    HW124062   0.688   0.202   2.581
 7721SOL    HW224063   0.562   0.287   2.640
 7722SOL     OW24064   1.935   5.244   3.962
 7722SOL    HW124065   2.002   5.170   3.950
 7722SOL    HW224066   1.946   5.311   3.888
 7723SOL     OW24067   5.003   3.699   6.577
 7723SOL    HW124068   4.941   3.769   6.613
 7723SOL    HW224069   5.067   3.741   6.513
 7724SOL     OW24070   3.493   4.395   0.369
 7724SOL    HW124071   3.462   4.458   0.297
 7724SOL    HW224072   3.496   4.443   0.457
 7725SOL     OW24073   5.864   2.722   2.757
 7725SOL    HW124074   5.812   2.796   2.799
 7725SOL    HW224075   5.908   2.667   2.828
 7726SOL     OW24076   0.838   2.924   6.092
 7726SOL    HW124077   0.935   2.929   6.119
 7726SOL    HW224078   0.824   2.843   6.034
 7727SOL     OW24079   5.803   2.735   1.429
 7727SOL    HW124080   5.796   2.831   1.455
 7727SOL    HW224081   5.841   2.682   1.505
 7728SOL     OW24082   2.271   2.669   5.056
 7728SOL    HW124083   2.316   2.742   5.106
 7728SOL    HW224084   2.330   2.637   4.982
 7729SOL     OW24085   5.492   1.605   2.030
 7729SOL    HW124086   5.427   1.564   2.094
 7729SOL    HW224087   5.474   1.570   1.938
 7730SOL     OW24088   6.406   4.892   6.150
 7730SOL    HW124089   6.324   4.889   6.093
 7730SOL    HW224090   6.483   4.853   6.099
 7731SOL     OW24091   6.709   0.180   0.561
 7731SOL    HW124092   6.634   0.232   0.600
 7731SOL    HW224093   6.783   0.243   0.535
 7732SOL     OW24094   4.332   0.111   0.331
 7732SOL    HW124095   4.243   0.064   0.331
 7732SOL    HW224096   4.399   0.055   0.282
 7733SOL     OW24097   6.204   5.240   2.599
 7733SOL    HW124098   6.147   5.250   2.518
 7733SOL    HW224099   6.249   5.326   2.620
 7734SOL     OW24100   2.273   4.830   4.590
 7734SOL    HW124101   2.306   4.781   4.510
 7734SOL    HW224102   2.339   4.819   4.665
 7735SOL     OW24103   6.377   5.697   0.226
 7735SOL    HW124104   6.294   5.736   0.267
 7735SOL    HW224105   6.411   5.758   0.155
 7736SOL     OW24106   2.287   3.288   0.634
 7736SOL    HW124107   2.230   3.267   0.714
 7736SOL    HW224108   2.381   3.306   0.664
 7737SOL     OW24109   3.112   5.621   1.985
 7737SOL    HW124110   3.087   5.710   2.023
 7737SOL    HW224111   3.029   5.574   1.952
 7738SOL     OW24112   2.513   5.769   6.978
 7738SOL    HW124113   2.496   5.754   6.880
 7738SOL    HW224114   2.569   5.851   6.990
 7739SOL     OW24115   1.393   1.647   1.807
 7739SOL    HW124116   1.329   1.635   1.884
 7739SOL    HW224117   1.487   1.638   1.841
 7740SOL     OW24118   1.812   1.047   2.449
 7740SOL    HW124119   1.909   1.064   2.429
 7740SOL    HW224120   1.757   1.122   2.413
 7741SOL     OW24121   0.964   3.964   5.057
 7741SOL    HW124122   0.976   4.034   4.986
 7741SOL    HW224123   0.932   4.008   5.141
 7742SOL     OW24124   4.163   1.586   3.876
 7742SOL    HW124125   4.190   1.514   3.812
 7742SOL    HW224126   4.242   1.643   3.897
 7743SOL     OW24127   4.906   1.197   6.939
 7743SOL    HW124128   4.876   1.258   7.012
 7743SOL    HW224129   4.826   1.160   6.891
 7744SOL     OW24130   0.631   6.117   3.515
 7744SOL    HW124131   0.648   6.043   3.450
 7744SOL    HW224132   0.553   6.094   3.572
 7745SOL     OW24133   2.653   6.750   6.791
 7745SOL    HW124134   2.600   6.665   6.787
 7745SOL    HW224135   2.679   6.768   6.886
 7746SOL     OW24136   1.530   6.959   0.811
 7746SOL    HW124137   1.615   6.907   0.797
 7746SOL    HW224138   1.460   6.898   0.848
 7747SOL     OW24139   0.659   6.208   1.306
 7747SOL    HW124140   0.580   6.268   1.315
 7747SOL    HW224141   0.665   6.174   1.212
 7748SOL     OW24142   3.349   3.877   4.640
 7748SOL    HW124143   3.274   3.941   4.625
 7748SOL    HW224144   3.434   3.927   4.653
 7749SOL     OW24145   3.225   3.776   3.416
 7749SOL    HW124146   3.191   3.686   3.441
 7749SOL    HW224147   3.320   3.768   3.386
 7750SOL     OW24148   5.972   5.842   6.054
 7750SOL    HW124149   5.960   5.879   6.146
 7750SOL    HW224150   6.057   5.877   6.015
 7751SOL     OW24151   0.948   2.059   3.189
 7751SOL    HW124152   0.965   2.051   3.091
 7751SOL    HW224153   0.901   2.146   3.208
 7752SOL     OW24154   5.746   5.759   5.922
 7752SOL    HW124155   5.834   5.785   5.963
 7752SOL    HW224156   5.672   5.804   5.971
 7753SOL     OW24157   2.649   0.976   4.145
 7753SOL    HW124158   2.586   0.988   4.222
 7753SOL    HW224159   2.719   0.910   4.169
 7754SOL     OW24160   5.453   0.389   1.796
 7754SOL    HW124161   5.482   0.330   1.871
 7754SOL    HW224162   5.479   0.348   1.708
 7755SOL     OW24163   1.253   1.053   5.630
 7755SOL    HW124164   1.174   1.014   5.679
 7755SOL    HW224165   1.336   1.036   5.683
 7756SOL     OW24166   2.868   5.661   2.381
 7756SOL    HW124167   2.912   5.749   2.362
 7756SOL    HW224168   2.773   5.677   2.409
 7757SOL     OW24169   5.064   6.484   4.213
 7757SOL    HW124170   5.001   6.539   4.159
 7757SOL    HW224171   5.158   6.502   4.184
 7758SOL     OW24172   1.545   2.238   6.773
 7758SOL    HW124173   1.627   2.181   6.773
 7758SOL    HW224174   1.527   2.271   6.866
 7759SOL     OW24175   1.847   1.474   5.058
 7759SOL    HW124176   1.892   1.398   5.012
 7759SOL    HW224177   1.752   1.449   5.079
 7760SOL     OW24178   5.754   3.481   2.370
 7760SOL    HW124179   5.852   3.468   2.357
 7760SOL    HW224180   5.705   3.434   2.296
 7761SOL     OW24181   2.252   0.048   6.148
 7761SOL    HW124182   2.249   6.985   6.109
 7761SOL    HW224183   2.208   0.048   6.237
 7762SOL     OW24184   4.215   0.791   5.116
 7762SOL    HW124185   4.200   0.699   5.151
 7762SOL    HW224186   4.295   0.832   5.160
 7763SOL     OW24187   1.354   1.608   1.108
 7763SOL    HW124188   1.352   1.513   1.141
 7763SOL    HW224189   1.260   1.639   1.092
 7764SOL     OW24190   3.499   3.197   2.794
 7764SOL    HW124191   3.493   3.270   2.726
 7764SOL    HW224192   3.427   3.209   2.862
 7765SOL     OW24193   6.323   3.031   3.958
 7765SOL    HW124194   6.255   3.022   4.031
 7765SOL    HW224195   6.400   3.086   3.991
 7766SOL     OW24196   5.290   1.435   0.218
 7766SOL    HW124197   5.201   1.392   0.235
 7766SOL    HW224198   5.295   1.523   0.266
 7767SOL     OW24199   3.773   6.604   4.189
 7767SOL    HW124200   3.849   6.663   4.217
 7767SOL    HW224201   3.789   6.572   4.095
 7768SOL     OW24202   4.150   5.145   2.690
 7768SOL    HW124203   4.066   5.192   2.714
 7768SOL    HW224204   4.201   5.122   2.774
 7769SOL     OW24205   5.239   1.691   1.554
 7769SOL    HW124206   5.302   1.767   1.571
 7769SOL    HW224207   5.189   1.708   1.469
 7770SOL     OW24208   1.602   4.040   2.311
 7770SOL    HW124209   1.566   3.965   2.367
 7770SOL    HW224210   1.580   4.023   2.215
 7771SOL     OW24211   2.523   2.736   5.270
 7771SOL    HW124212   2.594   2.717   5.337
 7771SOL    HW224213   2.525   2.833   5.246
 7772SOL     OW24214   5.312   0.781   3.824
 7772SOL    HW124215   5.379   0.852   3.843
 7772SOL    HW224216   5.305   0.767   3.725
 7773SOL     OW24217   2.983   5.147   5.452
 7773SOL    HW124218   3.046   5.172   5.526
 7773SOL    HW224219   2.957   5.051   5.463
 7774SOL     OW24220   6.074   2.162   6.499
 7774SOL    HW124221   6.066   2.101   6.420
 7774SOL    HW224222   5.983   2.187   6.531
 7775SOL     OW24223   3.303   6.816   3.052
 7775SOL    HW124224   3.260   6.903   3.028
 7775SOL    HW224225   3.353   6.826   3.138
 7776SOL     OW24226   3.027   3.515   6.993
 7776SOL    HW124227   2.945   3.562   6.962
 7776SOL    HW224228   3.097   3.518   6.921
 7777SOL     OW24229   2.343   1.679   5.357
 7777SOL    HW124230   2.268   1.621   5.327
 7777SOL    HW224231   2.429   1.628   5.356
 7778SOL     OW24232   5.339   6.683   0.295
 7778SOL    HW124233   5.326   6.737   0.212
 7778SOL    HW224234   5.402   6.731   0.356
 7779SOL     OW24235   3.604   3.065   0.603
 7779SOL    HW124236   3.505   3.063   0.616
 7779SOL    HW224237   3.649   3.031   0.686
 7780SOL     OW24238   1.740   5.223   4.913
 7780SOL    HW124239   1.788   5.310   4.904
 7780SOL    HW224240   1.803   5.148   4.893
 7781SOL     OW24241   1.463   4.278   6.714
 7781SOL    HW124242   1.540   4.222   6.746
 7781SOL    HW224243   1.483   4.374   6.732
 7782SOL     OW24244   1.711   3.492   5.465
 7782SOL    HW124245   1.648   3.445   5.403
 7782SOL    HW224246   1.805   3.479   5.433
 7783SOL     OW24247   2.691   6.272   5.794
 7783SOL    HW124248   2.724   6.305   5.706
 7783SOL    HW224249   2.650   6.181   5.783
 7784SOL     OW24250   2.110   2.374   0.161
 7784SOL    HW124251   2.177   2.326   0.105
 7784SOL    HW224252   2.156   2.436   0.224
 7785SOL     OW24253   1.530   0.141   3.775
 7785SOL    HW124254   1.625   0.116   3.757
 7785SOL    HW224255   1.527   0.229   3.822
 7786SOL     OW24256   3.439   5.560   6.263
 7786SOL    HW124257   3.349   5.574   6.222
 7786SOL    HW224258   3.436   5.585   6.359
 7787SOL     OW24259   1.963   3.448   5.336
 7787SOL    HW124260   1.997   3.354   5.341
 7787SOL    HW224261   2.041   3.511   5.333
 7788SOL     OW24262   1.470   0.104   1.808
 7788SOL    HW124263   1.449   0.012   1.842
 7788SOL    HW224264   1.493   0.099   1.711
 7789SOL     OW24265   3.401   6.763   0.165
 7789SOL    HW124266   3.408   6.667   0.140
 7789SOL    HW224267   3.487   6.792   0.208
 7790SOL     OW24268   5.965   5.235   2.413
 7790SOL    HW124269   5.907   5.194   2.483
 7790SOL    HW224270   5.929   5.211   2.322
 7791SOL     OW24271   2.992   6.685   3.717
 7791SOL    HW124272   2.945   6.763   3.675
 7791SOL    HW224273   2.926   6.612   3.736
 7792SOL     OW24274   0.846   5.670   5.850
 7792SOL    HW124275   0.933   5.622   5.837
 7792SOL    HW224276   0.771   5.607   5.832
 7793SOL     OW24277   1.843   0.825   5.956
 7793SOL    HW124278   1.882   0.883   6.028
 7793SOL    HW224279   1.917   0.795   5.896
 7794SOL     OW24280   4.696   5.268   3.235
 7794SOL    HW124281   4.715   5.358   3.195
 7794SOL    HW224282   4.688   5.276   3.334
 7795SOL     OW24283   1.938   3.675   4.941
 7795SOL    HW124284   2.017   3.735   4.932
 7795SOL    HW224285   1.969   3.583   4.968
 7796SOL     OW24286   3.017   3.887   4.203
 7796SOL    HW124287   3.085   3.948   4.164
 7796SOL    HW224288   2.959   3.849   4.130
 7797SOL     OW24289   0.682   6.007   2.775
 7797SOL    HW124290   0.702   5.929   2.835
 7797SOL    HW224291   0.707   6.092   2.822
 7798SOL     OW24292   1.239   5.025   6.479
 7798SOL    HW124293   1.265   4.943   6.428
 7798SOL    HW224294   1.155   5.063   6.441
 7799SOL     OW24295   6.737   6.477   1.976
 7799SOL    HW124296   6.739   6.404   2.045
 7799SOL    HW224297   6.785   6.558   2.012
 7800SOL     OW24298   1.403   5.272   0.822
 7800SOL    HW124299   1.314   5.284   0.865
 7800SOL    HW224300   1.392   5.229   0.732
 7801SOL     OW24301   2.629   2.093   1.495
 7801SOL    HW124302   2.654   2.048   1.409
 7801SOL    HW224303   2.539   2.060   1.524
 7802SOL     OW24304   5.270   2.128   1.513
 7802SOL    HW124305   5.179   2.121   1.473
 7802SOL    HW224306   5.309   2.036   1.523
 7803SOL     OW24307   4.587   3.148   5.821
 7803SOL    HW124308   4.583   3.206   5.739
 7803SOL    HW224309   4.515   3.175   5.884
 7804SOL     OW24310   6.484   1.303   3.698
 7804SOL    HW124311   6.459   1.364   3.622
 7804SOL    HW224312   6.413   1.308   3.768
 7805SOL     OW24313   5.628   0.885   1.569
 7805SOL    HW124314   5.689   0.958   1.538
 7805SOL    HW224315   5.683   0.806   1.600
 7806SOL     OW24316   5.679   2.436   6.092
 7806SOL    HW124317   5.598   2.423   6.034
 7806SOL    HW224318   5.649   2.456   6.185
 7807SOL     OW24319   0.304   4.906   6.141
 7807SOL    HW124320   0.381   4.954   6.185
 7807SOL    HW224321   0.222   4.963   6.148
 7808SOL     OW24322   0.335   2.897   4.501
 7808SOL    HW124323   0.320   2.809   4.545
 7808SOL    HW224324   0.433   2.916   4.496
 7809SOL     OW24325   2.550   5.915   4.681
 7809SOL    HW124326   2.456   5.945   4.697
 7809SOL    HW224327   2.572   5.921   4.584
 7810SOL     OW24328   3.487   6.921   5.161
 7810SOL    HW124329   3.513   6.847   5.223
 7810SOL    HW224330   3.548   6.999   5.176
 7811SOL     OW24331   0.247   4.530   3.994
 7811SOL    HW124332   0.184   4.605   4.013
 7811SOL    HW224333   0.283   4.493   4.079
 7812SOL     OW24334   1.216   1.900   4.054
 7812SOL    HW124335   1.308   1.862   4.048
 7812SOL    HW224336   1.179   1.886   4.146
 7813SOL     OW24337   4.422   2.299   6.207
 7813SOL    HW124338   4.394   2.394   6.221
 7813SOL    HW224339   4.358   2.239   6.255
 7814SOL     OW24340   6.836   3.639   3.581
 7814SOL    HW124341   6.802   3.729   3.553
 7814SOL    HW224342   6.771   3.569   3.551
 7815SOL     OW24343   5.083   0.544   0.035
 7815SOL    HW124344   5.169   0.521   0.080
 7815SOL    HW224345   5.007   0.525   0.097
 7816SOL     OW24346   1.341   2.657   6.560
 7816SOL    HW124347   1.334   2.635   6.462
 7816SOL    HW224348   1.380   2.748   6.571
 7817SOL     OW24349   6.109   4.207   4.043
 7817SOL    HW124350   6.208   4.209   4.053
 7817SOL    HW224351   6.077   4.112   4.045
 7818SOL     OW24352   4.445   0.872   3.298
 7818SOL    HW124353   4.426   0.794   3.238
 7818SOL    HW224354   4.520   0.850   3.360
 7819SOL     OW24355   6.594   3.120   1.741
 7819SOL    HW124356   6.604   3.189   1.669
 7819SOL    HW224357   6.685   3.090   1.770
 7820SOL     OW24358   1.512   2.447   4.631
 7820SOL    HW124359   1.596   2.442   4.578
 7820SOL    HW224360   1.451   2.372   4.605
 7821SOL     OW24361   4.965   6.159   1.032
 7821SOL    HW124362   5.037   6.181   0.966
 7821SOL    HW224363   4.926   6.070   1.010
 7822SOL     OW24364   0.180   0.235   5.605
 7822SOL    HW124365   0.237   0.177   5.547
 7822SOL    HW224366   0.228   0.321   5.623
 7823SOL     OW24367   2.316   3.872   5.410
 7823SOL    HW124368   2.294   3.955   5.461
 7823SOL    HW224369   2.354   3.897   5.321
 7824SOL     OW24370   6.131   1.914   4.835
 7824SOL    HW124371   6.043   1.886   4.796
 7824SOL    HW224372   6.135   2.014   4.841
 7825SOL     OW24373   1.511   3.203   0.477
 7825SOL    HW124374   1.600   3.158   0.473
 7825SOL    HW224375   1.462   3.174   0.559
 7826SOL     OW24376   5.901   1.280   1.482
 7826SOL    HW124377   5.865   1.301   1.573
 7826SOL    HW224378   5.865   1.347   1.417
 7827SOL     OW24379   1.961   5.830   1.031
 7827SOL    HW124380   1.987   5.735   1.012
 7827SOL    HW224381   2.040   5.881   1.062
 7828SOL     OW24382   6.363   4.638   0.339
 7828SOL    HW124383   6.404   4.567   0.396
 7828SOL    HW224384   6.339   4.717   0.397
 7829SOL     OW24385   2.523   3.497   0.927
 7829SOL    HW124386   2.507   3.422   0.863
 7829SOL    HW224387   2.444   3.506   0.987
 7830SOL     OW24388   3.481   5.002   5.326
 7830SOL    HW124389   3.471   5.101   5.329
 7830SOL    HW224390   3.416   4.964   5.260
 7831SOL     OW24391   1.691   0.230   1.907
 7831SOL    HW124392   1.749   0.218   1.826
 7831SOL    HW224393   1.596   0.208   1.884
 7832SOL     OW24394   6.617   0.917   4.718
 7832SOL    HW124395   6.518   0.905   4.726
 7832SOL    HW224396   6.650   0.971   4.795
 7833SOL     OW24397   0.987   0.850   4.695
 7833SOL    HW124398   1.001   0.949   4.685
 7833SOL    HW224399   0.939   0.815   4.614
 7834SOL     OW24400   7.005   1.783   3.608
 7834SOL    HW124401   0.010   1.876   3.616
 7834SOL    HW224402   6.995   1.758   3.512
 7835SOL     OW24403   4.430   1.887   5.314
 7835SOL    HW124404   4.343   1.849   5.346
 7835SOL    HW224405   4.481   1.925   5.391
 7836SOL     OW24406   3.216   4.257   5.310
 7836SOL    HW124407   3.223   4.214   5.220
 7836SOL    HW224408   3.134   4.315   5.313
 7837SOL     OW24409   4.992   5.830   6.818
 7837SOL    HW124410   5.070   5.777   6.852
 7837SOL    HW224411   5.012   5.928   6.825
 7838SOL     OW24412   4.154   6.436   1.348
 7838SOL    HW124413   4.223   6.473   1.411
 7838SOL    HW224414   4.074   6.406   1.400
 7839SOL     OW24415   6.569   4.159   4.686
 7839SOL    HW124416   6.589   4.180   4.591
 7839SOL    HW224417   6.622   4.219   4.746
 7840SOL     OW24418   0.198   3.190   4.456
 7840SOL    HW124419   0.198   3.256   4.381
 7840SOL    HW224420   0.290   3.152   4.467
 7841SOL     OW24421   4.252   1.628   6.594
 7841SOL    HW124422   4.233   1.702   6.658
 7841SOL    HW224423   4.217   1.542   6.632
 7842SOL     OW24424   1.963   1.296   2.134
 7842SOL    HW124425   2.006   1.212   2.100
 7842SOL    HW224426   1.928   1.349   2.057
 7843SOL     OW24427   0.239   6.578   3.700
 7843SOL    HW124428   0.174   6.652   3.687
 7843SOL    HW224429   0.332   6.615   3.706
 7844SOL     OW24430   3.209   0.790   2.702
 7844SOL    HW124431   3.253   0.783   2.792
 7844SOL    HW224432   3.257   0.732   2.637
 7845SOL     OW24433   4.854   1.814   2.582
 7845SOL    HW124434   4.860   1.721   2.545
 7845SOL    HW224435   4.758   1.842   2.587
 7846SOL     OW24436   1.003   2.430   1.696
 7846SOL    HW124437   0.954   2.344   1.684
 7846SOL    HW224438   1.044   2.433   1.787
 7847SOL     OW24439   6.647   1.450   3.301
 7847SOL    HW124440   6.553   1.474   3.324
 7847SOL    HW224441   6.648   1.389   3.222
 7848SOL     OW24442   3.115   4.790   1.280
 7848SOL    HW124443   3.099   4.845   1.362
 7848SOL    HW224444   3.147   4.699   1.307
 7849SOL     OW24445   6.079   4.144   4.694
 7849SOL    HW124446   6.077   4.090   4.611
 7849SOL    HW224447   6.161   4.122   4.747
 7850SOL     OW24448   0.660   1.718   3.729
 7850SOL    HW124449   0.746   1.768   3.722
 7850SOL    HW224450   0.635   1.708   3.826
 7851SOL     OW24451   0.114   2.248   1.786
 7851SOL    HW124452   0.041   2.306   1.751
 7851SOL    HW224453   0.157   2.293   1.865
 7852SOL     OW24454   2.942   0.873   0.610
 7852SOL    HW124455   2.911   0.954   0.560
 7852SOL    HW224456   3.031   0.844   0.576
 7853SOL     OW24457   4.899   2.842   1.553
 7853SOL    HW124458   4.997   2.826   1.544
 7853SOL    HW224459   4.876   2.857   1.649
 7854SOL     OW24460   3.106   2.449   6.010
 7854SOL    HW124461   3.100   2.544   5.979
 7854SOL    HW224462   3.163   2.443   6.091
 7855SOL     OW24463   4.280   5.895   4.848
 7855SOL    HW124464   4.245   5.805   4.824
 7855SOL    HW224465   4.218   5.965   4.813
 7856SOL     OW24466   0.346   5.396   5.116
 7856SOL    HW124467   0.432   5.387   5.065
 7856SOL    HW224468   0.282   5.325   5.086
 7857SOL     OW24469   4.929   3.328   0.715
 7857SOL    HW124470   4.931   3.310   0.814
 7857SOL    HW224471   4.975   3.253   0.667
 7858SOL     OW24472   6.684   6.888   5.055
 7858SOL    HW124473   6.733   6.802   5.041
 7858SOL    HW224474   6.749   6.962   5.071
 7859SOL     OW24475   4.717   3.555   0.472
 7859SOL    HW124476   4.701   3.456   0.469
 7859SOL    HW224477   4.632   3.601   0.496
 7860SOL     OW24478   4.606   0.953   4.356
 7860SOL    HW124479   4.509   0.976   4.345
 7860SOL    HW224480   4.624   0.928   4.451
 7861SOL     OW24481   2.628   5.014   1.751
 7861SOL    HW124482   2.603   4.955   1.828
 7861SOL    HW224483   2.552   5.075   1.729
 7862SOL     OW24484   1.723   5.821   2.747
 7862SOL    HW124485   1.803   5.843   2.803
 7862SOL    HW224486   1.648   5.884   2.769
 7863SOL     OW24487   0.525   4.264   4.038
 7863SOL    HW124488   0.603   4.204   4.059
 7863SOL    HW224489   0.551   4.359   4.054
 7864SOL     OW24490   1.119   5.590   5.818
 7864SOL    HW124491   1.140   5.492   5.812
 7864SOL    HW224492   1.192   5.637   5.867
 7865SOL     OW24493   6.560   5.728   4.210
 7865SOL    HW124494   6.592   5.635   4.225
 7865SOL    HW224495   6.536   5.739   4.113
 7866SOL     OW24496   0.955   0.605   5.324
 7866SOL    HW124497   0.947   0.509   5.353
 7866SOL    HW224498   0.893   0.661   5.379
 7867SOL     OW24499   5.893   6.619   3.092
 7867SOL    HW124500   5.960   6.565   3.041
 7867SOL    HW224501   5.811   6.633   3.036
 7868SOL     OW24502   4.611   6.042   1.108
 7868SOL    HW124503   4.684   6.001   1.055
 7868SOL    HW224504   4.603   5.996   1.197
 7869SOL     OW24505   5.490   4.510   5.887
 7869SOL    HW124506   5.422   4.580   5.867
 7869SOL    HW224507   5.448   4.419   5.875
 7870SOL     OW24508   4.891   6.703   4.852
 7870SOL    HW124509   4.858   6.731   4.942
 7870SOL    HW224510   4.893   6.604   4.846
 7871SOL     OW24511   4.930   2.196   2.151
 7871SOL    HW124512   4.855   2.261   2.148
 7871SOL    HW224513   4.943   2.165   2.245
 7872SOL     OW24514   1.842   3.466   2.661
 7872SOL    HW124515   1.750   3.442   2.630
 7872SOL    HW224516   1.846   3.462   2.761
 7873SOL     OW24517   6.471   0.296   0.666
 7873SOL    HW124518   6.416   0.352   0.604
 7873SOL    HW224519   6.472   0.337   0.757
 7874SOL     OW24520   4.496   2.471   1.202
 7874SOL    HW124521   4.519   2.561   1.239
 7874SOL    HW224522   4.399   2.451   1.220
 7875SOL     OW24523   3.497   2.740   0.285
 7875SOL    HW124524   3.522   2.712   0.378
 7875SOL    HW224525   3.406   2.780   0.285
 7876SOL     OW24526   1.487   6.373   3.567
 7876SOL    HW124527   1.401   6.383   3.518
 7876SOL    HW224528   1.506   6.275   3.580
 7877SOL     OW24529   0.226   1.354   2.789
 7877SOL    HW124530   0.291   1.428   2.807
 7877SOL    HW224531   0.272   1.281   2.738
 7878SOL     OW24532   4.693   4.218   3.639
 7878SOL    HW124533   4.721   4.280   3.713
 7878SOL    HW224534   4.596   4.231   3.620
 7879SOL     OW24535   3.679   5.149   2.615
 7879SOL    HW124536   3.747   5.221   2.628
 7879SOL    HW224537   3.640   5.123   2.704
 7880SOL     OW24538   2.429   3.956   0.732
 7880SOL    HW124539   2.519   3.951   0.688
 7880SOL    HW224540   2.414   3.875   0.788
 7881SOL     OW24541   4.928   3.983   4.553
 7881SOL    HW124542   4.920   3.888   4.524
 7881SOL    HW224543   4.903   3.990   4.650
 7882SOL     OW24544   1.962   3.552   1.696
 7882SOL    HW124545   1.958   3.600   1.609
 7882SOL    HW224546   1.999   3.613   1.766
 7883SOL     OW24547   1.146   0.814   5.742
 7883SOL    HW124548   1.061   0.761   5.744
 7883SOL    HW224549   1.212   0.770   5.682
 7884SOL     OW24550   0.838   3.799   4.455
 7884SOL    HW124551   0.745   3.767   4.474
 7884SOL    HW224552   0.902   3.722   4.462
 7885SOL     OW24553   6.910   5.828   0.619
 7885SOL    HW124554   6.922   5.924   0.597
 7885SOL    HW224555   6.838   5.818   0.688
 7886SOL     OW24556   4.299   5.788   0.073
 7886SOL    HW124557   4.304   5.867   0.012
 7886SOL    HW224558   4.270   5.817   0.164
 7887SOL     OW24559   3.704   1.991   6.700
 7887SOL    HW124560   3.620   2.016   6.749
 7887SOL    HW224561   3.772   2.063   6.715
 7888SOL     OW24562   6.467   0.335   4.828
 7888SOL    HW124563   6.408   0.293   4.759
 7888SOL    HW224564   6.410   0.378   4.898
 7889SOL     OW24565   1.859   4.865   1.636
 7889SOL    HW124566   1.923   4.833   1.566
 7889SOL    HW224567   1.778   4.904   1.591
 7890SOL     OW24568   1.412   3.982   2.856
 7890SOL    HW124569   1.436   4.022   2.767
 7890SOL    HW224570   1.495   3.968   2.910
 7891SOL     OW24571   1.614   4.342   2.916
 7891SOL    HW124572   1.516   4.336   2.894
 7891SOL    HW224573   1.627   4.319   3.013
 7892SOL     OW24574   2.035   2.547   4.226
 7892SOL    HW124575   2.001   2.594   4.307
 7892SOL    HW224576   1.996   2.456   4.221
 7893SOL     OW24577   6.338   0.044   2.491
 7893SOL    HW124578   6.427   0.064   2.451
 7893SOL    HW224579   6.285   7.015   2.429
 7894SOL     OW24580   2.721   6.054   1.758
 7894SOL    HW124581   2.648   6.102   1.805
 7894SOL    HW224582   2.686   6.018   1.671
 7895SOL     OW24583   6.467   1.385   5.882
 7895SOL    HW124584   6.549   1.442   5.871
 7895SOL    HW224585   6.393   1.440   5.921
 7896SOL     OW24586   4.902   4.463   6.670
 7896SOL    HW124587   4.936   4.484   6.762
 7896SOL    HW224588   4.977   4.475   6.604
 7897SOL     OW24589   2.936   3.807   5.952
 7897SOL    HW124590   2.903   3.793   6.045
 7897SOL    HW224591   2.906   3.731   5.894
 7898SOL     OW24592   5.405   2.096   3.462
 7898SOL    HW124593   5.496   2.082   3.423
 7898SOL    HW224594   5.383   2.021   3.524
 7899SOL     OW24595   6.744   1.362   2.141
 7899SOL    HW124596   6.724   1.328   2.234
 7899SOL    HW224597   6.797   1.294   2.092
 7900SOL     OW24598   1.178   4.973   0.852
 7900SOL    HW124599   1.175   5.071   0.871
 7900SOL    HW224600   1.085   4.936   0.854
 7901SOL     OW24601   4.895   0.443   6.480
 7901SOL    HW124602   4.800   0.470   6.466
 7901SOL    HW224603   4.946   0.519   6.518
 7902SOL     OW24604   5.286   4.982   1.559
 7902SOL    HW124605   5.277   5.007   1.655
 7902SOL    HW224606   5.198   4.951   1.523
 7903SOL     OW24607   6.189   2.348   0.876
 7903SOL    HW124608   6.186   2.445   0.900
 7903SOL    HW224609   6.258   2.302   0.932
 7904SOL     OW24610   6.018   0.755   2.889
 7904SOL    HW124611   6.047   0.677   2.945
 7904SOL    HW224612   6.070   0.836   2.916
 7905SOL     OW24613   4.554   1.827   0.261
 7905SOL    HW124614   4.464   1.810   0.302
 7905SOL    HW224615   4.558   1.921   0.227
 7906SOL     OW24616   0.801   5.478   0.123
 7906SOL    HW124617   0.718   5.438   0.085
 7906SOL    HW224618   0.881   5.436   0.081
 7907SOL     OW24619   5.991   2.221   4.569
 7907SOL    HW124620   6.056   2.214   4.645
 7907SOL    HW224621   5.927   2.144   4.573
 7908SOL     OW24622   1.604   1.692   4.308
 7908SOL    HW124623   1.622   1.699   4.407
 7908SOL    HW224624   1.668   1.627   4.267
 7909SOL     OW24625   5.282   3.563   4.833
 7909SOL    HW124626   5.306   3.466   4.823
 7909SOL    HW224627   5.188   3.570   4.867
 7910SOL     OW24628   3.226   3.149   5.807
 7910SOL    HW124629   3.182   3.062   5.784
 7910SOL    HW224630   3.168   3.225   5.778
 7911SOL     OW24631   0.555   3.844   6.479
 7911SOL    HW124632   0.524   3.933   6.447
 7911SOL    HW224633   0.654   3.846   6.496
 7912SOL     OW24634   0.390   5.145   0.152
 7912SOL    HW124635   0.332   5.066   0.133
 7912SOL    HW224636   0.479   5.114   0.185
 7913SOL     OW24637   0.655   5.068   0.218
 7913SOL    HW124638   0.631   4.992   0.278
 7913SOL    HW224639   0.747   5.101   0.242
 7914SOL     OW24640   6.963   5.229   6.390
 7914SOL    HW124641   7.019   5.232   6.308
 7914SOL    HW224642   6.909   5.313   6.397
 7915SOL     OW24643   4.773   2.558   2.488
 7915SOL    HW124644   4.779   2.657   2.497
 7915SOL    HW224645   4.709   2.535   2.415
 7916SOL     OW24646   5.711   3.822   5.225
 7916SOL    HW124647   5.733   3.727   5.201
 7916SOL    HW224648   5.718   3.879   5.143
 7917SOL     OW24649   3.874   3.000   3.976
 7917SOL    HW124650   3.946   3.062   4.007
 7917SOL    HW224651   3.802   2.994   4.045
 7918SOL     OW24652   6.857   1.480   0.740
 7918SOL    HW124653   6.863   1.569   0.694
 7918SOL    HW224654   6.816   1.414   0.678
 7919SOL     OW24655   0.145   4.483   3.525
 7919SOL    HW124656   0.046   4.473   3.514
 7919SOL    HW224657   0.192   4.447   3.444
 7920SOL     OW24658   0.217   4.797   1.482
 7920SOL    HW124659   0.183   4.854   1.556
 7920SOL    HW224660   0.295   4.743   1.515
 7921SOL     OW24661   3.431   5.804   0.418
 7921SOL    HW124662   3.414   5.865   0.496
 7921SOL    HW224663   3.501   5.846   0.359
 7922SOL     OW24664   6.759   5.742   0.296
 7922SOL    HW124665   6.672   5.771   0.337
 7922SOL    HW224666   6.827   5.814   0.310
 7923SOL     OW24667   2.433   0.216   2.726
 7923SOL    HW124668   2.524   0.258   2.728
 7923SOL    HW224669   2.364   0.287   2.713
 7924SOL     OW24670   3.790   6.672   3.112
 7924SOL    HW124671   3.757   6.705   3.200
 7924SOL    HW224672   3.750   6.583   3.092
 7925SOL     OW24673   0.206   1.979   6.680
 7925SOL    HW124674   0.178   1.883   6.682
 7925SOL    HW224675   0.305   1.985   6.686
 7926SOL     OW24676   4.601   1.188   4.210
 7926SOL    HW124677   4.670   1.256   4.231
 7926SOL    HW224678   4.611   1.110   4.272
 7927SOL     OW24679   3.798   5.564   5.254
 7927SOL    HW124680   3.768   5.488   5.197
 7927SOL    HW224681   3.898   5.565   5.261
 7928SOL     OW24682   0.845   3.852   3.864
 7928SOL    HW124683   0.754   3.892   3.859
 7928SOL    HW224684   0.910   3.922   3.893
 7929SOL     OW24685   4.014   4.024   5.078
 7929SOL    HW124686   3.966   4.037   4.991
 7929SOL    HW224687   4.019   4.112   5.126
 7930SOL     OW24688   4.701   5.701   3.863
 7930SOL    HW124689   4.624   5.755   3.830
 7930SOL    HW224690   4.722   5.729   3.957
 7931SOL     OW24691   1.924   2.459   6.492
 7931SOL    HW124692   1.832   2.439   6.458
 7931SOL    HW224693   1.919   2.481   6.590
 7932SOL     OW24694   2.556   6.425   0.335
 7932SOL    HW124695   2.638   6.430   0.391
 7932SOL    HW224696   2.478   6.460   0.386
 7933SOL     OW24697   6.793   6.809   0.233
 7933SOL    HW124698   6.714   6.867   0.210
 7933SOL    HW224699   6.788   6.782   0.329
 7934SOL     OW24700   2.305   4.076   6.861
 7934SOL    HW124701   2.333   4.127   6.780
 7934SOL    HW224702   2.275   4.140   6.932
 7935SOL     OW24703   5.225   5.544   0.374
 7935SOL    HW124704   5.243   5.467   0.314
 7935SOL    HW224705   5.163   5.517   0.447
 7936SOL     OW24706   3.374   5.436   2.259
 7936SOL    HW124707   3.422   5.362   2.306
 7936SOL    HW224708   3.365   5.515   2.320
 7937SOL     OW24709   5.353   6.910   3.683
 7937SOL    HW124710   5.338   6.812   3.694
 7937SOL    HW224711   5.267   6.954   3.656
 7938SOL     OW24712   5.723   4.884   4.915
 7938SOL    HW124713   5.630   4.859   4.888
 7938SOL    HW224714   5.784   4.805   4.905
 7939SOL     OW24715   0.854   2.004   6.038
 7939SOL    HW124716   0.812   1.926   6.084
 7939SOL    HW224717   0.937   2.031   6.086
 7940SOL     OW24718   2.398   4.762   2.417
 7940SOL    HW124719   2.344   4.767   2.333
 7940SOL    HW224720   2.411   4.853   2.455
 7941SOL     OW24721   6.472   6.978   1.372
 7941SOL    HW124722   6.544   0.013   1.398
 7941SOL    HW224723   6.507   6.913   1.304
 7942SOL     OW24724   6.743   6.424   2.710
 7942SOL    HW124725   6.693   6.359   2.767
 7942SOL    HW224726   6.782   6.495   2.768
 7943SOL     OW24727   5.605   1.890   0.781
 7943SOL    HW124728   5.617   1.798   0.743
 7943SOL    HW224729   5.687   1.944   0.764
 7944SOL     OW24730   0.091   2.851   0.647
 7944SOL    HW124731   0.106   2.911   0.568
 7944SOL    HW224732   0.007   2.879   0.694
 7945SOL     OW24733   5.541   0.134   2.586
 7945SOL    HW124734   5.458   0.187   2.569
 7945SOL    HW224735   5.607   0.191   2.635
 7946SOL     OW24736   1.921   2.782   5.579
 7946SOL    HW124737   1.824   2.761   5.593
 7946SOL    HW224738   1.967   2.702   5.540
 7947SOL     OW24739   4.012   2.733   6.916
 7947SOL    HW124740   3.936   2.686   6.871
 7947SOL    HW224741   4.046   2.805   6.856
 7948SOL     OW24742   0.120   6.615   1.327
 7948SOL    HW124743   0.102   6.650   1.235
 7948SOL    HW224744   0.073   6.528   1.340
 7949SOL     OW24745   4.426   4.550   4.001
 7949SOL    HW124746   4.364   4.526   3.926
 7949SOL    HW224747   4.466   4.467   4.039
 7950SOL     OW24748   5.125   5.511   3.560
 7950SOL    HW124749   5.133   5.572   3.639
 7950SOL    HW224750   5.064   5.552   3.493
 7951SOL     OW24751   2.909   3.707   0.787
 7951SOL    HW124752   2.822   3.711   0.739
 7951SOL    HW224753   2.904   3.762   0.870
 7952SOL     OW24754   0.136   2.871   6.783
 7952SOL    HW124755   0.196   2.900   6.708
 7952SOL    HW224756   0.171   2.785   6.822
 7953SOL     OW24757   1.999   2.729   3.015
 7953SOL    HW124758   2.030   2.783   2.936
 7953SOL    HW224759   1.951   2.789   3.079
 7954SOL     OW24760   4.864   5.286   5.449
 7954SOL    HW124761   4.941   5.306   5.389
 7954SOL    HW224762   4.797   5.361   5.443
 7955SOL     OW24763   0.815   6.531   6.160
 7955SOL    HW124764   0.813   6.629   6.183
 7955SOL    HW224765   0.735   6.486   6.199
 7956SOL     OW24766   0.966   5.611   3.343
 7956SOL    HW124767   0.942   5.522   3.382
 7956SOL    HW224768   1.062   5.632   3.364
 7957SOL     OW24769   2.177   1.661   0.855
 7957SOL    HW124770   2.214   1.665   0.948
 7957SOL    HW224771   2.253   1.657   0.790
 7958SOL     OW24772   3.580   5.781   4.098
 7958SOL    HW124773   3.513   5.772   4.025
 7958SOL    HW224774   3.534   5.786   4.186
 7959SOL     OW24775   4.057   5.395   0.913
 7959SOL    HW124776   4.009   5.411   0.827
 7959SOL    HW224777   3.993   5.404   0.990
 7960SOL     OW24778   3.774   1.635   0.640
 7960SOL    HW124779   3.833   1.589   0.706
 7960SOL    HW224780   3.810   1.726   0.621
 7961SOL     OW24781   1.832   5.954   6.472
 7961SOL    HW124782   1.812   5.856   6.467
 7961SOL    HW224783   1.756   6.001   6.517
 7962SOL     OW24784   2.180   0.311   0.046
 7962SOL    HW124785   2.156   0.340   0.138
 7962SOL    HW224786   2.216   0.217   0.049
 7963SOL     OW24787   6.206   1.311   4.360
 7963SOL    HW124788   6.193   1.315   4.459
 7963SOL    HW224789   6.203   1.216   4.330
 7964SOL     OW24790   6.236   4.821   3.561
 7964SOL    HW124791   6.219   4.895   3.627
 7964SOL    HW224792   6.312   4.765   3.594
 7965SOL     OW24793   3.793   2.666   6.791
 7965SOL    HW124794   3.778   2.700   6.698
 7965SOL    HW224795   3.742   2.581   6.805
 7966SOL     OW24796   0.893   3.582   5.015
 7966SOL    HW124797   0.915   3.560   5.110
 7966SOL    HW224798   0.964   3.642   4.977
 7967SOL     OW24799   3.105   6.387   4.003
 7967SOL    HW124800   3.110   6.433   4.091
 7967SOL    HW224801   3.010   6.378   3.975
 7968SOL     OW24802   2.195   3.086   3.115
 7968SOL    HW124803   2.220   3.053   3.024
 7968SOL    HW224804   2.144   3.171   3.107
 7969SOL     OW24805   4.524   0.442   1.961
 7969SOL    HW124806   4.623   0.456   1.951
 7969SOL    HW224807   4.500   0.350   1.930
 7970SOL     OW24808   0.183   4.065   2.886
 7970SOL    HW124809   0.237   4.035   2.965
 7970SOL    HW224810   0.107   4.001   2.872
 7971SOL     OW24811   3.015   1.849   1.420
 7971SOL    HW124812   3.113   1.863   1.411
 7971SOL    HW224813   2.967   1.936   1.408
 7972SOL     OW24814   0.498   4.322   1.167
 7972SOL    HW124815   0.528   4.244   1.221
 7972SOL    HW224816   0.499   4.297   1.070
 7973SOL     OW24817   5.001   3.350   2.819
 7973SOL    HW124818   4.926   3.333   2.755
 7973SOL    HW224819   5.082   3.381   2.769
 7974SOL     OW24820   6.110   0.344   5.049
 7974SOL    HW124821   6.084   0.327   4.954
 7974SOL    HW224822   6.196   0.395   5.051
 7975SOL     OW24823   5.636   0.281   3.643
 7975SOL    HW124824   5.731   0.255   3.659
 7975SOL    HW224825   5.599   0.224   3.569
 7976SOL     OW24826   0.660   0.194   5.853
 7976SOL    HW124827   0.636   0.127   5.781
 7976SOL    HW224828   0.756   0.183   5.878
 7977SOL     OW24829   4.366   5.933   2.488
 7977SOL    HW124830   4.280   5.975   2.462
 7977SOL    HW224831   4.367   5.917   2.587
 7978SOL     OW24832   5.905   4.064   6.123
 7978SOL    HW124833   5.957   4.145   6.149
 7978SOL    HW224834   5.966   3.985   6.119
 7979SOL     OW24835   2.591   0.501   5.335
 7979SOL    HW124836   2.593   0.414   5.285
 7979SOL    HW224837   2.684   0.522   5.368
 7980SOL     OW24838   3.551   5.841   0.053
 7980SOL    HW124839   3.573   5.868   0.147
 7980SOL    HW224840   3.470   5.783   0.054
 7981SOL     OW24841   1.043   5.869   1.837
 7981SOL    HW124842   1.093   5.785   1.860
 7981SOL    HW224843   0.952   5.846   1.802
 7982SOL     OW24844   6.571   1.717   0.807
 7982SOL    HW124845   6.575   1.817   0.817
 7982SOL    HW224846   6.581   1.693   0.711
 7983SOL     OW24847   5.347   1.840   3.035
 7983SOL    HW124848   5.409   1.764   3.051
 7983SOL    HW224849   5.393   1.909   2.979
 7984SOL     OW24850   1.399   1.632   1.520
 7984SOL    HW124851   1.413   1.644   1.618
 7984SOL    HW224852   1.445   1.548   1.490
 7985SOL     OW24853   2.107   6.746   3.430
 7985SOL    HW124854   2.031   6.735   3.366
 7985SOL    HW224855   2.178   6.679   3.409
 7986SOL     OW24856   3.301   0.954   6.975
 7986SOL    HW124857   3.219   0.957   0.003
 7986SOL    HW224858   3.309   0.865   6.931
 7987SOL     OW24859   0.170   3.865   6.546
 7987SOL    HW124860   0.111   3.812   6.487
 7987SOL    HW224861   0.266   3.850   6.520
 7988SOL     OW24862   2.236   2.327   4.335
 7988SOL    HW124863   2.148   2.333   4.289
 7988SOL    HW224864   2.259   2.415   4.376
 7989SOL     OW24865   3.170   2.428   5.375
 7989SOL    HW124866   3.259   2.450   5.417
 7989SOL    HW224867   3.185   2.388   5.285
 7990SOL     OW24868   0.146   3.950   3.531
 7990SOL    HW124869   0.174   3.867   3.580
 7990SOL    HW224870   0.110   3.924   3.442
 7991SOL     OW24871   6.424   1.818   5.379
 7991SOL    HW124872   6.347   1.840   5.319
 7991SOL    HW224873   6.509   1.852   5.337
 7992SOL     OW24874   1.757   6.613   1.009
 7992SOL    HW124875   1.714   6.585   1.095
 7992SOL    HW224876   1.814   6.539   0.974
 7993SOL     OW24877   1.642   5.630   6.280
 7993SOL    HW124878   1.624   5.538   6.248
 7993SOL    HW224879   1.726   5.631   6.335
 7994SOL     OW24880   4.605   0.377   3.636
 7994SOL    HW124881   4.666   0.297   3.630
 7994SOL    HW224882   4.510   0.346   3.634
 7995SOL     OW24883   3.980   5.565   3.416
 7995SOL    HW124884   3.977   5.622   3.498
 7995SOL    HW224885   4.039   5.486   3.433
 7996SOL     OW24886   2.928   6.437   4.329
 7996SOL    HW124887   2.859   6.378   4.370
 7996SOL    HW224888   3.016   6.420   4.371
 7997SOL     OW24889   0.138   1.670   1.119
 7997SOL    HW124890   0.120   1.723   1.037
 7997SOL    HW224891   0.084   1.706   1.195
 7998SOL     OW24892   4.133   5.636   0.659
 7998SOL    HW124893   4.049   5.593   0.691
 7998SOL    HW224894   4.115   5.732   0.636
 7999SOL     OW24895   0.868   0.522   5.711
 7999SOL    HW124896   0.925   0.479   5.781
 7999SOL    HW224897   0.796   0.575   5.756
 8000SOL     OW24898   6.037   0.353   6.607
 8000SOL    HW124899   5.960   0.381   6.550
 8000SOL    HW224900   6.062   0.258   6.585
 8001SOL     OW24901   3.265   5.915   1.906
 8001SOL    HW124902   3.166   5.903   1.906
 8001SOL    HW224903   3.302   5.887   1.817
 8002SOL     OW24904   0.227   3.110   6.278
 8002SOL    HW124905   0.184   3.200   6.294
 8002SOL    HW224906   0.320   3.111   6.314
 8003SOL     OW24907   2.281   4.504   2.920
 8003SOL    HW124908   2.296   4.586   2.974
 8003SOL    HW224909   2.277   4.528   2.823
 8004SOL     OW24910   1.634   4.612   2.954
 8004SOL    HW124911   1.616   4.516   2.932
 8004SOL    HW224912   1.696   4.618   3.032
 8005SOL     OW24913   3.139   1.779   2.416
 8005SOL    HW124914   3.192   1.732   2.486
 8005SOL    HW224915   3.158   1.877   2.421
 8006SOL     OW24916   2.536   6.075   1.034
 8006SOL    HW124917   2.460   6.019   1.001
 8006SOL    HW224918   2.523   6.170   1.004
 8007SOL     OW24919   1.068   6.956   3.974
 8007SOL    HW124920   1.151   7.010   3.958
 8007SOL    HW224921   0.988   7.015   3.964
 8008SOL     OW24922   4.816   6.856   5.966
 8008SOL    HW124923   4.800   6.914   6.046
 8008SOL    HW224924   4.908   6.817   5.971
 8009SOL     OW24925   6.374   0.222   3.389
 8009SOL    HW124926   6.443   0.288   3.361
 8009SOL    HW224927   6.318   0.195   3.311
 8010SOL     OW24928   1.602   1.272   7.013
 8010SOL    HW124929   1.683   1.274   6.955
 8010SOL    HW224930   1.600   1.353   0.043
 8011SOL     OW24931   2.076   2.765   1.323
 8011SOL    HW124932   2.068   2.860   1.296
 8011SOL    HW224933   2.142   2.757   1.397
 8012SOL     OW24934   1.900   5.684   1.482
 8012SOL    HW124935   1.853   5.766   1.448
 8012SOL    HW224936   1.910   5.691   1.582
 8013SOL     OW24937   0.893   5.337   4.797
 8013SOL    HW124938   0.915   5.279   4.875
 8013SOL    HW224939   0.805   5.311   4.759
 8014SOL     OW24940   1.210   6.276   5.562
 8014SOL    HW124941   1.195   6.366   5.603
 8014SOL    HW224942   1.283   6.229   5.611
 8015SOL     OW24943   2.947   1.281   0.419
 8015SOL    HW124944   3.031   1.268   0.367
 8015SOL    HW224945   2.968   1.282   0.517
 8016SOL     OW24946   4.411   0.166   6.541
 8016SOL    HW124947   4.451   0.218   6.466
 8016SOL    HW224948   4.482   0.139   6.605
 8017SOL     OW24949   6.590   4.747   5.962
 8017SOL    HW124950   6.566   4.780   5.870
 8017SOL    HW224951   6.660   4.807   6.001
 8018SOL     OW24952   4.352   2.565   6.256
 8018SOL    HW124953   4.426   2.575   6.323
 8018SOL    HW224954   4.284   2.637   6.270
 8019SOL     OW24955   1.662   3.769   0.085
 8019SOL    HW124956   1.757   3.740   0.100
 8019SOL    HW224957   1.621   3.710   0.015
 8020SOL     OW24958   6.161   5.920   0.593
 8020SOL    HW124959   6.180   6.013   0.560
 8020SOL    HW224960   6.142   5.860   0.516
 8021SOL     OW24961   1.337   1.902   2.418
 8021SOL    HW124962   1.263   1.852   2.373
 8021SOL    HW224963   1.367   1.977   2.359
 8022SOL     OW24964   4.372   0.652   3.153
 8022SOL    HW124965   4.364   0.640   3.054
 8022SOL    HW224966   4.284   0.631   3.196
 8023SOL     OW24967   5.768   5.604   3.421
 8023SOL    HW124968   5.718   5.611   3.507
 8023SOL    HW224969   5.733   5.528   3.367
 8024SOL     OW24970   2.923   4.736   0.002
 8024SOL    HW124971   2.873   4.649   0.004
 8024SOL    HW224972   2.882   4.796   6.962
 8025SOL     OW24973   3.439   6.190   6.042
 8025SOL    HW124974   3.506   6.264   6.050
 8025SOL    HW224975   3.347   6.226   6.062
 8026SOL     OW24976   0.420   3.851   6.718
 8026SOL    HW124977   0.444   3.805   6.632
 8026SOL    HW224978   0.486   3.924   6.736
 8027SOL     OW24979   4.444   1.920   5.795
 8027SOL    HW124980   4.472   1.907   5.890
 8027SOL    HW224981   4.379   1.996   5.790
 8028SOL     OW24982   4.164   4.809   6.158
 8028SOL    HW124983   4.187   4.882   6.223
 8028SOL    HW224984   4.248   4.762   6.130
 8029SOL     OW24985   5.941   3.378   6.636
 8029SOL    HW124986   5.984   3.313   6.698
 8029SOL    HW224987   5.861   3.335   6.594
 8030SOL     OW24988   5.653   3.858   6.169
 8030SOL    HW124989   5.720   3.932   6.161
 8030SOL    HW224990   5.565   3.889   6.133
 8031SOL     OW24991   4.701   5.565   2.810
 8031SOL    HW124992   4.619   5.509   2.819
 8031SOL    HW224993   4.676   5.661   2.806
 8032SOL     OW24994   6.150   4.747   5.258
 8032SOL    HW124995   6.224   4.749   5.325
 8032SOL    HW224996   6.095   4.664   5.271
 8033SOL     OW24997   5.020   3.091   0.277
 8033SOL    HW124998   4.968   3.149   0.214
 8033SOL    HW224999   4.957   3.048   0.342
 8034SOL     OW25000   5.959   1.283   5.218
 8034SOL    HW125001   5.935   1.294   5.315
 8034SOL    HW225002   5.966   1.186   5.196
 8035SOL     OW25003   4.786   6.970   5.291
 8035SOL    HW125004   4.783   7.008   5.383
 8035SOL    HW225005   4.844   7.028   5.233
 8036SOL     OW25006   0.953   3.749   2.279
 8036SOL    HW125007   0.989   3.663   2.242
 8036SOL    HW225008   0.969   3.752   2.377
 8037SOL     OW25009   1.564   3.539   1.573
 8037SOL    HW125010   1.476   3.494   1.589
 8037SOL    HW225011   1.632   3.471   1.549
 8038SOL     OW25012   4.904   1.558   2.478
 8038SOL    HW125013   4.903   1.477   2.535
 8038SOL    HW225014   4.853   1.541   2.393
 8039SOL     OW25015   1.151   6.819   3.555
 8039SOL    HW125016   1.195   6.733   3.529
 8039SOL    HW225017   1.221   6.885   3.582
 8040SOL     OW25018   1.110   5.999   1.193
 8040SOL    HW125019   1.030   5.940   1.201
 8040SOL    HW225020   1.177   5.974   1.262
 8041SOL     OW25021   3.230   1.970   2.038
 8041SOL    HW125022   3.252   1.996   2.132
 8041SOL    HW225023   3.134   1.991   2.019
 8042SOL     OW25024   3.669   3.027   2.617
 8042SOL    HW125025   3.630   2.953   2.673
 8042SOL    HW225026   3.596   3.082   2.578
 8043SOL     OW25027   3.712   6.396   0.651
 8043SOL    HW125028   3.681   6.319   0.595
 8043SOL    HW225029   3.808   6.384   0.675
 8044SOL     OW25030   3.032   3.336   1.122
 8044SOL    HW125031   2.946   3.345   1.073
 8044SOL    HW225032   3.036   3.405   1.195
 8045SOL     OW25033   5.434   1.302   2.206
 8045SOL    HW125034   5.444   1.203   2.218
 8045SOL    HW225035   5.501   1.350   2.264
 8046SOL     OW25036   5.845   4.424   6.347
 8046SOL    HW125037   5.758   4.375   6.338
 8046SOL    HW225038   5.840   4.511   6.298
 8047SOL     OW25039   3.750   4.925   4.943
 8047SOL    HW125040   3.726   4.890   5.034
 8047SOL    HW225041   3.780   4.849   4.885
 8048SOL     OW25042   5.180   1.375   5.579
 8048SOL    HW125043   5.210   1.434   5.504
 8048SOL    HW225044   5.094   1.410   5.617
 8049SOL     OW25045   1.151   0.122   2.029
 8049SOL    HW125046   1.078   0.114   1.961
 8049SOL    HW225047   1.224   0.181   1.994
 8050SOL     OW25048   0.639   4.110   1.350
 8050SOL    HW125049   0.732   4.137   1.326
 8050SOL    HW225050   0.641   4.025   1.402
 8051SOL     OW25051   4.721   6.961   3.050
 8051SOL    HW125052   4.743   7.026   3.123
 8051SOL    HW225053   4.782   6.976   2.972
 8052SOL     OW25054   3.458   1.718   1.657
 8052SOL    HW125055   3.399   1.759   1.726
 8052SOL    HW225056   3.474   1.622   1.681
 8053SOL     OW25057   3.567   3.411   2.623
 8053SOL    HW125058   3.639   3.425   2.554
 8053SOL    HW225059   3.521   3.498   2.641
 8054SOL     OW25060   5.077   6.514   3.867
 8054SOL    HW125061   5.011   6.554   3.931
 8054SOL    HW225062   5.128   6.586   3.821
 8055SOL     OW25063   0.967   0.519   6.098
 8055SOL    HW125064   0.935   0.461   6.173
 8055SOL    HW225065   0.889   0.563   6.054
 8056SOL     OW25066   4.606   1.202   3.491
 8056SOL    HW125067   4.622   1.104   3.503
 8056SOL    HW225068   4.534   1.216   3.423
 8057SOL     OW25069   2.137   1.053   2.076
 8057SOL    HW125070   2.192   1.091   2.151
 8057SOL    HW225071   2.184   1.068   1.990
 8058SOL     OW25072   3.292   0.066   3.055
 8058SOL    HW125073   3.362   0.108   3.112
 8058SOL    HW225074   3.205   0.115   3.068
 8059SOL     OW25075   4.292   2.310   4.887
 8059SOL    HW125076   4.212   2.250   4.894
 8059SOL    HW225077   4.283   2.384   4.953
 8060SOL     OW25078   0.411   1.479   4.404
 8060SOL    HW125079   0.469   1.398   4.395
 8060SOL    HW225080   0.373   1.503   4.315
 8061SOL     OW25081   6.448   6.342   2.149
 8061SOL    HW125082   6.527   6.382   2.103
 8061SOL    HW225083   6.479   6.275   2.217
 8062SOL     OW25084   2.180   4.114   3.658
 8062SOL    HW125085   2.147   4.208   3.664
 8062SOL    HW225086   2.183   4.074   3.750
 8063SOL     OW25087   1.581   3.784   0.790
 8063SOL    HW125088   1.636   3.830   0.860
 8063SOL    HW225089   1.488   3.820   0.792
 8064SOL     OW25090   0.191   4.591   1.008
 8064SOL    HW125091   0.119   4.524   1.025
 8064SOL    HW225092   0.159   4.683   1.033
 8065SOL     OW25093   4.296   6.424   3.582
 8065SOL    HW125094   4.229   6.372   3.635
 8065SOL    HW225095   4.256   6.449   3.493
 8066SOL     OW25096   1.400   1.602   6.667
 8066SOL    HW125097   1.412   1.504   6.685
 8066SOL    HW225098   1.425   1.622   6.572
 8067SOL     OW25099   4.683   3.298   1.524
 8067SOL    HW125100   4.737   3.299   1.608
 8067SOL    HW225101   4.733   3.345   1.452
 8068SOL     OW25102   6.587   5.386   6.080
 8068SOL    HW125103   6.531   5.469   6.089
 8068SOL    HW225104   6.679   5.410   6.050
 8069SOL     OW25105   2.466   5.579   1.656
 8069SOL    HW125106   2.403   5.608   1.585
 8069SOL    HW225107   2.509   5.660   1.697
 8070SOL     OW25108   2.880   4.425   0.802
 8070SOL    HW125109   2.898   4.353   0.735
 8070SOL    HW225110   2.845   4.384   0.886
 8071SOL     OW25111   3.405   6.412   4.897
 8071SOL    HW125112   3.426   6.316   4.916
 8071SOL    HW225113   3.450   6.470   4.965
 8072SOL     OW25114   3.172   1.011   0.751
 8072SOL    HW125115   3.214   0.928   0.714
 8072SOL    HW225116   3.240   1.063   0.803
 8073SOL     OW25117   4.999   6.791   6.887
 8073SOL    HW125118   5.032   6.698   6.869
 8073SOL    HW225119   4.968   6.796   6.982
 8074SOL     OW25120   3.414   2.709   6.959
 8074SOL    HW125121   3.336   2.655   6.928
 8074SOL    HW225122   3.438   2.777   6.890
 8075SOL     OW25123   6.942   1.311   1.825
 8075SOL    HW125124   6.903   1.222   1.801
 8075SOL    HW225125   0.012   1.308   1.814
 8076SOL     OW25126   4.476   3.307   5.613
 8076SOL    HW125127   4.398   3.252   5.583
 8076SOL    HW225128   4.548   3.305   5.543
 8077SOL     OW25129   1.007   6.681   1.757
 8077SOL    HW125130   1.037   6.756   1.698
 8077SOL    HW225131   0.926   6.709   1.808
 8078SOL     OW25132   5.952   1.512   0.885
 8078SOL    HW125133   6.042   1.468   0.885
 8078SOL    HW225134   5.892   1.467   0.819
 8079SOL     OW25135   5.617   2.001   3.331
 8079SOL    HW125136   5.623   1.901   3.331
 8079SOL    HW225137   5.598   2.033   3.238
 8080SOL     OW25138   1.291   3.875   0.763
 8080SOL    HW125139   1.258   3.814   0.690
 8080SOL    HW225140   1.229   3.871   0.841
 8081SOL     OW25141   5.936   0.594   5.422
 8081SOL    HW125142   5.910   0.689   5.441
 8081SOL    HW225143   5.919   0.574   5.325
 8082SOL     OW25144   5.975   1.692   2.394
 8082SOL    HW125145   5.894   1.747   2.413
 8082SOL    HW225146   6.051   1.722   2.451
 8083SOL     OW25147   5.220   3.039   2.214
 8083SOL    HW125148   5.125   3.046   2.186
 8083SOL    HW225149   5.226   2.992   2.302
 8084SOL     OW25150   5.872   6.869   1.386
 8084SOL    HW125151   5.812   6.896   1.461
 8084SOL    HW225152   5.945   6.810   1.421
 8085SOL     OW25153   5.719   0.756   2.455
 8085SOL    HW125154   5.774   0.724   2.533
 8085SOL    HW225155   5.758   0.720   2.370
 8086SOL     OW25156   3.952   0.087   4.388
 8086SOL    HW125157   3.863   0.043   4.398
 8086SOL    HW225158   3.944   0.184   4.411
 8087SOL     OW25159   1.901   1.436   1.090
 8087SOL    HW125160   1.889   1.337   1.086
 8087SOL    HW225161   1.894   1.474   0.997
 8088SOL     OW25162   6.298   1.513   1.936
 8088SOL    HW125163   6.371   1.532   2.001
 8088SOL    HW225164   6.213   1.554   1.969
 8089SOL     OW25165   5.464   1.849   0.349
 8089SOL    HW125166   5.392   1.784   0.375
 8089SOL    HW225167   5.532   1.802   0.293
 8090SOL     OW25168   4.542   1.757   6.111
 8090SOL    HW125169   4.487   1.798   6.185
 8090SOL    HW225170   4.638   1.761   6.136
 8091SOL     OW25171   3.101   3.685   6.542
 8091SOL    HW125172   3.155   3.699   6.460
 8091SOL    HW225173   3.027   3.621   6.522
 8092SOL     OW25174   1.393   1.715   4.975
 8092SOL    HW125175   1.402   1.648   4.901
 8092SOL    HW225176   1.462   1.786   4.964
 8093SOL     OW25177   6.136   5.622   1.646
 8093SOL    HW125178   6.155   5.720   1.656
 8093SOL    HW225179   6.205   5.569   1.696
 8094SOL     OW25180   2.236   4.406   5.237
 8094SOL    HW125181   2.271   4.496   5.210
 8094SOL    HW225182   2.311   4.341   5.245
 8095SOL     OW25183   6.392   3.505   3.806
 8095SOL    HW125184   6.362   3.505   3.901
 8095SOL    HW225185   6.333   3.445   3.752
 8096SOL     OW25186   2.977   5.498   3.681
 8096SOL    HW125187   3.044   5.507   3.607
 8096SOL    HW225188   3.024   5.473   3.766
 8097SOL     OW25189   5.571   0.715   4.122
 8097SOL    HW125190   5.597   0.771   4.201
 8097SOL    HW225191   5.489   0.663   4.143
 8098SOL     OW25192   2.355   6.798   4.631
 8098SOL    HW125193   2.266   6.779   4.588
 8098SOL    HW225194   2.427   6.794   4.562
 8099SOL     OW25195   6.358   0.907   4.373
 8099SOL    HW125196   6.341   0.809   4.362
 8099SOL    HW225197   6.291   0.959   4.320
 8100SOL     OW25198   0.418   7.001   0.486
 8100SOL    HW125199   0.475   7.010   0.404
 8100SOL    HW225200   0.333   0.024   0.472
 8101SOL     OW25201   2.020   0.459   4.530
 8101SOL    HW125202   2.037   0.361   4.533
 8101SOL    HW225203   2.096   0.505   4.485
 8102SOL     OW25204   1.415   5.219   6.408
 8102SOL    HW125205   1.332   5.176   6.444
 8102SOL    HW225206   1.483   5.227   6.480
 8103SOL     OW25207   3.774   1.312   1.266
 8103SOL    HW125208   3.691   1.344   1.312
 8103SOL    HW225209   3.820   1.244   1.322
 8104SOL     OW25210   3.297   6.789   6.339
 8104SOL    HW125211   3.264   6.696   6.324
 8104SOL    HW225212   3.365   6.812   6.269
 8105SOL     OW25213   2.400   2.227   3.663
 8105SOL    HW125214   2.397   2.293   3.738
 8105SOL    HW225215   2.494   2.197   3.648
 8106SOL     OW25216   1.777   5.834   3.121
 8106SOL    HW125217   1.754   5.837   3.024
 8106SOL    HW225218   1.838   5.910   3.143
 8107SOL     OW25219   1.892   6.235   5.845
 8107SOL    HW125220   1.845   6.151   5.818
 8107SOL    HW225221   1.933   6.223   5.935
 8108SOL     OW25222   6.352   2.839   4.926
 8108SOL    HW125223   6.296   2.912   4.887
 8108SOL    HW225224   6.438   2.877   4.959
 8109SOL     OW25225   1.986   4.017   4.606
 8109SOL    HW125226   1.936   4.098   4.574
 8109SOL    HW225227   2.068   4.046   4.655
 8110SOL     OW25228   3.796   6.229   0.320
 8110SOL    HW125229   3.779   6.260   0.227
 8110SOL    HW225230   3.878   6.272   0.356
 8111SOL     OW25231   3.147   0.177   5.981
 8111SOL    HW125232   3.060   0.130   5.999
 8111SOL    HW225233   3.205   0.171   6.062
 8112SOL     OW25234   2.327   1.378   6.099
 8112SOL    HW125235   2.275   1.456   6.067
 8112SOL    HW225236   2.423   1.387   6.071
 8113SOL     OW25237   2.658   3.045   0.076
 8113SOL    HW125238   2.672   2.950   0.048
 8113SOL    HW225239   2.574   3.080   0.036
 8114SOL     OW25240   2.168   2.787   2.201
 8114SOL    HW125241   2.143   2.883   2.186
 8114SOL    HW225242   2.221   2.755   2.123
 8115SOL     OW25243   3.383   1.138   1.358
 8115SOL    HW125244   3.312   1.072   1.336
 8115SOL    HW225245   3.426   1.170   1.274
 8116SOL     OW25246   4.925   0.089   4.877
 8116SOL    HW125247   5.007   0.038   4.903
 8116SOL    HW225248   4.898   0.064   4.784
 8117SOL     OW25249   1.857   1.771   3.791
 8117SOL    HW125250   1.845   1.865   3.759
 8117SOL    HW225251   1.843   1.707   3.716
 8118SOL     OW25252   0.321   3.874   5.500
 8118SOL    HW125253   0.232   3.868   5.455
 8118SOL    HW225254   0.311   3.921   5.587
 8119SOL     OW25255   6.935   6.056   4.877
 8119SOL    HW125256   6.972   5.972   4.837
 8119SOL    HW225257   6.972   6.069   4.968
 8120SOL     OW25258   4.089   3.662   0.079
 8120SOL    HW125259   3.990   3.654   0.064
 8120SOL    HW225260   4.133   3.686   7.021
 8121SOL     OW25261   0.058   6.198   3.169
 8121SOL    HW125262   0.120   6.124   3.195
 8121SOL    HW225263   0.096   6.285   3.197
 8122SOL     OW25264   0.149   5.057   2.444
 8122SOL    HW125265   0.207   5.094   2.516
 8122SOL    HW225266   0.206   5.025   2.368
 8123SOL     OW25267   0.848   0.362   6.808
 8123SOL    HW125268   0.849   0.263   6.825
 8123SOL    HW225269   0.758   0.389   6.775
 8124SOL     OW25270   1.051   6.904   1.594
 8124SOL    HW125271   1.047   6.849   1.510
 8124SOL    HW225272   1.103   6.988   1.577
 8125SOL     OW25273   6.029   4.929   3.141
 8125SOL    HW125274   6.104   4.975   3.092
 8125SOL    HW225275   5.943   4.949   3.095
 8126SOL     OW25276   6.056   4.589   2.031
 8126SOL    HW125277   5.969   4.603   2.080
 8126SOL    HW225278   6.039   4.534   1.949
 8127SOL     OW25279   2.610   5.558   0.660
 8127SOL    HW125280   2.524   5.537   0.706
 8127SOL    HW225281   2.672   5.480   0.668
 8128SOL     OW25282   3.294   2.510   6.755
 8128SOL    HW125283   3.251   2.596   6.729
 8128SOL    HW225284   3.235   2.433   6.730
 8129SOL     OW25285   5.000   1.096   6.404
 8129SOL    HW125286   4.912   1.104   6.452
 8129SOL    HW225287   5.072   1.077   6.471
 8130SOL     OW25288   0.878   5.389   5.715
 8130SOL    HW125289   0.788   5.416   5.682
 8130SOL    HW225290   0.942   5.385   5.637
 8131SOL     OW25291   2.632   0.823   0.812
 8131SOL    HW125292   2.533   0.821   0.805
 8131SOL    HW225293   2.660   0.792   0.903
 8132SOL     OW25294   5.458   6.191   5.876
 8132SOL    HW125295   5.525   6.239   5.820
 8132SOL    HW225296   5.490   6.185   5.970
 8133SOL     OW25297   3.124   4.863   2.251
 8133SOL    HW125298   3.028   4.862   2.223
 8133SOL    HW225299   3.182   4.848   2.171
 8134SOL     OW25300   2.197   1.343   4.102
 8134SOL    HW125301   2.279   1.328   4.157
 8134SOL    HW225302   2.174   1.441   4.101
 8135SOL     OW25303   2.558   4.547   2.454
 8135SOL    HW125304   2.547   4.474   2.386
 8135SOL    HW225305   2.489   4.617   2.440
 8136SOL     OW25306   4.498   5.135   2.795
 8136SOL    HW125307   4.410   5.119   2.839
 8136SOL    HW225308   4.508   5.076   2.715
 8137SOL     OW25309   2.267   2.665   4.066
 8137SOL    HW125310   2.259   2.650   3.968
 8137SOL    HW225311   2.191   2.621   4.113
 8138SOL     OW25312   5.732   1.840   2.367
 8138SOL    HW125313   5.676   1.769   2.409
 8138SOL    HW225314   5.686   1.876   2.285
 8139SOL     OW25315   1.072   2.701   3.387
 8139SOL    HW125316   1.166   2.734   3.395
 8139SOL    HW225317   1.063   2.646   3.304
 8140SOL     OW25318   3.672   0.524   0.518
 8140SOL    HW125319   3.611   0.446   0.502
 8140SOL    HW225320   3.767   0.495   0.503
 8141SOL     OW25321   5.445   0.287   5.223
 8141SOL    HW125322   5.390   0.212   5.189
 8141SOL    HW225323   5.462   0.353   5.150
 8142SOL     OW25324   2.160   5.178   0.783
 8142SOL    HW125325   2.259   5.169   0.775
 8142SOL    HW225326   2.134   5.172   0.879
 8143SOL     OW25327   5.242   5.226   1.311
 8143SOL    HW125328   5.280   5.155   1.370
 8143SOL    HW225329   5.232   5.190   1.218
 8144SOL     OW25330   0.562   5.850   5.510
 8144SOL    HW125331   0.647   5.902   5.519
 8144SOL    HW225332   0.580   5.763   5.464
 8145SOL     OW25333   4.574   4.992   0.352
 8145SOL    HW125334   4.511   4.980   0.428
 8145SOL    HW225335   4.632   4.911   0.345
 8146SOL     OW25336   6.179   0.396   5.322
 8146SOL    HW125337   6.149   0.402   5.227
 8146SOL    HW225338   6.178   0.488   5.363
 8147SOL     OW25339   0.528   0.578   0.424
 8147SOL    HW125340   0.610   0.617   0.382
 8147SOL    HW225341   0.447   0.608   0.373
 8148SOL     OW25342   4.009   4.067   6.498
 8148SOL    HW125343   4.047   4.115   6.577
 8148SOL    HW225344   4.060   3.983   6.482
 8149SOL     OW25345   1.867   6.284   4.618
 8149SOL    HW125346   1.833   6.234   4.538
 8149SOL    HW225347   1.928   6.224   4.670
 8150SOL     OW25348   0.474   3.603   1.249
 8150SOL    HW125349   0.523   3.563   1.326
 8150SOL    HW225350   0.500   3.555   1.165
 8151SOL     OW25351   6.344   5.629   3.697
 8151SOL    HW125352   6.389   5.646   3.610
 8151SOL    HW225353   6.245   5.623   3.683
 8152SOL     OW25354   4.551   2.145   2.888
 8152SOL    HW125355   4.553   2.157   2.988
 8152SOL    HW225356   4.604   2.064   2.864
 8153SOL     OW25357   0.567   0.900   3.401
 8153SOL    HW125358   0.641   0.954   3.444
 8153SOL    HW225359   0.552   0.933   3.308
 8154SOL     OW25360   3.065   1.463   3.079
 8154SOL    HW125361   3.163   1.482   3.074
 8154SOL    HW225362   3.050   1.368   3.107
 8155SOL     OW25363   0.977   4.354   2.268
 8155SOL    HW125364   0.968   4.452   2.251
 8155SOL    HW225365   0.938   4.303   2.191
 8156SOL     OW25366   5.266   5.875   1.349
 8156SOL    HW125367   5.168   5.899   1.349
 8156SOL    HW225368   5.283   5.804   1.417
 8157SOL     OW25369   5.901   3.584   5.768
 8157SOL    HW125370   5.821   3.581   5.707
 8157SOL    HW225371   5.873   3.620   5.857
 8158SOL     OW25372   5.511   5.348   6.307
 8158SOL    HW125373   5.427   5.389   6.343
 8158SOL    HW225374   5.489   5.289   6.229
 8159SOL     OW25375   3.676   6.267   5.788
 8159SOL    HW125376   3.705   6.229   5.701
 8159SOL    HW225377   3.727   6.224   5.863
 8160SOL     OW25378   4.879   0.375   3.805
 8160SOL    HW125379   4.931   0.344   3.884
 8160SOL    HW225380   4.782   0.385   3.830
 8161SOL     OW25381   5.856   3.658   6.640
 8161SOL    HW125382   5.882   3.685   6.547
 8161SOL    HW225383   5.888   3.565   6.658
 8162SOL     OW25384   0.449   5.758   0.033
 8162SOL    HW125385   0.406   5.668   0.028
 8162SOL    HW225386   0.398   5.816   0.096
 8163SOL     OW25387   3.668   5.015   5.539
 8163SOL    HW125388   3.596   4.974   5.484
 8163SOL    HW225389   3.707   4.946   5.600
 8164SOL     OW25390   4.658   1.070   0.228
 8164SOL    HW125391   4.605   1.060   0.313
 8164SOL    HW225392   4.755   1.054   0.248
 8165SOL     OW25393   6.733   4.200   6.853
 8165SOL    HW125394   6.789   4.144   6.913
 8165SOL    HW225395   6.746   4.296   6.874
 8166SOL     OW25396   2.319   1.855   3.778
 8166SOL    HW125397   2.249   1.871   3.708
 8166SOL    HW225398   2.409   1.852   3.734
 8167SOL     OW25399   6.607   0.544   3.766
 8167SOL    HW125400   6.597   0.531   3.864
 8167SOL    HW225401   6.645   0.635   3.748
 8168SOL     OW25402   2.590   0.364   1.452
 8168SOL    HW125403   2.591   0.313   1.538
 8168SOL    HW225404   2.569   0.302   1.376
 8169SOL     OW25405   3.955   1.847   0.651
 8169SOL    HW125406   3.981   1.866   0.556
 8169SOL    HW225407   4.037   1.824   0.704
 8170SOL     OW25408   6.556   4.727   1.374
 8170SOL    HW125409   6.613   4.809   1.366
 8170SOL    HW225410   6.487   4.741   1.444
 8171SOL     OW25411   1.504   1.250   6.491
 8171SOL    HW125412   1.592   1.209   6.516
 8171SOL    HW225413   1.471   1.307   6.566
 8172SOL     OW25414   0.451   2.690   2.059
 8172SOL    HW125415   0.502   2.655   2.137
 8172SOL    HW225416   0.357   2.710   2.087
 8173SOL     OW25417   5.901   2.157   3.060
 8173SOL    HW125418   5.960   2.110   3.125
 8173SOL    HW225419   5.842   2.090   3.013
 8174SOL     OW25420   0.953   6.393   2.856
 8174SOL    HW125421   0.946   6.474   2.914
 8174SOL    HW225422   0.876   6.331   2.875
 8175SOL     OW25423   0.943   2.744   4.258
 8175SOL    HW125424   0.852   2.785   4.267
 8175SOL    HW225425   0.999   2.803   4.199
 8176SOL     OW25426   2.149   4.442   1.295
 8176SOL    HW125427   2.173   4.347   1.314
 8176SOL    HW225428   2.209   4.502   1.347
 8177SOL     OW25429   3.548   0.810   2.723
 8177SOL    HW125430   3.505   0.769   2.803
 8177SOL    HW225431   3.504   0.776   2.640
 8178SOL     OW25432   3.145   6.377   0.915
 8178SOL    HW125433   3.091   6.460   0.924
 8178SOL    HW225434   3.089   6.304   0.876
 8179SOL     OW25435   5.695   1.089   4.397
 8179SOL    HW125436   5.739   1.154   4.460
 8179SOL    HW225437   5.632   1.139   4.337
 8180SOL     OW25438   6.235   0.437   6.925
 8180SOL    HW125439   6.213   0.524   6.880
 8180SOL    HW225440   6.154   0.379   6.926
 8181SOL     OW25441   0.821   0.486   1.208
 8181SOL    HW125442   0.786   0.564   1.157
 8181SOL    HW225443   0.783   0.402   1.170
 8182SOL     OW25444   3.609   3.546   4.704
 8182SOL    HW125445   3.614   3.489   4.622
 8182SOL    HW225446   3.696   3.543   4.752
 8183SOL     OW25447   6.484   1.553   4.524
 8183SOL    HW125448   6.560   1.619   4.517
 8183SOL    HW225449   6.497   1.481   4.456
 8184SOL     OW25450   1.024   0.001   0.044
 8184SOL    HW125451   1.052   6.937   0.020
 8184SOL    HW225452   0.924   0.005   0.051
 8185SOL     OW25453   2.145   0.329   0.498
 8185SOL    HW125454   2.057   0.284   0.511
 8185SOL    HW225455   2.154   0.358   0.403
 8186SOL     OW25456   2.414   4.202   5.358
 8186SOL    HW125457   2.329   4.177   5.405
 8186SOL    HW225458   2.427   4.142   5.279
 8187SOL     OW25459   2.321   1.848   5.061
 8187SOL    HW125460   2.231   1.868   5.099
 8187SOL    HW225461   2.384   1.825   5.135
 8188SOL     OW25462   4.175   1.891   3.906
 8188SOL    HW125463   4.233   1.876   3.826
 8188SOL    HW225464   4.095   1.945   3.880
 8189SOL     OW25465   5.523   5.595   2.663
 8189SOL    HW125466   5.510   5.557   2.571
 8189SOL    HW225467   5.610   5.561   2.700
 8190SOL     OW25468   5.113   4.049   3.869
 8190SOL    HW125469   5.046   4.019   3.937
 8190SOL    HW225470   5.094   4.004   3.782
 8191SOL     OW25471   4.517   5.222   2.471
 8191SOL    HW125472   4.417   5.223   2.469
 8191SOL    HW225473   4.550   5.297   2.528
 8192SOL     OW25474   1.266   5.336   2.460
 8192SOL    HW125475   1.324   5.295   2.530
 8192SOL    HW225476   1.321   5.355   2.379
 8193SOL     OW25477   6.301   5.468   4.669
 8193SOL    HW125478   6.215   5.492   4.715
 8193SOL    HW225479   6.333   5.547   4.617
 8194SOL     OW25480   4.072   0.826   1.037
 8194SOL    HW125481   4.104   0.826   1.132
 8194SOL    HW225482   4.064   0.920   1.004
 8195SOL     OW25483   6.274   0.105   4.008
 8195SOL    HW125484   6.312   0.195   4.031
 8195SOL    HW225485   6.347   0.045   3.977
 8196SOL     OW25486   5.455   7.003   0.026
 8196SOL    HW125487   5.409   0.054   7.016
 8196SOL    HW225488   5.420   6.920   7.011
 8197SOL     OW25489   4.040   1.843   1.278
 8197SOL    HW125490   3.953   1.794   1.287
 8197SOL    HW225491   4.081   1.822   1.190
 8198SOL     OW25492   2.920   6.889   2.532
 8198SOL    HW125493   2.875   6.802   2.515
 8198SOL    HW225494   2.973   6.915   2.451
 8199SOL     OW25495   5.205   3.101   5.966
 8199SOL    HW125496   5.179   3.133   5.875
 8199SOL    HW225497   5.252   3.174   6.015
 8200SOL     OW25498   5.706   4.553   1.922
 8200SOL    HW125499   5.686   4.465   1.964
 8200SOL    HW225500   5.788   4.545   1.864
 8201SOL     OW25501   0.042   0.833   5.085
 8201SOL    HW125502   0.047   0.781   5.170
 8201SOL    HW225503   0.131   0.874   5.066
 8202SOL     OW25504   6.693   5.767   2.690
 8202SOL    HW125505   6.697   5.696   2.620
 8202SOL    HW225506   6.701   5.725   2.780
 8203SOL     OW25507   1.747   2.466   6.913
 8203SOL    HW125508   1.792   2.499   6.996
 8203SOL    HW225509   1.701   2.379   6.932
 8204SOL     OW25510   3.953   3.954   0.519
 8204SOL    HW125511   3.965   4.007   0.436
 8204SOL    HW225512   3.865   3.976   0.561
 8205SOL     OW25513   6.735   3.503   0.150
 8205SOL    HW125514   6.678   3.444   0.207
 8205SOL    HW225515   6.681   3.581   0.118
 8206SOL     OW25516   5.082   1.827   0.154
 8206SOL    HW125517   5.081   1.733   0.190
 8206SOL    HW225518   5.063   1.891   0.228
 8207SOL     OW25519   3.606   3.794   4.249
 8207SOL    HW125520   3.600   3.769   4.152
 8207SOL    HW225521   3.516   3.784   4.292
 8208SOL     OW25522   1.609   0.484   0.827
 8208SOL    HW125523   1.584   0.404   0.881
 8208SOL    HW225524   1.578   0.472   0.733
 8209SOL     OW25525   0.227   0.681   4.627
 8209SOL    HW125526   0.201   0.602   4.681
 8209SOL    HW225527   0.306   0.658   4.570
 8210SOL     OW25528   1.895   2.191   0.203
 8210SOL    HW125529   1.894   2.140   0.117
 8210SOL    HW225530   1.968   2.258   0.202
 8211SOL     OW25531   3.735   3.943   1.269
 8211SOL    HW125532   3.791   4.023   1.289
 8211SOL    HW225533   3.730   3.884   1.349
 8212SOL     OW25534   1.120   2.612   3.119
 8212SOL    HW125535   1.203   2.562   3.142
 8212SOL    HW225536   1.052   2.549   3.081
 8213SOL     OW25537   6.722   4.968   1.372
 8213SOL    HW125538   6.728   5.017   1.285
 8213SOL    HW225539   6.783   5.010   1.439
 8214SOL     OW25540   6.194   4.426   3.622
 8214SOL    HW125541   6.236   4.474   3.699
 8214SOL    HW225542   6.204   4.327   3.635
 8215SOL     OW25543   3.436   5.993   5.335
 8215SOL    HW125544   3.377   6.047   5.275
 8215SOL    HW225545   3.383   5.959   5.412
 8216SOL     OW25546   5.299   5.959   4.207
 8216SOL    HW125547   5.211   5.993   4.175
 8216SOL    HW225548   5.288   5.917   4.297
 8217SOL     OW25549   2.133   4.751   0.417
 8217SOL    HW125550   2.198   4.814   0.374
 8217SOL    HW225551   2.150   4.749   0.516
 8218SOL     OW25552   0.127   0.839   6.827
 8218SOL    HW125553   0.064   0.870   6.898
 8218SOL    HW225554   0.077   0.782   6.761
 8219SOL     OW25555   4.579   2.065   0.132
 8219SOL    HW125556   4.630   2.053   0.047
 8219SOL    HW225557   4.633   2.118   0.196
 8220SOL     OW25558   3.781   3.400   3.194
 8220SOL    HW125559   3.874   3.391   3.160
 8220SOL    HW225560   3.781   3.394   3.294
 8221SOL     OW25561   4.519   5.972   4.577
 8221SOL    HW125562   4.619   5.977   4.577
 8221SOL    HW225563   4.489   5.913   4.652
 8222SOL     OW25564   5.197   1.758   2.143
 8222SOL    HW125565   5.251   1.788   2.064
 8222SOL    HW225566   5.211   1.660   2.158
 8223SOL     OW25567   1.943   3.889   5.972
 8223SOL    HW125568   1.920   3.792   5.983
 8223SOL    HW225569   1.941   3.934   6.061
 8224SOL     OW25570   0.177   2.640   2.724
 8224SOL    HW125571   0.096   2.694   2.747
 8224SOL    HW225572   0.187   2.565   2.790
 8225SOL     OW25573   3.595   1.069   6.998
 8225SOL    HW125574   3.507   1.023   6.983
 8225SOL    HW225575   3.611   1.135   6.924
 8226SOL     OW25576   4.184   6.572   2.224
 8226SOL    HW125577   4.254   6.501   2.231
 8226SOL    HW225578   4.106   6.537   2.172
 8227SOL     OW25579   7.013   2.792   3.484
 8227SOL    HW125580   6.914   2.800   3.481
 8227SOL    HW225581   0.023   2.869   3.535
 8228SOL     OW25582   0.333   2.773   5.805
 8228SOL    HW125583   0.255   2.836   5.803
 8228SOL    HW225584   0.350   2.744   5.899
 8229SOL     OW25585   3.691   4.187   0.403
 8229SOL    HW125586   3.784   4.224   0.416
 8229SOL    HW225587   3.625   4.262   0.404
 8230SOL     OW25588   4.291   0.006   5.215
 8230SOL    HW125589   4.208   0.062   5.214
 8230SOL    HW225590   4.267   6.938   5.215
 8231SOL     OW25591   4.407   5.299   0.733
 8231SOL    HW125592   4.364   5.351   0.659
 8231SOL    HW225593   4.461   5.361   0.789
 8232SOL     OW25594   5.489   1.626   0.960
 8232SOL    HW125595   5.428   1.567   1.013
 8232SOL    HW225596   5.567   1.652   1.016
 8233SOL     OW25597   0.852   6.162   6.402
 8233SOL    HW125598   0.782   6.191   6.467
 8233SOL    HW225599   0.809   6.111   6.328
 8234SOL     OW25600   2.730   4.052   0.059
 8234SOL    HW125601   2.809   4.018   0.006
 8234SOL    HW225602   2.658   3.983   0.059
 8235SOL     OW25603   1.473   3.550   0.693
 8235SOL    HW125604   1.375   3.560   0.678
 8235SOL    HW225605   1.508   3.633   0.738
 8236SOL     OW25606   6.822   4.160   6.614
 8236SOL    HW125607   6.772   4.076   6.594
 8236SOL    HW225608   6.777   4.210   6.688
 8237SOL     OW25609   4.436   6.247   4.601
 8237SOL    HW125610   4.444   6.149   4.583
 8237SOL    HW225611   4.474   6.267   4.691
 8238SOL     OW25612   1.109   4.709   6.944
 8238SOL    HW125613   1.035   4.648   6.913
 8238SOL    HW225614   1.161   4.740   6.864
 8239SOL     OW25615   6.563   1.446   5.112
 8239SOL    HW125616   6.588   1.396   5.195
 8239SOL    HW225617   6.608   1.404   5.033
 8240SOL     OW25618   3.371   4.133   2.793
 8240SOL    HW125619   3.437   4.169   2.858
 8240SOL    HW225620   3.285   4.184   2.800
 8241SOL     OW25621   3.645   6.873   0.228
 8241SOL    HW125622   3.660   6.972   0.228
 8241SOL    HW225623   3.733   6.826   0.236
 8242SOL     OW25624   0.823   4.862   5.876
 8242SOL    HW125625   0.810   4.942   5.933
 8242SOL    HW225626   0.733   4.826   5.848
 8243SOL     OW25627   1.119   2.580   0.333
 8243SOL    HW125628   1.085   2.560   0.425
 8243SOL    HW225629   1.049   2.632   0.283
 8244SOL     OW25630   1.290   0.074   3.967
 8244SOL    HW125631   1.281   0.153   3.906
 8244SOL    HW225632   1.387   0.054   3.981
 8245SOL     OW25633   4.287   1.492   3.048
 8245SOL    HW125634   4.259   1.588   3.041
 8245SOL    HW225635   4.364   1.475   2.987
 8246SOL     OW25636   0.089   3.142   5.819
 8246SOL    HW125637   0.165   3.079   5.833
 8246SOL    HW225638   0.046   3.163   5.908
 8247SOL     OW25639   0.824   6.894   2.109
 8247SOL    HW125640   0.801   6.837   2.188
 8247SOL    HW225641   0.881   6.971   2.138
 8248SOL     OW25642   6.056   5.017   4.038
 8248SOL    HW125643   6.152   4.999   4.059
 8248SOL    HW225644   6.032   5.109   4.068
 8249SOL     OW25645   2.021   2.807   5.113
 8249SOL    HW125646   1.974   2.844   5.033
 8249SOL    HW225647   2.117   2.792   5.093
 8250SOL     OW25648   3.228   4.114   2.289
 8250SOL    HW125649   3.231   4.103   2.388
 8250SOL    HW225650   3.196   4.207   2.267
 8251SOL     OW25651   6.015   3.051   4.124
 8251SOL    HW125652   6.080   3.097   4.185
 8251SOL    HW225653   5.954   2.993   4.178
 8252SOL     OW25654   3.331   2.379   6.158
 8252SOL    HW125655   3.354   2.440   6.234
 8252SOL    HW225656   3.412   2.326   6.133
 8253SOL     OW25657   4.339   4.301   5.403
 8253SOL    HW125658   4.270   4.243   5.447
 8253SOL    HW225659   4.297   4.351   5.328
 8254SOL     OW25660   4.245   4.821   4.966
 8254SOL    HW125661   4.249   4.724   4.942
 8254SOL    HW225662   4.174   4.866   4.911
 8255SOL     OW25663   2.899   6.196   4.989
 8255SOL    HW125664   2.858   6.129   5.050
 8255SOL    HW225665   2.912   6.155   4.898
 8256SOL     OW25666   6.248   0.744   2.346
 8256SOL    HW125667   6.229   0.655   2.304
 8256SOL    HW225668   6.171   0.770   2.405
 8257SOL     OW25669   6.607   3.858   3.632
 8257SOL    HW125670   6.555   3.793   3.577
 8257SOL    HW225671   6.579   3.951   3.610
 8258SOL     OW25672   5.230   1.177   0.933
 8258SOL    HW125673   5.238   1.245   0.860
 8258SOL    HW225674   5.213   1.087   0.892
 8259SOL     OW25675   4.277   1.947   3.359
 8259SOL    HW125676   4.375   1.963   3.355
 8259SOL    HW225677   4.229   2.035   3.361
 8260SOL     OW25678   2.708   6.842   2.044
 8260SOL    HW125679   2.757   6.929   2.051
 8260SOL    HW225680   2.610   6.858   2.053
 8261SOL     OW25681   6.156   1.408   2.319
 8261SOL    HW125682   6.213   1.360   2.252
 8261SOL    HW225683   6.066   1.427   2.279
 8262SOL     OW25684   0.364   2.750   0.633
 8262SOL    HW125685   0.314   2.665   0.650
 8262SOL    HW225686   0.300   2.825   0.618
 8263SOL     OW25687   1.024   2.284   0.591
 8263SOL    HW125688   0.929   2.291   0.561
 8263SOL    HW225689   1.030   2.308   0.688
 8264SOL     OW25690   2.806   6.095   2.891
 8264SOL    HW125691   2.758   6.020   2.936
 8264SOL    HW225692   2.749   6.133   2.818
 8265SOL     OW25693   0.875   6.761   1.017
 8265SOL    HW125694   0.869   6.707   1.102
 8265SOL    HW225695   0.964   6.805   1.012
 8266SOL     OW25696   2.355   1.446   3.852
 8266SOL    HW125697   2.431   1.510   3.848
 8266SOL    HW225698   2.330   1.429   3.947
 8267SOL     OW25699   1.256   2.668   0.809
 8267SOL    HW125700   1.335   2.609   0.799
 8267SOL    HW225701   1.198   2.661   0.728
 8268SOL     OW25702   2.372   6.505   5.580
 8268SOL    HW125703   2.457   6.554   5.559
 8268SOL    HW225704   2.383   6.409   5.556
 8269SOL     OW25705   4.805   1.590   2.206
 8269SOL    HW125706   4.873   1.546   2.148
 8269SOL    HW225707   4.832   1.685   2.224
 8270SOL     OW25708   2.997   6.938   4.990
 8270SOL    HW125709   3.054   6.952   5.071
 8270SOL    HW225710   3.047   6.884   4.923
 8271SOL     OW25711   6.625   0.514   2.567
 8271SOL    HW125712   6.692   0.484   2.499
 8271SOL    HW225713   6.564   0.581   2.526
 8272SOL     OW25714   4.668   2.146   1.468
 8272SOL    HW125715   4.580   2.109   1.501
 8272SOL    HW225716   4.685   2.234   1.511
 8273SOL     OW25717   2.703   6.528   0.790
 8273SOL    HW125718   2.695   6.435   0.754
 8273SOL    HW225719   2.639   6.588   0.742
 8274SOL     OW25720   5.431   5.152   2.995
 8274SOL    HW125721   5.434   5.151   2.895
 8274SOL    HW225722   5.337   5.168   3.026
 8275SOL     OW25723   4.902   1.380   5.596
 8275SOL    HW125724   4.933   1.362   5.503
 8275SOL    HW225725   4.803   1.367   5.601
 8276SOL     OW25726   0.997   2.072   3.475
 8276SOL    HW125727   0.907   2.065   3.517
 8276SOL    HW225728   0.995   2.031   3.383
 8277SOL     OW25729   6.498   0.187   1.143
 8277SOL    HW125730   6.497   0.112   1.209
 8277SOL    HW225731   6.523   0.152   1.053
 8278SOL     OW25732   2.715   2.128   5.320
 8278SOL    HW125733   2.763   2.215   5.312
 8278SOL    HW225734   2.781   2.054   5.334
 8279SOL     OW25735   1.514   0.383   3.928
 8279SOL    HW125736   1.596   0.433   3.955
 8279SOL    HW225737   1.436   0.446   3.925
 8280SOL     OW25738   2.324   3.092   0.449
 8280SOL    HW125739   2.398   3.046   0.497
 8280SOL    HW225740   2.279   3.156   0.512
 8281SOL     OW25741   2.465   4.761   1.561
 8281SOL    HW125742   2.411   4.769   1.644
 8281SOL    HW225743   2.560   4.738   1.584
 8282SOL     OW25744   5.303   3.573   0.080
 8282SOL    HW125745   5.302   3.557   7.010
 8282SOL    HW225746   5.237   3.513   0.124
 8283SOL     OW25747   2.047   5.323   6.863
 8283SOL    HW125748   1.986   5.402   6.858
 8283SOL    HW225749   2.106   5.321   6.783
 8284SOL     OW25750   0.953   3.606   0.921
 8284SOL    HW125751   0.920   3.584   0.829
 8284SOL    HW225752   0.959   3.522   0.975
 8285SOL     OW25753   3.124   3.096   4.922
 8285SOL    HW125754   3.065   3.095   5.004
 8285SOL    HW225755   3.125   3.189   4.884
 8286SOL     OW25756   5.392   3.117   6.253
 8286SOL    HW125757   5.312   3.151   6.304
 8286SOL    HW225758   5.374   3.024   6.221
 8287SOL     OW25759   2.041   5.379   4.258
 8287SOL    HW125760   2.089   5.350   4.176
 8287SOL    HW225761   1.982   5.304   4.290
 8288SOL     OW25762   2.996   1.363   1.471
 8288SOL    HW125763   3.045   1.415   1.401
 8288SOL    HW225764   2.935   1.298   1.426
 8289SOL     OW25765   0.896   5.318   1.013
 8289SOL    HW125766   0.889   5.416   0.994
 8289SOL    HW225767   0.807   5.283   1.042
 8290SOL     OW25768   5.718   1.399   1.056
 8290SOL    HW125769   5.745   1.481   1.006
 8290SOL    HW225770   5.732   1.413   1.154
 8291SOL     OW25771   5.625   6.299   5.658
 8291SOL    HW125772   5.661   6.233   5.592
 8291SOL    HW225773   5.567   6.365   5.612
 8292SOL     OW25774   2.701   5.965   0.033
 8292SOL    HW125775   2.783   5.909   0.019
 8292SOL    HW225776   2.677   5.965   0.130
 8293SOL     OW25777   4.002   6.477   0.137
 8293SOL    HW125778   3.905   6.452   0.147
 8293SOL    HW225779   4.053   6.444   0.216
 8294SOL     OW25780   5.672   4.488   5.154
 8294SOL    HW125781   5.631   4.408   5.109
 8294SOL    HW225782   5.744   4.458   5.216
 8295SOL     OW25783   4.975   5.783   1.523
 8295SOL    HW125784   4.939   5.846   1.591
 8295SOL    HW225785   4.914   5.705   1.514
 8296SOL     OW25786   2.059   5.957   6.105
 8296SOL    HW125787   2.008   6.044   6.106
 8296SOL    HW225788   2.142   5.968   6.050
 8297SOL     OW25789   6.331   2.874   2.163
 8297SOL    HW125790   6.410   2.936   2.156
 8297SOL    HW225791   6.323   2.820   2.080
 8298SOL     OW25792   6.030   1.735   1.302
 8298SOL    HW125793   6.067   1.679   1.377
 8298SOL    HW225794   5.963   1.799   1.338
 8299SOL     OW25795   6.516   2.860   1.836
 8299SOL    HW125796   6.583   2.792   1.807
 8299SOL    HW225797   6.554   2.952   1.826
 8300SOL     OW25798   0.274   6.393   5.036
 8300SOL    HW125799   0.308   6.448   4.960
 8300SOL    HW225800   0.302   6.298   5.024
 8301SOL     OW25801   4.136   1.638   1.958
 8301SOL    HW125802   4.110   1.548   1.991
 8301SOL    HW225803   4.055   1.697   1.952
 8302SOL     OW25804   6.089   5.868   6.765
 8302SOL    HW125805   6.107   5.966   6.764
 8302SOL    HW225806   6.174   5.818   6.748
 8303SOL     OW25807   6.464   0.604   4.402
 8303SOL    HW125808   6.404   0.594   4.323
 8303SOL    HW225809   6.520   0.522   4.413
 8304SOL     OW25810   0.490   3.827   1.090
 8304SOL    HW125811   0.449   3.757   1.148
 8304SOL    HW225812   0.575   3.859   1.132
 8305SOL     OW25813   4.124   5.100   4.256
 8305SOL    HW125814   4.068   5.022   4.230
 8305SOL    HW225815   4.217   5.088   4.220
 8306SOL     OW25816   0.051   2.748   5.952
 8306SOL    HW125817   6.997   2.788   5.913
 8306SOL    HW225818   0.076   2.796   6.036
 8307SOL     OW25819   3.958   5.263   1.575
 8307SOL    HW125820   3.993   5.209   1.498
 8307SOL    HW225821   4.009   5.238   1.658
 8308SOL     OW25822   3.834   5.373   1.083
 8308SOL    HW125823   3.834   5.280   1.121
 8308SOL    HW225824   3.741   5.398   1.056
 8309SOL     OW25825   5.875   5.819   3.549
 8309SOL    HW125826   5.861   5.744   3.614
 8309SOL    HW225827   5.857   5.787   3.456
 8310SOL     OW25828   0.576   4.373   0.402
 8310SOL    HW125829   0.670   4.390   0.432
 8310SOL    HW225830   0.526   4.460   0.398
 8311SOL     OW25831   0.912   1.363   4.643
 8311SOL    HW125832   0.955   1.403   4.563
 8311SOL    HW225833   0.888   1.435   4.709
 8312SOL     OW25834   4.624   6.817   0.445
 8312SOL    HW125835   4.609   6.901   0.497
 8312SOL    HW225836   4.687   6.758   0.495
 8313SOL     OW25837   4.843   0.812   2.448
 8313SOL    HW125838   4.937   0.841   2.426
 8313SOL    HW225839   4.784   0.830   2.369
 8314SOL     OW25840   4.387   0.474   1.016
 8314SOL    HW125841   4.366   0.382   0.983
 8314SOL    HW225842   4.350   0.486   1.108
 8315SOL     OW25843   3.932   3.236   1.164
 8315SOL    HW125844   4.031   3.225   1.153
 8315SOL    HW225845   3.910   3.333   1.175
 8316SOL     OW25846   0.273   2.340   1.989
 8316SOL    HW125847   0.250   2.430   2.026
 8316SOL    HW225848   0.371   2.324   2.000
 8317SOL     OW25849   2.225   2.410   2.914
 8317SOL    HW125850   2.201   2.405   2.817
 8317SOL    HW225851   2.315   2.369   2.929
 8318SOL     OW25852   4.351   1.273   4.810
 8318SOL    HW125853   4.373   1.272   4.712
 8318SOL    HW225854   4.435   1.284   4.863
 8319SOL     OW25855   2.778   1.236   6.678
 8319SOL    HW125856   2.692   1.186   6.669
 8319SOL    HW225857   2.838   1.214   6.602
 8320SOL     OW25858   3.436   3.540   1.773
 8320SOL    HW125859   3.348   3.522   1.816
 8320SOL    HW225860   3.457   3.638   1.782
 8321SOL     OW25861   7.003   0.678   0.217
 8321SOL    HW125862   0.024   0.750   0.266
 8321SOL    HW225863   0.037   0.604   0.192
 8322SOL     OW25864   0.089   0.510   0.497
 8322SOL    HW125865   0.136   0.493   0.410
 8322SOL    HW225866   0.140   0.466   0.571
 8323SOL     OW25867   5.740   5.549   2.336
 8323SOL    HW125868   5.682   5.487   2.388
 8323SOL    HW225869   5.835   5.538   2.364
 8324SOL     OW25870   5.353   0.785   1.602
 8324SOL    HW125871   5.443   0.826   1.608
 8324SOL    HW225872   5.350   0.721   1.525
 8325SOL     OW25873   3.003   3.377   5.247
 8325SOL    HW125874   3.072   3.387   5.318
 8325SOL    HW225875   2.950   3.461   5.239
 8326SOL     OW25876   5.081   3.279   5.286
 8326SOL    HW125877   4.988   3.277   5.249
 8326SOL    HW225878   5.096   3.198   5.342
 8327SOL     OW25879   6.020   2.028   5.909
 8327SOL    HW125880   5.968   2.106   5.873
 8327SOL    HW225881   6.114   2.057   5.927
 8328SOL     OW25882   2.556   4.419   5.492
 8328SOL    HW125883   2.566   4.477   5.411
 8328SOL    HW225884   2.522   4.329   5.464
 8329SOL     OW25885   0.107   3.603   6.346
 8329SOL    HW125886   0.184   3.659   6.316
 8329SOL    HW225887   0.025   3.660   6.354
 8330SOL     OW25888   2.829   6.482   0.466
 8330SOL    HW125889   2.900   6.508   0.533
 8330SOL    HW225890   2.797   6.564   0.418
 8331SOL     OW25891   2.651   1.779   1.390
 8331SOL    HW125892   2.661   1.789   1.489
 8331SOL    HW225893   2.663   1.683   1.364
 8332SOL     OW25894   5.229   5.099   2.537
 8332SOL    HW125895   5.258   5.044   2.458
 8332SOL    HW225896   5.131   5.119   2.529
 8333SOL     OW25897   0.638   6.460   6.536
 8333SOL    HW125898   0.628   6.361   6.543
 8333SOL    HW225899   0.712   6.491   6.596
 8334SOL     OW25900   4.244   1.382   3.685
 8334SOL    HW125901   4.288   1.336   3.762
 8334SOL    HW225902   4.186   1.316   3.636
 8335SOL     OW25903   6.394   5.477   6.391
 8335SOL    HW125904   6.299   5.445   6.390
 8335SOL    HW225905   6.414   5.524   6.304
 8336SOL     OW25906   6.265   0.186   2.704
 8336SOL    HW125907   6.313   0.152   2.786
 8336SOL    HW225908   6.305   0.144   2.623
 8337SOL     OW25909   0.642   5.928   3.194
 8337SOL    HW125910   0.682   5.870   3.123
 8337SOL    HW225911   0.612   5.872   3.271
 8338SOL     OW25912   2.089   5.156   1.951
 8338SOL    HW125913   2.108   5.058   1.955
 8338SOL    HW225914   1.993   5.171   1.927
 8339SOL     OW25915   5.695   0.592   2.107
 8339SOL    HW125916   5.794   0.605   2.117
 8339SOL    HW225917   5.672   0.584   2.010
 8340SOL     OW25918   5.129   3.371   1.686
 8340SOL    HW125919   5.108   3.280   1.651
 8340SOL    HW225920   5.129   3.437   1.611
 8341SOL     OW25921   2.225   6.321   6.434
 8341SOL    HW125922   2.229   6.224   6.409
 8341SOL    HW225923   2.133   6.356   6.416
 8342SOL     OW25924   3.748   0.059   1.495
 8342SOL    HW125925   3.847   0.064   1.476
 8342SOL    HW225926   3.699   0.048   1.408
 8343SOL     OW25927   0.778   5.050   6.064
 8343SOL    HW125928   0.804   5.145   6.045
 8343SOL    HW225929   0.686   5.048   6.101
 8344SOL     OW25930   4.197   0.514   5.182
 8344SOL    HW125931   4.251   0.501   5.265
 8344SOL    HW225932   4.108   0.551   5.205
 8345SOL     OW25933   4.879   1.744   3.665
 8345SOL    HW125934   4.919   1.729   3.574
 8345SOL    HW225935   4.950   1.774   3.728
 8346SOL     OW25936   2.099   4.403   0.755
 8346SOL    HW125937   2.196   4.404   0.779
 8346SOL    HW225938   2.071   4.309   0.735
 8347SOL     OW25939   3.795   5.480   4.830
 8347SOL    HW125940   3.732   5.551   4.864
 8347SOL    HW225941   3.758   5.390   4.852
 8348SOL     OW25942   1.371   6.703   2.419
 8348SOL    HW125943   1.386   6.628   2.355
 8348SOL    HW225944   1.273   6.715   2.434
 8349SOL     OW25945   6.165   6.592   1.676
 8349SOL    HW125946   6.256   6.613   1.712
 8349SOL    HW225947   6.110   6.549   1.747
 8350SOL     OW25948   4.641   0.877   4.627
 8350SOL    HW125949   4.606   0.783   4.627
 8350SOL    HW225950   4.619   0.921   4.714
 8351SOL     OW25951   4.749   5.005   3.967
 8351SOL    HW125952   4.756   4.937   4.040
 8351SOL    HW225953   4.718   4.960   3.883
 8352SOL     OW25954   7.002   5.958   2.949
 8352SOL    HW125955   6.986   6.017   2.870
 8352SOL    HW225956   6.996   6.012   3.033
 8353SOL     OW25957   6.660   3.713   1.217
 8353SOL    HW125958   6.591   3.641   1.207
 8353SOL    HW225959   6.720   3.714   1.138
 8354SOL     OW25960   4.036   0.126   0.105
 8354SOL    HW125961   4.066   0.035   0.133
 8354SOL    HW225962   4.115   0.178   0.072
 8355SOL     OW25963   3.261   0.368   6.998
 8355SOL    HW125964   3.301   0.447   0.017
 8355SOL    HW225965   3.332   0.319   6.949
 8356SOL     OW25966   1.983   6.258   1.060
 8356SOL    HW125967   2.080   6.278   1.043
 8356SOL    HW225968   1.971   6.160   1.075
 8357SOL     OW25969   3.836   0.214   5.829
 8357SOL    HW125970   3.935   0.202   5.840
 8357SOL    HW225971   3.809   0.305   5.860
 8358SOL     OW25972   1.063   3.406   5.613
 8358SOL    HW125973   1.149   3.372   5.652
 8358SOL    HW225974   1.061   3.388   5.515
 8359SOL     OW25975   2.691   6.357   4.762
 8359SOL    HW125976   2.625   6.431   4.779
 8359SOL    HW225977   2.660   6.274   4.807
 8360SOL     OW25978   3.645   6.066   1.019
 8360SOL    HW125979   3.693   6.026   1.097
 8360SOL    HW225980   3.707   6.072   0.941
 8361SOL     OW25981   2.397   0.049   2.935
 8361SOL    HW125982   2.485   0.043   2.981
 8361SOL    HW225983   2.406   0.103   2.851
 8362SOL     OW25984   3.099   1.557   0.996
 8362SOL    HW125985   3.085   1.655   1.013
 8362SOL    HW225986   3.098   1.539   0.898
 8363SOL     OW25987   0.734   2.421   0.127
 8363SOL    HW125988   0.711   2.325   0.147
 8363SOL    HW225989   0.730   2.437   0.029
 8364SOL     OW25990   6.506   3.064   2.629
 8364SOL    HW125991   6.601   3.040   2.611
 8364SOL    HW225992   6.461   3.091   2.543
 8365SOL     OW25993   1.848   4.114   1.728
 8365SOL    HW125994   1.807   4.087   1.641
 8365SOL    HW225995   1.776   4.126   1.797
 8366SOL     OW25996   2.529   5.769   2.357
 8366SOL    HW125997   2.491   5.682   2.390
 8366SOL    HW225998   2.460   5.818   2.304
 8367SOL     OW25999   4.030   6.076   3.913
 8367SOL    HW126000   3.945   6.093   3.862
 8367SOL    HW226001   4.009   6.029   3.998
 8368SOL     OW26002   1.970   6.659   5.882
 8368SOL    HW126003   2.061   6.654   5.841
 8368SOL    HW226004   1.923   6.742   5.853
 8369SOL     OW26005   1.899   6.700   6.742
 8369SOL    HW126006   1.984   6.717   6.792
 8369SOL    HW226007   1.909   6.732   6.648
 8370SOL     OW26008   2.316   2.082   5.833
 8370SOL    HW126009   2.254   2.143   5.784
 8370SOL    HW226010   2.408   2.089   5.794
 8371SOL     OW26011   2.123   4.186   1.381
 8371SOL    HW126012   2.142   4.087   1.380
 8371SOL    HW226013   2.029   4.201   1.350
 8372SOL     OW26014   0.200   5.844   2.494
 8372SOL    HW126015   0.279   5.898   2.466
 8372SOL    HW226016   0.172   5.784   2.419
 8373SOL     OW26017   1.221   0.424   4.309
 8373SOL    HW126018   1.221   0.520   4.282
 8373SOL    HW226019   1.313   0.386   4.298
 8374SOL     OW26020   6.676   0.819   5.776
 8374SOL    HW126021   6.624   0.900   5.749
 8374SOL    HW226022   6.737   0.843   5.852
 8375SOL     OW26023   3.988   0.040   6.302
 8375SOL    HW126024   4.081   0.034   6.337
 8375SOL    HW226025   3.979   7.011   6.221
 8376SOL     OW26026   1.989   0.564   4.140
 8376SOL    HW126027   1.984   0.645   4.198
 8376SOL    HW226028   2.082   0.554   4.105
 8377SOL     OW26029   5.656   5.755   1.461
 8377SOL    HW126030   5.744   5.736   1.504
 8377SOL    HW226031   5.585   5.700   1.506
 8378SOL     OW26032   4.280   5.097   2.946
 8378SOL    HW126033   4.183   5.100   2.972
 8378SOL    HW226034   4.336   5.131   3.022
 8379SOL     OW26035   6.118   2.338   1.272
 8379SOL    HW126036   6.052   2.413   1.272
 8379SOL    HW226037   6.207   2.373   1.244
 8380SOL     OW26038   6.811   1.651   2.689
 8380SOL    HW126039   6.722   1.614   2.719
 8380SOL    HW226040   6.883   1.586   2.714
 8381SOL     OW26041   0.068   3.867   5.411
 8381SOL    HW126042   0.043   3.825   5.323
 8381SOL    HW226043   7.019   3.920   5.445
 8382SOL     OW26044   1.758   0.480   1.856
 8382SOL    HW126045   1.722   0.391   1.884
 8382SOL    HW226046   1.856   0.485   1.879
 8383SOL     OW26047   2.468   0.355   6.099
 8383SOL    HW126048   2.435   0.300   6.023
 8383SOL    HW226049   2.535   0.303   6.151
 8384SOL     OW26050   0.160   0.390   0.246
 8384SOL    HW126051   0.112   0.315   0.201
 8384SOL    HW226052   0.228   0.428   0.184
 8385SOL     OW26053   6.216   2.190   1.489
 8385SOL    HW126054   6.180   2.238   1.409
 8385SOL    HW226055   6.140   2.163   1.548
 8386SOL     OW26056   0.655   4.467   1.862
 8386SOL    HW126057   0.716   4.466   1.783
 8386SOL    HW226058   0.572   4.414   1.842
 8387SOL     OW26059   1.273   1.380   1.869
 8387SOL    HW126060   1.319   1.401   1.782
 8387SOL    HW226061   1.181   1.346   1.851
 8388SOL     OW26062   1.569   6.257   0.229
 8388SOL    HW126063   1.667   6.265   0.208
 8388SOL    HW226064   1.548   6.162   0.251
 8389SOL     OW26065   5.831   3.904   2.983
 8389SOL    HW126066   5.860   3.827   2.926
 8389SOL    HW226067   5.835   3.877   3.079
 8390SOL     OW26068   4.121   0.997   6.080
 8390SOL    HW126069   4.135   0.948   6.166
 8390SOL    HW226070   4.172   1.082   6.081
 8391SOL     OW26071   6.238   5.380   0.022
 8391SOL    HW126072   6.188   5.401   0.106
 8391SOL    HW226073   6.317   5.324   0.043
 8392SOL     OW26074   0.120   3.580   4.072
 8392SOL    HW126075   0.088   3.598   4.165
 8392SOL    HW226076   0.089   3.653   4.011
 8393SOL     OW26077   6.341   0.837   2.053
 8393SOL    HW126078   6.392   0.816   2.136
 8393SOL    HW226079   6.244   0.816   2.067
 8394SOL     OW26080   6.114   3.016   1.354
 8394SOL    HW126081   6.202   2.985   1.389
 8394SOL    HW226082   6.041   2.990   1.418
 8395SOL     OW26083   2.769   6.796   5.729
 8395SOL    HW126084   2.843   6.783   5.663
 8395SOL    HW226085   2.800   6.767   5.820
 8396SOL     OW26086   4.787   4.750   3.310
 8396SOL    HW126087   4.791   4.664   3.360
 8396SOL    HW226088   4.840   4.819   3.359
 8397SOL     OW26089   1.327   1.365   3.042
 8397SOL    HW126090   1.396   1.293   3.047
 8397SOL    HW226091   1.295   1.386   3.134
 8398SOL     OW26092   4.412   2.805   5.997
 8398SOL    HW126093   4.341   2.799   6.066
 8398SOL    HW226094   4.491   2.854   6.034
 8399SOL     OW26095   6.148   6.610   6.598
 8399SOL    HW126096   6.111   6.701   6.577
 8399SOL    HW226097   6.106   6.575   6.682
 8400SOL     OW26098   2.313   2.117   3.971
 8400SOL    HW126099   2.346   2.036   3.924
 8400SOL    HW226100   2.371   2.135   4.051
 8401SOL     OW26101   2.042   1.708   5.346
 8401SOL    HW126102   2.021   1.665   5.433
 8401SOL    HW226103   2.079   1.799   5.361
 8402SOL     OW26104   5.433   1.496   6.368
 8402SOL    HW126105   5.421   1.466   6.463
 8402SOL    HW226106   5.395   1.587   6.356
 8403SOL     OW26107   0.599   3.199   4.108
 8403SOL    HW126108   0.597   3.237   4.200
 8403SOL    HW226109   0.634   3.105   4.111
 8404SOL     OW26110   3.745   0.012   6.004
 8404SOL    HW126111   3.660   0.035   5.956
 8404SOL    HW226112   3.809   0.089   5.997
 8405SOL     OW26113   2.581   1.536   5.398
 8405SOL    HW126114   2.586   1.436   5.398
 8405SOL    HW226115   2.638   1.571   5.473
 8406SOL     OW26116   3.933   0.501   0.494
 8406SOL    HW126117   3.965   0.430   0.431
 8406SOL    HW226118   3.997   0.509   0.570
 8407SOL     OW26119   4.076   6.290   3.737
 8407SOL    HW126120   4.005   6.263   3.673
 8407SOL    HW226121   4.107   6.210   3.789
 8408SOL     OW26122   5.226   4.777   0.990
 8408SOL    HW126123   5.271   4.858   0.952
 8408SOL    HW226124   5.220   4.707   0.919
 8409SOL     OW26125   4.769   2.302   2.588
 8409SOL    HW126126   4.755   2.399   2.568
 8409SOL    HW226127   4.680   2.255   2.588
 8410SOL     OW26128   6.112   1.269   1.829
 8410SOL    HW126129   6.102   1.367   1.844
 8410SOL    HW226130   6.169   1.253   1.749
 8411SOL     OW26131   0.369   5.954   0.737
 8411SOL    HW126132   0.433   6.031   0.739
 8411SOL    HW226133   0.302   5.969   0.665
 8412SOL     OW26134   3.334   2.733   1.262
 8412SOL    HW126135   3.391   2.789   1.322
 8412SOL    HW226136   3.302   2.653   1.311
 8413SOL     OW26137   4.708   5.947   6.292
 8413SOL    HW126138   4.805   5.957   6.268
 8413SOL    HW226139   4.656   5.927   6.209
 8414SOL     OW26140   2.708   0.408   3.696
 8414SOL    HW126141   2.801   0.375   3.713
 8414SOL    HW226142   2.650   0.384   3.774
 8415SOL     OW26143   1.130   6.239   4.398
 8415SOL    HW126144   1.105   6.277   4.308
 8415SOL    HW226145   1.183   6.307   4.449
 8416SOL     OW26146   6.357   1.730   4.222
 8416SOL    HW126147   6.413   1.672   4.162
 8416SOL    HW226148   6.260   1.716   4.199
 8417SOL     OW26149   0.861   3.017   5.398
 8417SOL    HW126150   0.959   3.034   5.400
 8417SOL    HW226151   0.838   2.945   5.464
 8418SOL     OW26152   0.185   5.788   1.703
 8418SOL    HW126153   0.111   5.843   1.664
 8418SOL    HW226154   0.166   5.691   1.688
 8419SOL     OW26155   5.469   0.674   2.372
 8419SOL    HW126156   5.515   0.585   2.369
 8419SOL    HW226157   5.537   0.747   2.368
 8420SOL     OW26158   3.593   6.717   1.468
 8420SOL    HW126159   3.683   6.675   1.459
 8420SOL    HW226160   3.586   6.765   1.555
 8421SOL     OW26161   3.575   4.524   0.002
 8421SOL    HW126162   3.544   4.429   0.009
 8421SOL    HW226163   3.498   4.582   7.002
 8422SOL     OW26164   4.305   1.168   2.363
 8422SOL    HW126165   4.214   1.138   2.337
 8422SOL    HW226166   4.360   1.090   2.391
 8423SOL     OW26167   4.114   4.318   5.952
 8423SOL    HW126168   4.048   4.383   5.913
 8423SOL    HW226169   4.174   4.366   6.016
 8424SOL     OW26170   1.923   2.314   2.643
 8424SOL    HW126171   1.928   2.249   2.568
 8424SOL    HW226172   1.837   2.364   2.638
 8425SOL     OW26173   4.147   3.795   5.145
 8425SOL    HW126174   4.095   3.878   5.122
 8425SOL    HW226175   4.217   3.817   5.212
 8426SOL     OW26176   3.285   3.184   2.988
 8426SOL    HW126177   3.309   3.137   3.072
 8426SOL    HW226178   3.210   3.135   2.943
 8427SOL     OW26179   2.951   3.838   3.660
 8427SOL    HW126180   3.035   3.786   3.678
 8427SOL    HW226181   2.923   3.824   3.565
 8428SOL     OW26182   0.353   6.170   1.644
 8428SOL    HW126183   0.281   6.120   1.594
 8428SOL    HW226184   0.440   6.159   1.596
 8429SOL     OW26185   1.661   5.287   5.756
 8429SOL    HW126186   1.639   5.330   5.669
 8429SOL    HW226187   1.669   5.188   5.743
 8430SOL     OW26188   3.868   4.947   3.919
 8430SOL    HW126189   3.946   4.885   3.913
 8430SOL    HW226190   3.837   4.953   4.014
 8431SOL     OW26191   4.305   3.687   0.234
 8431SOL    HW126192   4.374   3.752   0.204
 8431SOL    HW226193   4.227   3.689   0.172
 8432SOL     OW26194   6.235   5.440   5.721
 8432SOL    HW126195   6.145   5.472   5.690
 8432SOL    HW226196   6.223   5.379   5.799
 8433SOL     OW26197   4.254   2.816   0.602
 8433SOL    HW126198   4.344   2.778   0.627
 8433SOL    HW226199   4.219   2.870   0.679
 8434SOL     OW26200   2.544   6.842   4.443
 8434SOL    HW126201   2.638   6.856   4.474
 8434SOL    HW226202   2.538   6.857   4.344
 8435SOL     OW26203   5.650   6.898   2.433
 8435SOL    HW126204   5.604   6.961   2.495
 8435SOL    HW226205   5.617   6.805   2.450
 8436SOL     OW26206   3.318   6.307   3.856
 8436SOL    HW126207   3.267   6.279   3.774
 8436SOL    HW226208   3.257   6.354   3.919
 8437SOL     OW26209   2.536   2.493   2.462
 8437SOL    HW126210   2.582   2.407   2.483
 8437SOL    HW226211   2.516   2.542   2.547
 8438SOL     OW26212   2.660   5.030   3.149
 8438SOL    HW126213   2.744   5.049   3.099
 8438SOL    HW226214   2.593   5.103   3.130
 8439SOL     OW26215   6.154   4.865   2.404
 8439SOL    HW126216   6.246   4.843   2.438
 8439SOL    HW226217   6.107   4.780   2.379
 8440SOL     OW26218   2.911   2.237   2.947
 8440SOL    HW126219   2.945   2.201   2.860
 8440SOL    HW226220   2.871   2.162   3.000
 8441SOL     OW26221   5.689   6.591   6.346
 8441SOL    HW126222   5.726   6.553   6.430
 8441SOL    HW226223   5.754   6.578   6.271
 8442SOL     OW26224   3.612   1.743   5.100
 8442SOL    HW126225   3.664   1.798   5.035
 8442SOL    HW226226   3.605   1.792   5.187
 8443SOL     OW26227   2.550   4.961   3.636
 8443SOL    HW126228   2.582   5.055   3.630
 8443SOL    HW226229   2.551   4.919   3.545
 8444SOL     OW26230   3.418   0.121   3.835
 8444SOL    HW126231   3.516   0.115   3.855
 8444SOL    HW226232   3.386   0.032   3.802
 8445SOL     OW26233   2.797   0.243   0.834
 8445SOL    HW126234   2.852   0.188   0.896
 8445SOL    HW226235   2.827   0.228   0.740
 8446SOL     OW26236   6.393   4.969   5.464
 8446SOL    HW126237   6.471   5.015   5.422
 8446SOL    HW226238   6.327   5.038   5.495
 8447SOL     OW26239   4.112   1.236   1.367
 8447SOL    HW126240   4.183   1.166   1.379
 8447SOL    HW226241   4.152   1.316   1.321
 8448SOL     OW26242   4.604   6.190   3.248
 8448SOL    HW126243   4.586   6.267   3.309
 8448SOL    HW226244   4.543   6.195   3.169
 8449SOL     OW26245   6.923   3.218   3.482
 8449SOL    HW126246   7.006   3.162   3.482
 8449SOL    HW226247   6.940   3.303   3.433
 8450SOL     OW26248   1.034   0.628   1.344
 8450SOL    HW126249   0.982   0.647   1.426
 8450SOL    HW226250   0.982   0.567   1.284
 8451SOL     OW26251   3.213   0.821   0.272
 8451SOL    HW126252   3.118   0.824   0.241
 8451SOL    HW226253   3.257   0.737   0.240
 8452SOL     OW26254   5.768   3.229   4.526
 8452SOL    HW126255   5.733   3.169   4.454
 8452SOL    HW226256   5.714   3.216   4.609
 8453SOL     OW26257   0.087   5.425   0.336
 8453SOL    HW126258   0.030   5.393   0.412
 8453SOL    HW226259   0.034   5.424   0.252
 8454SOL     OW26260   0.248   4.919   0.602
 8454SOL    HW126261   0.174   4.924   0.535
 8454SOL    HW226262   0.260   4.824   0.631
 8455SOL     OW26263   0.164   1.678   2.901
 8455SOL    HW126264   0.078   1.627   2.904
 8455SOL    HW226265   0.192   1.703   2.994
 8456SOL     OW26266   4.434   6.799   3.460
 8456SOL    HW126267   4.500   6.864   3.423
 8456SOL    HW226268   4.437   6.802   3.560
 8457SOL     OW26269   6.313   5.664   4.449
 8457SOL    HW126270   6.307   5.764   4.450
 8457SOL    HW226271   6.391   5.635   4.394
 8458SOL     OW26272   2.440   0.142   0.296
 8458SOL    HW126273   2.393   0.090   0.367
 8458SOL    HW226274   2.431   0.240   0.314
 8459SOL     OW26275   2.236   5.761   2.978
 8459SOL    HW126276   2.181   5.692   3.026
 8459SOL    HW226277   2.323   5.721   2.950
 8460SOL     OW26278   4.721   4.138   5.291
 8460SOL    HW126279   4.729   4.102   5.384
 8460SOL    HW226280   4.764   4.074   5.227
 8461SOL     OW26281   0.937   2.910   4.775
 8461SOL    HW126282   1.022   2.872   4.738
 8461SOL    HW226283   0.937   2.901   4.875
 8462SOL     OW26284   2.966   1.678   6.792
 8462SOL    HW126285   2.952   1.579   6.788
 8462SOL    HW226286   3.063   1.697   6.812
 8463SOL     OW26287   6.677   6.808   1.687
 8463SOL    HW126288   6.767   6.846   1.707
 8463SOL    HW226289   6.682   6.749   1.607
 8464SOL     OW26290   5.418   4.510   4.310
 8464SOL    HW126291   5.334   4.527   4.258
 8464SOL    HW226292   5.485   4.466   4.250
 8465SOL     OW26293   1.064   2.561   0.585
 8465SOL    HW126294   1.047   2.464   0.567
 8465SOL    HW226295   0.996   2.596   0.649
 8466SOL     OW26296   0.731   6.533   3.791
 8466SOL    HW126297   0.827   6.519   3.812
 8466SOL    HW226298   0.676   6.513   3.873
 8467SOL     OW26299   3.021   5.755   0.744
 8467SOL    HW126300   3.091   5.732   0.811
 8467SOL    HW226301   3.024   5.690   0.668
 8468SOL     OW26302   3.434   1.377   0.516
 8468SOL    HW126303   3.381   1.293   0.502
 8468SOL    HW226304   3.397   1.450   0.459
 8469SOL     OW26305   3.059   2.771   6.732
 8469SOL    HW126306   3.090   2.762   6.826
 8469SOL    HW226307   2.967   2.732   6.723
 8470SOL     OW26308   2.750   3.615   1.142
 8470SOL    HW126309   2.677   3.575   1.086
 8470SOL    HW226310   2.800   3.541   1.188
 8471SOL     OW26311   2.969   1.192   3.051
 8471SOL    HW126312   2.894   1.157   3.107
 8471SOL    HW226313   2.945   1.183   2.954
 8472SOL     OW26314   0.273   0.027   3.782
 8472SOL    HW126315   0.177   0.050   3.800
 8472SOL    HW226316   0.326   0.112   3.775
 8473SOL     OW26317   6.954   5.662   6.635
 8473SOL    HW126318   0.012   5.712   6.627
 8473SOL    HW226319   6.954   5.610   6.720
 8474SOL     OW26320   2.862   3.023   1.804
 8474SOL    HW126321   2.842   3.120   1.793
 8474SOL    HW226322   2.916   3.010   1.888
 8475SOL     OW26323   0.025   1.150   3.228
 8475SOL    HW126324   0.051   1.230   3.174
 8475SOL    HW226325   6.978   1.173   3.289
 8476SOL     OW26326   6.304   0.962   1.777
 8476SOL    HW126327   6.238   0.972   1.851
 8476SOL    HW226328   6.378   0.901   1.807
 8477SOL     OW26329   3.497   6.469   1.317
 8477SOL    HW126330   3.503   6.560   1.359
 8477SOL    HW226331   3.420   6.467   1.253
 8478SOL     OW26332   1.228   0.458   6.135
 8478SOL    HW126333   1.130   0.466   6.121
 8478SOL    HW226334   1.262   0.379   6.083
 8479SOL     OW26335   6.237   1.660   0.679
 8479SOL    HW126336   6.326   1.694   0.651
 8479SOL    HW226337   6.245   1.563   0.702
 8480SOL     OW26338   3.007   0.731   1.216
 8480SOL    HW126339   3.037   0.749   1.309
 8480SOL    HW226340   3.087   0.730   1.155
 8481SOL     OW26341   4.827   1.318   3.890
 8481SOL    HW126342   4.876   1.232   3.872
 8481SOL    HW226343   4.769   1.339   3.811
 8482SOL     OW26344   2.660   0.403   2.261
 8482SOL    HW126345   2.724   0.477   2.281
 8482SOL    HW226346   2.683   0.323   2.317
 8483SOL     OW26347   3.796   6.267   1.796
 8483SOL    HW126348   3.854   6.192   1.829
 8483SOL    HW226349   3.841   6.313   1.720
 8484SOL     OW26350   6.268   5.006   3.065
 8484SOL    HW126351   6.351   5.048   3.102
 8484SOL    HW226352   6.292   4.926   3.011
 8485SOL     OW26353   2.181   3.600   6.421
 8485SOL    HW126354   2.226   3.689   6.432
 8485SOL    HW226355   2.240   3.539   6.368
 8486SOL     OW26356   4.930   1.005   2.940
 8486SOL    HW126357   4.919   1.092   2.988
 8486SOL    HW226358   4.867   1.002   2.862
 8487SOL     OW26359   5.962   0.209   0.858
 8487SOL    HW126360   6.025   0.267   0.806
 8487SOL    HW226361   6.012   0.130   0.894
 8488SOL     OW26362   5.804   5.198   4.819
 8488SOL    HW126363   5.776   5.142   4.896
 8488SOL    HW226364   5.817   5.140   4.738
 8489SOL     OW26365   6.003   6.928   1.670
 8489SOL    HW126366   5.989   6.870   1.751
 8489SOL    HW226367   6.096   6.964   1.671
 8490SOL     OW26368   4.669   6.207   3.724
 8490SOL    HW126369   4.600   6.159   3.778
 8490SOL    HW226370   4.628   6.237   3.637
 8491SOL     OW26371   2.069   0.359   1.614
 8491SOL    HW126372   2.151   0.318   1.656
 8491SOL    HW226373   1.988   0.308   1.643
 8492SOL     OW26374   4.573   3.856   6.165
 8492SOL    HW126375   4.632   3.790   6.211
 8492SOL    HW226376   4.489   3.868   6.219
 8493SOL     OW26377   3.409   1.634   6.726
 8493SOL    HW126378   3.434   1.675   6.638
 8493SOL    HW226379   3.341   1.691   6.772
 8494SOL     OW26380   1.722   4.760   6.797
 8494SOL    HW126381   1.735   4.859   6.797
 8494SOL    HW226382   1.789   4.718   6.859
 8495SOL     OW26383   0.131   3.290   0.646
 8495SOL    HW126384   0.037   3.317   0.625
 8495SOL    HW226385   0.194   3.336   0.583
 8496SOL     OW26386   0.546   1.927   2.719
 8496SOL    HW126387   0.566   1.954   2.625
 8496SOL    HW226388   0.546   2.008   2.778
 8497SOL     OW26389   6.065   6.996   4.125
 8497SOL    HW126390   6.153   0.001   4.093
 8497SOL    HW226391   6.039   0.016   4.209
 8498SOL     OW26392   0.171   6.189   2.087
 8498SOL    HW126393   0.188   6.180   1.988
 8498SOL    HW226394   0.167   6.286   2.111
 8499SOL     OW26395   2.550   5.515   6.648
 8499SOL    HW126396   2.493   5.495   6.729
 8499SOL    HW226397   2.560   5.432   6.594
 8500SOL     OW26398   2.031   0.705   5.779
 8500SOL    HW126399   2.107   0.757   5.739
 8500SOL    HW226400   2.066   0.643   5.850
 8501SOL     OW26401   1.575   2.779   0.482
 8501SOL    HW126402   1.527   2.787   0.569
 8501SOL    HW226403   1.509   2.783   0.406
 8502SOL     OW26404   1.757   4.843   0.753
 8502SOL    HW126405   1.800   4.933   0.747
 8502SOL    HW226406   1.826   4.776   0.779
 8503SOL     OW26407   0.997   5.403   2.913
 8503SOL    HW126408   0.983   5.334   2.842
 8503SOL    HW226409   0.940   5.483   2.895
 8504SOL     OW26410   1.763   6.627   3.694
 8504SOL    HW126411   1.697   6.702   3.694
 8504SOL    HW226412   1.724   6.547   3.740
 8505SOL     OW26413   5.106   3.938   3.625
 8505SOL    HW126414   5.205   3.946   3.632
 8505SOL    HW226415   5.083   3.885   3.544
 8506SOL     OW26416   0.987   0.175   0.633
 8506SOL    HW126417   0.943   0.085   0.632
 8506SOL    HW226418   0.928   0.241   0.679
 8507SOL     OW26419   2.641   0.762   5.594
 8507SOL    HW126420   2.738   0.778   5.578
 8507SOL    HW226421   2.624   0.751   5.692
 8508SOL     OW26422   0.259   2.749   4.906
 8508SOL    HW126423   0.357   2.760   4.887
 8508SOL    HW226424   0.209   2.750   4.820
 8509SOL     OW26425   5.674   1.507   4.058
 8509SOL    HW126426   5.584   1.548   4.072
 8509SOL    HW226427   5.664   1.419   4.012
 8510SOL     OW26428   5.684   4.397   3.044
 8510SOL    HW126429   5.738   4.333   3.098
 8510SOL    HW226430   5.687   4.488   3.088
 8511SOL     OW26431   5.490   3.980   1.817
 8511SOL    HW126432   5.565   4.040   1.844
 8511SOL    HW226433   5.409   4.035   1.797
 8512SOL     OW26434   3.460   2.120   6.856
 8512SOL    HW126435   3.454   2.188   6.783
 8512SOL    HW226436   3.509   2.158   6.934
 8513SOL     OW26437   4.676   3.973   1.407
 8513SOL    HW126438   4.626   4.007   1.487
 8513SOL    HW226439   4.760   4.026   1.396
 8514SOL     OW26440   2.494   2.519   3.554
 8514SOL    HW126441   2.531   2.430   3.527
 8514SOL    HW226442   2.567   2.575   3.593
 8515SOL     OW26443   6.965   0.915   7.007
 8515SOL    HW126444   6.996   0.999   0.024
 8515SOL    HW226445   6.881   0.883   0.021
 8516SOL     OW26446   6.149   2.505   1.714
 8516SOL    HW126447   6.183   2.503   1.620
 8516SOL    HW226448   6.080   2.576   1.723
 8517SOL     OW26449   2.099   2.529   5.647
 8517SOL    HW126450   2.077   2.489   5.558
 8517SOL    HW226451   2.155   2.610   5.635
 8518SOL     OW26452   5.159   4.170   5.981
 8518SOL    HW126453   5.115   4.256   6.006
 8518SOL    HW226454   5.096   4.094   6.000
 8519SOL     OW26455   0.895   5.351   0.722
 8519SOL    HW126456   0.918   5.385   0.814
 8519SOL    HW226457   0.803   5.311   0.724
 8520SOL     OW26458   2.785   2.698   6.677
 8520SOL    HW126459   2.769   2.702   6.578
 8520SOL    HW226460   2.708   2.742   6.724
 8521SOL     OW26461   2.394   5.131   5.516
 8521SOL    HW126462   2.437   5.166   5.433
 8521SOL    HW226463   2.323   5.065   5.492
 8522SOL     OW26464   0.762   0.073   1.657
 8522SOL    HW126465   0.719   7.013   1.644
 8522SOL    HW226466   0.696   0.146   1.638
 8523SOL     OW26467   2.007   6.288   6.823
 8523SOL    HW126468   2.034   6.209   6.769
 8523SOL    HW226469   2.084   6.351   6.832
 8524SOL     OW26470   0.717   3.357   4.584
 8524SOL    HW126471   0.637   3.401   4.626
 8524SOL    HW226472   0.766   3.304   4.653
 8525SOL     OW26473   5.566   4.805   1.883
 8525SOL    HW126474   5.604   4.723   1.926
 8525SOL    HW226475   5.567   4.795   1.784
 8526SOL     OW26476   3.827   6.074   0.821
 8526SOL    HW126477   3.903   6.022   0.859
 8526SOL    HW226478   3.860   6.130   0.745
 8527SOL     OW26479   3.508   0.306   0.092
 8527SOL    HW126480   3.503   0.261   0.003
 8527SOL    HW226481   3.529   0.403   0.079
 8528SOL     OW26482   3.671   1.271   0.408
 8528SOL    HW126483   3.653   1.215   0.327
 8528SOL    HW226484   3.586   1.289   0.456
 8529SOL     OW26485   1.273   0.350   0.653
 8529SOL    HW126486   1.209   0.392   0.717
 8529SOL    HW226487   1.227   0.335   0.565
 8530SOL     OW26488   3.818   3.568   4.925
 8530SOL    HW126489   3.788   3.501   4.994
 8530SOL    HW226490   3.915   3.587   4.937
 8531SOL     OW26491   0.049   5.330   2.714
 8531SOL    HW126492   0.114   5.260   2.742
 8531SOL    HW226493   7.024   5.360   2.793
 8532SOL     OW26494   3.764   5.776   4.895
 8532SOL    HW126495   3.707   5.771   4.813
 8532SOL    HW226496   3.705   5.780   4.976
 8533SOL     OW26497   1.844   6.099   0.337
 8533SOL    HW126498   1.856   6.014   0.285
 8533SOL    HW226499   1.908   6.168   0.304
 8534SOL     OW26500   4.764   2.662   4.024
 8534SOL    HW126501   4.673   2.635   4.055
 8534SOL    HW226502   4.813   2.583   3.990
 8535SOL     OW26503   6.224   1.801   3.562
 8535SOL    HW126504   6.310   1.750   3.559
 8535SOL    HW226505   6.186   1.797   3.655
 8536SOL     OW26506   0.344   1.743   4.759
 8536SOL    HW126507   0.432   1.792   4.762
 8536SOL    HW226508   0.290   1.766   4.840
 8537SOL     OW26509   5.625   1.073   3.323
 8537SOL    HW126510   5.569   1.099   3.245
 8537SOL    HW226511   5.577   1.096   3.408
 8538SOL     OW26512   1.798   1.002   0.092
 8538SOL    HW126513   1.722   1.013   0.156
 8538SOL    HW226514   1.766   0.960   0.008
 8539SOL     OW26515   6.518   1.587   2.447
 8539SOL    HW126516   6.471   1.507   2.484
 8539SOL    HW226517   6.496   1.667   2.504
 8540SOL     OW26518   5.995   0.229   6.212
 8540SOL    HW126519   6.043   0.317   6.210
 8540SOL    HW226520   6.002   0.186   6.121
 8541SOL     OW26521   3.558   2.085   3.770
 8541SOL    HW126522   3.610   2.126   3.846
 8541SOL    HW226523   3.537   1.990   3.792
 8542SOL     OW26524   3.930   4.692   6.515
 8542SOL    HW126525   3.966   4.759   6.580
 8542SOL    HW226526   3.904   4.738   6.430
 8543SOL     OW26527   2.082   1.952   1.544
 8543SOL    HW126528   2.065   1.870   1.599
 8543SOL    HW226529   2.132   1.926   1.461
 8544SOL     OW26530   5.362   3.747   4.264
 8544SOL    HW126531   5.311   3.781   4.343
 8544SOL    HW226532   5.371   3.820   4.196
 8545SOL     OW26533   4.122   0.268   5.721
 8545SOL    HW126534   4.125   0.356   5.673
 8545SOL    HW226535   4.213   0.247   5.757
 8546SOL     OW26536   5.766   1.826   4.245
 8546SOL    HW126537   5.798   1.769   4.170
 8546SOL    HW226538   5.678   1.868   4.221
 8547SOL     OW26539   0.553   6.712   5.868
 8547SOL    HW126540   0.477   6.776   5.874
 8547SOL    HW226541   0.563   6.663   5.955
 8548SOL     OW26542   6.013   2.845   5.329
 8548SOL    HW126543   6.020   2.751   5.294
 8548SOL    HW226544   6.103   2.876   5.360
 8549SOL     OW26545   0.210   3.633   3.796
 8549SOL    HW126546   0.278   3.560   3.801
 8549SOL    HW226547   0.254   3.721   3.818
 8550SOL     OW26548   1.887   4.590   6.349
 8550SOL    HW126549   1.928   4.581   6.258
 8550SOL    HW226550   1.864   4.499   6.384
 8551SOL     OW26551   3.851   3.400   5.997
 8551SOL    HW126552   3.758   3.392   5.961
 8551SOL    HW226553   3.907   3.452   5.932
 8552SOL     OW26554   2.154   6.181   4.198
 8552SOL    HW126555   2.220   6.197   4.271
 8552SOL    HW226556   2.137   6.266   4.149
 8553SOL     OW26557   4.981   5.325   6.166
 8553SOL    HW126558   4.935   5.377   6.094
 8553SOL    HW226559   4.941   5.350   6.255
 8554SOL     OW26560   0.745   4.763   0.106
 8554SOL    HW126561   0.779   4.672   0.083
 8554SOL    HW226562   0.813   4.832   0.078
 8555SOL     OW26563   0.755   0.078   3.070
 8555SOL    HW126564   0.729   0.172   3.047
 8555SOL    HW226565   0.849   0.077   3.104
 8556SOL     OW26566   0.936   6.897   3.699
 8556SOL    HW126567   0.967   6.856   3.785
 8556SOL    HW226568   0.996   6.866   3.625
 8557SOL     OW26569   6.643   1.245   2.386
 8557SOL    HW126570   6.680   1.180   2.453
 8557SOL    HW226571   6.580   1.308   2.432
 8558SOL     OW26572   2.726   5.964   3.326
 8558SOL    HW126573   2.737   5.865   3.333
 8558SOL    HW226574   2.643   5.993   3.374
 8559SOL     OW26575   5.987   0.840   2.006
 8559SOL    HW126576   5.890   0.864   2.001
 8559SOL    HW226577   6.040   0.922   2.029
 8560SOL     OW26578   7.012   0.142   1.343
 8560SOL    HW126579   0.020   0.101   1.259
 8560SOL    HW226580   0.049   0.209   1.378
 8561SOL     OW26581   3.105   6.349   1.829
 8561SOL    HW126582   3.136   6.410   1.756
 8561SOL    HW226583   3.179   6.286   1.854
 8562SOL     OW26584   4.869   6.544   5.182
 8562SOL    HW126585   4.965   6.538   5.155
 8562SOL    HW226586   4.826   6.620   5.133
 8563SOL     OW26587   2.678   3.652   0.234
 8563SOL    HW126588   2.777   3.642   0.225
 8563SOL    HW226589   2.634   3.631   0.147
 8564SOL     OW26590   2.306   1.007   3.812
 8564SOL    HW126591   2.297   1.104   3.832
 8564SOL    HW226592   2.372   0.994   3.738
 8565SOL     OW26593   4.714   6.745   1.998
 8565SOL    HW126594   4.633   6.690   2.019
 8565SOL    HW226595   4.769   6.699   1.929
 8566SOL     OW26596   1.170   0.692   2.269
 8566SOL    HW126597   1.157   0.785   2.235
 8566SOL    HW226598   1.265   0.665   2.256
 8567SOL     OW26599   0.026   2.059   2.004
 8567SOL    HW126600   0.106   2.117   1.989
 8567SOL    HW226601   0.046   1.994   2.077
 8568SOL     OW26602   4.559   0.488   6.100
 8568SOL    HW126603   4.636   0.434   6.066
 8568SOL    HW226604   4.538   0.561   6.036
 8569SOL     OW26605   5.016   1.608   5.717
 8569SOL    HW126606   5.107   1.569   5.733
 8569SOL    HW226607   4.949   1.534   5.707
 8570SOL     OW26608   1.043   2.369   5.990
 8570SOL    HW126609   0.950   2.360   5.955
 8570SOL    HW226610   1.045   2.438   6.062
 8571SOL     OW26611   0.245   5.569   6.023
 8571SOL    HW126612   0.183   5.605   5.954
 8571SOL    HW226613   0.212   5.481   6.056
 8572SOL     OW26614   3.154   5.126   6.827
 8572SOL    HW126615   3.127   5.199   6.890
 8572SOL    HW226616   3.148   5.160   6.733
 8573SOL     OW26617   3.558   6.367   6.474
 8573SOL    HW126618   3.572   6.367   6.573
 8573SOL    HW226619   3.578   6.457   6.438
 8574SOL     OW26620   6.943   5.316   5.819
 8574SOL    HW126621   6.945   5.343   5.723
 8574SOL    HW226622   6.887   5.234   5.830
 8575SOL     OW26623   3.524   2.391   6.664
 8575SOL    HW126624   3.504   2.413   6.569
 8575SOL    HW226625   3.477   2.456   6.724
 8576SOL     OW26626   0.912   6.604   1.266
 8576SOL    HW126627   0.920   6.519   1.214
 8576SOL    HW226628   0.864   6.586   1.352
 8577SOL     OW26629   6.400   5.321   4.179
 8577SOL    HW126630   6.320   5.381   4.179
 8577SOL    HW226631   6.396   5.259   4.258
 8578SOL     OW26632   5.033   0.789   4.816
 8578SOL    HW126633   5.098   0.771   4.743
 8578SOL    HW226634   4.974   0.865   4.791
 8579SOL     OW26635   1.443   6.514   3.815
 8579SOL    HW126636   1.428   6.461   3.732
 8579SOL    HW226637   1.536   6.496   3.849
 8580SOL     OW26638   2.431   6.847   2.186
 8580SOL    HW126639   2.487   6.870   2.266
 8580SOL    HW226640   2.391   6.931   2.149
 8581SOL     OW26641   3.345   2.691   1.680
 8581SOL    HW126642   3.430   2.686   1.627
 8581SOL    HW226643   3.355   2.761   1.751
 8582SOL     OW26644   4.139   4.726   1.877
 8582SOL    HW126645   4.189   4.647   1.841
 8582SOL    HW226646   4.050   4.732   1.832
 8583SOL     OW26647   5.978   1.009   5.979
 8583SOL    HW126648   5.903   0.989   6.042
 8583SOL    HW226649   6.063   1.022   6.031
 8584SOL     OW26650   0.645   3.787   6.143
 8584SOL    HW126651   0.623   3.882   6.119
 8584SOL    HW226652   0.673   3.738   6.061
 8585SOL     OW26653   6.870   6.814   6.755
 8585SOL    HW126654   6.886   6.813   6.656
 8585SOL    HW226655   6.956   6.796   6.803
 8586SOL     OW26656   2.707   6.756   3.833
 8586SOL    HW126657   2.729   6.671   3.786
 8586SOL    HW226658   2.732   6.834   3.776
 8587SOL     OW26659   1.554   0.109   3.085
 8587SOL    HW126660   1.492   0.167   3.032
 8587SOL    HW226661   1.600   0.045   3.023
 8588SOL     OW26662   2.766   0.513   6.945
 8588SOL    HW126663   2.837   0.491   7.012
 8588SOL    HW226664   2.767   0.611   6.925
 8589SOL     OW26665   4.766   2.534   4.497
 8589SOL    HW126666   4.666   2.535   4.485
 8589SOL    HW226667   4.793   2.454   4.551
 8590SOL     OW26668   6.863   5.962   4.514
 8590SOL    HW126669   6.903   6.053   4.500
 8590SOL    HW226670   6.765   5.965   4.494
 8591SOL     OW26671   0.806   5.354   6.365
 8591SOL    HW126672   0.732   5.366   6.299
 8591SOL    HW226673   0.771   5.304   6.445
 8592SOL     OW26674   6.501   4.210   0.088
 8592SOL    HW126675   6.570   4.182   0.154
 8592SOL    HW226676   6.500   4.310   0.080
 8593SOL     OW26677   1.232   6.763   2.765
 8593SOL    HW126678   1.189   6.845   2.726
 8593SOL    HW226679   1.197   6.682   2.719
 8594SOL     OW26680   3.546   3.450   5.326
 8594SOL    HW126681   3.617   3.520   5.320
 8594SOL    HW226682   3.588   3.363   5.353
 8595SOL     OW26683   2.189   1.343   2.691
 8595SOL    HW126684   2.135   1.328   2.774
 8595SOL    HW226685   2.159   1.279   2.620
 8596SOL     OW26686   6.011   5.511   2.430
 8596SOL    HW126687   6.036   5.414   2.420
 8596SOL    HW226688   6.071   5.566   2.372
 8597SOL     OW26689   4.000   2.317   1.352
 8597SOL    HW126690   3.927   2.335   1.419
 8597SOL    HW226691   4.028   2.222   1.359
 8598SOL     OW26692   0.505   5.411   1.339
 8598SOL    HW126693   0.408   5.433   1.328
 8598SOL    HW226694   0.551   5.486   1.387
 8599SOL     OW26695   1.069   2.964   4.118
 8599SOL    HW126696   1.079   3.063   4.125
 8599SOL    HW226697   1.157   2.920   4.136
 8600SOL     OW26698   5.498   4.994   6.519
 8600SOL    HW126699   5.512   4.944   6.434
 8600SOL    HW226700   5.422   5.058   6.508
 8601SOL     OW26701   1.202   0.677   4.808
 8601SOL    HW126702   1.256   0.723   4.878
 8601SOL    HW226703   1.123   0.734   4.784
 8602SOL     OW26704   2.335   6.357   2.673
 8602SOL    HW126705   2.311   6.394   2.763
 8602SOL    HW226706   2.298   6.417   2.601
 8603SOL     OW26707   3.478   4.204   0.096
 8603SOL    HW126708   3.436   4.147   0.024
 8603SOL    HW226709   3.408   4.228   0.163
 8604SOL     OW26710   6.796   2.872   3.069
 8604SOL    HW126711   6.827   2.945   3.130
 8604SOL    HW226712   6.754   2.912   2.988
 8605SOL     OW26713   3.131   4.934   4.436
 8605SOL    HW126714   3.045   4.951   4.484
 8605SOL    HW226715   3.200   4.903   4.501
 8606SOL     OW26716   2.344   4.508   5.691
 8606SOL    HW126717   2.428   4.518   5.639
 8606SOL    HW226718   2.265   4.519   5.630
 8607SOL     OW26719   2.781   4.712   1.046
 8607SOL    HW126720   2.738   4.796   1.012
 8607SOL    HW226721   2.855   4.685   0.985
 8608SOL     OW26722   4.474   5.137   3.136
 8608SOL    HW126723   4.555   5.189   3.162
 8608SOL    HW226724   4.492   5.039   3.149
 8609SOL     OW26725   4.598   0.341   3.949
 8609SOL    HW126726   4.503   0.372   3.952
 8609SOL    HW226727   4.603   0.251   3.906
 8610SOL     OW26728   1.433   0.792   2.674
 8610SOL    HW126729   1.351   0.847   2.683
 8610SOL    HW226730   1.420   0.724   2.602
 8611SOL     OW26731   1.728   2.622   3.696
 8611SOL    HW126732   1.744   2.633   3.794
 8611SOL    HW226733   1.787   2.684   3.646
 8612SOL     OW26734   2.993   3.237   0.181
 8612SOL    HW126735   2.963   3.255   0.275
 8612SOL    HW226736   2.924   3.269   0.117
 8613SOL     OW26737   2.394   1.996   1.576
 8613SOL    HW126738   2.323   2.003   1.647
 8613SOL    HW226739   2.380   1.913   1.523
 8614SOL     OW26740   0.811   3.233   3.107
 8614SOL    HW126741   0.903   3.200   3.123
 8614SOL    HW226742   0.775   3.193   3.022
 8615SOL     OW26743   5.046   1.841   4.952
 8615SOL    HW126744   4.972   1.881   5.006
 8615SOL    HW226745   5.132   1.851   5.002
 8616SOL     OW26746   1.764   5.276   1.479
 8616SOL    HW126747   1.706   5.304   1.556
 8616SOL    HW226748   1.829   5.207   1.510
 8617SOL     OW26749   6.061   1.514   0.475
 8617SOL    HW126750   6.107   1.456   0.407
 8617SOL    HW226751   6.127   1.578   0.514
 8618SOL     OW26752   5.025   6.915   1.010
 8618SOL    HW126753   4.989   6.986   0.949
 8618SOL    HW226754   5.035   6.953   1.102
 8619SOL     OW26755   3.328   5.052   1.387
 8619SOL    HW126756   3.317   5.124   1.455
 8619SOL    HW226757   3.239   5.008   1.369
 8620SOL     OW26758   6.456   6.954   3.177
 8620SOL    HW126759   6.535   7.005   3.211
 8620SOL    HW226760   6.479   6.913   3.088
 8621SOL     OW26761   5.876   2.037   3.467
 8621SOL    HW126762   5.918   2.127   3.478
 8621SOL    HW226763   5.802   2.042   3.400
 8622SOL     OW26764   4.706   4.603   0.563
 8622SOL    HW126765   4.794   4.559   0.543
 8622SOL    HW226766   4.697   4.685   0.506
 8623SOL     OW26767   0.108   4.335   2.978
 8623SOL    HW126768   0.009   4.347   2.991
 8623SOL    HW226769   0.125   4.243   2.944
 8624SOL     OW26770   1.095   4.276   3.721
 8624SOL    HW126771   1.142   4.358   3.688
 8624SOL    HW226772   1.048   4.232   3.645
 8625SOL     OW26773   4.916   0.429   4.859
 8625SOL    HW126774   4.823   0.436   4.823
 8625SOL    HW226775   4.928   0.494   4.934
 8626SOL     OW26776   3.399   2.938   4.590
 8626SOL    HW126777   3.343   2.985   4.523
 8626SOL    HW226778   3.395   2.986   4.678
 8627SOL     OW26779   0.942   0.417   3.106
 8627SOL    HW126780   0.893   0.490   3.154
 8627SOL    HW226781   0.979   0.352   3.172
 8628SOL     OW26782   6.211   6.849   1.947
 8628SOL    HW126783   6.258   6.936   1.964
 8628SOL    HW226784   6.112   6.864   1.947
 8629SOL     OW26785   1.745   5.476   4.545
 8629SOL    HW126786   1.836   5.437   4.555
 8629SOL    HW226787   1.679   5.420   4.596
 8630SOL     OW26788   6.017   4.131   4.414
 8630SOL    HW126789   5.946   4.079   4.366
 8630SOL    HW226790   6.040   4.212   4.361
 8631SOL     OW26791   3.652   5.380   6.559
 8631SOL    HW126792   3.698   5.389   6.471
 8631SOL    HW226793   3.555   5.362   6.544
 8632SOL     OW26794   3.765   6.456   3.491
 8632SOL    HW126795   3.820   6.538   3.506
 8632SOL    HW226796   3.673   6.471   3.527
 8633SOL     OW26797   5.449   1.068   4.724
 8633SOL    HW126798   5.429   0.971   4.732
 8633SOL    HW226799   5.393   1.108   4.651
 8634SOL     OW26800   6.102   3.163   0.766
 8634SOL    HW126801   6.057   3.097   0.826
 8634SOL    HW226802   6.068   3.255   0.786
 8635SOL     OW26803   5.795   3.948   5.772
 8635SOL    HW126804   5.740   3.874   5.809
 8635SOL    HW226805   5.891   3.934   5.798
 8636SOL     OW26806   5.565   5.245   0.001
 8636SOL    HW126807   5.603   5.310   6.963
 8636SOL    HW226808   5.483   5.202   6.991
 8637SOL     OW26809   2.282   0.643   0.280
 8637SOL    HW126810   2.298   0.709   0.354
 8637SOL    HW226811   2.255   0.692   0.198
 8638SOL     OW26812   1.768   3.175   7.025
 8638SOL    HW126813   1.680   3.204   0.035
 8638SOL    HW226814   1.829   3.254   7.017
 8639SOL     OW26815   6.014   2.786   2.057
 8639SOL    HW126816   6.094   2.770   2.000
 8639SOL    HW226817   5.932   2.753   2.010
 8640SOL     OW26818   4.656   3.998   0.520
 8640SOL    HW126819   4.665   4.016   0.422
 8640SOL    HW226820   4.741   3.960   0.555
 8641SOL     OW26821   6.905   4.319   4.773
 8641SOL    HW126822   6.845   4.280   4.843
 8641SOL    HW226823   6.884   4.277   4.684
 8642SOL     OW26824   4.481   0.376   2.673
 8642SOL    HW126825   4.459   0.356   2.578
 8642SOL    HW226826   4.535   0.459   2.679
 8643SOL     OW26827   4.323   0.047   6.940
 8643SOL    HW126828   4.242   0.049   6.881
 8643SOL    HW226829   4.329   0.134   6.989
 8644SOL     OW26830   4.607   2.685   5.791
 8644SOL    HW126831   4.594   2.710   5.695
 8644SOL    HW226832   4.605   2.767   5.848
 8645SOL     OW26833   5.228   4.656   1.507
 8645SOL    HW126834   5.219   4.569   1.554
 8645SOL    HW226835   5.207   4.643   1.410
 8646SOL     OW26836   6.483   1.329   1.370
 8646SOL    HW126837   6.391   1.348   1.403
 8646SOL    HW226838   6.508   1.235   1.392
 8647SOL     OW26839   3.402   4.746   6.492
 8647SOL    HW126840   3.473   4.813   6.514
 8647SOL    HW226841   3.313   4.792   6.488
 8648SOL     OW26842   5.794   1.139   4.788
 8648SOL    HW126843   5.707   1.116   4.832
 8648SOL    HW226844   5.804   1.239   4.784
 8649SOL     OW26845   5.753   5.322   5.820
 8649SOL    HW126846   5.742   5.299   5.917
 8649SOL    HW226847   5.678   5.282   5.768
 8650SOL     OW26848   1.767   4.513   4.912
 8650SOL    HW126849   1.861   4.480   4.924
 8650SOL    HW226850   1.704   4.436   4.919
 8651SOL     OW26851   3.466   0.659   0.625
 8651SOL    HW126852   3.523   0.606   0.562
 8651SOL    HW226853   3.508   0.662   0.715
 8652SOL     OW26854   1.302   3.745   2.766
 8652SOL    HW126855   1.369   3.808   2.805
 8652SOL    HW226856   1.212   3.789   2.766
 8653SOL     OW26857   5.675   1.991   5.908
 8653SOL    HW126858   5.704   2.075   5.862
 8653SOL    HW226859   5.708   1.912   5.858
 8654SOL     OW26860   1.461   6.066   1.896
 8654SOL    HW126861   1.395   6.140   1.911
 8654SOL    HW226862   1.522   6.092   1.821
 8655SOL     OW26863   6.070   0.819   4.012
 8655SOL    HW126864   6.014   0.750   3.964
 8655SOL    HW226865   6.137   0.857   3.949
 8656SOL     OW26866   6.820   1.058   0.744
 8656SOL    HW126867   6.752   0.985   0.741
 8656SOL    HW226868   6.817   1.102   0.834
 8657SOL     OW26869   4.323   4.488   0.058
 8657SOL    HW126870   4.390   4.416   0.075
 8657SOL    HW226871   4.371   4.575   0.047
 8658SOL     OW26872   5.069   5.977   0.171
 8658SOL    HW126873   5.013   6.059   0.163
 8658SOL    HW226874   5.138   5.977   0.099
 8659SOL     OW26875   4.431   1.151   3.278
 8659SOL    HW126876   4.351   1.190   3.233
 8659SOL    HW226877   4.425   1.051   3.279
 8660SOL     OW26878   5.253   3.442   0.795
 8660SOL    HW126879   5.348   3.459   0.820
 8660SOL    HW226880   5.217   3.367   0.850
 8661SOL     OW26881   5.633   4.111   0.893
 8661SOL    HW126882   5.723   4.151   0.912
 8661SOL    HW226883   5.564   4.157   0.949
 8662SOL     OW26884   5.070   6.124   1.532
 8662SOL    HW126885   4.988   6.097   1.581
 8662SOL    HW226886   5.095   6.218   1.557
 8663SOL     OW26887   2.579   5.744   1.135
 8663SOL    HW126888   2.672   5.765   1.107
 8663SOL    HW226889   2.530   5.829   1.155
 8664SOL     OW26890   3.540   5.752   1.002
 8664SOL    HW126891   3.507   5.787   0.914
 8664SOL    HW226892   3.595   5.823   1.047
 8665SOL     OW26893   5.715   5.704   5.456
 8665SOL    HW126894   5.757   5.764   5.388
 8665SOL    HW226895   5.785   5.645   5.496
 8666SOL     OW26896   5.736   2.098   5.169
 8666SOL    HW126897   5.693   2.177   5.214
 8666SOL    HW226898   5.673   2.021   5.169
 8667SOL     OW26899   4.469   2.419   2.879
 8667SOL    HW126900   4.514   2.335   2.848
 8667SOL    HW226901   4.505   2.497   2.828
 8668SOL     OW26902   5.217   3.462   3.189
 8668SOL    HW126903   5.188   3.396   3.259
 8668SOL    HW226904   5.136   3.496   3.141
 8669SOL     OW26905   2.514   6.486   6.768
 8669SOL    HW126906   2.529   6.461   6.672
 8669SOL    HW226907   2.417   6.479   6.789
 8670SOL     OW26908   3.643   4.432   5.901
 8670SOL    HW126909   3.619   4.363   5.970
 8670SOL    HW226910   3.617   4.398   5.811
 8671SOL     OW26911   5.952   1.885   3.221
 8671SOL    HW126912   5.947   1.785   3.226
 8671SOL    HW226913   5.964   1.922   3.314
 8672SOL     OW26914   2.402   5.348   3.453
 8672SOL    HW126915   2.491   5.313   3.425
 8672SOL    HW226916   2.348   5.372   3.372
 8673SOL     OW26917   6.686   1.454   6.687
 8673SOL    HW126918   6.587   1.466   6.689
 8673SOL    HW226919   6.731   1.539   6.714
 8674SOL     OW26920   6.463   5.710   1.690
 8674SOL    HW126921   6.406   5.787   1.721
 8674SOL    HW226922   6.446   5.693   1.593
 8675SOL     OW26923   3.827   1.936   5.034
 8675SOL    HW126924   3.878   1.903   5.114
 8675SOL    HW226925   3.807   2.033   5.046
 8676SOL     OW26926   4.066   6.651   3.167
 8676SOL    HW126927   3.970   6.631   3.147
 8676SOL    HW226928   4.123   6.620   3.091
 8677SOL     OW26929   2.509   6.399   5.220
 8677SOL    HW126930   2.602   6.422   5.190
 8677SOL    HW226931   2.445   6.467   5.185
 8678SOL     OW26932   0.033   0.415   0.881
 8678SOL    HW126933   6.972   0.423   0.838
 8678SOL    HW226934   0.102   0.399   0.811
 8679SOL     OW26935   6.534   3.158   4.688
 8679SOL    HW126936   6.547   3.060   4.704
 8679SOL    HW226937   6.612   3.208   4.727
 8680SOL     OW26938   0.417   3.941   1.861
 8680SOL    HW126939   0.325   3.982   1.858
 8680SOL    HW226940   0.417   3.858   1.807
 8681SOL     OW26941   4.605   5.243   0.212
 8681SOL    HW126942   4.679   5.298   0.249
 8681SOL    HW226943   4.602   5.154   0.259
 8682SOL     OW26944   4.439   6.591   2.003
 8682SOL    HW126945   4.359   6.558   1.953
 8682SOL    HW226946   4.495   6.513   2.032
 8683SOL     OW26947   1.320   2.690   2.205
 8683SOL    HW126948   1.402   2.744   2.191
 8683SOL    HW226949   1.344   2.593   2.208
 8684SOL     OW26950   0.517   2.799   4.911
 8684SOL    HW126951   0.597   2.813   4.969
 8684SOL    HW226952   0.545   2.754   4.826
 8685SOL     OW26953   1.525   2.313   5.567
 8685SOL    HW126954   1.468   2.393   5.588
 8685SOL    HW226955   1.494   2.271   5.482
 8686SOL     OW26956   0.003   1.208   1.453
 8686SOL    HW126957   7.022   1.297   1.409
 8686SOL    HW226958   0.014   1.137   1.384
 8687SOL     OW26959   3.507   5.838   2.616
 8687SOL    HW126960   3.456   5.879   2.691
 8687SOL    HW226961   3.482   5.741   2.607
 8688SOL     OW26962   3.092   6.352   0.357
 8688SOL    HW126963   3.083   6.287   0.282
 8688SOL    HW226964   3.005   6.398   0.372
 8689SOL     OW26965   3.787   4.937   0.227
 8689SOL    HW126966   3.689   4.955   0.219
 8689SOL    HW226967   3.837   4.996   0.164
 8690SOL     OW26968   1.807   2.638   3.330
 8690SOL    HW126969   1.715   2.628   3.368
 8690SOL    HW226970   1.844   2.727   3.356
 8691SOL     OW26971   4.132   2.736   6.399
 8691SOL    HW126972   4.044   2.693   6.383
 8691SOL    HW226973   4.131   2.785   6.486
 8692SOL     OW26974   3.981   2.162   2.711
 8692SOL    HW126975   4.004   2.172   2.614
 8692SOL    HW226976   4.054   2.201   2.767
 8693SOL     OW26977   5.855   1.678   1.071
 8693SOL    HW126978   5.907   1.702   1.153
 8693SOL    HW226979   5.910   1.616   1.014
 8694SOL     OW26980   4.097   1.527   5.352
 8694SOL    HW126981   4.106   1.475   5.438
 8694SOL    HW226982   4.148   1.481   5.280
 8695SOL     OW26983   4.661   3.157   6.135
 8695SOL    HW126984   4.702   3.235   6.088
 8695SOL    HW226985   4.732   3.089   6.155
 8696SOL     OW26986   3.058   5.609   0.520
 8696SOL    HW126987   2.965   5.585   0.493
 8696SOL    HW226988   3.102   5.531   0.564
 8697SOL     OW26989   6.032   3.557   0.478
 8697SOL    HW126990   6.066   3.478   0.427
 8697SOL    HW226991   6.106   3.623   0.493
 8698SOL     OW26992   6.128   5.670   4.002
 8698SOL    HW126993   6.029   5.659   3.995
 8698SOL    HW226994   6.173   5.618   3.929
 8699SOL     OW26995   1.668   2.695   5.660
 8699SOL    HW126996   1.627   2.737   5.741
 8699SOL    HW226997   1.749   2.643   5.687
 8700SOL     OW26998   1.745   1.247   4.781
 8700SOL    HW126999   1.830   1.242   4.834
 8700SOL    HW227000   1.712   1.341   4.781
 8701SOL     OW27001   1.691   0.569   6.592
 8701SOL    HW127002   1.615   0.633   6.602
 8701SOL    HW227003   1.660   0.488   6.542
 8702SOL     OW27004   5.542   4.957   0.118
 8702SOL    HW127005   5.499   4.997   0.037
 8702SOL    HW227006   5.641   4.961   0.109
 8703SOL     OW27007   2.684   5.277   1.248
 8703SOL    HW127008   2.615   5.350   1.245
 8703SOL    HW227009   2.755   5.296   1.181
 8704SOL     OW27010   6.206   3.904   2.591
 8704SOL    HW127011   6.242   3.926   2.682
 8704SOL    HW227012   6.106   3.894   2.596
 8705SOL     OW27013   5.128   0.943   0.823
 8705SOL    HW127014   5.045   0.945   0.768
 8705SOL    HW227015   5.139   0.852   0.864
 8706SOL     OW27016   4.765   1.703   6.352
 8706SOL    HW127017   4.669   1.727   6.368
 8706SOL    HW227018   4.773   1.603   6.345
 8707SOL     OW27019   5.497   1.882   6.896
 8707SOL    HW127020   5.492   1.861   6.798
 8707SOL    HW227021   5.421   1.838   6.944
 8708SOL     OW27022   4.252   2.093   2.098
 8708SOL    HW127023   4.195   2.017   2.129
 8708SOL    HW227024   4.197   2.157   2.045
 8709SOL     OW27025   6.811   6.139   6.291
 8709SOL    HW127026   6.838   6.235   6.280
 8709SOL    HW227027   6.891   6.080   6.284
 8710SOL     OW27028   2.083   3.632   3.208
 8710SOL    HW127029   2.066   3.651   3.111
 8710SOL    HW227030   2.004   3.586   3.247
 8711SOL     OW27031   0.257   5.568   2.688
 8711SOL    HW127032   0.186   5.625   2.645
 8711SOL    HW227033   0.220   5.476   2.704
 8712SOL     OW27034   3.894   2.190   4.188
 8712SOL    HW127035   3.950   2.175   4.270
 8712SOL    HW227036   3.952   2.227   4.116
 8713SOL     OW27037   0.485   4.241   3.665
 8713SOL    HW127038   0.475   4.170   3.595
 8713SOL    HW227039   0.399   4.291   3.674
 8714SOL     OW27040   0.103   1.371   6.303
 8714SOL    HW127041   0.009   1.405   6.302
 8714SOL    HW227042   0.111   1.298   6.370
 8715SOL     OW27043   5.321   0.191   0.586
 8715SOL    HW127044   5.314   0.094   0.609
 8715SOL    HW227045   5.417   0.219   0.587
 8716SOL     OW27046   0.982   0.189   1.501
 8716SOL    HW127047   0.917   0.131   1.550
 8716SOL    HW227048   0.950   0.284   1.503
 8717SOL     OW27049   3.561   3.529   3.033
 8717SOL    HW127050   3.479   3.491   3.076
 8717SOL    HW227051   3.642   3.502   3.084
 8718SOL     OW27052   0.765   3.460   5.406
 8718SOL    HW127053   0.735   3.465   5.501
 8718SOL    HW227054   0.780   3.552   5.370
 8719SOL     OW27055   1.870   6.694   6.233
 8719SOL    HW127056   1.812   6.769   6.204
 8719SOL    HW227057   1.820   6.608   6.225
 8720SOL     OW27058   6.798   4.850   5.696
 8720SOL    HW127059   6.873   4.876   5.757
 8720SOL    HW227060   6.805   4.752   5.675
 8721SOL     OW27061   5.885   2.141   3.956
 8721SOL    HW127062   5.814   2.076   3.928
 8721SOL    HW227063   5.965   2.091   3.989
 8722SOL     OW27064   3.941   0.774   0.600
 8722SOL    HW127065   3.982   0.751   0.512
 8722SOL    HW227066   3.893   0.861   0.592
 8723SOL     OW27067   5.111   5.515   1.106
 8723SOL    HW127068   5.068   5.424   1.103
 8723SOL    HW227069   5.102   5.553   1.198
 8724SOL     OW27070   5.828   6.887   5.424
 8724SOL    HW127071   5.916   6.864   5.466
 8724SOL    HW227072   5.761   6.816   5.445
 8725SOL     OW27073   2.464   0.111   6.574
 8725SOL    HW127074   2.539   0.166   6.539
 8725SOL    HW227075   2.383   0.124   6.517
 8726SOL     OW27076   6.719   0.936   1.908
 8726SOL    HW127077   6.783   0.950   1.983
 8726SOL    HW227078   6.751   0.985   1.827
 8727SOL     OW27079   0.122   6.199   1.818
 8727SOL    HW127080   0.040   6.236   1.774
 8727SOL    HW227081   0.196   6.192   1.751
 8728SOL     OW27082   3.963   0.363   4.526
 8728SOL    HW127083   4.025   0.307   4.581
 8728SOL    HW227084   3.934   0.442   4.579
 8729SOL     OW27085   4.385   5.960   3.283
 8729SOL    HW127086   4.291   5.959   3.318
 8729SOL    HW227087   4.403   6.048   3.239
 8730SOL     OW27088   6.582   4.491   2.121
 8730SOL    HW127089   6.673   4.460   2.149
 8730SOL    HW227090   6.590   4.579   2.074
 8731SOL     OW27091   2.060   2.024   2.614
 8731SOL    HW127092   2.041   2.049   2.519
 8731SOL    HW227093   2.158   2.010   2.625
 8732SOL     OW27094   5.328   4.053   1.398
 8732SOL    HW127095   5.268   4.131   1.384
 8732SOL    HW227096   5.332   3.997   1.315
 8733SOL     OW27097   1.231   5.688   3.081
 8733SOL    HW127098   1.227   5.710   3.178
 8733SOL    HW227099   1.139   5.683   3.043
 8734SOL     OW27100   1.122   4.889   1.515
 8734SOL    HW127101   1.071   4.965   1.557
 8734SOL    HW227102   1.067   4.805   1.520
 8735SOL     OW27103   0.805   1.668   0.035
 8735SOL    HW127104   0.771   1.624   6.980
 8735SOL    HW227105   0.860   1.603   0.087
 8736SOL     OW27106   0.515   6.961   6.674
 8736SOL    HW127107   0.487   6.877   6.628
 8736SOL    HW227108   0.540   6.941   6.769
 8737SOL     OW27109   2.494   6.750   5.853
 8737SOL    HW127110   2.579   6.719   5.809
 8737SOL    HW227111   2.491   6.850   5.851
 8738SOL     OW27112   2.204   4.772   3.586
 8738SOL    HW127113   2.258   4.720   3.652
 8738SOL    HW227114   2.119   4.802   3.629
 8739SOL     OW27115   6.430   5.075   5.832
 8739SOL    HW127116   6.495   5.006   5.803
 8739SOL    HW227117   6.348   5.071   5.774
 8740SOL     OW27118   4.979   0.850   5.240
 8740SOL    HW127119   5.012   0.794   5.316
 8740SOL    HW227120   5.002   0.946   5.258
 8741SOL     OW27121   2.200   0.845   1.844
 8741SOL    HW127122   2.205   0.943   1.830
 8741SOL    HW227123   2.163   0.801   1.762
 8742SOL     OW27124   5.884   6.264   1.457
 8742SOL    HW127125   5.968   6.307   1.424
 8742SOL    HW227126   5.834   6.224   1.380
 8743SOL     OW27127   1.756   6.738   2.877
 8743SOL    HW127128   1.848   6.759   2.845
 8743SOL    HW227129   1.710   6.678   2.812
 8744SOL     OW27130   4.021   2.571   5.717
 8744SOL    HW127131   3.935   2.526   5.740
 8744SOL    HW227132   4.034   2.650   5.777
 8745SOL     OW27133   5.935   2.359   5.587
 8745SOL    HW127134   6.030   2.330   5.588
 8745SOL    HW227135   5.892   2.337   5.674
 8746SOL     OW27136   4.562   4.369   5.252
 8746SOL    HW127137   4.638   4.304   5.249
 8746SOL    HW227138   4.486   4.329   5.302
 8747SOL     OW27139   0.304   3.154   2.822
 8747SOL    HW127140   0.320   3.157   2.920
 8747SOL    HW227141   0.272   3.062   2.796
 8748SOL     OW27142   0.268   1.779   6.036
 8748SOL    HW127143   0.316   1.693   6.057
 8748SOL    HW227144   0.197   1.795   6.104
 8749SOL     OW27145   2.962   6.988   5.961
 8749SOL    HW127146   2.942   7.023   5.869
 8749SOL    HW227147   2.900   0.002   6.027
 8750SOL     OW27148   3.104   3.121   5.233
 8750SOL    HW127149   3.202   3.133   5.217
 8750SOL    HW227150   3.060   3.210   5.245
 8751SOL     OW27151   6.322   0.442   2.579
 8751SOL    HW127152   6.303   0.361   2.633
 8751SOL    HW227153   6.411   0.480   2.606
 8752SOL     OW27154   2.824   4.613   6.448
 8752SOL    HW127155   2.814   4.542   6.378
 8752SOL    HW227156   2.761   4.596   6.523
 8753SOL     OW27157   4.813   1.926   5.101
 8753SOL    HW127158   4.808   1.950   5.198
 8753SOL    HW227159   4.720   1.921   5.063
 8754SOL     OW27160   1.529   1.917   5.862
 8754SOL    HW127161   1.578   1.830   5.858
 8754SOL    HW227162   1.545   1.959   5.951
 8755SOL     OW27163   2.513   1.127   6.407
 8755SOL    HW127164   2.459   1.119   6.323
 8755SOL    HW227165   2.575   1.205   6.400
 8756SOL     OW27166   2.034   3.747   2.966
 8756SOL    HW127167   2.097   3.824   2.953
 8756SOL    HW227168   1.956   3.758   2.905
 8757SOL     OW27169   5.521   6.884   5.497
 8757SOL    HW127170   5.577   6.843   5.425
 8757SOL    HW227171   5.456   6.817   5.531
 8758SOL     OW27172   4.734   6.331   1.843
 8758SOL    HW127173   4.826   6.314   1.877
 8758SOL    HW227174   4.670   6.266   1.884
 8759SOL     OW27175   4.283   2.241   6.605
 8759SOL    HW127176   4.375   2.209   6.584
 8759SOL    HW227177   4.288   2.326   6.657
 8760SOL     OW27178   1.936   1.873   4.846
 8760SOL    HW127179   1.844   1.906   4.824
 8760SOL    HW227180   1.970   1.817   4.770
 8761SOL     OW27181   4.131   0.597   1.473
 8761SOL    HW127182   4.221   0.594   1.517
 8761SOL    HW227183   4.060   0.605   1.544
 8762SOL     OW27184   0.584   3.868   2.857
 8762SOL    HW127185   0.553   3.910   2.772
 8762SOL    HW227186   0.626   3.779   2.837
 8763SOL     OW27187   6.134   5.579   5.375
 8763SOL    HW127188   6.161   5.663   5.422
 8763SOL    HW227189   6.090   5.517   5.439
 8764SOL     OW27190   5.140   0.663   4.563
 8764SOL    HW127191   5.105   0.569   4.571
 8764SOL    HW227192   5.139   0.690   4.467
 8765SOL     OW27193   6.563   6.866   4.801
 8765SOL    HW127194   6.616   6.946   4.773
 8765SOL    HW227195   6.570   6.853   4.900
 8766SOL     OW27196   3.877   5.308   2.699
 8766SOL    HW127197   3.904   5.403   2.684
 8766SOL    HW227198   3.796   5.305   2.757
 8767SOL     OW27199   4.230   0.143   3.076
 8767SOL    HW127200   4.232   0.046   3.101
 8767SOL    HW227201   4.279   0.157   2.990
 8768SOL     OW27202   0.975   2.982   0.536
 8768SOL    HW127203   0.989   3.023   0.626
 8768SOL    HW227204   1.063   2.952   0.499
 8769SOL     OW27205   1.395   0.082   4.336
 8769SOL    HW127206   1.353   0.029   4.263
 8769SOL    HW227207   1.431   0.167   4.298
 8770SOL     OW27208   5.028   4.310   2.230
 8770SOL    HW127209   5.051   4.242   2.161
 8770SOL    HW227210   5.030   4.402   2.190
 8771SOL     OW27211   0.886   0.363   5.523
 8771SOL    HW127212   0.867   0.416   5.606
 8771SOL    HW227213   0.890   0.266   5.546
 8772SOL     OW27214   5.964   6.694   0.268
 8772SOL    HW127215   6.056   6.656   0.277
 8772SOL    HW227216   5.965   6.766   0.199
 8773SOL     OW27217   4.748   1.958   3.479
 8773SOL    HW127218   4.722   2.000   3.566
 8773SOL    HW227219   4.800   1.875   3.497
 8774SOL     OW27220   2.559   1.603   0.402
 8774SOL    HW127221   2.564   1.703   0.404
 8774SOL    HW227222   2.652   1.566   0.399
 8775SOL     OW27223   6.378   0.460   5.094
 8775SOL    HW127224   6.346   0.526   5.027
 8775SOL    HW227225   6.478   0.457   5.092
 8776SOL     OW27226   2.913   3.569   4.908
 8776SOL    HW127227   2.822   3.528   4.913
 8776SOL    HW227228   2.933   3.595   4.814
 8777SOL     OW27229   0.062   3.916   1.031
 8777SOL    HW127230   0.124   3.903   0.954
 8777SOL    HW227231   0.070   4.009   1.066
 8778SOL     OW27232   6.255   2.694   4.229
 8778SOL    HW127233   6.270   2.599   4.259
 8778SOL    HW227234   6.176   2.732   4.277
 8779SOL     OW27235   2.542   5.219   1.999
 8779SOL    HW127236   2.568   5.144   2.061
 8779SOL    HW227237   2.530   5.303   2.051
 8780SOL     OW27238   1.315   5.448   3.701
 8780SOL    HW127239   1.368   5.493   3.773
 8780SOL    HW227240   1.259   5.375   3.741
 8781SOL     OW27241   6.284   2.357   3.957
 8781SOL    HW127242   6.285   2.318   4.049
 8781SOL    HW227243   6.377   2.387   3.932
 8782SOL     OW27244   5.482   0.818   2.039
 8782SOL    HW127245   5.519   0.727   2.023
 8782SOL    HW227246   5.397   0.829   1.988
 8783SOL     OW27247   6.275   3.253   3.745
 8783SOL    HW127248   6.269   3.160   3.781
 8783SOL    HW227249   6.345   3.255   3.673
 8784SOL     OW27250   5.199   3.915   4.863
 8784SOL    HW127251   5.155   4.004   4.846
 8784SOL    HW227252   5.131   3.843   4.857
 8785SOL     OW27253   6.199   3.422   6.981
 8785SOL    HW127254   6.168   3.371   6.901
 8785SOL    HW227255   6.122   3.473   7.021
 8786SOL     OW27256   2.809   6.158   0.263
 8786SOL    HW127257   2.820   6.227   0.192
 8786SOL    HW227258   2.898   6.116   0.284
 8787SOL     OW27259   1.542   2.825   2.156
 8787SOL    HW127260   1.629   2.783   2.131
 8787SOL    HW227261   1.538   2.918   2.119
 8788SOL     OW27262   6.689   2.171   5.650
 8788SOL    HW127263   6.645   2.172   5.740
 8788SOL    HW227264   6.618   2.178   5.580
 8789SOL     OW27265   5.903   6.722   5.906
 8789SOL    HW127266   5.910   6.753   6.001
 8789SOL    HW227267   5.970   6.649   5.890
 8790SOL     OW27268   6.973   1.515   0.372
 8790SOL    HW127269   6.969   1.465   0.285
 8790SOL    HW227270   7.028   1.597   0.360
 8791SOL     OW27271   5.514   6.954   4.757
 8791SOL    HW127272   5.493   6.957   4.659
 8791SOL    HW227273   5.485   6.866   4.795
 8792SOL     OW27274   3.773   6.067   2.965
 8792SOL    HW127275   3.689   6.077   2.911
 8792SOL    HW227276   3.749   6.045   3.060
 8793SOL     OW27277   1.623   5.520   3.723
 8793SOL    HW127278   1.676   5.483   3.647
 8793SOL    HW227279   1.561   5.590   3.688
 8794SOL     OW27280   3.861   6.630   2.011
 8794SOL    HW127281   3.780   6.612   1.956
 8794SOL    HW227282   3.899   6.543   2.043
 8795SOL     OW27283   1.575   6.528   4.963
 8795SOL    HW127284   1.636   6.449   4.968
 8795SOL    HW227285   1.617   6.605   5.012
 8796SOL     OW27286   3.955   0.601   5.276
 8796SOL    HW127287   3.933   0.698   5.288
 8796SOL    HW227288   3.908   0.548   5.347
 8797SOL     OW27289   1.156   7.004   5.173
 8797SOL    HW127290   1.139   0.014   5.082
 8797SOL    HW227291   1.151   6.904   5.168
 8798SOL     OW27292   5.330   4.912   5.258
 8798SOL    HW127293   5.362   4.953   5.343
 8798SOL    HW227294   5.401   4.854   5.220
 8799SOL     OW27295   1.887   4.730   3.353
 8799SOL    HW127296   1.985   4.707   3.354
 8799SOL    HW227297   1.854   4.736   3.447
 8800SOL     OW27298   5.937   3.938   4.829
 8800SOL    HW127299   5.981   4.022   4.797
 8800SOL    HW227300   6.005   3.879   4.872
 8801SOL     OW27301   1.477   1.277   4.600
 8801SOL    HW127302   1.450   1.324   4.516
 8801SOL    HW227303   1.515   1.343   4.664
 8802SOL     OW27304   1.277   0.620   0.390
 8802SOL    HW127305   1.227   0.601   0.306
 8802SOL    HW227306   1.215   0.614   0.468
 8803SOL     OW27307   1.319   5.391   5.924
 8803SOL    HW127308   1.289   5.334   5.848
 8803SOL    HW227309   1.418   5.400   5.922
 8804SOL     OW27310   3.160   0.491   1.967
 8804SOL    HW127311   3.195   0.574   2.011
 8804SOL    HW227312   3.188   0.411   2.019
 8805SOL     OW27313   2.693   0.336   4.186
 8805SOL    HW127314   2.642   0.286   4.256
 8805SOL    HW227315   2.653   0.426   4.174
 8806SOL     OW27316   1.664   4.982   2.008
 8806SOL    HW127317   1.622   5.068   2.034
 8806SOL    HW227318   1.601   4.907   2.025
 8807SOL     OW27319   6.554   6.336   6.111
 8807SOL    HW127320   6.626   6.405   6.113
 8807SOL    HW227321   6.564   6.276   6.191
 8808SOL     OW27322   5.132   2.042   1.118
 8808SOL    HW127323   5.198   2.059   1.045
 8808SOL    HW227324   5.092   2.128   1.148
 8809SOL     OW27325   5.606   4.328   2.597
 8809SOL    HW127326   5.514   4.349   2.564
 8809SOL    HW227327   5.605   4.241   2.646
 8810SOL     OW27328   5.437   1.711   5.955
 8810SOL    HW127329   5.484   1.676   6.036
 8810SOL    HW227330   5.351   1.754   5.982
 8811SOL     OW27331   3.127   1.785   3.641
 8811SOL    HW127332   3.046   1.826   3.600
 8811SOL    HW227333   3.209   1.826   3.600
 8812SOL     OW27334   1.496   0.702   0.522
 8812SOL    HW127335   1.402   0.680   0.496
 8812SOL    HW227336   1.547   0.729   0.440
 8813SOL     OW27337   1.176   4.915   1.253
 8813SOL    HW127338   1.142   4.909   1.346
 8813SOL    HW227339   1.103   4.892   1.189
 8814SOL     OW27340   6.593   0.785   0.863
 8814SOL    HW127341   6.579   0.854   0.934
 8814SOL    HW227342   6.691   0.770   0.849
 8815SOL     OW27343   6.653   6.659   0.562
 8815SOL    HW127344   6.557   6.649   0.538
 8815SOL    HW227345   6.671   6.752   0.594
 8816SOL     OW27346   2.104   0.446   0.262
 8816SOL    HW127347   2.020   0.490   0.293
 8816SOL    HW227348   2.179   0.512   0.265
 8817SOL     OW27349   0.465   5.926   5.763
 8817SOL    HW127350   0.496   5.850   5.821
 8817SOL    HW227351   0.437   5.890   5.674
 8818SOL     OW27352   0.797   3.443   3.517
 8818SOL    HW127353   0.836   3.512   3.578
 8818SOL    HW227354   0.704   3.422   3.546
 8819SOL     OW27355   4.357   5.546   4.116
 8819SOL    HW127356   4.344   5.567   4.019
 8819SOL    HW227357   4.280   5.492   4.149
 8820SOL     OW27358   2.408   1.786   4.166
 8820SOL    HW127359   2.426   1.831   4.253
 8820SOL    HW227360   2.444   1.842   4.091
 8821SOL     OW27361   2.689   5.974   0.494
 8821SOL    HW127362   2.655   6.049   0.437
 8821SOL    HW227363   2.651   5.981   0.586
 8822SOL     OW27364   1.116   0.295   3.449
 8822SOL    HW127365   1.129   0.225   3.519
 8822SOL    HW227366   1.171   0.274   3.369
 8823SOL     OW27367   1.928   0.669   0.732
 8823SOL    HW127368   1.906   0.572   0.742
 8823SOL    HW227369   1.945   0.710   0.822
 8824SOL     OW27370   1.452   3.474   1.021
 8824SOL    HW127371   1.502   3.406   0.967
 8824SOL    HW227372   1.361   3.440   1.041
 8825SOL     OW27373   1.852   0.633   3.539
 8825SOL    HW127374   1.793   0.555   3.560
 8825SOL    HW227375   1.810   0.717   3.573
 8826SOL     OW27376   6.346   2.476   0.670
 8826SOL    HW127377   6.279   2.449   0.739
 8826SOL    HW227378   6.358   2.402   0.604
 8827SOL     OW27379   3.232   1.739   3.043
 8827SOL    HW127380   3.204   1.812   2.980
 8827SOL    HW227381   3.292   1.675   2.996
 8828SOL     OW27382   4.473   5.586   4.591
 8828SOL    HW127383   4.416   5.517   4.635
 8828SOL    HW227384   4.557   5.544   4.558
 8829SOL     OW27385   0.368   2.460   7.014
 8829SOL    HW127386   0.324   2.470   0.074
 8829SOL    HW227387   0.393   2.364   7.000
 8830SOL     OW27388   0.659   1.214   1.194
 8830SOL    HW127389   0.692   1.126   1.159
 8830SOL    HW227390   0.651   1.279   1.118
 8831SOL     OW27391   5.516   1.124   3.593
 8831SOL    HW127392   5.535   1.056   3.664
 8831SOL    HW227393   5.418   1.123   3.573
 8832SOL     OW27394   6.253   6.054   2.695
 8832SOL    HW127395   6.204   6.017   2.774
 8832SOL    HW227396   6.230   6.151   2.684
 8833SOL     OW27397   1.822   6.664   5.549
 8833SOL    HW127398   1.919   6.677   5.568
 8833SOL    HW227399   1.811   6.592   5.480
 8834SOL     OW27400   5.249   3.877   4.504
 8834SOL    HW127401   5.311   3.810   4.545
 8834SOL    HW227402   5.190   3.916   4.576
 8835SOL     OW27403   6.301   1.075   5.866
 8835SOL    HW127404   6.300   0.990   5.813
 8835SOL    HW227405   6.280   1.152   5.806
 8836SOL     OW27406   4.659   1.143   6.815
 8836SOL    HW127407   4.655   1.063   6.875
 8836SOL    HW227408   4.577   1.199   6.828
 8837SOL     OW27409   0.450   6.775   2.446
 8837SOL    HW127410   0.490   6.859   2.409
 8837SOL    HW227411   0.358   6.795   2.482
 8838SOL     OW27412   3.038   4.851   2.965
 8838SOL    HW127413   3.047   4.792   3.045
 8838SOL    HW227414   2.962   4.915   2.978
 8839SOL     OW27415   5.128   5.655   2.297
 8839SOL    HW127416   5.176   5.586   2.244
 8839SOL    HW227417   5.036   5.623   2.319
 8840SOL     OW27418   6.663   2.220   2.211
 8840SOL    HW127419   6.718   2.288   2.259
 8840SOL    HW227420   6.705   2.130   2.220
 8841SOL     OW27421   1.470   0.843   4.484
 8841SOL    HW127422   1.502   0.879   4.572
 8841SOL    HW227423   1.521   0.887   4.410
 8842SOL     OW27424   3.495   2.809   0.776
 8842SOL    HW127425   3.408   2.843   0.740
 8842SOL    HW227426   3.487   2.795   0.874
 8843SOL     OW27427   1.852   3.388   4.771
 8843SOL    HW127428   1.804   3.337   4.843
 8843SOL    HW227429   1.936   3.339   4.746
 8844SOL     OW27430   5.494   1.482   0.557
 8844SOL    HW127431   5.548   1.553   0.602
 8844SOL    HW227432   5.547   1.442   0.483
 8845SOL     OW27433   4.408   4.178   6.845
 8845SOL    HW127434   4.463   4.192   6.762
 8845SOL    HW227435   4.452   4.223   6.922
 8846SOL     OW27436   2.230   5.436   3.642
 8846SOL    HW127437   2.304   5.386   3.599
 8846SOL    HW227438   2.225   5.412   3.739
 8847SOL     OW27439   2.719   0.903   2.530
 8847SOL    HW127440   2.746   0.983   2.582
 8847SOL    HW227441   2.636   0.923   2.478
 8848SOL     OW27442   2.636   0.786   1.791
 8848SOL    HW127443   2.565   0.717   1.802
 8848SOL    HW227444   2.608   0.852   1.721
 8849SOL     OW27445   2.929   6.446   2.950
 8849SOL    HW127446   2.883   6.423   3.036
 8849SOL    HW227447   2.896   6.535   2.917
 8850SOL     OW27448   1.207   1.806   0.255
 8850SOL    HW127449   1.124   1.822   0.308
 8850SOL    HW227450   1.194   1.843   0.163
 8851SOL     OW27451   1.634   4.305   2.220
 8851SOL    HW127452   1.711   4.358   2.255
 8851SOL    HW227453   1.627   4.218   2.270
 8852SOL     OW27454   1.150   1.894   5.171
 8852SOL    HW127455   1.166   1.805   5.214
 8852SOL    HW227456   1.228   1.954   5.187
 8853SOL     OW27457   2.834   0.919   1.934
 8853SOL    HW127458   2.776   0.851   1.888
 8853SOL    HW227459   2.929   0.888   1.933
 8854SOL     OW27460   1.907   3.009   4.414
 8854SOL    HW127461   1.929   2.960   4.499
 8854SOL    HW227462   1.923   3.107   4.428
 8855SOL     OW27463   6.428   5.012   1.303
 8855SOL    HW127464   6.352   5.025   1.366
 8855SOL    HW227465   6.513   5.005   1.354
 8856SOL     OW27466   0.085   6.178   6.605
 8856SOL    HW127467   0.153   6.217   6.544
 8856SOL    HW227468   0.009   6.141   6.552
 8857SOL     OW27469   6.825   1.889   4.943
 8857SOL    HW127470   6.743   1.941   4.917
 8857SOL    HW227471   6.797   1.801   4.981
 8858SOL     OW27472   0.256   4.893   4.625
 8858SOL    HW127473   0.235   4.803   4.587
 8858SOL    HW227474   0.191   4.960   4.589
 8859SOL     OW27475   1.113   1.050   3.807
 8859SOL    HW127476   1.028   1.038   3.757
 8859SOL    HW227477   1.105   1.006   3.897
 8860SOL     OW27478   6.569   2.513   1.562
 8860SOL    HW127479   6.597   2.426   1.603
 8860SOL    HW227480   6.480   2.502   1.518
 8861SOL     OW27481   4.096   0.968   6.984
 8861SOL    HW127482   3.997   0.970   6.974
 8861SOL    HW227483   4.120   0.975   0.052
 8862SOL     OW27484   5.289   6.625   3.727
 8862SOL    HW127485   5.367   6.581   3.771
 8862SOL    HW227486   5.267   6.577   3.642
 8863SOL     OW27487   1.965   5.175   3.140
 8863SOL    HW127488   1.922   5.233   3.210
 8863SOL    HW227489   1.917   5.088   3.136
 8864SOL     OW27490   4.373   3.832   6.326
 8864SOL    HW127491   4.373   3.791   6.418
 8864SOL    HW227492   4.333   3.767   6.261
 8865SOL     OW27493   3.381   0.678   5.354
 8865SOL    HW127494   3.408   0.594   5.400
 8865SOL    HW227495   3.373   0.661   5.256
 8866SOL     OW27496   4.873   6.950   2.797
 8866SOL    HW127497   4.972   6.939   2.803
 8866SOL    HW227498   4.852   0.008   2.751
 8867SOL     OW27499   6.117   4.004   3.807
 8867SOL    HW127500   6.097   3.964   3.896
 8867SOL    HW227501   6.034   4.005   3.751
 8868SOL     OW27502   6.503   3.829   2.530
 8868SOL    HW127503   6.562   3.845   2.609
 8868SOL    HW227504   6.436   3.902   2.522
 8869SOL     OW27505   3.926   5.977   5.284
 8869SOL    HW127506   3.940   5.902   5.220
 8869SOL    HW227507   4.014   6.007   5.320
 8870SOL     OW27508   1.624   6.514   1.701
 8870SOL    HW127509   1.543   6.456   1.698
 8870SOL    HW227510   1.689   6.479   1.769
 8871SOL     OW27511   2.086   0.914   3.356
 8871SOL    HW127512   1.994   0.950   3.347
 8871SOL    HW227513   2.141   0.974   3.415
 8872SOL     OW27514   0.998   5.141   6.396
 8872SOL    HW127515   0.946   5.078   6.338
 8872SOL    HW227516   0.976   5.235   6.372
 8873SOL     OW27517   1.342   6.871   1.778
 8873SOL    HW127518   1.405   6.793   1.772
 8873SOL    HW227519   1.290   6.865   1.864
 8874SOL     OW27520   1.240   5.722   2.191
 8874SOL    HW127521   1.329   5.766   2.203
 8874SOL    HW227522   1.236   5.680   2.100
 8875SOL     OW27523   0.291   3.221   4.161
 8875SOL    HW127524   0.373   3.277   4.152
 8875SOL    HW227525   0.223   3.249   4.093
 8876SOL     OW27526   2.656   0.882   6.509
 8876SOL    HW127527   2.606   0.968   6.497
 8876SOL    HW227528   2.671   0.866   6.606
 8877SOL     OW27529   1.631   3.632   3.147
 8877SOL    HW127530   1.611   3.694   3.222
 8877SOL    HW227531   1.547   3.586   3.119
 8878SOL     OW27532   3.552   4.973   0.523
 8878SOL    HW127533   3.527   4.950   0.617
 8878SOL    HW227534   3.651   4.965   0.511
 8879SOL     OW27535   6.269   4.757   2.116
 8879SOL    HW127536   6.277   4.731   2.212
 8879SOL    HW227537   6.213   4.690   2.068
 8880SOL     OW27538   4.079   6.033   4.713
 8880SOL    HW127539   4.095   6.121   4.667
 8880SOL    HW227540   4.005   6.043   4.780
 8881SOL     OW27541   4.997   5.463   4.391
 8881SOL    HW127542   5.032   5.380   4.434
 8881SOL    HW227543   5.072   5.528   4.376
 8882SOL     OW27544   3.628   0.841   0.900
 8882SOL    HW127545   3.635   0.934   0.864
 8882SOL    HW227546   3.679   0.778   0.841
 8883SOL     OW27547   1.082   6.098   6.035
 8883SOL    HW127548   1.052   6.177   6.089
 8883SOL    HW227549   1.043   6.103   5.944
 8884SOL     OW27550   6.249   4.050   5.077
 8884SOL    HW127551   6.163   4.000   5.069
 8884SOL    HW227552   6.279   4.080   4.986
 8885SOL     OW27553   5.118   4.817   0.666
 8885SOL    HW127554   5.114   4.739   0.729
 8885SOL    HW227555   5.151   4.786   0.577
 8886SOL     OW27556   4.095   5.692   6.224
 8886SOL    HW127557   4.068   5.645   6.140
 8886SOL    HW227558   4.175   5.749   6.206
 8887SOL     OW27559   3.622   1.861   0.985
 8887SOL    HW127560   3.582   1.902   1.067
 8887SOL    HW227561   3.720   1.847   0.999
 8888SOL     OW27562   2.432   2.196   4.218
 8888SOL    HW127563   2.440   2.101   4.249
 8888SOL    HW227564   2.354   2.239   4.262
 8889SOL     OW27565   6.934   6.419   6.279
 8889SOL    HW127566   6.848   6.458   6.246
 8889SOL    HW227567   7.000   6.417   6.204
 8890SOL     OW27568   0.598   6.183   6.517
 8890SOL    HW127569   0.511   6.155   6.476
 8890SOL    HW227570   0.610   6.135   6.604
 8891SOL     OW27571   4.352   3.915   6.971
 8891SOL    HW127572   4.329   3.841   6.908
 8891SOL    HW227573   4.382   3.995   6.918
 8892SOL     OW27574   3.890   4.904   3.641
 8892SOL    HW127575   3.803   4.922   3.593
 8892SOL    HW227576   3.877   4.920   3.739
 8893SOL     OW27577   1.573   5.956   5.307
 8893SOL    HW127578   1.491   5.943   5.252
 8893SOL    HW227579   1.594   5.871   5.356
 8894SOL     OW27580   4.092   1.735   6.942
 8894SOL    HW127581   4.089   1.811   7.007
 8894SOL    HW227582   4.114   1.770   6.851
 8895SOL     OW27583   0.671   2.406   1.204
 8895SOL    HW127584   0.645   2.366   1.292
 8895SOL    HW227585   0.625   2.358   1.130
 8896SOL     OW27586   1.816   2.805   4.822
 8896SOL    HW127587   1.829   2.708   4.841
 8896SOL    HW227588   1.719   2.828   4.831
 8897SOL     OW27589   2.203   3.833   3.537
 8897SOL    HW127590   2.214   3.928   3.568
 8897SOL    HW227591   2.185   3.832   3.439
 8898SOL     OW27592   6.075   3.834   2.053
 8898SOL    HW127593   6.082   3.846   2.152
 8898SOL    HW227594   6.045   3.740   2.033
 8899SOL     OW27595   0.357   4.534   6.629
 8899SOL    HW127596   0.271   4.484   6.640
 8899SOL    HW227597   0.432   4.479   6.665
 8900SOL     OW27598   5.766   2.443   3.370
 8900SOL    HW127599   5.728   2.516   3.427
 8900SOL    HW227600   5.825   2.384   3.426
 8901SOL     OW27601   1.263   1.454   3.694
 8901SOL    HW127602   1.165   1.464   3.675
 8901SOL    HW227603   1.295   1.531   3.749
 8902SOL     OW27604   1.649   5.636   6.754
 8902SOL    HW127605   1.549   5.647   6.754
 8902SOL    HW227606   1.683   5.637   6.660
 8903SOL     OW27607   1.150   2.321   4.724
 8903SOL    HW127608   1.079   2.252   4.736
 8903SOL    HW227609   1.193   2.309   4.634
 8904SOL     OW27610   1.049   1.806   3.603
 8904SOL    HW127611   1.079   1.786   3.510
 8904SOL    HW227612   1.098   1.886   3.637
 8905SOL     OW27613   1.533   3.430   2.619
 8905SOL    HW127614   1.465   3.491   2.579
 8905SOL    HW227615   1.499   3.336   2.618
 8906SOL     OW27616   1.309   6.033   1.004
 8906SOL    HW127617   1.238   6.018   1.073
 8906SOL    HW227618   1.301   6.125   0.967
 8907SOL     OW27619   2.750   2.749   5.438
 8907SOL    HW127620   2.795   2.838   5.450
 8907SOL    HW227621   2.815   2.683   5.400
 8908SOL     OW27622   1.710   5.066   6.769
 8908SOL    HW127623   1.765   5.100   6.845
 8908SOL    HW227624   1.613   5.079   6.788
 8909SOL     OW27625   2.862   1.194   6.413
 8909SOL    HW127626   2.889   1.151   6.328
 8909SOL    HW227627   2.783   1.254   6.397
 8910SOL     OW27628   0.156   3.201   5.196
 8910SOL    HW127629   0.255   3.185   5.197
 8910SOL    HW227630   0.108   3.115   5.208
 8911SOL     OW27631   5.534   3.028   4.823
 8911SOL    HW127632   5.435   3.033   4.810
 8911SOL    HW227633   5.575   3.118   4.807
 8912SOL     OW27634   3.036   3.173   6.275
 8912SOL    HW127635   3.131   3.194   6.252
 8912SOL    HW227636   3.032   3.143   6.370
 8913SOL     OW27637   4.782   4.936   6.726
 8913SOL    HW127638   4.821   4.913   6.637
 8913SOL    HW227639   4.743   4.854   6.768
 8914SOL     OW27640   4.856   6.959   4.648
 8914SOL    HW127641   4.936   6.933   4.594
 8914SOL    HW227642   4.841   6.890   4.719
 8915SOL     OW27643   1.367   2.232   4.570
 8915SOL    HW127644   1.429   2.184   4.631
 8915SOL    HW227645   1.332   2.169   4.501
 8916SOL     OW27646   6.188   2.370   6.778
 8916SOL    HW127647   6.204   2.324   6.690
 8916SOL    HW227648   6.275   2.400   6.816
 8917SOL     OW27649   5.529   2.399   1.013
 8917SOL    HW127650   5.577   2.363   0.933
 8917SOL    HW227651   5.554   2.346   1.093
 8918SOL     OW27652   1.366   5.531   0.644
 8918SOL    HW127653   1.429   5.479   0.701
 8918SOL    HW227654   1.360   5.625   0.677
 8919SOL     OW27655   5.042   4.589   6.411
 8919SOL    HW127656   4.973   4.605   6.340
 8919SOL    HW227657   5.106   4.518   6.380
 8920SOL     OW27658   0.681   2.156   6.660
 8920SOL    HW127659   0.757   2.139   6.598
 8920SOL    HW227660   0.706   2.130   6.753
 8921SOL     OW27661   1.494   2.717   1.506
 8921SOL    HW127662   1.543   2.793   1.548
 8921SOL    HW227663   1.512   2.632   1.557
 8922SOL     OW27664   3.963   6.417   2.106
 8922SOL    HW127665   3.936   6.390   2.198
 8922SOL    HW227666   4.001   6.338   2.058
 8923SOL     OW27667   1.338   1.307   5.175
 8923SOL    HW127668   1.286   1.280   5.256
 8923SOL    HW227669   1.351   1.228   5.115
 8924SOL     OW27670   5.175   5.613   5.000
 8924SOL    HW127671   5.257   5.589   4.947
 8924SOL    HW227672   5.119   5.531   5.013
 8925SOL     OW27673   6.970   0.014   2.196
 8925SOL    HW127674   6.907   7.017   2.123
 8925SOL    HW227675   6.964   0.113   2.211
 8926SOL     OW27676   6.391   3.463   4.895
 8926SOL    HW127677   6.394   3.556   4.933
 8926SOL    HW227678   6.296   3.430   4.899
 8927SOL     OW27679   6.379   1.806   4.747
 8927SOL    HW127680   6.298   1.854   4.778
 8927SOL    HW227681   6.414   1.748   4.821
 8928SOL     OW27682   1.161   7.016   6.133
 8928SOL    HW127683   1.205   0.069   6.098
 8928SOL    HW227684   1.223   6.969   6.196
 8929SOL     OW27685   6.595   2.288   5.237
 8929SOL    HW127686   6.687   2.251   5.226
 8929SOL    HW227687   6.532   2.240   5.176
 8930SOL     OW27688   0.710   3.090   3.393
 8930SOL    HW127689   0.672   3.182   3.389
 8930SOL    HW227690   0.635   3.023   3.388
 8931SOL     OW27691   3.100   3.292   1.751
 8931SOL    HW127692   3.116   3.220   1.819
 8931SOL    HW227693   3.185   3.314   1.705
 8932SOL     OW27694   0.063   2.355   2.637
 8932SOL    HW127695   0.002   2.431   2.615
 8932SOL    HW227696   0.008   2.273   2.658
 8933SOL     OW27697   3.189   2.776   6.395
 8933SOL    HW127698   3.171   2.820   6.482
 8933SOL    HW227699   3.103   2.743   6.356
 8934SOL     OW27700   3.726   4.916   5.226
 8934SOL    HW127701   3.793   4.886   5.293
 8934SOL    HW227702   3.644   4.950   5.273
 8935SOL     OW27703   0.331   4.648   6.893
 8935SOL    HW127704   0.339   4.609   6.801
 8935SOL    HW227705   0.267   4.725   6.890
 8936SOL     OW27706   1.795   4.134   0.502
 8936SOL    HW127707   1.741   4.188   0.565
 8936SOL    HW227708   1.752   4.045   0.488
 8937SOL     OW27709   0.283   0.410   4.790
 8937SOL    HW127710   0.216   0.371   4.727
 8937SOL    HW227711   0.373   0.369   4.774
 8938SOL     OW27712   0.519   5.476   0.501
 8938SOL    HW127713   0.465   5.407   0.451
 8938SOL    HW227714   0.461   5.555   0.521
 8939SOL     OW27715   4.837   2.725   4.314
 8939SOL    HW127716   4.787   2.710   4.229
 8939SOL    HW227717   4.802   2.662   4.384
 8940SOL     OW27718   0.272   1.155   4.029
 8940SOL    HW127719   0.172   1.154   4.016
 8940SOL    HW227720   0.315   1.192   3.947
 8941SOL     OW27721   5.595   2.482   5.081
 8941SOL    HW127722   5.689   2.475   5.046
 8941SOL    HW227723   5.589   2.560   5.143
 8942SOL     OW27724   0.728   4.311   5.346
 8942SOL    HW127725   0.772   4.221   5.350
 8942SOL    HW227726   0.793   4.381   5.378
 8943SOL     OW27727   3.486   3.936   0.255
 8943SOL    HW127728   3.455   3.903   0.344
 8943SOL    HW227729   3.572   3.987   0.266
 8944SOL     OW27730   4.879   5.089   4.893
 8944SOL    HW127731   4.957   5.063   4.836
 8944SOL    HW227732   4.907   5.090   4.989
 8945SOL     OW27733   2.064   0.836   3.758
 8945SOL    HW127734   2.152   0.884   3.757
 8945SOL    HW227735   2.059   0.774   3.680
 8946SOL     OW27736   2.723   1.459   4.823
 8946SOL    HW127737   2.700   1.386   4.887
 8946SOL    HW227738   2.789   1.425   4.755
 8947SOL     OW27739   1.603   4.021   5.247
 8947SOL    HW127740   1.698   4.013   5.278
 8947SOL    HW227741   1.576   3.936   5.202
 8948SOL     OW27742   6.273   5.932   4.024
 8948SOL    HW127743   6.205   5.860   4.025
 8948SOL    HW227744   6.242   6.009   4.080
 8949SOL     OW27745   2.337   6.973   0.481
 8949SOL    HW127746   2.365   0.018   0.542
 8949SOL    HW227747   2.290   6.902   0.533
 8950SOL     OW27748   5.147   3.211   5.730
 8950SOL    HW127749   5.193   3.251   5.650
 8950SOL    HW227750   5.049   3.230   5.725
 8951SOL     OW27751   0.854   2.269   5.124
 8951SOL    HW127752   0.800   2.259   5.040
 8951SOL    HW227753   0.792   2.283   5.201
 8952SOL     OW27754   1.441   0.103   2.305
 8952SOL    HW127755   1.473   0.100   2.400
 8952SOL    HW227756   1.341   0.091   2.303
 8953SOL     OW27757   0.818   3.898   6.525
 8953SOL    HW127758   0.880   3.963   6.569
 8953SOL    HW227759   0.858   3.807   6.527
 8954SOL     OW27760   0.586   6.417   6.274
 8954SOL    HW127761   0.595   6.458   6.365
 8954SOL    HW227762   0.555   6.323   6.283
 8955SOL     OW27763   0.595   4.632   2.437
 8955SOL    HW127764   0.550   4.584   2.513
 8955SOL    HW227765   0.585   4.578   2.353
 8956SOL     OW27766   0.053   1.926   0.153
 8956SOL    HW127767   0.094   2.010   0.116
 8956SOL    HW227768   7.013   1.891   0.089
 8957SOL     OW27769   3.073   4.318   1.695
 8957SOL    HW127770   3.013   4.369   1.756
 8957SOL    HW227771   3.027   4.303   1.607
 8958SOL     OW27772   0.930   0.261   4.575
 8958SOL    HW127773   0.994   0.337   4.563
 8958SOL    HW227774   0.874   0.278   4.657
 8959SOL     OW27775   1.354   4.723   1.181
 8959SOL    HW127776   1.444   4.766   1.174
 8959SOL    HW227777   1.285   4.793   1.198
 8960SOL     OW27778   4.857   5.809   2.233
 8960SOL    HW127779   4.760   5.820   2.253
 8960SOL    HW227780   4.874   5.715   2.203
 8961SOL     OW27781   2.259   2.486   4.602
 8961SOL    HW127782   2.230   2.422   4.673
 8961SOL    HW227783   2.357   2.504   4.612
 8962SOL     OW27784   6.256   6.904   2.715
 8962SOL    HW127785   6.229   6.969   2.785
 8962SOL    HW227786   6.287   6.953   2.633
 8963SOL     OW27787   4.926   6.685   4.049
 8963SOL    HW127788   4.883   6.732   4.126
 8963SOL    HW227789   5.001   6.740   4.013
 8964SOL     OW27790   6.186   3.777   3.401
 8964SOL    HW127791   6.164   3.703   3.338
 8964SOL    HW227792   6.153   3.753   3.493
 8965SOL     OW27793   2.006   5.123   0.461
 8965SOL    HW127794   1.930   5.180   0.492
 8965SOL    HW227795   2.053   5.084   0.540
 8966SOL     OW27796   1.414   4.145   5.428
 8966SOL    HW127797   1.466   4.125   5.346
 8966SOL    HW227798   1.457   4.101   5.507
 8967SOL     OW27799   3.558   6.473   1.639
 8967SOL    HW127800   3.574   6.444   1.544
 8967SOL    HW227801   3.540   6.393   1.696
 8968SOL     OW27802   5.208   4.665   2.508
 8968SOL    HW127803   5.175   4.680   2.414
 8968SOL    HW227804   5.277   4.734   2.530
 8969SOL     OW27805   6.613   0.201   3.895
 8969SOL    HW127806   6.526   0.248   3.878
 8969SOL    HW227807   6.595   0.108   3.928
 8970SOL     OW27808   2.909   2.781   0.141
 8970SOL    HW127809   2.948   2.865   0.179
 8970SOL    HW227810   2.904   2.712   0.213
 8971SOL     OW27811   4.313   5.368   2.063
 8971SOL    HW127812   4.221   5.404   2.081
 8971SOL    HW227813   4.380   5.442   2.077
 8972SOL     OW27814   4.910   5.349   6.441
 8972SOL    HW127815   4.840   5.393   6.497
 8972SOL    HW227816   4.958   5.280   6.495
 8973SOL     OW27817   1.002   3.172   2.246
 8973SOL    HW127818   0.948   3.247   2.284
 8973SOL    HW227819   0.985   3.165   2.148
 8974SOL     OW27820   1.443   4.406   5.744
 8974SOL    HW127821   1.494   4.349   5.809
 8974SOL    HW227822   1.494   4.414   5.658
 8975SOL     OW27823   2.707   6.965   6.650
 8975SOL    HW127824   2.711   6.878   6.698
 8975SOL    HW227825   2.614   7.001   6.653
 8976SOL     OW27826   0.941   5.181   5.018
 8976SOL    HW127827   0.870   5.184   5.088
 8976SOL    HW227828   0.954   5.086   4.988
 8977SOL     OW27829   5.838   1.462   6.851
 8977SOL    HW127830   5.898   1.530   6.807
 8977SOL    HW227831   5.892   1.409   6.917
 8978SOL     OW27832   5.797   6.829   6.412
 8978SOL    HW127833   5.744   6.754   6.373
 8978SOL    HW227834   5.779   6.835   6.511
 8979SOL     OW27835   1.299   3.040   4.395
 8979SOL    HW127836   1.284   3.108   4.467
 8979SOL    HW227837   1.395   3.013   4.394
 8980SOL     OW27838   2.407   3.224   5.335
 8980SOL    HW127839   2.322   3.256   5.292
 8980SOL    HW227840   2.439   3.142   5.288
 8981SOL     OW27841   3.508   1.499   5.043
 8981SOL    HW127842   3.532   1.596   5.048
 8981SOL    HW227843   3.588   1.447   5.013
 8982SOL     OW27844   1.642   2.436   0.586
 8982SOL    HW127845   1.701   2.517   0.587
 8982SOL    HW227846   1.684   2.365   0.530
 8983SOL     OW27847   2.368   6.729   6.262
 8983SOL    HW127848   2.367   6.662   6.187
 8983SOL    HW227849   2.388   6.820   6.225
 8984SOL     OW27850   0.884   0.129   4.027
 8984SOL    HW127851   0.952   0.157   4.093
 8984SOL    HW227852   0.858   0.207   3.970
 8985SOL     OW27853   3.162   2.746   0.453
 8985SOL    HW127854   3.159   2.831   0.400
 8985SOL    HW227855   3.088   2.686   0.423
 8986SOL     OW27856   4.237   5.591   2.788
 8986SOL    HW127857   4.210   5.687   2.796
 8986SOL    HW227858   4.168   5.541   2.738
 8987SOL     OW27859   4.286   6.813   2.068
 8987SOL    HW127860   4.218   6.812   2.141
 8987SOL    HW227861   4.330   6.724   2.061
 8988SOL     OW27862   1.436   4.855   4.785
 8988SOL    HW127863   1.376   4.775   4.785
 8988SOL    HW227864   1.489   4.856   4.870
 8989SOL     OW27865   5.080   3.740   0.337
 8989SOL    HW127866   5.105   3.795   0.416
 8989SOL    HW227867   5.073   3.798   0.256
 8990SOL     OW27868   1.891   5.689   4.524
 8990SOL    HW127869   1.984   5.653   4.536
 8990SOL    HW227870   1.826   5.612   4.520
 8991SOL     OW27871   1.550   2.497   4.909
 8991SOL    HW127872   1.648   2.481   4.920
 8991SOL    HW227873   1.520   2.460   4.821
 8992SOL     OW27874   4.534   1.212   0.779
 8992SOL    HW127875   4.540   1.112   0.774
 8992SOL    HW227876   4.444   1.241   0.747
 8993SOL     OW27877   4.833   2.456   1.345
 8993SOL    HW127878   4.798   2.404   1.424
 8993SOL    HW227879   4.806   2.552   1.355
 8994SOL     OW27880   1.284   3.566   5.407
 8994SOL    HW127881   1.276   3.622   5.489
 8994SOL    HW227882   1.350   3.492   5.423
 8995SOL     OW27883   1.390   2.575   7.003
 8995SOL    HW127884   1.296   2.572   0.010
 8995SOL    HW227885   1.399   2.651   6.940
 8996SOL     OW27886   4.994   4.514   6.929
 8996SOL    HW127887   5.002   4.436   6.990
 8996SOL    HW227888   5.071   4.576   6.945
 8997SOL     OW27889   5.017   2.090   6.133
 8997SOL    HW127890   5.009   2.033   6.215
 8997SOL    HW227891   4.990   2.038   6.052
 8998SOL     OW27892   6.160   3.925   4.075
 8998SOL    HW127893   6.162   3.909   4.173
 8998SOL    HW227894   6.253   3.922   4.038
 8999SOL     OW27895   5.114   6.726   5.950
 8999SOL    HW127896   5.153   6.816   5.968
 8999SOL    HW227897   5.178   6.655   5.978
 9000SOL     OW27898   1.400   3.319   1.688
 9000SOL    HW127899   1.350   3.265   1.620
 9000SOL    HW227900   1.485   3.272   1.711
 9001SOL     OW27901   1.144   4.777   2.104
 9001SOL    HW127902   1.094   4.709   2.158
 9001SOL    HW227903   1.157   4.742   2.012
 9002SOL     OW27904   1.782   5.229   5.379
 9002SOL    HW127905   1.791   5.139   5.423
 9002SOL    HW227906   1.686   5.257   5.380
 9003SOL     OW27907   5.931   4.050   1.596
 9003SOL    HW127908   5.854   4.087   1.545
 9003SOL    HW227909   5.971   3.972   1.547
 9004SOL     OW27910   4.242   6.070   0.765
 9004SOL    HW127911   4.294   6.063   0.850
 9004SOL    HW227912   4.225   6.166   0.743
 9005SOL     OW27913   6.680   2.523   5.041
 9005SOL    HW127914   6.637   2.448   5.092
 9005SOL    HW227915   6.775   2.533   5.072
 9006SOL     OW27916   2.105   5.445   1.155
 9006SOL    HW127917   2.030   5.467   1.218
 9006SOL    HW227918   2.080   5.473   1.062
 9007SOL     OW27919   3.559   0.641   3.274
 9007SOL    HW127920   3.471   0.665   3.232
 9007SOL    HW227921   3.630   0.701   3.236
 9008SOL     OW27922   1.147   5.323   3.345
 9008SOL    HW127923   1.230   5.379   3.348
 9008SOL    HW227924   1.132   5.283   3.435
 9009SOL     OW27925   2.602   5.907   0.764
 9009SOL    HW127926   2.624   5.837   0.832
 9009SOL    HW227927   2.520   5.881   0.714
 9010SOL     OW27928   1.403   6.346   4.278
 9010SOL    HW127929   1.309   6.369   4.257
 9010SOL    HW227930   1.444   6.296   4.201
 9011SOL     OW27931   4.770   1.434   1.385
 9011SOL    HW127932   4.711   1.512   1.404
 9011SOL    HW227933   4.736   1.385   1.304
 9012SOL     OW27934   1.907   4.687   6.970
 9012SOL    HW127935   1.960   4.769   6.952
 9012SOL    HW227936   1.962   4.621   7.020
 9013SOL     OW27937   0.026   0.040   6.305
 9013SOL    HW127938   0.109   0.093   6.294
 9013SOL    HW227939   7.000   0.077   6.381
 9014SOL     OW27940   6.833   2.184   0.790
 9014SOL    HW127941   6.919   2.181   0.741
 9014SOL    HW227942   6.838   2.251   0.864
 9015SOL     OW27943   4.613   2.133   1.867
 9015SOL    HW127944   4.523   2.090   1.863
 9015SOL    HW227945   4.603   2.229   1.891
 9016SOL     OW27946   0.233   6.548   6.385
 9016SOL    HW127947   0.240   6.546   6.286
 9016SOL    HW227948   0.172   6.623   6.412
 9017SOL     OW27949   4.979   1.534   3.974
 9017SOL    HW127950   4.991   1.620   3.924
 9017SOL    HW227951   4.913   1.476   3.925
 9018SOL     OW27952   2.797   3.072   6.505
 9018SOL    HW127953   2.760   2.998   6.449
 9018SOL    HW227954   2.792   3.047   6.602
 9019SOL     OW27955   1.442   5.161   2.294
 9019SOL    HW127956   1.501   5.095   2.341
 9019SOL    HW227957   1.367   5.113   2.249
 9020SOL     OW27958   6.981   4.020   0.544
 9020SOL    HW127959   0.009   3.943   0.575
 9020SOL    HW227960   6.946   4.069   0.623
 9021SOL     OW27961   0.006   0.346   3.566
 9021SOL    HW127962   0.087   0.368   3.512
 9021SOL    HW227963   6.952   0.374   3.516
 9022SOL     OW27964   2.991   0.739   0.110
 9022SOL    HW127965   2.894   0.720   0.122
 9022SOL    HW227966   3.003   0.834   0.083
 9023SOL     OW27967   3.444   2.904   2.440
 9023SOL    HW127968   3.445   2.858   2.529
 9023SOL    HW227969   3.531   2.952   2.426
 9024SOL     OW27970   1.403   3.580   5.740
 9024SOL    HW127971   1.343   3.644   5.692
 9024SOL    HW227972   1.362   3.489   5.740
 9025SOL     OW27973   0.667   5.196   0.723
 9025SOL    HW127974   0.626   5.107   0.702
 9025SOL    HW227975   0.615   5.268   0.678
 9026SOL     OW27976   3.295   3.136   1.035
 9026SOL    HW127977   3.198   3.113   1.040
 9026SOL    HW227978   3.350   3.055   1.057
 9027SOL     OW27979   0.902   2.922   2.761
 9027SOL    HW127980   0.862   3.012   2.741
 9027SOL    HW227981   0.881   2.859   2.687
 9028SOL     OW27982   2.933   2.934   5.374
 9028SOL    HW127983   2.994   2.992   5.320
 9028SOL    HW227984   2.969   2.841   5.377
 9029SOL     OW27985   3.871   6.897   5.061
 9029SOL    HW127986   3.784   6.934   5.026
 9029SOL    HW227987   3.922   6.970   5.106
 9030SOL     OW27988   2.204   2.196   3.409
 9030SOL    HW127989   2.133   2.267   3.408
 9030SOL    HW227990   2.279   2.225   3.468
 9031SOL     OW27991   3.987   5.833   4.536
 9031SOL    HW127992   3.993   5.745   4.583
 9031SOL    HW227993   4.006   5.906   4.601
 9032SOL     OW27994   4.446   3.899   1.007
 9032SOL    HW127995   4.379   3.834   1.044
 9032SOL    HW227996   4.497   3.857   0.933
 9033SOL     OW27997   0.083   4.407   2.417
 9033SOL    HW127998   0.076   4.481   2.349
 9033SOL    HW227999   0.179   4.384   2.432
 9034SOL     OW28000   3.102   6.207   4.523
 9034SOL    HW128001   3.073   6.211   4.619
 9034SOL    HW228002   3.130   6.298   4.493
 9035SOL     OW28003   2.506   4.499   0.092
 9035SOL    HW128004   2.497   4.465   0.186
 9035SOL    HW228005   2.527   4.422   0.031
 9036SOL     OW28006   1.844   3.199   5.493
 9036SOL    HW128007   1.898   3.237   5.568
 9036SOL    HW228008   1.890   3.118   5.457
 9037SOL     OW28009   1.321   4.326   4.756
 9037SOL    HW128010   1.283   4.272   4.831
 9037SOL    HW228011   1.376   4.268   4.697
 9038SOL     OW28012   4.510   1.110   6.437
 9038SOL    HW128013   4.475   1.153   6.521
 9038SOL    HW228014   4.440   1.053   6.396
 9039SOL     OW28015   2.237   5.185   6.092
 9039SOL    HW128016   2.246   5.170   6.190
 9039SOL    HW228017   2.143   5.167   6.064
 9040SOL     OW28018   2.814   2.216   2.603
 9040SOL    HW128019   2.763   2.288   2.651
 9040SOL    HW228020   2.783   2.211   2.508
 9041SOL     OW28021   1.031   2.032   1.442
 9041SOL    HW128022   1.118   2.014   1.488
 9041SOL    HW228023   0.966   1.959   1.463
 9042SOL     OW28024   4.172   7.001   4.843
 9042SOL    HW128025   4.265   7.009   4.806
 9042SOL    HW228026   4.153   6.905   4.862
 9043SOL     OW28027   1.912   0.895   6.229
 9043SOL    HW128028   1.817   0.928   6.231
 9043SOL    HW228029   1.970   0.965   6.187
 9044SOL     OW28030   6.620   0.468   0.918
 9044SOL    HW128031   6.621   0.532   0.995
 9044SOL    HW228032   6.525   0.441   0.899
 9045SOL     OW28033   3.264   1.224   2.770
 9045SOL    HW128034   3.232   1.291   2.702
 9045SOL    HW228035   3.289   1.272   2.854
 9046SOL     OW28036   3.468   4.122   3.115
 9046SOL    HW128037   3.530   4.076   3.178
 9046SOL    HW228038   3.374   4.091   3.131
 9047SOL     OW28039   1.680   3.747   4.919
 9047SOL    HW128040   1.777   3.733   4.941
 9047SOL    HW228041   1.653   3.686   4.845
 9048SOL     OW28042   6.349   2.880   6.269
 9048SOL    HW128043   6.406   2.884   6.187
 9048SOL    HW228044   6.343   2.971   6.310
 9049SOL     OW28045   4.324   6.596   5.513
 9049SOL    HW128046   4.369   6.575   5.426
 9049SOL    HW228047   4.370   6.546   5.587
 9050SOL     OW28048   0.741   3.812   0.699
 9050SOL    HW128049   0.655   3.777   0.662
 9050SOL    HW228050   0.789   3.864   0.628
 9051SOL     OW28051   3.288   6.922   1.474
 9051SOL    HW128052   3.312   6.930   1.570
 9051SOL    HW228053   3.337   6.991   1.421
 9052SOL     OW28054   2.392   2.383   3.887
 9052SOL    HW128055   2.389   2.288   3.919
 9052SOL    HW228056   2.442   2.439   3.953
 9053SOL     OW28057   1.810   1.308   2.360
 9053SOL    HW128058   1.873   1.310   2.283
 9053SOL    HW228059   1.718   1.333   2.329
 9054SOL     OW28060   3.158   5.777   3.986
 9054SOL    HW128061   3.112   5.865   3.976
 9054SOL    HW228062   3.138   5.739   4.077
 9055SOL     OW28063   5.381   2.706   4.362
 9055SOL    HW128064   5.412   2.630   4.305
 9055SOL    HW228065   5.460   2.760   4.391
 9056SOL     OW28066   1.025   2.566   1.441
 9056SOL    HW128067   1.019   2.519   1.529
 9056SOL    HW228068   0.948   2.629   1.432
 9057SOL     OW28069   4.844   2.839   5.379
 9057SOL    HW128070   4.865   2.758   5.326
 9057SOL    HW228071   4.759   2.880   5.346
 9058SOL     OW28072   1.699   0.550   1.545
 9058SOL    HW128073   1.748   0.479   1.493
 9058SOL    HW228074   1.709   0.532   1.643
 9059SOL     OW28075   1.104   2.241   3.011
 9059SOL    HW128076   1.170   2.303   2.967
 9059SOL    HW228077   1.113   2.247   3.110
 9060SOL     OW28078   5.994   3.044   4.516
 9060SOL    HW128079   6.061   3.103   4.561
 9060SOL    HW228080   5.903   3.083   4.527
 9061SOL     OW28081   2.509   5.504   2.452
 9061SOL    HW128082   2.518   5.405   2.447
 9061SOL    HW228083   2.534   5.535   2.544
 9062SOL     OW28084   1.166   6.500   2.676
 9062SOL    HW128085   1.258   6.476   2.706
 9062SOL    HW228086   1.100   6.472   2.745
 9063SOL     OW28087   3.161   0.351   4.176
 9063SOL    HW128088   3.107   0.385   4.099
 9063SOL    HW228089   3.258   0.372   4.160
 9064SOL     OW28090   6.134   2.549   6.032
 9064SOL    HW128091   6.147   2.452   6.054
 9064SOL    HW228092   6.155   2.604   6.113
 9065SOL     OW28093   4.020   0.364   6.812
 9065SOL    HW128094   4.120   0.366   6.817
 9065SOL    HW228095   3.985   0.313   6.891
 9066SOL     OW28096   5.140   6.711   0.856
 9066SOL    HW128097   5.166   6.622   0.893
 9066SOL    HW228098   5.105   6.768   0.930
 9067SOL     OW28099   1.161   0.705   3.868
 9067SOL    HW128100   1.086   0.769   3.854
 9067SOL    HW228101   1.248   0.752   3.851
 9068SOL     OW28102   1.801   6.107   4.422
 9068SOL    HW128103   1.709   6.119   4.460
 9068SOL    HW228104   1.811   6.014   4.388
 9069SOL     OW28105   1.526   2.694   1.155
 9069SOL    HW128106   1.602   2.657   1.209
 9069SOL    HW228107   1.448   2.712   1.215
 9070SOL     OW28108   1.553   3.487   5.183
 9070SOL    HW128109   1.508   3.439   5.259
 9070SOL    HW228110   1.485   3.512   5.114
 9071SOL     OW28111   6.585   6.422   1.482
 9071SOL    HW128112   6.602   6.416   1.581
 9071SOL    HW228113   6.660   6.377   1.433
 9072SOL     OW28114   0.445   2.348   1.069
 9072SOL    HW128115   0.371   2.324   1.006
 9072SOL    HW228116   0.407   2.397   1.147
 9073SOL     OW28117   2.535   7.003   2.646
 9073SOL    HW128118   2.486   0.061   2.651
 9073SOL    HW228119   2.556   6.971   2.738
 9074SOL     OW28120   1.172   0.439   2.471
 9074SOL    HW128121   1.078   0.448   2.438
 9074SOL    HW228122   1.202   0.344   2.461
 9075SOL     OW28123   0.132   1.663   2.626
 9075SOL    HW128124   0.072   1.584   2.641
 9075SOL    HW228125   0.165   1.697   2.715
 9076SOL     OW28126   6.739   1.048   6.455
 9076SOL    HW128127   6.652   1.096   6.466
 9076SOL    HW228128   6.775   1.065   6.363
 9077SOL     OW28129   4.228   0.107   1.040
 9077SOL    HW128130   4.274   0.124   0.952
 9077SOL    HW228131   4.270   0.028   1.085
 9078SOL     OW28132   3.441   3.547   4.947
 9078SOL    HW128133   3.499   3.531   4.867
 9078SOL    HW228134   3.413   3.643   4.949
 9079SOL     OW28135   2.609   0.703   4.684
 9079SOL    HW128136   2.536   0.736   4.744
 9079SOL    HW228137   2.600   0.604   4.671
 9080SOL     OW28138   5.167   2.920   6.631
 9080SOL    HW128139   5.226   2.844   6.657
 9080SOL    HW228140   5.093   2.929   6.699
 9081SOL     OW28141   4.919   6.763   2.444
 9081SOL    HW128142   4.899   6.728   2.352
 9081SOL    HW228143   4.835   6.802   2.482
 9082SOL     OW28144   1.842   0.457   4.996
 9082SOL    HW128145   1.913   0.482   5.062
 9082SOL    HW228146   1.866   0.494   4.906
 9083SOL     OW28147   4.305   4.829   5.827
 9083SOL    HW128148   4.386   4.852   5.880
 9083SOL    HW228149   4.279   4.908   5.771
 9084SOL     OW28150   3.441   3.878   2.861
 9084SOL    HW128151   3.371   3.845   2.924
 9084SOL    HW228152   3.411   3.966   2.822
 9085SOL     OW28153   2.378   0.183   0.629
 9085SOL    HW128154   2.465   0.221   0.599
 9085SOL    HW228155   2.303   0.234   0.587
 9086SOL     OW28156   0.700   4.466   0.118
 9086SOL    HW128157   0.651   4.467   0.206
 9086SOL    HW228158   0.662   4.394   0.060
 9087SOL     OW28159   4.592   2.836   1.710
 9087SOL    HW128160   4.680   2.812   1.670
 9087SOL    HW228161   4.599   2.924   1.757
 9088SOL     OW28162   6.495   6.816   1.145
 9088SOL    HW128163   6.593   6.807   1.125
 9088SOL    HW228164   6.442   6.805   1.061
 9089SOL     OW28165   5.202   6.775   5.340
 9089SOL    HW128166   5.114   6.792   5.384
 9089SOL    HW228167   5.187   6.731   5.251
 9090SOL     OW28168   5.818   1.327   5.490
 9090SOL    HW128169   5.848   1.282   5.574
 9090SOL    HW228170   5.719   1.325   5.485
 9091SOL     OW28171   2.747   3.640   6.862
 9091SOL    HW128172   2.699   3.587   6.932
 9091SOL    HW228173   2.770   3.730   6.899
 9092SOL     OW28174   6.735   0.729   0.215
 9092SOL    HW128175   6.716   0.762   0.122
 9092SOL    HW228176   6.834   0.734   0.232
 9093SOL     OW28177   1.796   6.143   4.963
 9093SOL    HW128178   1.784   6.044   4.976
 9093SOL    HW228179   1.877   6.173   5.013
 9094SOL     OW28180   6.455   4.573   2.362
 9094SOL    HW128181   6.537   4.570   2.305
 9094SOL    HW228182   6.378   4.533   2.312
 9095SOL     OW28183   4.806   4.540   5.999
 9095SOL    HW128184   4.855   4.626   5.984
 9095SOL    HW228185   4.870   4.463   5.993
 9096SOL     OW28186   6.469   5.358   3.233
 9096SOL    HW128187   6.426   5.447   3.247
 9096SOL    HW228188   6.568   5.370   3.224
 9097SOL     OW28189   2.431   1.710   7.007
 9097SOL    HW128190   2.401   1.789   0.032
 9097SOL    HW228191   2.370   1.633   7.025
 9098SOL     OW28192   2.491   2.084   5.140
 9098SOL    HW128193   2.469   2.160   5.079
 9098SOL    HW228194   2.558   2.113   5.208
 9099SOL     OW28195   2.532   3.221   6.756
 9099SOL    HW128196   2.449   3.206   6.703
 9099SOL    HW228197   2.602   3.263   6.698
 9100SOL     OW28198   0.995   3.765   2.542
 9100SOL    HW128199   1.005   3.830   2.618
 9100SOL    HW228200   0.984   3.673   2.578
 9101SOL     OW28201   2.266   1.179   2.291
 9101SOL    HW128202   2.224   1.269   2.279
 9101SOL    HW228203   2.366   1.189   2.294
 9102SOL     OW28204   3.961   6.657   1.701
 9102SOL    HW128205   3.917   6.656   1.611
 9102SOL    HW228206   3.891   6.658   1.772
 9103SOL     OW28207   5.369   1.586   6.870
 9103SOL    HW128208   5.365   1.495   6.912
 9103SOL    HW228209   5.278   1.609   6.833
 9104SOL     OW28210   6.880   6.695   2.054
 9104SOL    HW128211   6.900   6.792   2.071
 9104SOL    HW228212   6.920   6.640   2.128
 9105SOL     OW28213   1.422   0.114   4.985
 9105SOL    HW128214   1.406   0.047   4.913
 9105SOL    HW228215   1.440   0.203   4.945
 9106SOL     OW28216   0.599   3.567   0.041
 9106SOL    HW128217   0.666   3.640   0.054
 9106SOL    HW228218   0.627   3.509   6.992
 9107SOL     OW28219   2.025   1.026   6.764
 9107SOL    HW128220   2.037   0.927   6.765
 9107SOL    HW228221   1.980   1.053   6.679
 9108SOL     OW28222   4.729   4.526   5.477
 9108SOL    HW128223   4.794   4.595   5.507
 9108SOL    HW228224   4.733   4.447   5.539
 9109SOL     OW28225   5.120   2.507   3.001
 9109SOL    HW128226   5.176   2.495   2.919
 9109SOL    HW228227   5.148   2.590   3.049
 9110SOL     OW28228   1.110   5.612   4.519
 9110SOL    HW128229   1.138   5.673   4.445
 9110SOL    HW228230   1.132   5.518   4.494
 9111SOL     OW28231   4.702   2.788   6.360
 9111SOL    HW128232   4.769   2.751   6.295
 9111SOL    HW228233   4.680   2.882   6.336
 9112SOL     OW28234   1.309   4.860   2.798
 9112SOL    HW128235   1.325   4.916   2.716
 9112SOL    HW228236   1.364   4.777   2.792
 9113SOL     OW28237   5.412   2.093   3.910
 9113SOL    HW128238   5.438   2.151   3.833
 9113SOL    HW228239   5.398   2.149   3.991
 9114SOL     OW28240   0.923   6.092   3.925
 9114SOL    HW128241   0.972   6.024   3.871
 9114SOL    HW228242   0.838   6.118   3.878
 9115SOL     OW28243   6.242   5.332   3.839
 9115SOL    HW128244   6.342   5.339   3.838
 9115SOL    HW228245   6.213   5.283   3.921
 9116SOL     OW28246   0.220   0.079   2.920
 9116SOL    HW128247   0.210   0.159   2.862
 9116SOL    HW228248   0.311   0.078   2.961
 9117SOL     OW28249   4.137   1.757   6.173
 9117SOL    HW128250   4.043   1.722   6.166
 9117SOL    HW228251   4.154   1.821   6.098
 9118SOL     OW28252   6.247   3.782   0.549
 9118SOL    HW128253   6.225   3.876   0.521
 9118SOL    HW228254   6.347   3.770   0.544
 9119SOL     OW28255   4.022   0.035   1.387
 9119SOL    HW128256   4.049   6.972   1.355
 9119SOL    HW228257   4.103   0.084   1.419
 9120SOL     OW28258   6.553   2.931   6.085
 9120SOL    HW128259   6.548   3.013   6.028
 9120SOL    HW228260   6.576   2.852   6.028
 9121SOL     OW28261   4.057   0.009   5.611
 9121SOL    HW128262   4.084   0.096   5.651
 9121SOL    HW228263   4.000   6.987   5.676
 9122SOL     OW28264   2.213   3.934   2.018
 9122SOL    HW128265   2.221   3.901   2.112
 9122SOL    HW228266   2.159   4.018   2.016
 9123SOL     OW28267   1.524   0.756   3.498
 9123SOL    HW128268   1.605   0.780   3.552
 9123SOL    HW228269   1.443   0.759   3.556
 9124SOL     OW28270   3.636   5.374   2.084
 9124SOL    HW128271   3.546   5.331   2.082
 9124SOL    HW228272   3.626   5.471   2.106
 9125SOL     OW28273   3.830   5.319   0.490
 9125SOL    HW128274   3.892   5.241   0.490
 9125SOL    HW228275   3.851   5.378   0.412
 9126SOL     OW28276   4.567   4.308   0.630
 9126SOL    HW128277   4.518   4.280   0.547
 9126SOL    HW228278   4.659   4.339   0.606
 9127SOL     OW28279   6.651   2.748   5.235
 9127SOL    HW128280   6.600   2.679   5.287
 9127SOL    HW228281   6.606   2.763   5.147
 9128SOL     OW28282   6.113   3.189   4.747
 9128SOL    HW128283   6.071   3.172   4.836
 9128SOL    HW228284   6.208   3.218   4.759
 9129SOL     OW28285   1.747   2.116   0.918
 9129SOL    HW128286   1.686   2.114   0.997
 9129SOL    HW228287   1.703   2.070   0.841
 9130SOL     OW28288   1.081   4.064   5.754
 9130SOL    HW128289   1.117   4.156   5.739
 9130SOL    HW228290   1.114   4.029   5.841
 9131SOL     OW28291   5.413   3.020   0.163
 9131SOL    HW128292   5.399   2.939   0.105
 9131SOL    HW228293   5.355   3.014   0.244
 9132SOL     OW28294   1.005   4.711   4.225
 9132SOL    HW128295   1.085   4.771   4.228
 9132SOL    HW228296   1.024   4.627   4.275
 9133SOL     OW28297   3.065   0.307   1.045
 9133SOL    HW128298   3.106   0.336   0.958
 9133SOL    HW228299   3.022   0.386   1.088
 9134SOL     OW28300   4.337   5.487   0.526
 9134SOL    HW128301   4.401   5.561   0.509
 9134SOL    HW228302   4.254   5.523   0.569
 9135SOL     OW28303   0.939   6.417   1.998
 9135SOL    HW128304   0.899   6.410   2.089
 9135SOL    HW228305   0.880   6.372   1.932
 9136SOL     OW28306   4.788   4.994   5.887
 9136SOL    HW128307   4.794   5.068   5.819
 9136SOL    HW228308   4.851   5.013   5.962
 9137SOL     OW28309   4.804   6.156   5.728
 9137SOL    HW128310   4.870   6.112   5.790
 9137SOL    HW228311   4.800   6.254   5.749
 9138SOL     OW28312   1.876   3.140   0.928
 9138SOL    HW128313   1.799   3.178   0.978
 9138SOL    HW228314   1.850   3.127   0.832
 9139SOL     OW28315   0.314   0.973   1.191
 9139SOL    HW128316   0.373   0.973   1.271
 9139SOL    HW228317   0.369   0.984   1.108
 9140SOL     OW28318   0.179   4.482   1.418
 9140SOL    HW128319   0.139   4.559   1.469
 9140SOL    HW228320   0.236   4.518   1.344
 9141SOL     OW28321   0.160   5.804   6.146
 9141SOL    HW128322   0.172   5.864   6.068
 9141SOL    HW228323   0.194   5.713   6.124
 9142SOL     OW28324   0.770   3.164   2.745
 9142SOL    HW128325   0.705   3.192   2.816
 9142SOL    HW228326   0.791   3.241   2.686
 9143SOL     OW28327   6.816   3.857   1.542
 9143SOL    HW128328   6.742   3.872   1.606
 9143SOL    HW228329   6.797   3.906   1.457
 9144SOL     OW28330   3.052   5.230   4.648
 9144SOL    HW128331   3.015   5.246   4.556
 9144SOL    HW228332   3.150   5.211   4.642
 9145SOL     OW28333   1.462   6.761   6.468
 9145SOL    HW128334   1.482   6.831   6.536
 9145SOL    HW228335   1.518   6.680   6.485
 9146SOL     OW28336   6.178   3.042   3.446
 9146SOL    HW128337   6.159   3.025   3.543
 9146SOL    HW228338   6.146   3.133   3.421
 9147SOL     OW28339   5.855   6.986   4.328
 9147SOL    HW128340   5.787   6.929   4.374
 9147SOL    HW228341   5.946   6.963   4.362
 9148SOL     OW28342   6.357   0.323   1.796
 9148SOL    HW128343   6.414   0.366   1.866
 9148SOL    HW228344   6.414   0.296   1.718
 9149SOL     OW28345   5.923   3.131   1.009
 9149SOL    HW128346   5.878   3.050   0.970
 9149SOL    HW228347   5.892   3.144   1.103
 9150SOL     OW28348   2.529   4.392   0.344
 9150SOL    HW128349   2.506   4.295   0.349
 9150SOL    HW228350   2.464   4.444   0.400
 9151SOL     OW28351   1.830   4.005   3.692
 9151SOL    HW128352   1.819   3.994   3.593
 9151SOL    HW228353   1.921   4.044   3.711
 9152SOL     OW28354   2.037   3.622   3.982
 9152SOL    HW128355   2.068   3.621   3.887
 9152SOL    HW228356   1.937   3.610   3.984
 9153SOL     OW28357   0.685   2.627   6.464
 9153SOL    HW128358   0.699   2.726   6.471
 9153SOL    HW228359   0.743   2.581   6.532
 9154SOL     OW28360   5.775   5.463   3.181
 9154SOL    HW128361   5.842   5.392   3.158
 9154SOL    HW228362   5.701   5.461   3.113
 9155SOL     OW28363   1.721   5.231   2.432
 9155SOL    HW128364   1.764   5.256   2.345
 9155SOL    HW228365   1.700   5.133   2.432
 9156SOL     OW28366   6.655   3.056   1.070
 9156SOL    HW128367   6.705   3.083   1.152
 9156SOL    HW228368   6.655   2.956   1.063
 9157SOL     OW28369   3.725   4.037   6.499
 9157SOL    HW128370   3.713   4.071   6.592
 9157SOL    HW228371   3.823   4.030   6.478
 9158SOL     OW28372   6.693   3.926   3.948
 9158SOL    HW128373   6.694   3.900   3.852
 9158SOL    HW228374   6.599   3.932   3.981
 9159SOL     OW28375   2.846   0.522   3.254
 9159SOL    HW128376   2.920   0.514   3.321
 9159SOL    HW228377   2.761   0.487   3.293
 9160SOL     OW28378   0.545   4.900   6.812
 9160SOL    HW128379   0.507   4.812   6.841
 9160SOL    HW228380   0.472   4.960   6.780
 9161SOL     OW28381   5.679   4.305   2.088
 9161SOL    HW128382   5.774   4.315   2.118
 9161SOL    HW228383   5.626   4.262   2.161
 9162SOL     OW28384   4.375   1.770   2.360
 9162SOL    HW128385   4.382   1.745   2.263
 9162SOL    HW228386   4.371   1.687   2.415
 9163SOL     OW28387   0.517   2.237   2.246
 9163SOL    HW128388   0.460   2.274   2.319
 9163SOL    HW228389   0.577   2.309   2.211
 9164SOL     OW28390   2.488   0.259   6.816
 9164SOL    HW128391   2.427   0.338   6.812
 9164SOL    HW228392   2.459   0.190   6.749
 9165SOL     OW28393   4.674   2.619   5.501
 9165SOL    HW128394   4.733   2.681   5.450
 9165SOL    HW228395   4.595   2.594   5.444
 9166SOL     OW28396   4.506   5.699   1.511
 9166SOL    HW128397   4.463   5.789   1.504
 9166SOL    HW228398   4.556   5.692   1.597
 9167SOL     OW28399   0.573   1.790   6.470
 9167SOL    HW128400   0.589   1.855   6.397
 9167SOL    HW228401   0.482   1.750   6.461
 9168SOL     OW28402   6.409   5.204   5.042
 9168SOL    HW128403   6.459   5.119   5.054
 9168SOL    HW228404   6.380   5.240   5.131
 9169SOL     OW28405   6.454   6.092   6.689
 9169SOL    HW128406   6.393   6.138   6.624
 9169SOL    HW228407   6.430   5.996   6.694
 9170SOL     OW28408   1.521   1.922   6.462
 9170SOL    HW128409   1.518   1.830   6.422
 9170SOL    HW228410   1.585   1.979   6.410
 9171SOL     OW28411   2.770   4.860   0.686
 9171SOL    HW128412   2.829   4.783   0.711
 9171SOL    HW228413   2.696   4.827   0.628
 9172SOL     OW28414   5.242   1.358   4.589
 9172SOL    HW128415   5.207   1.291   4.654
 9172SOL    HW228416   5.329   1.395   4.624
 9173SOL     OW28417   6.662   2.940   3.775
 9173SOL    HW128418   6.685   3.016   3.714
 9173SOL    HW228419   6.570   2.906   3.754
 9174SOL     OW28420   0.726   5.929   0.107
 9174SOL    HW128421   0.770   5.997   0.165
 9174SOL    HW228422   0.637   5.905   0.146
 9175SOL     OW28423   2.180   6.880   0.115
 9175SOL    HW128424   2.149   6.935   0.192
 9175SOL    HW228425   2.239   6.936   0.056
 9176SOL     OW28426   2.060   0.964   3.099
 9176SOL    HW128427   2.077   0.963   3.197
 9176SOL    HW228428   1.971   0.924   3.079
 9177SOL     OW28429   0.782   4.154   4.086
 9177SOL    HW128430   0.794   4.091   4.009
 9177SOL    HW228431   0.763   4.102   4.169
 9178SOL     OW28432   2.545   6.100   6.905
 9178SOL    HW128433   2.606   6.051   6.967
 9178SOL    HW228434   2.553   6.199   6.921
 9179SOL     OW28435   3.850   6.395   5.569
 9179SOL    HW128436   3.753   6.416   5.560
 9179SOL    HW228437   3.904   6.478   5.550
 9180SOL     OW28438   6.974   1.586   4.445
 9180SOL    HW128439   0.002   1.615   4.522
 9180SOL    HW228440   6.954   1.488   4.454
 9181SOL     OW28441   4.331   1.891   3.627
 9181SOL    HW128442   4.305   1.795   3.621
 9181SOL    HW228443   4.323   1.933   3.536
 9182SOL     OW28444   1.613   1.314   2.974
 9182SOL    HW128445   1.709   1.290   2.989
 9182SOL    HW228446   1.571   1.246   2.914
 9183SOL     OW28447   4.894   2.591   6.940
 9183SOL    HW128448   4.988   2.579   6.972
 9183SOL    HW228449   4.832   2.536   6.996
 9184SOL     OW28450   3.334   3.103   0.697
 9184SOL    HW128451   3.251   3.053   0.670
 9184SOL    HW228452   3.341   3.103   0.797
 9185SOL     OW28453   0.663   0.833   6.695
 9185SOL    HW128454   0.574   0.788   6.707
 9185SOL    HW228455   0.735   0.774   6.732
 9186SOL     OW28456   5.072   0.016   6.472
 9186SOL    HW128457   4.994   0.062   6.428
 9186SOL    HW228458   5.104   0.071   6.549
 9187SOL     OW28459   4.870   1.740   6.788
 9187SOL    HW128460   4.821   1.656   6.768
 9187SOL    HW228461   4.838   1.813   6.728
 9188SOL     OW28462   1.264   0.258   1.088
 9188SOL    HW128463   1.351   0.216   1.064
 9188SOL    HW228464   1.190   0.213   1.037
 9189SOL     OW28465   2.671   1.382   3.274
 9189SOL    HW128466   2.639   1.414   3.363
 9189SOL    HW228467   2.715   1.292   3.285
 9190SOL     OW28468   6.148   3.587   5.145
 9190SOL    HW128469   6.094   3.536   5.212
 9190SOL    HW228470   6.215   3.644   5.192
 9191SOL     OW28471   5.603   6.469   6.727
 9191SOL    HW128472   5.650   6.473   6.815
 9191SOL    HW228473   5.648   6.402   6.668
 9192SOL     OW28474   0.084   4.130   6.028
 9192SOL    HW128475   0.132   4.157   5.945
 9192SOL    HW228476   7.014   4.132   6.012
 9193SOL     OW28477   3.668   3.601   4.031
 9193SOL    HW128478   3.577   3.573   4.001
 9193SOL    HW228479   3.737   3.541   3.989
 9194SOL     OW28480   3.345   5.645   2.446
 9194SOL    HW128481   3.338   5.739   2.415
 9194SOL    HW228482   3.254   5.606   2.457
 9195SOL     OW28483   0.453   3.342   3.132
 9195SOL    HW128484   0.417   3.412   3.070
 9195SOL    HW228485   0.534   3.378   3.179
 9196SOL     OW28486   3.602   0.706   3.625
 9196SOL    HW128487   3.582   0.795   3.583
 9196SOL    HW228488   3.537   0.638   3.590
 9197SOL     OW28489   2.583   3.476   0.006
 9197SOL    HW128490   2.487   3.448   0.015
 9197SOL    HW228491   2.641   3.395   0.003
 9198SOL     OW28492   5.644   4.010   5.550
 9198SOL    HW128493   5.675   3.979   5.640
 9198SOL    HW228494   5.721   4.014   5.487
 9199SOL     OW28495   1.747   3.946   6.199
 9199SOL    HW128496   1.752   4.040   6.166
 9199SOL    HW228497   1.671   3.898   6.154
 9200SOL     OW28498   6.873   6.957   0.810
 9200SOL    HW128499   6.832   7.021   0.875
 9200SOL    HW228500   6.972   6.972   0.807
 9201SOL     OW28501   6.987   4.184   1.822
 9201SOL    HW128502   0.047   4.175   1.776
 9201SOL    HW228503   6.928   4.108   1.795
 9202SOL     OW28504   2.217   4.859   4.108
 9202SOL    HW128505   2.303   4.903   4.134
 9202SOL    HW228506   2.142   4.903   4.157
 9203SOL     OW28507   5.808   1.463   6.188
 9203SOL    HW128508   5.843   1.398   6.120
 9203SOL    HW228509   5.876   1.535   6.204
 9204SOL     OW28510   5.659   3.680   3.332
 9204SOL    HW128511   5.581   3.623   3.310
 9204SOL    HW228512   5.735   3.623   3.363
 9205SOL     OW28513   5.601   3.186   2.859
 9205SOL    HW128514   5.652   3.270   2.839
 9205SOL    HW228515   5.536   3.204   2.932
 9206SOL     OW28516   2.259   5.925   3.622
 9206SOL    HW128517   2.170   5.933   3.668
 9206SOL    HW228518   2.269   5.833   3.585
 9207SOL     OW28519   4.311   6.248   6.188
 9207SOL    HW128520   4.263   6.314   6.131
 9207SOL    HW228521   4.311   6.280   6.283
 9208SOL     OW28522   4.942   3.562   2.494
 9208SOL    HW128523   4.923   3.464   2.488
 9208SOL    HW228524   4.956   3.588   2.589
 9209SOL     OW28525   4.298   1.195   2.874
 9209SOL    HW128526   4.280   1.115   2.817
 9209SOL    HW228527   4.219   1.256   2.872
 9210SOL     OW28528   2.139   6.708   1.450
 9210SOL    HW128529   2.080   6.627   1.446
 9210SOL    HW228530   2.103   6.779   1.389
 9211SOL     OW28531   4.949   1.926   6.346
 9211SOL    HW128532   4.885   1.850   6.339
 9211SOL    HW228533   4.979   1.936   6.441
 9212SOL     OW28534   4.759   4.794   4.429
 9212SOL    HW128535   4.667   4.833   4.425
 9212SOL    HW228536   4.768   4.739   4.512
 9213SOL     OW28537   6.091   0.513   4.308
 9213SOL    HW128538   6.081   0.459   4.224
 9213SOL    HW228539   6.001   0.526   4.350
 9214SOL     OW28540   2.016   2.862   4.622
 9214SOL    HW128541   2.079   2.924   4.669
 9214SOL    HW228542   1.971   2.804   4.690
 9215SOL     OW28543   0.431   3.557   2.940
 9215SOL    HW128544   0.528   3.571   2.917
 9215SOL    HW228545   0.396   3.639   2.984
 9216SOL     OW28546   2.323   5.813   4.872
 9216SOL    HW128547   2.363   5.823   4.963
 9216SOL    HW228548   2.329   5.899   4.823
 9217SOL     OW28549   5.175   1.532   6.094
 9217SOL    HW128550   5.192   1.623   6.132
 9217SOL    HW228551   5.138   1.473   6.166
 9218SOL     OW28552   5.892   6.473   6.495
 9218SOL    HW128553   5.942   6.399   6.449
 9218SOL    HW228554   5.954   6.520   6.558
 9219SOL     OW28555   3.605   2.617   5.337
 9219SOL    HW128556   3.700   2.599   5.363
 9219SOL    HW228557   3.604   2.687   5.265
 9220SOL     OW28558   1.887   6.241   2.825
 9220SOL    HW128559   1.790   6.264   2.832
 9220SOL    HW228560   1.909   6.216   2.730
 9221SOL     OW28561   2.622   0.627   6.427
 9221SOL    HW128562   2.648   0.717   6.462
 9221SOL    HW228563   2.650   0.557   6.492
 9222SOL     OW28564   1.744   4.591   3.559
 9222SOL    HW128565   1.774   4.502   3.525
 9222SOL    HW228566   1.648   4.586   3.584
 9223SOL     OW28567   1.622   4.267   4.776
 9223SOL    HW128568   1.574   4.326   4.711
 9223SOL    HW228569   1.562   4.249   4.854
 9224SOL     OW28570   1.541   4.477   3.942
 9224SOL    HW128571   1.465   4.504   4.001
 9224SOL    HW228572   1.539   4.532   3.858
 9225SOL     OW28573   4.005   6.748   6.383
 9225SOL    HW128574   3.982   6.814   6.311
 9225SOL    HW228575   3.931   6.745   6.450
 9226SOL     OW28576   1.211   6.556   0.765
 9226SOL    HW128577   1.183   6.517   0.853
 9226SOL    HW228578   1.167   6.505   0.691
 9227SOL     OW28579   2.039   5.418   0.694
 9227SOL    HW128580   1.962   5.415   0.630
 9227SOL    HW228581   2.074   5.326   0.710
 9228SOL     OW28582   1.833   2.692   5.256
 9228SOL    HW128583   1.753   2.751   5.245
 9228SOL    HW228584   1.916   2.743   5.232
 9229SOL     OW28585   0.343   4.137   0.030
 9229SOL    HW128586   0.268   4.135   0.095
 9229SOL    HW228587   0.308   4.127   6.965
 9230SOL     OW28588   4.963   2.404   3.985
 9230SOL    HW128589   5.029   2.371   3.917
 9230SOL    HW228590   5.004   2.401   4.076
 9231SOL     OW28591   1.010   5.318   5.472
 9231SOL    HW128592   0.928   5.346   5.422
 9231SOL    HW228593   1.075   5.275   5.409
 9232SOL     OW28594   1.772   5.484   1.773
 9232SOL    HW128595   1.827   5.421   1.828
 9232SOL    HW228596   1.696   5.434   1.732
 9233SOL     OW28597   0.602   6.666   0.975
 9233SOL    HW128598   0.683   6.721   0.954
 9233SOL    HW228599   0.576   6.612   0.895
 9234SOL     OW28600   2.056   4.870   1.152
 9234SOL    HW128601   2.028   4.857   1.247
 9234SOL    HW228602   2.012   4.801   1.094
 9235SOL     OW28603   2.464   2.635   3.234
 9235SOL    HW128604   2.469   2.600   3.328
 9235SOL    HW228605   2.524   2.581   3.175
 9236SOL     OW28606   1.857   3.089   6.783
 9236SOL    HW128607   1.824   3.092   6.878
 9236SOL    HW228608   1.953   3.116   6.781
 9237SOL     OW28609   6.065   5.446   3.653
 9237SOL    HW128610   6.124   5.410   3.725
 9237SOL    HW228611   6.083   5.397   3.568
 9238SOL     OW28612   1.838   3.340   5.115
 9238SOL    HW128613   1.885   3.404   5.176
 9238SOL    HW228614   1.767   3.389   5.064
 9239SOL     OW28615   0.051   4.660   0.043
 9239SOL    HW128616   0.092   4.730   0.102
 9239SOL    HW228617   0.102   4.575   0.052
 9240SOL     OW28618   5.004   3.003   3.131
 9240SOL    HW128619   5.049   2.914   3.124
 9240SOL    HW228620   4.984   3.038   3.039
 9241SOL     OW28621   7.014   6.452   0.307
 9241SOL    HW128622   6.941   6.422   0.369
 9241SOL    HW228623   0.015   6.375   0.251
 9242SOL     OW28624   1.347   2.317   2.056
 9242SOL    HW128625   1.393   2.366   1.982
 9242SOL    HW228626   1.378   2.352   2.144
 9243SOL     OW28627   0.274   0.216   1.454
 9243SOL    HW128628   0.298   0.138   1.511
 9243SOL    HW228629   0.321   0.208   1.366
 9244SOL     OW28630   3.443   6.316   5.290
 9244SOL    HW128631   3.419   6.286   5.198
 9244SOL    HW228632   3.477   6.239   5.343
 9245SOL     OW28633   0.976   4.075   3.092
 9245SOL    HW128634   0.913   4.059   3.017
 9245SOL    HW228635   1.070   4.066   3.059
 9246SOL     OW28636   6.313   0.024   4.377
 9246SOL    HW128637   6.274   0.116   4.374
 9246SOL    HW228638   6.246   6.989   4.414
 9247SOL     OW28639   3.618   5.791   2.918
 9247SOL    HW128640   3.536   5.833   2.877
 9247SOL    HW228641   3.637   5.835   3.006
 9248SOL     OW28642   2.515   1.598   4.952
 9248SOL    HW128643   2.599   1.579   4.901
 9248SOL    HW228644   2.531   1.672   5.017
 9249SOL     OW28645   3.754   4.666   1.671
 9249SOL    HW128646   3.691   4.628   1.739
 9249SOL    HW228647   3.769   4.763   1.689
 9250SOL     OW28648   6.652   4.236   4.393
 9250SOL    HW128649   6.749   4.228   4.414
 9250SOL    HW228650   6.636   4.314   4.332
 9251SOL     OW28651   4.187   2.795   1.042
 9251SOL    HW128652   4.190   2.725   0.971
 9251SOL    HW228653   4.218   2.882   1.004
 9252SOL     OW28654   4.065   0.585   4.821
 9252SOL    HW128655   4.102   0.673   4.792
 9252SOL    HW228656   4.136   0.533   4.868
 9253SOL     OW28657   0.219   4.561   5.418
 9253SOL    HW128658   0.282   4.561   5.495
 9253SOL    HW228659   0.252   4.624   5.348
 9254SOL     OW28660   5.814   4.506   2.448
 9254SOL    HW128661   5.745   4.479   2.515
 9254SOL    HW228662   5.826   4.433   2.381
 9255SOL     OW28663   6.458   3.472   6.886
 9255SOL    HW128664   6.398   3.535   6.836
 9255SOL    HW228665   6.408   3.388   6.908
 9256SOL     OW28666   1.864   6.994   2.011
 9256SOL    HW128667   1.786   0.014   2.051
 9256SOL    HW228668   1.927   0.032   1.970
 9257SOL     OW28669   6.523   5.435   3.523
 9257SOL    HW128670   6.572   5.520   3.505
 9257SOL    HW228671   6.436   5.436   3.475
 9258SOL     OW28672   3.406   3.279   0.216
 9258SOL    HW128673   3.458   3.356   0.252
 9258SOL    HW228674   3.436   3.194   0.261
 9259SOL     OW28675   1.691   1.493   6.497
 9259SOL    HW128676   1.729   1.406   6.463
 9259SOL    HW228677   1.699   1.497   6.596
 9260SOL     OW28678   5.744   3.202   5.875
 9260SOL    HW128679   5.797   3.156   5.946
 9260SOL    HW228680   5.734   3.299   5.897
 9261SOL     OW28681   3.977   1.558   0.815
 9261SOL    HW128682   4.007   1.537   0.908
 9261SOL    HW228683   4.037   1.627   0.775
 9262SOL     OW28684   6.909   6.725   4.730
 9262SOL    HW128685   6.817   6.703   4.761
 9262SOL    HW228686   6.920   6.698   4.634
 9263SOL     OW28687   2.882   5.066   2.965
 9263SOL    HW128688   2.796   5.116   2.952
 9263SOL    HW228689   2.957   5.120   2.927
 9264SOL     OW28690   5.669   3.274   6.630
 9264SOL    HW128691   5.608   3.352   6.649
 9264SOL    HW228692   5.631   3.219   6.556
 9265SOL     OW28693   4.105   2.129   6.772
 9265SOL    HW128694   4.042   2.192   6.816
 9265SOL    HW228695   4.148   2.174   6.693
 9266SOL     OW28696   0.711   4.736   1.550
 9266SOL    HW128697   0.625   4.725   1.501
 9266SOL    HW228698   0.718   4.828   1.587
 9267SOL     OW28699   0.779   1.263   3.816
 9267SOL    HW128700   0.813   1.225   3.730
 9267SOL    HW228701   0.679   1.263   3.817
 9268SOL     OW28702   0.569   6.916   1.569
 9268SOL    HW128703   0.575   6.825   1.610
 9268SOL    HW228704   0.513   6.912   1.486
 9269SOL     OW28705   5.190   0.144   7.013
 9269SOL    HW128706   5.191   0.059   6.960
 9269SOL    HW228707   5.244   0.214   6.966
 9270SOL     OW28708   3.409   1.136   6.182
 9270SOL    HW128709   3.364   1.072   6.119
 9270SOL    HW228710   3.416   1.226   6.138
 9271SOL     OW28711   1.111   0.548   6.874
 9271SOL    HW128712   1.087   0.469   6.930
 9271SOL    HW228713   1.177   0.520   6.804
 9272SOL     OW28714   6.384   6.657   6.221
 9272SOL    HW128715   6.300   6.710   6.235
 9272SOL    HW228716   6.417   6.672   6.128
 9273SOL     OW28717   5.498   5.886   3.976
 9273SOL    HW128718   5.429   5.883   4.047
 9273SOL    HW228719   5.578   5.832   4.004
 9274SOL     OW28720   0.578   3.146   0.716
 9274SOL    HW128721   0.559   3.201   0.634
 9274SOL    HW228722   0.492   3.112   0.754
 9275SOL     OW28723   0.932   6.324   1.272
 9275SOL    HW128724   0.836   6.295   1.274
 9275SOL    HW228725   0.982   6.278   1.345
 9276SOL     OW28726   3.469   4.756   0.375
 9276SOL    HW128727   3.397   4.726   0.312
 9276SOL    HW228728   3.461   4.855   0.389
 9277SOL     OW28729   4.535   4.751   2.707
 9277SOL    HW128730   4.498   4.658   2.709
 9277SOL    HW228731   4.564   4.773   2.614
 9278SOL     OW28732   0.196   0.409   4.373
 9278SOL    HW128733   0.138   0.486   4.348
 9278SOL    HW228734   0.223   0.359   4.290
 9279SOL     OW28735   3.383   5.848   1.662
 9279SOL    HW128736   3.399   5.756   1.627
 9279SOL    HW228737   3.423   5.915   1.600
 9280SOL     OW28738   1.421   1.438   2.516
 9280SOL    HW128739   1.323   1.455   2.510
 9280SOL    HW228740   1.451   1.390   2.433
 9281SOL     OW28741   3.731   3.502   6.257
 9281SOL    HW128742   3.650   3.471   6.206
 9281SOL    HW228743   3.807   3.514   6.193
 9282SOL     OW28744   3.227   0.462   4.459
 9282SOL    HW128745   3.220   0.462   4.559
 9282SOL    HW228746   3.304   0.404   4.431
 9283SOL     OW28747   5.626   0.160   6.314
 9283SOL    HW128748   5.685   0.114   6.246
 9283SOL    HW228749   5.595   0.248   6.277
 9284SOL     OW28750   3.393   3.700   5.328
 9284SOL    HW128751   3.296   3.705   5.301
 9284SOL    HW228752   3.418   3.605   5.344
 9285SOL     OW28753   5.816   2.983   2.492
 9285SOL    HW128754   5.783   2.955   2.403
 9285SOL    HW228755   5.833   2.903   2.549
 9286SOL     OW28756   4.896   6.443   0.768
 9286SOL    HW128757   4.963   6.437   0.842
 9286SOL    HW228758   4.915   6.524   0.712
 9287SOL     OW28759   2.768   4.579   5.773
 9287SOL    HW128760   2.773   4.503   5.708
 9287SOL    HW228761   2.793   4.664   5.727
 9288SOL     OW28762   4.360   2.408   4.245
 9288SOL    HW128763   4.271   2.420   4.201
 9288SOL    HW228764   4.432   2.441   4.185
 9289SOL     OW28765   4.405   6.773   5.827
 9289SOL    HW128766   4.470   6.764   5.751
 9289SOL    HW228767   4.442   6.728   5.908
 9290SOL     OW28768   5.483   0.430   4.993
 9290SOL    HW128769   5.489   0.347   4.937
 9290SOL    HW228770   5.397   0.478   4.972
 9291SOL     OW28771   1.162   6.074   5.127
 9291SOL    HW128772   1.175   6.127   5.043
 9291SOL    HW228773   1.066   6.079   5.156
 9292SOL     OW28774   1.266   1.332   5.795
 9292SOL    HW128775   1.343   1.335   5.732
 9292SOL    HW228776   1.244   1.237   5.817
 9293SOL     OW28777   4.815   2.882   5.658
 9293SOL    HW128778   4.822   2.784   5.677
 9293SOL    HW228779   4.891   2.909   5.599
 9294SOL     OW28780   5.018   0.881   0.507
 9294SOL    HW128781   5.060   0.811   0.565
 9294SOL    HW228782   5.090   0.931   0.458
 9295SOL     OW28783   0.497   0.606   5.401
 9295SOL    HW128784   0.567   0.678   5.395
 9295SOL    HW228785   0.542   0.518   5.413
 9296SOL     OW28786   2.900   3.808   1.037
 9296SOL    HW128787   2.846   3.745   1.093
 9296SOL    HW228788   2.989   3.823   1.081
 9297SOL     OW28789   6.963   5.912   3.446
 9297SOL    HW128790   6.962   6.012   3.447
 9297SOL    HW228791   0.027   5.879   3.463
 9298SOL     OW28792   1.294   6.569   6.148
 9298SOL    HW128793   1.367   6.636   6.134
 9298SOL    HW228794   1.273   6.524   6.061
 9299SOL     OW28795   1.560   2.221   3.849
 9299SOL    HW128796   1.577   2.286   3.923
 9299SOL    HW228797   1.620   2.242   3.772
 9300SOL     OW28798   1.561   6.217   5.045
 9300SOL    HW128799   1.560   6.181   5.138
 9300SOL    HW228800   1.645   6.188   4.999
 9301SOL     OW28801   0.651   4.112   4.541
 9301SOL    HW128802   0.604   4.045   4.597
 9301SOL    HW228803   0.742   4.129   4.578
 9302SOL     OW28804   2.232   2.977   4.786
 9302SOL    HW128805   2.262   2.976   4.882
 9302SOL    HW228806   2.281   2.906   4.736
 9303SOL     OW28807   3.195   3.861   7.000
 9303SOL    HW128808   3.262   3.809   0.025
 9303SOL    HW228809   3.217   3.853   6.903
 9304SOL     OW28810   4.808   4.812   0.875
 9304SOL    HW128811   4.823   4.718   0.906
 9304SOL    HW228812   4.894   4.851   0.844
 9305SOL     OW28813   2.409   1.653   0.619
 9305SOL    HW128814   2.452   1.632   0.531
 9305SOL    HW228815   2.479   1.663   0.689
 9306SOL     OW28816   7.019   4.002   4.659
 9306SOL    HW128817   0.083   4.030   4.631
 9306SOL    HW228818   7.024   3.959   4.749
 9307SOL     OW28819   2.268   3.555   0.743
 9307SOL    HW128820   2.315   3.597   0.665
 9307SOL    HW228821   2.252   3.458   0.723
 9308SOL     OW28822   1.511   4.181   1.421
 9308SOL    HW128823   1.489   4.189   1.324
 9308SOL    HW228824   1.429   4.150   1.471
 9309SOL     OW28825   5.156   6.011   5.589
 9309SOL    HW128826   5.233   5.978   5.535
 9309SOL    HW228827   5.078   5.949   5.576
 9310SOL     OW28828   4.140   5.866   5.790
 9310SOL    HW128829   4.211   5.797   5.799
 9310SOL    HW228830   4.111   5.872   5.695
 9311SOL     OW28831   4.674   3.668   1.508
 9311SOL    HW128832   4.587   3.628   1.481
 9311SOL    HW228833   4.686   3.756   1.463
 9312SOL     OW28834   1.366   2.013   0.939
 9312SOL    HW128835   1.390   2.011   0.842
 9312SOL    HW228836   1.273   1.977   0.951
 9313SOL     OW28837   1.356   0.693   1.773
 9313SOL    HW128838   1.421   0.707   1.698
 9313SOL    HW228839   1.285   0.629   1.744
 9314SOL     OW28840   5.011   2.705   1.000
 9314SOL    HW128841   5.048   2.797   0.989
 9314SOL    HW228842   5.039   2.648   0.922
 9315SOL     OW28843   5.631   1.049   6.428
 9315SOL    HW128844   5.602   1.127   6.373
 9315SOL    HW228845   5.653   0.972   6.368
 9316SOL     OW28846   5.548   0.548   5.681
 9316SOL    HW128847   5.597   0.470   5.721
 9316SOL    HW228848   5.486   0.515   5.610
 9317SOL     OW28849   3.173   5.468   3.906
 9317SOL    HW128850   3.252   5.470   3.845
 9317SOL    HW228851   3.205   5.465   4.001
 9318SOL     OW28852   5.344   5.914   0.336
 9318SOL    HW128853   5.377   5.872   0.420
 9318SOL    HW228854   5.372   5.859   0.257
 9319SOL     OW28855   2.853   4.030   1.345
 9319SOL    HW128856   2.764   3.985   1.345
 9319SOL    HW228857   2.922   3.967   1.379
 9320SOL     OW28858   5.499   0.411   6.188
 9320SOL    HW128859   5.588   0.421   6.143
 9320SOL    HW228860   5.436   0.366   6.125
 9321SOL     OW28861   0.103   3.114   5.548
 9321SOL    HW128862   0.101   3.108   5.648
 9321SOL    HW228863   0.197   3.125   5.517
 9322SOL     OW28864   5.962   4.122   5.611
 9322SOL    HW128865   5.906   4.068   5.548
 9322SOL    HW228866   6.042   4.070   5.638
 9323SOL     OW28867   1.427   3.620   3.594
 9323SOL    HW128868   1.420   3.541   3.654
 9323SOL    HW228869   1.354   3.685   3.614
 9324SOL     OW28870   0.879   4.167   0.440
 9324SOL    HW128871   0.963   4.116   0.457
 9324SOL    HW228872   0.877   4.248   0.499
 9325SOL     OW28873   2.103   5.415   1.828
 9325SOL    HW128874   2.180   5.471   1.859
 9325SOL    HW228875   2.118   5.320   1.857
 9326SOL     OW28876   4.040   4.154   0.327
 9326SOL    HW128877   3.978   4.223   0.289
 9326SOL    HW228878   4.088   4.108   0.252
 9327SOL     OW28879   4.771   0.363   3.357
 9327SOL    HW128880   4.701   0.406   3.301
 9327SOL    HW228881   4.759   0.389   3.453
 9328SOL     OW28882   3.142   6.812   4.798
 9328SOL    HW128883   3.078   6.786   4.726
 9328SOL    HW228884   3.195   6.891   4.769
 9329SOL     OW28885   0.206   6.195   6.183
 9329SOL    HW128886   0.195   6.139   6.101
 9329SOL    HW228887   0.290   6.169   6.231
 9330SOL     OW28888   0.140   0.114   6.665
 9330SOL    HW128889   0.229   0.129   6.623
 9330SOL    HW228890   0.073   0.177   6.624
 9331SOL     OW28891   1.333   3.291   5.064
 9331SOL    HW128892   1.256   3.246   5.019
 9331SOL    HW228893   1.322   3.390   5.055
 9332SOL     OW28894   3.755   5.861   0.634
 9332SOL    HW128895   3.790   5.871   0.541
 9332SOL    HW228896   3.756   5.949   0.681
 9333SOL     OW28897   3.594   5.232   0.439
 9333SOL    HW128898   3.600   5.149   0.494
 9333SOL    HW228899   3.681   5.281   0.444
 9334SOL     OW28900   4.846   6.421   4.643
 9334SOL    HW128901   4.764   6.436   4.589
 9334SOL    HW228902   4.821   6.407   4.739
 9335SOL     OW28903   2.233   1.894   1.324
 9335SOL    HW128904   2.297   1.947   1.269
 9335SOL    HW228905   2.179   1.834   1.265
 9336SOL     OW28906   6.249   1.105   5.264
 9336SOL    HW128907   6.295   1.045   5.199
 9336SOL    HW228908   6.154   1.076   5.274
 9337SOL     OW28909   4.582   6.847   6.712
 9337SOL    HW128910   4.678   6.834   6.687
 9337SOL    HW228911   4.528   6.770   6.680
 9338SOL     OW28912   0.465   6.576   0.328
 9338SOL    HW128913   0.447   6.657   0.272
 9338SOL    HW228914   0.382   6.551   0.378
 9339SOL     OW28915   5.608   4.941   6.781
 9339SOL    HW128916   5.695   4.988   6.791
 9339SOL    HW228917   5.571   4.958   6.689
 9340SOL     OW28918   3.673   6.289   2.469
 9340SOL    HW128919   3.622   6.374   2.478
 9340SOL    HW228920   3.627   6.229   2.403
 9341SOL     OW28921   5.778   4.237   6.783
 9341SOL    HW128922   5.750   4.142   6.778
 9341SOL    HW228923   5.770   4.270   6.877
 9342SOL     OW28924   2.930   0.352   4.350
 9342SOL    HW128925   2.850   0.323   4.297
 9342SOL    HW228926   2.999   0.389   4.289
 9343SOL     OW28927   4.750   4.210   1.845
 9343SOL    HW128928   4.651   4.212   1.858
 9343SOL    HW228929   4.775   4.136   1.784
 9344SOL     OW28930   5.507   4.941   5.883
 9344SOL    HW128931   5.567   4.943   5.963
 9344SOL    HW228932   5.414   4.917   5.912
 9345SOL     OW28933   6.855   6.077   0.055
 9345SOL    HW128934   6.945   6.039   0.035
 9345SOL    HW228935   6.791   6.051   7.012
 9346SOL     OW28936   5.358   6.446   2.517
 9346SOL    HW128937   5.327   6.351   2.523
 9346SOL    HW228938   5.284   6.507   2.547
 9347SOL     OW28939   3.696   5.750   1.455
 9347SOL    HW128940   3.625   5.693   1.413
 9347SOL    HW228941   3.769   5.692   1.489
 9348SOL     OW28942   2.222   6.497   3.311
 9348SOL    HW128943   2.282   6.569   3.276
 9348SOL    HW228944   2.199   6.434   3.237
 9349SOL     OW28945   6.449   5.713   2.535
 9349SOL    HW128946   6.480   5.698   2.629
 9349SOL    HW228947   6.508   5.782   2.492
 9350SOL     OW28948   6.754   1.584   4.656
 9350SOL    HW128949   6.799   1.497   4.638
 9350SOL    HW228950   6.814   1.642   4.710
 9351SOL     OW28951   2.161   1.256   5.825
 9351SOL    HW128952   2.192   1.287   5.735
 9351SOL    HW228953   2.211   1.307   5.896
 9352SOL     OW28954   1.580   2.448   5.283
 9352SOL    HW128955   1.601   2.507   5.361
 9352SOL    HW228956   1.483   2.421   5.288
 9353SOL     OW28957   1.525   4.229   1.818
 9353SOL    HW128958   1.609   4.262   1.861
 9353SOL    HW228959   1.481   4.304   1.768
 9354SOL     OW28960   6.270   1.797   1.152
 9354SOL    HW128961   6.179   1.790   1.191
 9354SOL    HW228962   6.316   1.708   1.158
 9355SOL     OW28963   6.670   1.222   4.539
 9355SOL    HW128964   6.650   1.125   4.549
 9355SOL    HW228965   6.596   1.267   4.489
 9356SOL     OW28966   4.232   5.055   2.192
 9356SOL    HW128967   4.259   5.113   2.115
 9356SOL    HW228968   4.238   5.108   2.276
 9357SOL     OW28969   2.559   3.445   0.362
 9357SOL    HW128970   2.493   3.400   0.301
 9357SOL    HW228971   2.607   3.517   0.312
 9358SOL     OW28972   5.992   4.123   1.865
 9358SOL    HW128973   5.995   4.032   1.906
 9358SOL    HW228974   5.995   4.114   1.765
 9359SOL     OW28975   0.107   3.960   6.239
 9359SOL    HW128976   0.071   4.001   6.323
 9359SOL    HW228977   0.098   4.025   6.163
 9360SOL     OW28978   1.760   0.347   5.518
 9360SOL    HW128979   1.743   0.249   5.513
 9360SOL    HW228980   1.803   0.377   5.433
 9361SOL     OW28981   3.226   6.409   2.902
 9361SOL    HW128982   3.290   6.363   2.964
 9361SOL    HW228983   3.142   6.356   2.895
 9362SOL     OW28984   2.241   1.114   1.819
 9362SOL    HW128985   2.216   1.119   1.723
 9362SOL    HW228986   2.340   1.125   1.829
 9363SOL     OW28987   3.584   5.656   2.087
 9363SOL    HW128988   3.586   5.752   2.060
 9363SOL    HW228989   3.509   5.609   2.041
 9364SOL     OW28990   4.560   2.548   6.432
 9364SOL    HW128991   4.514   2.555   6.521
 9364SOL    HW228992   4.609   2.634   6.413
 9365SOL     OW28993   2.768   2.364   5.129
 9365SOL    HW128994   2.685   2.417   5.115
 9365SOL    HW228995   2.766   2.282   5.072
 9366SOL     OW28996   3.282   1.841   0.093
 9366SOL    HW128997   3.361   1.854   0.034
 9366SOL    HW228998   3.288   1.903   0.171
 9367SOL     OW28999   0.607   5.649   4.167
 9367SOL    HW129000   0.531   5.587   4.187
 9367SOL    HW229001   0.572   5.731   4.121
 9368SOL     OW29002   3.721   1.999   2.426
 9368SOL    HW129003   3.692   1.978   2.333
 9368SOL    HW229004   3.816   2.029   2.425
 9369SOL     OW29005   6.664   1.660   6.228
 9369SOL    HW129006   6.673   1.724   6.304
 9369SOL    HW229007   6.617   1.577   6.260
 9370SOL     OW29008   5.471   1.129   3.105
 9370SOL    HW129009   5.445   1.225   3.109
 9370SOL    HW229010   5.521   1.112   3.019
 9371SOL     OW29011   1.637   5.443   0.060
 9371SOL    HW129012   1.562   5.471   7.028
 9371SOL    HW229013   1.619   5.350   0.093
 9372SOL     OW29014   5.674   6.642   2.965
 9372SOL    HW129015   5.630   6.577   2.903
 9372SOL    HW229016   5.618   6.724   2.973
 9373SOL     OW29017   4.333   2.034   2.743
 9373SOL    HW129018   4.295   1.971   2.811
 9373SOL    HW229019   4.412   2.081   2.782
 9374SOL     OW29020   5.667   2.628   0.211
 9374SOL    HW129021   5.751   2.615   0.159
 9374SOL    HW229022   5.637   2.723   0.204
 9375SOL     OW29023   6.863   1.256   3.381
 9375SOL    HW129024   6.842   1.213   3.470
 9375SOL    HW229025   6.787   1.315   3.354
 9376SOL     OW29026   2.975   3.920   0.629
 9376SOL    HW129027   3.006   4.004   0.673
 9376SOL    HW229028   2.957   3.850   0.699
 9377SOL     OW29029   0.241   5.171   3.651
 9377SOL    HW129030   0.238   5.160   3.552
 9377SOL    HW229031   0.336   5.174   3.681
 9378SOL     OW29032   1.888   0.141   5.812
 9378SOL    HW129033   1.946   0.150   5.732
 9378SOL    HW229034   1.814   0.208   5.807
 9379SOL     OW29035   5.055   4.628   4.937
 9379SOL    HW129036   5.012   4.716   4.920
 9379SOL    HW229037   5.154   4.636   4.922
 9380SOL     OW29038   6.253   5.817   5.499
 9380SOL    HW129039   6.191   5.803   5.576
 9380SOL    HW229040   6.250   5.913   5.471
 9381SOL     OW29041   2.924   3.142   5.594
 9381SOL    HW129042   2.900   3.094   5.510
 9381SOL    HW229043   2.849   3.202   5.622
 9382SOL     OW29044   3.806   1.518   2.899
 9382SOL    HW129045   3.778   1.461   2.976
 9382SOL    HW229046   3.756   1.605   2.902
 9383SOL     OW29047   3.680   6.040   5.046
 9383SOL    HW129048   3.677   5.965   5.113
 9383SOL    HW229049   3.679   6.003   4.954
 9384SOL     OW29050   4.445   6.283   1.875
 9384SOL    HW129051   4.370   6.343   1.849
 9384SOL    HW229052   4.457   6.213   1.805
 9385SOL     OW29053   3.987   1.745   2.432
 9385SOL    HW129054   3.995   1.845   2.436
 9385SOL    HW229055   3.984   1.709   2.525
 9386SOL     OW29056   3.116   5.992   4.359
 9386SOL    HW129057   3.126   6.076   4.412
 9386SOL    HW229058   3.103   6.014   4.263
 9387SOL     OW29059   4.366   0.217   0.831
 9387SOL    HW129060   4.462   0.204   0.857
 9387SOL    HW229061   4.363   0.264   0.742
 9388SOL     OW29062   1.554   5.983   2.894
 9388SOL    HW129063   1.476   6.046   2.905
 9388SOL    HW229064   1.546   5.908   2.960
 9389SOL     OW29065   2.782   0.360   5.006
 9389SOL    HW129066   2.725   0.441   5.013
 9389SOL    HW229067   2.872   0.385   4.972
 9390SOL     OW29068   3.581   6.069   3.368
 9390SOL    HW129069   3.654   6.122   3.325
 9390SOL    HW229070   3.509   6.132   3.398
 9391SOL     OW29071   2.128   1.020   5.490
 9391SOL    HW129072   2.129   1.113   5.527
 9391SOL    HW229073   2.219   0.979   5.501
 9392SOL     OW29074   0.375   6.991   4.636
 9392SOL    HW129075   0.466   6.950   4.635
 9392SOL    HW229076   0.367   0.026   4.559
 9393SOL     OW29077   3.856   1.609   4.439
 9393SOL    HW129078   3.853   1.526   4.495
 9393SOL    HW229079   3.905   1.590   4.353
 9394SOL     OW29080   6.120   2.461   3.266
 9394SOL    HW129081   6.192   2.489   3.330
 9394SOL    HW229082   6.067   2.542   3.238
 9395SOL     OW29083   2.429   2.319   0.435
 9395SOL    HW129084   2.513   2.286   0.392
 9395SOL    HW229085   2.380   2.243   0.476
 9396SOL     OW29086   0.759   6.723   4.742
 9396SOL    HW129087   0.769   6.625   4.756
 9396SOL    HW229088   0.832   6.772   4.789
 9397SOL     OW29089   2.653   6.871   0.011
 9397SOL    HW129090   2.607   6.858   0.100
 9397SOL    HW229091   2.730   6.934   0.022
 9398SOL     OW29092   1.872   0.483   6.257
 9398SOL    HW129093   1.909   0.443   6.173
 9398SOL    HW229094   1.946   0.524   6.310
 9399SOL     OW29095   0.407   2.174   6.964
 9399SOL    HW129096   0.476   2.185   0.007
 9399SOL    HW229097   0.437   2.104   6.899
 9400SOL     OW29098   5.369   3.504   1.749
 9400SOL    HW129099   5.286   3.451   1.730
 9400SOL    HW229100   5.347   3.601   1.747
 9401SOL     OW29101   2.881   6.123   3.539
 9401SOL    HW129102   2.883   6.125   3.639
 9401SOL    HW229103   2.837   6.038   3.509
 9402SOL     OW29104   1.297   4.673   5.794
 9402SOL    HW129105   1.322   4.576   5.796
 9402SOL    HW229106   1.205   4.684   5.830
 9403SOL     OW29107   4.737   1.704   3.000
 9403SOL    HW129108   4.815   1.696   3.062
 9403SOL    HW229109   4.653   1.679   3.048
 9404SOL     OW29110   1.040   4.206   6.532
 9404SOL    HW129111   1.088   4.152   6.463
 9404SOL    HW229112   1.107   4.243   6.597
 9405SOL     OW29113   6.552   6.845   2.284
 9405SOL    HW129114   6.463   6.811   2.253
 9405SOL    HW229115   6.540   6.910   2.358
 9406SOL     OW29116   6.845   1.844   6.120
 9406SOL    HW129117   6.788   1.762   6.118
 9406SOL    HW229118   6.804   1.915   6.062
 9407SOL     OW29119   2.914   6.136   2.448
 9407SOL    HW129120   2.919   6.211   2.514
 9407SOL    HW229121   2.860   6.165   2.369
 9408SOL     OW29122   3.836   1.794   5.784
 9408SOL    HW129123   3.836   1.832   5.877
 9408SOL    HW229124   3.898   1.847   5.727
 9409SOL     OW29125   5.138   4.588   5.312
 9409SOL    HW129126   5.170   4.532   5.236
 9409SOL    HW229127   5.120   4.530   5.392
 9410SOL     OW29128   3.732   5.581   1.772
 9410SOL    HW129129   3.668   5.515   1.813
 9410SOL    HW229130   3.693   5.673   1.780
 9411SOL     OW29131   3.638   4.263   0.873
 9411SOL    HW129132   3.659   4.353   0.835
 9411SOL    HW229133   3.541   4.258   0.895
 9412SOL     OW29134   0.093   3.174   1.470
 9412SOL    HW129135   0.062   3.269   1.457
 9412SOL    HW229136   0.190   3.168   1.449
 9413SOL     OW29137   4.346   5.478   4.970
 9413SOL    HW129138   4.315   5.390   5.006
 9413SOL    HW229139   4.445   5.476   4.959
 9414SOL     OW29140   3.343   1.908   3.552
 9414SOL    HW129141   3.325   2.006   3.547
 9414SOL    HW229142   3.372   1.874   3.463
 9415SOL     OW29143   2.209   6.860   2.605
 9415SOL    HW129144   2.283   6.805   2.567
 9415SOL    HW229145   2.225   6.956   2.587
 9416SOL     OW29146   0.865   1.500   2.056
 9416SOL    HW129147   0.913   1.583   2.082
 9416SOL    HW229148   0.813   1.465   2.135
 9417SOL     OW29149   3.295   0.608   5.857
 9417SOL    HW129150   3.271   0.643   5.948
 9417SOL    HW229151   3.257   0.516   5.846
 9418SOL     OW29152   3.310   6.669   0.589
 9418SOL    HW129153   3.212   6.659   0.576
 9418SOL    HW229154   3.341   6.606   0.660
 9419SOL     OW29155   3.319   6.009   5.593
 9419SOL    HW129156   3.330   6.081   5.661
 9419SOL    HW229157   3.374   5.929   5.620
 9420SOL     OW29158   0.467   2.140   4.665
 9420SOL    HW129159   0.547   2.197   4.686
 9420SOL    HW229160   0.474   2.107   4.571
 9421SOL     OW29161   1.964   6.241   5.251
 9421SOL    HW129162   1.940   6.207   5.342
 9421SOL    HW229163   1.933   6.335   5.240
 9422SOL     OW29164   5.133   7.006   2.773
 9422SOL    HW129165   5.146   0.012   2.866
 9422SOL    HW229166   5.213   6.951   2.748
 9423SOL     OW29167   3.883   0.508   3.168
 9423SOL    HW129168   3.809   0.509   3.099
 9423SOL    HW229169   3.927   0.418   3.168
 9424SOL     OW29170   4.720   0.612   5.210
 9424SOL    HW129171   4.807   0.634   5.165
 9424SOL    HW229172   4.671   0.544   5.155
 9425SOL     OW29173   6.935   3.714   6.495
 9425SOL    HW129174   6.835   3.713   6.501
 9425SOL    HW229175   6.973   3.669   6.576
 9426SOL     OW29176   3.206   1.570   0.123
 9426SOL    HW129177   3.212   1.668   0.141
 9426SOL    HW229178   3.274   1.522   0.178
 9427SOL     OW29179   2.922   5.172   5.041
 9427SOL    HW129180   2.854   5.240   5.069
 9427SOL    HW229181   2.889   5.080   5.064
 9428SOL     OW29182   4.870   0.870   1.511
 9428SOL    HW129183   4.951   0.812   1.506
 9428SOL    HW229184   4.851   0.908   1.421
 9429SOL     OW29185   1.514   4.648   1.619
 9429SOL    HW129186   1.564   4.669   1.703
 9429SOL    HW229187   1.560   4.573   1.571
 9430SOL     OW29188   6.962   6.098   2.142
 9430SOL    HW129189   6.950   5.999   2.145
 9430SOL    HW229190   0.017   6.121   2.092
 9431SOL     OW29191   6.104   4.856   0.756
 9431SOL    HW129192   6.050   4.868   0.672
 9431SOL    HW229193   6.050   4.804   0.822
 9432SOL     OW29194   0.111   0.476   3.343
 9432SOL    HW129195   0.096   0.544   3.414
 9432SOL    HW229196   0.069   0.507   3.257
 9433SOL     OW29197   3.436   4.908   4.004
 9433SOL    HW129198   3.350   4.931   3.959
 9433SOL    HW229199   3.483   4.836   3.953
 9434SOL     OW29200   5.990   4.428   3.444
 9434SOL    HW129201   6.068   4.429   3.507
 9434SOL    HW229202   5.916   4.484   3.482
 9435SOL     OW29203   1.000   1.548   3.674
 9435SOL    HW129204   1.029   1.639   3.643
 9435SOL    HW229205   0.907   1.554   3.710
 9436SOL     OW29206   1.057   4.584   1.807
 9436SOL    HW129207   1.137   4.581   1.868
 9436SOL    HW229208   0.991   4.650   1.843
 9437SOL     OW29209   1.121   6.510   3.653
 9437SOL    HW129210   1.069   6.482   3.573
 9437SOL    HW229211   1.207   6.551   3.624
 9438SOL     OW29212   1.391   6.401   1.608
 9438SOL    HW129213   1.307   6.455   1.607
 9438SOL    HW229214   1.378   6.320   1.551
 9439SOL     OW29215   0.483   2.918   1.900
 9439SOL    HW129216   0.488   2.840   1.964
 9439SOL    HW229217   0.540   2.993   1.934
 9440SOL     OW29218   4.815   6.048   3.995
 9440SOL    HW129219   4.884   6.048   3.922
 9440SOL    HW229220   4.729   6.084   3.960
 9441SOL     OW29221   1.596   5.090   5.123
 9441SOL    HW129222   1.642   5.002   5.115
 9441SOL    HW229223   1.636   5.155   5.059
 9442SOL     OW29224   6.044   2.680   0.248
 9442SOL    HW129225   5.976   2.628   0.198
 9442SOL    HW229226   6.079   2.626   0.325
 9443SOL     OW29227   2.384   4.627   1.322
 9443SOL    HW129228   2.355   4.719   1.294
 9443SOL    HW229229   2.412   4.628   1.418
 9444SOL     OW29230   0.798   4.081   6.269
 9444SOL    HW129231   0.823   4.015   6.341
 9444SOL    HW229232   0.788   4.172   6.310
 9445SOL     OW29233   5.281   3.267   2.069
 9445SOL    HW129234   5.279   3.202   2.146
 9445SOL    HW229235   5.192   3.314   2.063
 9446SOL     OW29236   6.628   6.897   3.662
 9446SOL    HW129237   6.680   6.811   3.657
 9446SOL    HW229238   6.556   6.896   3.592
 9447SOL     OW29239   6.070   3.272   3.402
 9447SOL    HW129240   6.023   3.305   3.320
 9447SOL    HW229241   6.039   3.324   3.482
 9448SOL     OW29242   5.817   6.406   5.874
 9448SOL    HW129243   5.784   6.387   5.782
 9448SOL    HW229244   5.798   6.501   5.898
 9449SOL     OW29245   0.050   6.026   6.328
 9449SOL    HW129246   0.065   5.944   6.273
 9449SOL    HW229247   0.109   6.099   6.295
 9450SOL     OW29248   3.344   4.927   4.640
 9450SOL    HW129249   3.442   4.933   4.621
 9450SOL    HW229250   3.319   4.996   4.708
 9451SOL     OW29251   4.333   5.967   6.466
 9451SOL    HW129252   4.361   5.872   6.451
 9451SOL    HW229253   4.235   5.970   6.487
 9452SOL     OW29254   1.269   2.902   0.922
 9452SOL    HW129255   1.256   2.806   0.894
 9452SOL    HW229256   1.235   2.914   1.015
 9453SOL     OW29257   2.168   4.558   3.408
 9453SOL    HW129258   2.174   4.646   3.455
 9453SOL    HW229259   2.257   4.514   3.407
 9454SOL     OW29260   1.700   3.417   6.048
 9454SOL    HW129261   1.661   3.397   5.958
 9454SOL    HW229262   1.698   3.335   6.105
 9455SOL     OW29263   3.698   1.337   2.690
 9455SOL    HW129264   3.613   1.372   2.652
 9455SOL    HW229265   3.762   1.412   2.705
 9456SOL     OW29266   6.937   4.456   6.748
 9456SOL    HW129267   6.969   4.551   6.755
 9456SOL    HW229268   6.854   4.445   6.804
 9457SOL     OW29269   1.893   3.600   5.954
 9457SOL    HW129270   1.816   3.538   5.966
 9457SOL    HW229271   1.918   3.605   5.857
 9458SOL     OW29272   1.086   3.678   6.204
 9458SOL    HW129273   1.007   3.721   6.159
 9458SOL    HW229274   1.088   3.581   6.181
 9459SOL     OW29275   6.041   4.575   2.794
 9459SOL    HW129276   6.120   4.515   2.808
 9459SOL    HW229277   5.957   4.522   2.803
 9460SOL     OW29278   0.318   1.716   4.492
 9460SOL    HW129279   0.356   1.626   4.471
 9460SOL    HW229280   0.352   1.747   4.581
 9461SOL     OW29281   6.729   1.836   3.653
 9461SOL    HW129282   6.792   1.758   3.659
 9461SOL    HW229283   6.776   1.918   3.686
 9462SOL     OW29284   2.187   4.025   2.909
 9462SOL    HW129285   2.256   4.094   2.929
 9462SOL    HW229286   2.191   4.000   2.812
 9463SOL     OW29287   0.481   0.964   1.411
 9463SOL    HW129288   0.445   1.030   1.477
 9463SOL    HW229289   0.581   0.969   1.411
 9464SOL     OW29290   5.603   6.539   0.583
 9464SOL    HW129291   5.552   6.622   0.559
 9464SOL    HW229292   5.540   6.461   0.586
 9465SOL     OW29293   0.273   6.776   3.234
 9465SOL    HW129294   0.334   6.789   3.156
 9465SOL    HW229295   0.321   6.799   3.319
 9466SOL     OW29296   3.845   3.796   5.127
 9466SOL    HW129297   3.874   3.818   5.034
 9466SOL    HW229298   3.903   3.844   5.193
 9467SOL     OW29299   0.886   2.921   1.674
 9467SOL    HW129300   0.826   2.867   1.734
 9467SOL    HW229301   0.981   2.911   1.704
 9468SOL     OW29302   5.605   2.271   6.334
 9468SOL    HW129303   5.648   2.361   6.329
 9468SOL    HW229304   5.625   2.219   6.251
 9469SOL     OW29305   5.867   5.581   1.533
 9469SOL    HW129306   5.862   5.483   1.515
 9469SOL    HW229307   5.955   5.603   1.574
 9470SOL     OW29308   5.574   2.773   6.368
 9470SOL    HW129309   5.502   2.842   6.357
 9470SOL    HW229310   5.661   2.811   6.336
 9471SOL     OW29311   6.109   2.169   4.844
 9471SOL    HW129312   6.019   2.184   4.885
 9471SOL    HW229313   6.164   2.252   4.852
 9472SOL     OW29314   6.887   3.888   4.137
 9472SOL    HW129315   6.979   3.903   4.103
 9472SOL    HW229316   6.820   3.913   4.066
 9473SOL     OW29317   3.467   5.905   6.039
 9473SOL    HW129318   3.561   5.876   6.056
 9473SOL    HW229319   3.462   6.005   6.044
 9474SOL     OW29320   6.407   3.686   0.945
 9474SOL    HW129321   6.495   3.733   0.934
 9474SOL    HW229322   6.423   3.591   0.972
 9475SOL     OW29323   2.849   3.064   0.510
 9475SOL    HW129324   2.882   3.127   0.581
 9475SOL    HW229325   2.884   2.972   0.529
 9476SOL     OW29326   3.654   3.793   4.894
 9476SOL    HW129327   3.570   3.820   4.942
 9476SOL    HW229328   3.680   3.701   4.923
 9477SOL     OW29329   6.949   3.389   2.170
 9477SOL    HW129330   6.996   3.301   2.167
 9477SOL    HW229331   6.865   3.385   2.117
 9478SOL     OW29332   6.057   3.326   6.080
 9478SOL    HW129333   6.046   3.423   6.103
 9478SOL    HW229334   6.105   3.318   5.993
 9479SOL     OW29335   5.868   6.522   6.167
 9479SOL    HW129336   5.896   6.438   6.213
 9479SOL    HW229337   5.820   6.499   6.082
 9480SOL     OW29338   4.464   4.513   6.802
 9480SOL    HW129339   4.467   4.462   6.888
 9480SOL    HW229340   4.370   4.536   6.780
 9481SOL     OW29341   6.019   3.770   1.304
 9481SOL    HW129342   6.048   3.814   1.389
 9481SOL    HW229343   5.946   3.704   1.323
 9482SOL     OW29344   6.203   1.511   3.621
 9482SOL    HW129345   6.272   1.514   3.549
 9482SOL    HW229346   6.139   1.588   3.610
 9483SOL     OW29347   1.476   1.623   0.819
 9483SOL    HW129348   1.544   1.624   0.893
 9483SOL    HW229349   1.398   1.568   0.847
 9484SOL     OW29350   4.709   1.401   3.653
 9484SOL    HW129351   4.676   1.320   3.605
 9484SOL    HW229352   4.638   1.471   3.653
 9485SOL     OW29353   0.939   0.099   2.214
 9485SOL    HW129354   1.015   0.123   2.153
 9485SOL    HW229355   0.865   0.165   2.201
 9486SOL     OW29356   2.179   5.155   1.349
 9486SOL    HW129357   2.223   5.069   1.323
 9486SOL    HW229358   2.241   5.208   1.407
 9487SOL     OW29359   3.091   3.576   3.209
 9487SOL    HW129360   3.034   3.495   3.198
 9487SOL    HW229361   3.124   3.581   3.304
 9488SOL     OW29362   2.726   6.342   1.085
 9488SOL    HW129363   2.762   6.411   1.147
 9488SOL    HW229364   2.802   6.299   1.035
 9489SOL     OW29365   3.504   4.026   1.517
 9489SOL    HW129366   3.551   3.966   1.582
 9489SOL    HW229367   3.451   4.095   1.567
 9490SOL     OW29368   6.536   6.221   6.950
 9490SOL    HW129369   6.510   6.167   6.870
 9490SOL    HW229370   6.568   6.311   6.921
 9491SOL     OW29371   0.250   4.731   3.627
 9491SOL    HW129372   0.167   4.768   3.669
 9491SOL    HW229373   0.229   4.646   3.579
 9492SOL     OW29374   3.413   3.644   2.692
 9492SOL    HW129375   3.341   3.651   2.623
 9492SOL    HW229376   3.437   3.735   2.725
 9493SOL     OW29377   4.020   5.208   3.937
 9493SOL    HW129378   4.119   5.202   3.925
 9493SOL    HW229379   3.979   5.120   3.911
 9494SOL     OW29380   3.920   4.467   0.928
 9494SOL    HW129381   3.914   4.371   0.956
 9494SOL    HW229382   4.015   4.493   0.914
 9495SOL     OW29383   6.297   2.224   4.199
 9495SOL    HW129384   6.300   2.128   4.228
 9495SOL    HW229385   6.348   2.280   4.263
 9496SOL     OW29386   5.448   4.989   0.861
 9496SOL    HW129387   5.397   5.026   0.784
 9496SOL    HW229388   5.474   4.894   0.843
 9497SOL     OW29389   5.341   4.728   0.131
 9497SOL    HW129390   5.424   4.746   0.078
 9497SOL    HW229391   5.336   4.791   0.208
 9498SOL     OW29392   5.842   0.616   6.260
 9498SOL    HW129393   5.785   0.675   6.204
 9498SOL    HW229394   5.885   0.670   6.333
 9499SOL     OW29395   2.349   3.327   5.869
 9499SOL    HW129396   2.438   3.283   5.879
 9499SOL    HW229397   2.356   3.403   5.804
 9500SOL     OW29398   3.645   6.876   1.668
 9500SOL    HW129399   3.674   6.957   1.618
 9500SOL    HW229400   3.629   6.900   1.764
 9501SOL     OW29401   2.918   1.317   4.317
 9501SOL    HW129402   2.830   1.290   4.277
 9501SOL    HW229403   2.928   1.417   4.310
 9502SOL     OW29404   0.568   1.907   4.796
 9502SOL    HW129405   0.542   1.995   4.756
 9502SOL    HW229406   0.610   1.922   4.885
 9503SOL     OW29407   0.735   1.307   1.444
 9503SOL    HW129408   0.796   1.240   1.485
 9503SOL    HW229409   0.704   1.274   1.355
 9504SOL     OW29410   0.874   2.182   1.219
 9504SOL    HW129411   0.846   2.278   1.218
 9504SOL    HW229412   0.813   2.130   1.279
 9505SOL     OW29413   5.529   3.999   3.405
 9505SOL    HW129414   5.520   4.098   3.396
 9505SOL    HW229415   5.588   3.965   3.332
 9506SOL     OW29416   0.082   3.185   6.559
 9506SOL    HW129417   0.117   3.223   6.645
 9506SOL    HW229418   0.098   3.251   6.485
 9507SOL     OW29419   1.816   1.277   3.848
 9507SOL    HW129420   1.873   1.331   3.910
 9507SOL    HW229421   1.863   1.265   3.761
 9508SOL     OW29422   6.295   2.728   0.621
 9508SOL    HW129423   6.321   2.802   0.683
 9508SOL    HW229424   6.329   2.641   0.656
 9509SOL     OW29425   0.988   6.938   5.380
 9509SOL    HW129426   1.034   6.879   5.446
 9509SOL    HW229427   1.055   6.972   5.314
 9510SOL     OW29428   0.880   4.130   1.731
 9510SOL    HW129429   0.789   4.145   1.771
 9510SOL    HW229430   0.872   4.072   1.650
 9511SOL     OW29431   1.042   1.461   6.881
 9511SOL    HW129432   1.132   1.495   6.907
 9511SOL    HW229433   0.987   1.447   6.964
 9512SOL     OW29434   5.844   1.881   2.988
 9512SOL    HW129435   5.904   1.890   3.067
 9512SOL    HW229436   5.749   1.896   3.016
 9513SOL     OW29437   1.211   2.800   5.180
 9513SOL    HW129438   1.258   2.770   5.097
 9513SOL    HW229439   1.227   2.734   5.253
 9514SOL     OW29440   1.541   3.807   6.521
 9514SOL    HW129441   1.499   3.876   6.581
 9514SOL    HW229442   1.639   3.824   6.514
 9515SOL     OW29443   1.753   5.897   0.484
 9515SOL    HW129444   1.783   5.896   0.580
 9515SOL    HW229445   1.791   5.976   0.438
 9516SOL     OW29446   4.966   3.368   4.711
 9516SOL    HW129447   4.984   3.404   4.803
 9516SOL    HW229448   5.014   3.424   4.643
 9517SOL     OW29449   1.228   5.115   0.105
 9517SOL    HW129450   1.133   5.140   0.125
 9517SOL    HW229451   1.236   5.016   0.097
 9518SOL     OW29452   0.795   2.099   6.948
 9518SOL    HW129453   0.721   2.036   6.972
 9518SOL    HW229454   0.838   2.133   0.003
 9519SOL     OW29455   3.794   3.403   3.453
 9519SOL    HW129456   3.722   3.388   3.520
 9519SOL    HW229457   3.884   3.390   3.496
 9520SOL     OW29458   0.027   1.466   3.429
 9520SOL    HW129459   7.026   1.558   3.403
 9520SOL    HW229460   6.987   1.399   3.398
 9521SOL     OW29461   3.777   3.748   1.470
 9521SOL    HW129462   3.722   3.800   1.535
 9521SOL    HW229463   3.853   3.704   1.517
 9522SOL     OW29464   3.861   5.681   2.905
 9522SOL    HW129465   3.859   5.651   3.000
 9522SOL    HW229466   3.793   5.754   2.891
 9523SOL     OW29467   2.611   5.161   5.051
 9523SOL    HW129468   2.562   5.074   5.051
 9523SOL    HW229469   2.636   5.185   4.957
 9524SOL     OW29470   1.675   2.592   0.941
 9524SOL    HW129471   1.613   2.609   1.018
 9524SOL    HW229472   1.624   2.551   0.865
 9525SOL     OW29473   1.279   2.091   4.913
 9525SOL    HW129474   1.289   2.185   4.882
 9525SOL    HW229475   1.304   2.084   5.010
 9526SOL     OW29476   5.992   4.534   1.784
 9526SOL    HW129477   5.965   4.532   1.688
 9526SOL    HW229478   6.024   4.626   1.808
 9527SOL     OW29479   2.618   0.571   5.017
 9527SOL    HW129480   2.572   0.570   5.106
 9527SOL    HW229481   2.655   0.662   5.000
 9528SOL     OW29482   5.924   1.215   1.121
 9528SOL    HW129483   5.918   1.299   1.067
 9528SOL    HW229484   5.839   1.202   1.171
 9529SOL     OW29485   5.828   3.979   0.135
 9529SOL    HW129486   5.793   4.059   0.185
 9529SOL    HW229487   5.864   3.913   0.200
 9530SOL     OW29488   0.622   4.545   4.073
 9530SOL    HW129489   0.716   4.512   4.083
 9530SOL    HW229490   0.591   4.532   3.979
 9531SOL     OW29491   4.681   4.333   2.886
 9531SOL    HW129492   4.718   4.273   2.815
 9531SOL    HW229493   4.616   4.397   2.845
 9532SOL     OW29494   0.345   5.284   1.040
 9532SOL    HW129495   0.303   5.339   0.968
 9532SOL    HW229496   0.307   5.310   1.129
 9533SOL     OW29497   1.152   5.268   3.859
 9533SOL    HW129498   1.215   5.201   3.898
 9533SOL    HW229499   1.062   5.257   3.901
 9534SOL     OW29500   5.993   4.388   4.769
 9534SOL    HW129501   5.894   4.389   4.755
 9534SOL    HW229502   6.032   4.308   4.723
 9535SOL     OW29503   1.995   1.082   6.070
 9535SOL    HW129504   2.027   1.140   5.996
 9535SOL    HW229505   1.919   1.127   6.117
 9536SOL     OW29506   3.184   3.765   5.709
 9536SOL    HW129507   3.245   3.841   5.733
 9536SOL    HW229508   3.191   3.746   5.611
 9537SOL     OW29509   2.674   1.111   4.867
 9537SOL    HW129510   2.698   1.165   4.947
 9537SOL    HW229511   2.743   1.125   4.795
 9538SOL     OW29512   4.996   0.411   4.590
 9538SOL    HW129513   4.943   0.441   4.669
 9538SOL    HW229514   4.937   0.359   4.528
 9539SOL     OW29515   2.932   3.649   4.652
 9539SOL    HW129516   2.841   3.633   4.614
 9539SOL    HW229517   2.976   3.724   4.602
 9540SOL     OW29518   5.638   4.860   4.202
 9540SOL    HW129519   5.728   4.818   4.190
 9540SOL    HW229520   5.598   4.830   4.288
 9541SOL     OW29521   2.478   0.939   6.197
 9541SOL    HW129522   2.472   0.864   6.263
 9541SOL    HW229523   2.391   0.989   6.195
 9542SOL     OW29524   5.297   4.832   4.612
 9542SOL    HW129525   5.383   4.883   4.621
 9542SOL    HW229526   5.313   4.736   4.637
 9543SOL     OW29527   3.908   0.728   6.484
 9543SOL    HW129528   3.869   0.799   6.543
 9543SOL    HW229529   3.940   0.652   6.540
 9544SOL     OW29530   5.561   3.147   4.291
 9544SOL    HW129531   5.544   3.191   4.203
 9544SOL    HW229532   5.576   3.049   4.277
 9545SOL     OW29533   5.723   5.210   2.642
 9545SOL    HW129534   5.629   5.178   2.651
 9545SOL    HW229535   5.785   5.140   2.677
 9546SOL     OW29536   4.075   1.117   5.820
 9546SOL    HW129537   4.157   1.173   5.816
 9546SOL    HW229538   4.062   1.082   5.913
 9547SOL     OW29539   2.506   5.326   3.827
 9547SOL    HW129540   2.560   5.297   3.748
 9547SOL    HW229541   2.486   5.246   3.884
 9548SOL     OW29542   0.057   5.038   4.441
 9548SOL    HW129543   0.018   5.130   4.444
 9548SOL    HW229544   7.012   4.970   4.435
 9549SOL     OW29545   2.898   1.189   1.798
 9549SOL    HW129546   2.848   1.134   1.865
 9549SOL    HW229547   2.863   1.283   1.799
 9550SOL     OW29548   6.950   1.123   0.153
 9550SOL    HW129549   6.876   1.097   0.215
 9550SOL    HW229550   7.020   1.172   0.204
 9551SOL     OW29551   5.320   2.886   6.034
 9551SOL    HW129552   5.258   2.959   6.005
 9551SOL    HW229553   5.392   2.875   5.965
 9552SOL     OW29554   2.231   5.662   5.490
 9552SOL    HW129555   2.195   5.717   5.565
 9552SOL    HW229556   2.260   5.722   5.415
 9553SOL     OW29557   5.708   2.444   0.413
 9553SOL    HW129558   5.623   2.449   0.466
 9553SOL    HW229559   5.701   2.506   0.335
 9554SOL     OW29560   1.660   6.541   3.373
 9554SOL    HW129561   1.634   6.633   3.403
 9554SOL    HW229562   1.631   6.474   3.442
 9555SOL     OW29563   0.278   1.105   3.338
 9555SOL    HW129564   0.190   1.131   3.299
 9555SOL    HW229565   0.331   1.054   3.270
 9556SOL     OW29566   1.209   3.727   1.133
 9556SOL    HW129567   1.164   3.683   1.211
 9556SOL    HW229568   1.299   3.685   1.118
 9557SOL     OW29569   5.750   6.993   1.600
 9557SOL    HW129570   5.687   6.988   1.677
 9557SOL    HW229571   5.844   6.980   1.633
 9558SOL     OW29572   6.052   5.793   5.690
 9558SOL    HW129573   6.004   5.716   5.734
 9558SOL    HW229574   5.987   5.868   5.675
 9559SOL     OW29575   0.556   4.879   0.446
 9559SOL    HW129576   0.516   4.872   0.537
 9559SOL    HW229577   0.525   4.801   0.390
 9560SOL     OW29578   2.071   1.208   2.500
 9560SOL    HW129579   2.146   1.173   2.443
 9560SOL    HW229580   2.022   1.280   2.450
 9561SOL     OW29581   0.738   0.984   1.441
 9561SOL    HW129582   0.775   0.915   1.505
 9561SOL    HW229583   0.778   0.969   1.350
 9562SOL     OW29584   2.730   0.095   4.898
 9562SOL    HW129585   2.703   0.038   4.975
 9562SOL    HW229586   2.763   0.183   4.932
 9563SOL     OW29587   6.986   6.874   0.025
 9563SOL    HW129588   6.915   6.859   0.094
 9563SOL    HW229589   7.004   6.789   7.004
 9564SOL     OW29590   2.559   0.749   0.402
 9564SOL    HW129591   2.633   0.731   0.467
 9564SOL    HW229592   2.475   0.769   0.453
 9565SOL     OW29593   3.860   0.939   5.090
 9565SOL    HW129594   3.853   1.037   5.109
 9565SOL    HW229595   3.829   0.888   5.170
 9566SOL     OW29596   3.149   5.477   0.005
 9566SOL    HW129597   3.201   5.551   0.048
 9566SOL    HW229598   3.188   5.457   6.943
 9567SOL     OW29599   5.114   4.583   0.807
 9567SOL    HW129600   5.159   4.504   0.765
 9567SOL    HW229601   5.054   4.552   0.881
 9568SOL     OW29602   4.541   1.773   6.757
 9568SOL    HW129603   4.456   1.758   6.707
 9568SOL    HW229604   4.609   1.813   6.696
 9569SOL     OW29605   7.015   1.811   2.470
 9569SOL    HW129606   0.036   1.765   2.543
 9569SOL    HW229607   6.917   1.794   2.480
 9570SOL     OW29608   0.613   3.349   1.760
 9570SOL    HW129609   0.616   3.446   1.736
 9570SOL    HW229610   0.688   3.301   1.715
 9571SOL     OW29611   3.493   2.882   5.603
 9571SOL    HW129612   3.465   2.899   5.509
 9571SOL    HW229613   3.588   2.913   5.615
 9572SOL     OW29614   1.890   4.974   2.170
 9572SOL    HW129615   1.901   5.069   2.200
 9572SOL    HW229616   1.819   4.969   2.100
 9573SOL     OW29617   0.800   2.519   6.688
 9573SOL    HW129618   0.726   2.535   6.753
 9573SOL    HW229619   0.875   2.472   6.735
 9574SOL     OW29620   3.676   2.962   2.923
 9574SOL    HW129621   3.669   3.055   2.958
 9574SOL    HW229622   3.601   2.945   2.859
 9575SOL     OW29623   0.896   1.064   1.821
 9575SOL    HW129624   0.810   1.037   1.779
 9575SOL    HW229625   0.963   0.990   1.811
 9576SOL     OW29626   2.118   1.721   0.221
 9576SOL    HW129627   2.037   1.679   0.180
 9576SOL    HW229628   2.098   1.817   0.243
 9577SOL     OW29629   0.749   0.621   5.944
 9577SOL    HW129630   0.726   0.713   5.912
 9577SOL    HW229631   0.694   0.598   6.024
 9578SOL     OW29632   1.340   3.664   2.496
 9578SOL    HW129633   1.302   3.741   2.445
 9578SOL    HW229634   1.328   3.680   2.594
 9579SOL     OW29635   0.626   4.916   3.670
 9579SOL    HW129636   0.606   4.831   3.721
 9579SOL    HW229637   0.566   4.989   3.703
 9580SOL     OW29638   4.580   3.774   0.796
 9580SOL    HW129639   4.575   3.850   0.731
 9580SOL    HW229640   4.656   3.714   0.771
 9581SOL     OW29641   0.640   0.111   6.317
 9581SOL    HW129642   0.567   0.052   6.282
 9581SOL    HW229643   0.659   0.183   6.250
 9582SOL     OW29644   4.628   5.283   5.143
 9582SOL    HW129645   4.664   5.332   5.222
 9582SOL    HW229646   4.659   5.328   5.059
 9583SOL     OW29647   3.206   3.896   1.534
 9583SOL    HW129648   3.211   3.875   1.631
 9583SOL    HW229649   3.275   3.965   1.511
 9584SOL     OW29650   0.159   5.130   6.122
 9584SOL    HW129651   0.166   5.149   6.024
 9584SOL    HW229652   0.226   5.185   6.172
 9585SOL     OW29653   6.350   6.650   3.614
 9585SOL    HW129654   6.265   6.697   3.636
 9585SOL    HW229655   6.385   6.683   3.526
 9586SOL     OW29656   5.052   4.879   2.313
 9586SOL    HW129657   4.990   4.806   2.342
 9586SOL    HW229658   5.036   4.960   2.370
 9587SOL     OW29659   0.929   0.144   1.206
 9587SOL    HW129660   0.897   0.056   1.242
 9587SOL    HW229661   0.954   0.204   1.282
 9588SOL     OW29662   6.386   6.743   1.760
 9588SOL    HW129663   6.478   6.776   1.779
 9588SOL    HW229664   6.321   6.786   1.824
 9589SOL     OW29665   1.819   5.173   6.990
 9589SOL    HW129666   1.877   5.237   6.940
 9589SOL    HW229667   1.869   5.137   0.040
 9590SOL     OW29668   5.941   3.229   1.785
 9590SOL    HW129669   6.029   3.212   1.829
 9590SOL    HW229670   5.868   3.220   1.852
 9591SOL     OW29671   2.847   5.291   5.781
 9591SOL    HW129672   2.776   5.255   5.720
 9591SOL    HW229673   2.804   5.332   5.861
 9592SOL     OW29674   3.034   4.504   0.262
 9592SOL    HW129675   3.069   4.411   0.252
 9592SOL    HW229676   2.969   4.508   0.338
 9593SOL     OW29677   0.077   1.050   6.193
 9593SOL    HW129678   0.072   1.115   6.269
 9593SOL    HW229679   0.096   0.959   6.229
 9594SOL     OW29680   1.692   5.167   3.243
 9594SOL    HW129681   1.655   5.148   3.152
 9594SOL    HW229682   1.650   5.105   3.310
 9595SOL     OW29683   0.627   2.652   4.713
 9595SOL    HW129684   0.552   2.586   4.722
 9595SOL    HW229685   0.696   2.615   4.650
 9596SOL     OW29686   0.542   5.078   6.242
 9596SOL    HW129687   0.564   5.014   6.316
 9596SOL    HW229688   0.584   5.167   6.261
 9597SOL     OW29689   0.068   4.136   1.176
 9597SOL    HW129690   0.080   4.210   1.110
 9597SOL    HW229691   0.122   4.155   1.258
 9598SOL     OW29692   1.505   4.723   3.385
 9598SOL    HW129693   1.411   4.731   3.417
 9598SOL    HW229694   1.563   4.791   3.430
 9599SOL     OW29695   2.733   0.485   4.518
 9599SOL    HW129696   2.809   0.459   4.458
 9599SOL    HW229697   2.678   0.556   4.474
 9600SOL     OW29698   3.131   6.529   0.072
 9600SOL    HW129699   3.061   6.458   0.067
 9600SOL    HW229700   3.097   6.605   0.128
 9601SOL     OW29701   4.714   4.084   0.829
 9601SOL    HW129702   4.749   3.990   0.830
 9601SOL    HW229703   4.671   4.102   0.740
 9602SOL     OW29704   6.147   3.912   6.077
 9602SOL    HW129705   6.150   3.813   6.062
 9602SOL    HW229706   6.205   3.958   6.011
 9603SOL     OW29707   4.589   1.313   4.923
 9603SOL    HW129708   4.685   1.340   4.920
 9603SOL    HW229709   4.542   1.366   4.995
 9604SOL     OW29710   4.909   0.576   0.302
 9604SOL    HW129711   4.852   0.493   0.297
 9604SOL    HW229712   4.852   0.654   0.328
 9605SOL     OW29713   0.900   5.893   3.422
 9605SOL    HW129714   0.850   5.859   3.501
 9605SOL    HW229715   0.901   5.824   3.350
 9606SOL     OW29716   2.011   6.164   0.108
 9606SOL    HW129717   2.098   6.184   0.063
 9606SOL    HW229718   1.997   6.065   0.109
 9607SOL     OW29719   1.702   1.488   6.764
 9607SOL    HW129720   1.796   1.465   6.788
 9607SOL    HW229721   1.681   1.580   6.798
 9608SOL     OW29722   6.830   5.367   2.055
 9608SOL    HW129723   6.801   5.342   1.963
 9608SOL    HW229724   6.920   5.328   2.073
 9609SOL     OW29725   1.958   3.733   0.055
 9609SOL    HW129726   1.957   3.768   6.990
 9609SOL    HW229727   2.048   3.748   0.095
 9610SOL     OW29728   1.654   4.935   3.500
 9610SOL    HW129729   1.634   4.876   3.578
 9610SOL    HW229730   1.746   4.974   3.511
 9611SOL     OW29731   1.187   6.232   6.952
 9611SOL    HW129732   1.262   6.279   6.998
 9611SOL    HW229733   1.102   6.248   7.002
 9612SOL     OW29734   0.221   4.164   1.399
 9612SOL    HW129735   0.279   4.090   1.433
 9612SOL    HW229736   0.274   4.249   1.395
 9613SOL     OW29737   5.257   0.382   3.682
 9613SOL    HW129738   5.223   0.289   3.666
 9613SOL    HW229739   5.326   0.380   3.754
 9614SOL     OW29740   3.549   2.471   1.405
 9614SOL    HW129741   3.453   2.463   1.377
 9614SOL    HW229742   3.567   2.408   1.480
 9615SOL     OW29743   2.506   6.455   0.056
 9615SOL    HW129744   2.492   6.467   0.154
 9615SOL    HW229745   2.427   6.491   0.006
 9616SOL     OW29746   3.757   3.759   1.046
 9616SOL    HW129747   3.782   3.821   1.120
 9616SOL    HW229748   3.692   3.804   0.986
 9617SOL     OW29749   1.265   3.453   3.366
 9617SOL    HW129750   1.288   3.520   3.438
 9617SOL    HW229751   1.289   3.361   3.398
 9618SOL     OW29752   4.205   6.798   6.622
 9618SOL    HW129753   4.211   6.845   6.534
 9618SOL    HW229754   4.273   6.726   6.627
 9619SOL     OW29755   1.598   6.749   6.807
 9619SOL    HW129756   1.596   6.848   6.796
 9619SOL    HW229757   1.689   6.715   6.783
 9620SOL     OW29758   4.478   1.249   6.201
 9620SOL    HW129759   4.499   1.215   6.293
 9620SOL    HW229760   4.535   1.200   6.134
 9621SOL     OW29761   1.271   1.236   2.127
 9621SOL    HW129762   1.280   1.264   2.032
 9621SOL    HW229763   1.179   1.199   2.142
 9622SOL     OW29764   0.084   1.112   0.770
 9622SOL    HW129765   7.022   1.072   0.764
 9622SOL    HW229766   0.078   1.203   0.812
 9623SOL     OW29767   2.984   3.948   5.467
 9623SOL    HW129768   2.934   4.010   5.406
 9623SOL    HW229769   2.987   3.988   5.559
 9624SOL     OW29770   6.692   4.066   2.277
 9624SOL    HW129771   6.749   3.984   2.278
 9624SOL    HW229772   6.749   4.147   2.292
 9625SOL     OW29773   5.097   5.381   6.842
 9625SOL    HW129774   5.047   5.423   6.918
 9625SOL    HW229775   5.042   5.308   6.802
 9626SOL     OW29776   3.960   4.253   6.873
 9626SOL    HW129777   3.917   4.210   6.952
 9626SOL    HW229778   3.903   4.239   6.792
 9627SOL     OW29779   0.136   5.877   4.519
 9627SOL    HW129780   0.078   5.947   4.478
 9627SOL    HW229781   0.232   5.905   4.511
 9628SOL     OW29782   4.837   4.926   0.005
 9628SOL    HW129783   4.788   5.003   6.994
 9628SOL    HW229784   4.777   4.877   0.068
 9629SOL     OW29785   0.205   6.926   1.942
 9629SOL    HW129786   0.255   7.010   1.962
 9629SOL    HW229787   0.258   6.847   1.972
 9630SOL     OW29788   6.552   0.098   5.228
 9630SOL    HW129789   6.649   0.075   5.212
 9630SOL    HW229790   6.503   0.016   5.255
 9631SOL     OW29791   0.115   6.878   6.582
 9631SOL    HW129792   0.110   6.975   6.605
 9631SOL    HW229793   0.199   6.839   6.621
 9632SOL     OW29794   1.024   0.097   3.157
 9632SOL    HW129795   1.024   0.024   3.225
 9632SOL    HW229796   1.113   0.143   3.158
 9633SOL     OW29797   5.316   4.686   5.827
 9633SOL    HW129798   5.277   4.768   5.869
 9633SOL    HW229799   5.347   4.708   5.734
 9634SOL     OW29800   1.357   5.416   4.021
 9634SOL    HW129801   1.258   5.426   4.006
 9634SOL    HW229802   1.373   5.344   4.089
 9635SOL     OW29803   1.896   4.552   5.400
 9635SOL    HW129804   1.826   4.503   5.348
 9635SOL    HW229805   1.896   4.649   5.372
 9636SOL     OW29806   4.162   1.752   5.771
 9636SOL    HW129807   4.161   1.778   5.675
 9636SOL    HW229808   4.166   1.834   5.828
 9637SOL     OW29809   2.299   2.019   6.522
 9637SOL    HW129810   2.246   2.046   6.602
 9637SOL    HW229811   2.289   2.087   6.450
 9638SOL     OW29812   6.657   3.272   6.748
 9638SOL    HW129813   6.581   3.288   6.810
 9638SOL    HW229814   6.652   3.336   6.671
 9639SOL     OW29815   3.339   1.595   2.030
 9639SOL    HW129816   3.380   1.532   1.963
 9639SOL    HW229817   3.279   1.544   2.092
 9640SOL     OW29818   2.283   2.883   3.276
 9640SOL    HW129819   2.339   2.823   3.218
 9640SOL    HW229820   2.242   2.955   3.220
 9641SOL     OW29821   4.112   6.455   1.078
 9641SOL    HW129822   4.140   6.431   1.171
 9641SOL    HW229823   4.040   6.392   1.047
 9642SOL     OW29824   3.517   6.566   5.112
 9642SOL    HW129825   3.523   6.568   5.212
 9642SOL    HW229826   3.440   6.622   5.082
 9643SOL     OW29827   5.207   5.125   3.910
 9643SOL    HW129828   5.172   5.047   3.857
 9643SOL    HW229829   5.297   5.151   3.876
 9644SOL     OW29830   1.223   4.318   5.413
 9644SOL    HW129831   1.267   4.403   5.442
 9644SOL    HW229832   1.292   4.245   5.411
 9645SOL     OW29833   3.607   5.557   3.465
 9645SOL    HW129834   3.625   5.596   3.555
 9645SOL    HW229835   3.656   5.470   3.455
 9646SOL     OW29836   2.867   4.740   2.181
 9646SOL    HW129837   2.859   4.668   2.113
 9646SOL    HW229838   2.838   4.705   2.270
 9647SOL     OW29839   5.815   5.328   1.519
 9647SOL    HW129840   5.824   5.265   1.442
 9647SOL    HW229841   5.747   5.292   1.583
 9648SOL     OW29842   4.115   1.532   0.108
 9648SOL    HW129843   4.115   1.598   0.033
 9648SOL    HW229844   4.087   1.442   0.074
 9649SOL     OW29845   2.788   6.504   6.979
 9649SOL    HW129846   2.688   6.492   6.983
 9649SOL    HW229847   2.814   6.583   0.007
 9650SOL     OW29848   5.631   4.916   2.485
 9650SOL    HW129849   5.663   4.889   2.395
 9650SOL    HW229850   5.689   4.874   2.555
 9651SOL     OW29851   6.791   0.638   6.282
 9651SOL    HW129852   6.700   0.676   6.297
 9651SOL    HW229853   6.823   0.666   6.191
 9652SOL     OW29854   2.187   4.722   0.661
 9652SOL    HW129855   2.261   4.782   0.694
 9652SOL    HW229856   2.119   4.710   0.734
 9653SOL     OW29857   3.975   5.593   4.631
 9653SOL    HW129858   3.962   5.575   4.533
 9653SOL    HW229859   3.892   5.567   4.680
 9654SOL     OW29860   3.187   3.111   1.304
 9654SOL    HW129861   3.176   3.201   1.263
 9654SOL    HW229862   3.284   3.090   1.312
 9655SOL     OW29863   6.865   1.653   6.765
 9655SOL    HW129864   6.904   1.718   6.700
 9655SOL    HW229865   6.802   1.701   6.826
 9656SOL     OW29866   2.779   2.128   0.751
 9656SOL    HW129867   2.702   2.192   0.743
 9656SOL    HW229868   2.747   2.035   0.731
 9657SOL     OW29869   6.309   0.574   4.102
 9657SOL    HW129870   6.343   0.646   4.042
 9657SOL    HW229871   6.229   0.607   4.152
 9658SOL     OW29872   6.025   2.329   2.867
 9658SOL    HW129873   5.965   2.277   2.928
 9658SOL    HW229874   6.086   2.265   2.820
 9659SOL     OW29875   6.173   4.331   0.477
 9659SOL    HW129876   6.078   4.360   0.469
 9659SOL    HW229877   6.230   4.385   0.417
 9660SOL     OW29878   0.834   5.886   0.532
 9660SOL    HW129879   0.820   5.838   0.445
 9660SOL    HW229880   0.921   5.857   0.572
 9661SOL     OW29881   3.442   6.716   2.009
 9661SOL    HW129882   3.468   6.620   2.009
 9661SOL    HW229883   3.343   6.724   1.994
 9662SOL     OW29884   5.902   2.217   5.008
 9662SOL    HW129885   5.850   2.165   5.077
 9662SOL    HW229886   5.868   2.311   5.005
 9663SOL     OW29887   0.872   5.642   4.216
 9663SOL    HW129888   0.866   5.573   4.289
 9663SOL    HW229889   0.780   5.674   4.192
 9664SOL     OW29890   6.360   6.722   3.345
 9664SOL    HW129891   6.364   6.820   3.326
 9664SOL    HW229892   6.420   6.674   3.281
 9665SOL     OW29893   5.358   5.639   5.499
 9665SOL    HW129894   5.291   5.683   5.440
 9665SOL    HW229895   5.429   5.596   5.442
 9666SOL     OW29896   5.526   4.199   2.271
 9666SOL    HW129897   5.449   4.251   2.308
 9666SOL    HW229898   5.587   4.171   2.345
 9667SOL     OW29899   3.348   3.058   4.229
 9667SOL    HW129900   3.280   3.049   4.302
 9667SOL    HW229901   3.308   3.025   4.143
 9668SOL     OW29902   6.168   1.075   6.960
 9668SOL    HW129903   6.164   0.975   6.961
 9668SOL    HW229904   6.261   1.105   6.982
 9669SOL     OW29905   0.802   0.405   1.458
 9669SOL    HW129906   0.705   0.424   1.472
 9669SOL    HW229907   0.829   0.439   1.368
 9670SOL     OW29908   5.009   5.056   6.075
 9670SOL    HW129909   4.995   5.154   6.093
 9670SOL    HW229910   5.009   5.006   6.161
 9671SOL     OW29911   0.574   5.358   6.209
 9671SOL    HW129912   0.564   5.355   6.109
 9671SOL    HW229913   0.549   5.449   6.242
 9672SOL     OW29914   1.537   6.395   4.700
 9672SOL    HW129915   1.498   6.399   4.792
 9672SOL    HW229916   1.604   6.469   4.688
 9673SOL     OW29917   5.058   4.291   0.049
 9673SOL    HW129918   5.129   4.358   0.071
 9673SOL    HW229919   5.098   4.218   7.022
 9674SOL     OW29920   2.544   6.341   3.309
 9674SOL    HW129921   2.582   6.327   3.218
 9674SOL    HW229922   2.603   6.405   3.360
 9675SOL     OW29923   5.562   1.869   1.227
 9675SOL    HW129924   5.542   1.945   1.290
 9675SOL    HW229925   5.629   1.899   1.159
 9676SOL     OW29926   1.289   3.321   5.766
 9676SOL    HW129927   1.304   3.336   5.864
 9676SOL    HW229928   1.375   3.292   5.723
 9677SOL     OW29929   2.650   5.405   6.006
 9677SOL    HW129930   2.595   5.478   5.966
 9677SOL    HW229931   2.591   5.327   6.029
 9678SOL     OW29932   3.276   3.739   2.417
 9678SOL    HW129933   3.196   3.720   2.361
 9678SOL    HW229934   3.356   3.751   2.359
 9679SOL     OW29935   1.788   1.666   2.409
 9679SOL    HW129936   1.750   1.614   2.332
 9679SOL    HW229937   1.713   1.702   2.464
 9680SOL     OW29938   6.437   0.333   4.286
 9680SOL    HW129939   6.343   0.350   4.257
 9680SOL    HW229940   6.500   0.373   4.220
 9681SOL     OW29941   2.748   1.298   0.679
 9681SOL    HW129942   2.712   1.350   0.756
 9681SOL    HW229943   2.680   1.231   0.651
 9682SOL     OW29944   4.930   5.038   3.603
 9682SOL    HW129945   4.937   5.138   3.603
 9682SOL    HW229946   4.987   5.000   3.530
 9683SOL     OW29947   3.161   4.947   0.765
 9683SOL    HW129948   3.152   4.884   0.688
 9683SOL    HW229949   3.255   4.947   0.797
 9684SOL     OW29950   0.232   2.760   5.170
 9684SOL    HW129951   0.232   2.775   5.071
 9684SOL    HW229952   0.164   2.691   5.193
 9685SOL     OW29953   2.130   3.292   0.869
 9685SOL    HW129954   2.074   3.210   0.858
 9685SOL    HW229955   2.172   3.291   0.959
 9686SOL     OW29956   5.760   2.073   1.113
 9686SOL    HW129957   5.818   2.153   1.126
 9686SOL    HW229958   5.792   2.021   1.034
 9687SOL     OW29959   2.306   0.631   4.073
 9687SOL    HW129960   2.280   0.727   4.062
 9687SOL    HW229961   2.272   0.578   3.996
 9688SOL     OW29962   6.938   2.365   3.743
 9688SOL    HW129963   6.870   2.415   3.690
 9688SOL    HW229964   0.002   2.393   3.715
 9689SOL     OW29965   2.124   6.181   1.345
 9689SOL    HW129966   2.195   6.170   1.415
 9689SOL    HW229967   2.146   6.124   1.266
 9690SOL     OW29968   5.543   5.627   6.708
 9690SOL    HW129969   5.636   5.628   6.745
 9690SOL    HW229970   5.510   5.720   6.698
 9691SOL     OW29971   2.596   4.370   1.547
 9691SOL    HW129972   2.625   4.415   1.463
 9691SOL    HW229973   2.589   4.271   1.532
 9692SOL     OW29974   2.684   4.882   2.761
 9692SOL    HW129975   2.661   4.973   2.725
 9692SOL    HW229976   2.783   4.868   2.755
 9693SOL     OW29977   6.186   5.220   1.845
 9693SOL    HW129978   6.195   5.121   1.847
 9693SOL    HW229979   6.137   5.248   1.763
 9694SOL     OW29980   2.593   1.326   6.061
 9694SOL    HW129981   2.563   1.241   6.018
 9694SOL    HW229982   2.671   1.308   6.121
 9695SOL     OW29983   6.703   3.977   1.326
 9695SOL    HW129984   6.678   3.887   1.289
 9695SOL    HW229985   6.638   4.003   1.398
 9696SOL     OW29986   4.984   2.252   1.191
 9696SOL    HW129987   4.910   2.295   1.139
 9696SOL    HW229988   4.946   2.211   1.274
 9697SOL     OW29989   6.892   5.523   6.865
 9697SOL    HW129990   6.810   5.467   6.874
 9697SOL    HW229991   6.905   5.578   6.947
 9698SOL     OW29992   5.519   0.941   5.941
 9698SOL    HW129993   5.438   0.893   5.907
 9698SOL    HW229994   5.492   1.026   5.985
 9699SOL     OW29995   0.090   4.431   6.557
 9699SOL    HW129996   0.015   4.426   6.624
 9699SOL    HW229997   0.064   4.494   6.483
 9700SOL     OW29998   4.063   5.462   5.324
 9700SOL    HW129999   4.160   5.472   5.302
 9700SOL    HW230000   4.041   5.514   5.406
 9701SOL     OW30001   3.567   5.395   4.593
 9701SOL    HW130002   3.569   5.306   4.547
 9701SOL    HW230003   3.633   5.456   4.550
 9702SOL     OW30004   5.758   0.221   0.326
 9702SOL    HW130005   5.678   0.162   0.335
 9702SOL    HW230006   5.751   0.297   0.390
 9703SOL     OW30007   3.913   5.770   3.649
 9703SOL    HW130008   3.840   5.789   3.583
 9703SOL    HW230009   3.876   5.717   3.725
 9704SOL     OW30010   3.142   1.372   2.084
 9704SOL    HW130011   3.171   1.296   2.141
 9704SOL    HW230012   3.148   1.346   1.988
 9705SOL     OW30013   5.248   5.700   0.740
 9705SOL    HW130014   5.320   5.664   0.799
 9705SOL    HW230015   5.159   5.669   0.773
 9706SOL     OW30016   0.855   2.648   0.766
 9706SOL    HW130017   0.819   2.741   0.754
 9706SOL    HW230018   0.875   2.633   0.863
 9707SOL     OW30019   6.603   4.182   1.553
 9707SOL    HW130020   6.518   4.149   1.594
 9707SOL    HW230021   6.624   4.273   1.587
 9708SOL     OW30022   1.632   2.006   3.155
 9708SOL    HW130023   1.652   2.020   3.252
 9708SOL    HW230024   1.612   2.094   3.112
 9709SOL     OW30025   6.328   5.544   2.957
 9709SOL    HW130026   6.260   5.471   2.961
 9709SOL    HW230027   6.333   5.590   3.046
 9710SOL     OW30028   0.544   1.754   2.417
 9710SOL    HW130029   0.551   1.818   2.494
 9710SOL    HW230030   0.459   1.773   2.367
 9711SOL     OW30031   1.512   3.058   5.994
 9711SOL    HW130032   1.594   3.002   6.007
 9711SOL    HW230033   1.520   3.111   5.910
 9712SOL     OW30034   5.373   3.853   5.122
 9712SOL    HW130035   5.299   3.878   5.060
 9712SOL    HW230036   5.443   3.802   5.072
 9713SOL     OW30037   1.098   4.711   3.712
 9713SOL    HW130038   1.086   4.683   3.617
 9713SOL    HW230039   1.009   4.708   3.759
 9714SOL     OW30040   2.084   1.484   1.415
 9714SOL    HW130041   2.037   1.563   1.375
 9714SOL    HW230042   2.017   1.422   1.455
 9715SOL     OW30043   6.268   4.687   5.017
 9715SOL    HW130044   6.210   4.717   5.093
 9715SOL    HW230045   6.354   4.651   5.052
 9716SOL     OW30046   4.360   2.589   6.670
 9716SOL    HW130047   4.308   2.528   6.730
 9716SOL    HW230048   4.309   2.674   6.656
 9717SOL     OW30049   6.083   5.336   5.958
 9717SOL    HW130050   6.179   5.334   5.987
 9717SOL    HW230051   6.037   5.414   6.002
 9718SOL     OW30052   4.931   2.985   1.801
 9718SOL    HW130053   4.861   2.990   1.872
 9718SOL    HW230054   5.021   2.977   1.843
 9719SOL     OW30055   0.561   2.206   0.158
 9719SOL    HW130056   0.526   2.115   0.178
 9719SOL    HW230057   0.538   2.268   0.234
 9720SOL     OW30058   0.439   5.743   1.717
 9720SOL    HW130059   0.462   5.735   1.814
 9720SOL    HW230060   0.340   5.751   1.706
 9721SOL     OW30061   0.801   2.699   1.240
 9721SOL    HW130062   0.782   2.645   1.322
 9721SOL    HW230063   0.770   2.793   1.254
 9722SOL     OW30064   0.304   6.925   3.557
 9722SOL    HW130065   0.384   6.867   3.572
 9722SOL    HW230066   0.293   6.986   3.635
 9723SOL     OW30067   1.955   5.835   3.417
 9723SOL    HW130068   1.965   5.866   3.322
 9723SOL    HW230069   2.011   5.754   3.432
 9724SOL     OW30070   2.688   3.040   0.777
 9724SOL    HW130071   2.694   3.044   0.877
 9724SOL    HW230072   2.775   3.009   0.740
 9725SOL     OW30073   4.086   3.813   6.423
 9725SOL    HW130074   4.151   3.737   6.416
 9725SOL    HW230075   4.031   3.818   6.339
 9726SOL     OW30076   4.411   6.655   4.346
 9726SOL    HW130077   4.335   6.669   4.409
 9726SOL    HW230078   4.475   6.588   4.385
 9727SOL     OW30079   1.022   3.541   5.282
 9727SOL    HW130080   1.115   3.556   5.314
 9727SOL    HW230081   0.958   3.596   5.335
 9728SOL     OW30082   0.843   6.812   6.510
 9728SOL    HW130083   0.833   6.911   6.498
 9728SOL    HW230084   0.766   6.765   6.467
 9729SOL     OW30085   0.956   4.625   2.226
 9729SOL    HW130086   0.929   4.675   2.309
 9729SOL    HW230087   0.896   4.652   2.151
 9730SOL     OW30088   0.240   3.433   2.486
 9730SOL    HW130089   0.340   3.421   2.487
 9730SOL    HW230090   0.212   3.489   2.564
 9731SOL     OW30091   4.297   4.402   0.760
 9731SOL    HW130092   4.234   4.427   0.687
 9731SOL    HW230093   4.308   4.302   0.762
 9732SOL     OW30094   4.943   5.785   2.905
 9732SOL    HW130095   4.888   5.868   2.897
 9732SOL    HW230096   4.929   5.744   2.995
 9733SOL     OW30097   5.159   5.021   5.652
 9733SOL    HW130098   5.244   5.031   5.601
 9733SOL    HW230099   5.130   5.110   5.686
 9734SOL     OW30100   5.014   2.058   3.623
 9734SOL    HW130101   5.004   2.078   3.526
 9734SOL    HW230102   4.952   2.117   3.675
 9735SOL     OW30103   1.659   4.488   2.554
 9735SOL    HW130104   1.692   4.482   2.459
 9735SOL    HW230105   1.650   4.396   2.592
 9736SOL     OW30106   6.298   1.574   5.987
 9736SOL    HW130107   6.371   1.638   6.012
 9736SOL    HW230108   6.212   1.624   5.976
 9737SOL     OW30109   6.097   3.302   5.039
 9737SOL    HW130110   6.108   3.401   5.053
 9737SOL    HW230111   6.161   3.253   5.099
 9738SOL     OW30112   1.558   0.090   3.372
 9738SOL    HW130113   1.648   0.127   3.396
 9738SOL    HW230114   1.547   0.089   3.273
 9739SOL     OW30115   6.984   5.569   1.771
 9739SOL    HW130116   0.046   5.530   1.787
 9739SOL    HW230117   6.947   5.603   1.858
 9740SOL     OW30118   0.034   3.502   3.468
 9740SOL    HW130119   6.995   3.556   3.517
 9740SOL    HW230120   0.126   3.524   3.501
 9741SOL     OW30121   4.492   1.380   2.392
 9741SOL    HW130122   4.417   1.314   2.388
 9741SOL    HW230123   4.489   1.440   2.312
 9742SOL     OW30124   4.380   6.951   2.844
 9742SOL    HW130125   4.414   0.015   2.856
 9742SOL    HW230126   4.444   6.898   2.789
 9743SOL     OW30127   1.641   2.066   4.569
 9743SOL    HW130128   1.737   2.090   4.557
 9743SOL    HW230129   1.607   2.104   4.655
 9744SOL     OW30130   0.189   6.809   2.581
 9744SOL    HW130131   0.101   6.834   2.539
 9744SOL    HW230132   0.172   6.760   2.667
 9745SOL     OW30133   0.094   2.480   5.920
 9745SOL    HW130134   0.073   2.578   5.916
 9745SOL    HW230135   0.180   2.466   5.969
 9746SOL     OW30136   5.941   1.693   6.234
 9746SOL    HW130137   5.876   1.764   6.260
 9746SOL    HW230138   5.984   1.717   6.146
 9747SOL     OW30139   1.845   0.779   1.430
 9747SOL    HW130140   1.892   0.799   1.516
 9747SOL    HW230141   1.797   0.692   1.438
 9748SOL     OW30142   1.311   1.187   4.368
 9748SOL    HW130143   1.266   1.225   4.288
 9748SOL    HW230144   1.242   1.154   4.433
 9749SOL     OW30145   2.094   2.025   4.978
 9749SOL    HW130146   2.166   1.956   4.966
 9749SOL    HW230147   2.010   1.994   4.934
 9750SOL     OW30148   4.700   5.277   3.523
 9750SOL    HW130149   4.791   5.293   3.562
 9750SOL    HW230150   4.630   5.307   3.588
 9751SOL     OW30151   1.997   1.957   0.367
 9751SOL    HW130152   1.921   1.926   0.425
 9751SOL    HW230153   1.961   2.003   0.286
 9752SOL     OW30154   4.591   0.951   7.024
 9752SOL    HW130155   4.493   0.932   7.019
 9752SOL    HW230156   4.612   0.993   0.083
 9753SOL     OW30157   5.704   5.926   4.824
 9753SOL    HW130158   5.655   5.865   4.886
 9753SOL    HW230159   5.761   5.872   4.762
 9754SOL     OW30160   0.845   1.645   0.386
 9754SOL    HW130161   0.923   1.583   0.397
 9754SOL    HW230162   0.761   1.592   0.374
 9755SOL     OW30163   4.210   3.436   5.217
 9755SOL    HW130164   4.182   3.501   5.288
 9755SOL    HW230165   4.309   3.440   5.206
 9756SOL     OW30166   6.146   3.348   0.351
 9756SOL    HW130167   6.228   3.346   0.294
 9756SOL    HW230168   6.115   3.254   0.367
 9757SOL     OW30169   5.351   3.051   3.242
 9757SOL    HW130170   5.358   3.020   3.148
 9757SOL    HW230171   5.259   3.089   3.258
 9758SOL     OW30172   1.990   6.714   6.470
 9758SOL    HW130173   1.948   6.696   6.381
 9758SOL    HW230174   2.066   6.651   6.485
 9759SOL     OW30175   2.334   6.566   0.505
 9759SOL    HW130176   2.280   6.602   0.430
 9759SOL    HW230177   2.273   6.528   0.575
 9760SOL     OW30178   4.927   3.625   5.277
 9760SOL    HW130179   4.865   3.607   5.201
 9760SOL    HW230180   4.874   3.641   5.361
 9761SOL     OW30181   6.057   6.176   2.303
 9761SOL    HW130182   6.010   6.236   2.368
 9761SOL    HW230183   5.993   6.106   2.271
 9762SOL     OW30184   2.694   2.282   4.747
 9762SOL    HW130185   2.787   2.293   4.712
 9762SOL    HW230186   2.669   2.185   4.745
 9763SOL     OW30187   4.255   2.474   1.821
 9763SOL    HW130188   4.274   2.398   1.759
 9763SOL    HW230189   4.203   2.441   1.900
 9764SOL     OW30190   0.851   2.542   3.410
 9764SOL    HW130191   0.785   2.606   3.370
 9764SOL    HW230192   0.933   2.592   3.439
 9765SOL     OW30193   6.589   2.399   4.390
 9765SOL    HW130194   6.590   2.325   4.456
 9765SOL    HW230195   6.683   2.425   4.366
 9766SOL     OW30196   2.641   0.523   2.888
 9766SOL    HW130197   2.541   0.512   2.885
 9766SOL    HW230198   2.671   0.567   2.803
 9767SOL     OW30199   5.234   1.826   5.334
 9767SOL    HW130200   5.135   1.810   5.334
 9767SOL    HW230201   5.266   1.838   5.240
 9768SOL     OW30202   4.794   1.637   1.860
 9768SOL    HW130203   4.875   1.695   1.864
 9768SOL    HW230204   4.812   1.551   1.909
 9769SOL     OW30205   1.853   1.438   1.918
 9769SOL    HW130206   1.943   1.429   1.876
 9769SOL    HW230207   1.808   1.520   1.885
 9770SOL     OW30208   6.034   6.551   6.839
 9770SOL    HW130209   6.048   6.481   6.910
 9770SOL    HW230210   5.964   6.615   6.869
 9771SOL     OW30211   4.066   4.610   1.582
 9771SOL    HW130212   3.979   4.603   1.631
 9771SOL    HW230213   4.053   4.587   1.486
 9772SOL     OW30214   0.725   6.310   1.847
 9772SOL    HW130215   0.649   6.274   1.900
 9772SOL    HW230216   0.691   6.356   1.765
 9773SOL     OW30217   5.263   6.779   4.134
 9773SOL    HW130218   5.363   6.779   4.135
 9773SOL    HW230219   5.230   6.850   4.072
 9774SOL     OW30220   6.257   5.099   2.229
 9774SOL    HW130221   6.232   5.195   2.234
 9774SOL    HW230222   6.222   5.050   2.309
 9775SOL     OW30223   2.965   1.417   3.982
 9775SOL    HW130224   2.885   1.365   4.010
 9775SOL    HW230225   2.950   1.454   3.891
 9776SOL     OW30226   6.951   5.700   4.478
 9776SOL    HW130227   0.021   5.717   4.484
 9776SOL    HW230228   6.902   5.787   4.475
 9777SOL     OW30229   5.477   5.193   6.067
 9777SOL    HW130230   5.516   5.101   6.063
 9777SOL    HW230231   5.453   5.223   5.974
 9778SOL     OW30232   6.395   0.369   3.961
 9778SOL    HW130233   6.379   0.452   4.013
 9778SOL    HW230234   6.366   0.382   3.866
 9779SOL     OW30235   2.623   2.008   4.732
 9779SOL    HW130236   2.535   1.995   4.777
 9779SOL    HW230237   2.635   1.939   4.661
 9780SOL     OW30238   2.053   1.960   0.764
 9780SOL    HW130239   2.129   2.022   0.783
 9780SOL    HW230240   2.088   1.878   0.720
 9781SOL     OW30241   1.968   4.408   3.497
 9781SOL    HW130242   2.052   4.448   3.459
 9781SOL    HW230243   1.965   4.426   3.596
 9782SOL     OW30244   0.035   0.681   1.600
 9782SOL    HW130245   6.993   0.749   1.620
 9782SOL    HW230246   7.027   0.614   1.535
 9783SOL     OW30247   5.110   1.579   1.768
 9783SOL    HW130248   5.159   1.633   1.700
 9783SOL    HW230249   5.068   1.500   1.724
 9784SOL     OW30250   5.132   1.083   4.018
 9784SOL    HW130251   5.173   1.011   4.074
 9784SOL    HW230252   5.074   1.041   3.947
 9785SOL     OW30253   0.286   4.037   4.588
 9785SOL    HW130254   0.363   4.043   4.652
 9785SOL    HW230255   0.314   3.987   4.506
 9786SOL     OW30256   1.815   5.035   5.987
 9786SOL    HW130257   1.717   5.030   6.005
 9786SOL    HW230258   1.854   5.114   6.035
 9787SOL     OW30259   5.141   3.801   1.088
 9787SOL    HW130260   5.232   3.833   1.114
 9787SOL    HW230261   5.072   3.857   1.133
 9788SOL     OW30262   0.595   0.710   3.839
 9788SOL    HW130263   0.559   0.676   3.926
 9788SOL    HW230264   0.635   0.801   3.853
 9789SOL     OW30265   2.391   5.929   6.726
 9789SOL    HW130266   2.439   6.008   6.764
 9789SOL    HW230267   2.407   5.924   6.628
 9790SOL     OW30268   5.723   3.522   5.140
 9790SOL    HW130269   5.651   3.554   5.078
 9790SOL    HW230270   5.740   3.425   5.123
 9791SOL     OW30271   0.807   0.793   2.597
 9791SOL    HW130272   0.847   0.788   2.688
 9791SOL    HW230273   0.721   0.742   2.595
 9792SOL     OW30274   4.887   5.197   1.513
 9792SOL    HW130275   4.826   5.142   1.457
 9792SOL    HW230276   4.931   5.140   1.582
 9793SOL     OW30277   5.869   5.800   3.220
 9793SOL    HW130278   5.807   5.843   3.154
 9793SOL    HW230279   5.828   5.714   3.252
 9794SOL     OW30280   6.236   3.600   6.476
 9794SOL    HW130281   6.249   3.597   6.575
 9794SOL    HW230282   6.250   3.508   6.438
 9795SOL     OW30283   1.139   2.589   4.004
 9795SOL    HW130284   1.141   2.593   3.904
 9795SOL    HW230285   1.186   2.669   4.042
 9796SOL     OW30286   3.288   4.033   0.807
 9796SOL    HW130287   3.197   4.074   0.795
 9796SOL    HW230288   3.282   3.934   0.792
 9797SOL     OW30289   3.770   3.711   0.036
 9797SOL    HW130290   3.733   3.789   7.015
 9797SOL    HW230291   3.767   3.729   0.135
 9798SOL     OW30292   2.252   0.561   0.624
 9798SOL    HW130293   2.205   0.481   0.586
 9798SOL    HW230294   2.223   0.643   0.575
 9799SOL     OW30295   3.251   3.436   2.803
 9799SOL    HW130296   3.334   3.491   2.795
 9799SOL    HW230297   3.254   3.383   2.888
 9800SOL     OW30298   3.873   5.812   5.832
 9800SOL    HW130299   3.814   5.821   5.751
 9800SOL    HW230300   3.967   5.833   5.807
 9801SOL     OW30301   4.158   4.887   0.191
 9801SOL    HW130302   4.149   4.981   0.158
 9801SOL    HW230303   4.079   4.834   0.161
 9802SOL     OW30304   6.915   2.782   1.962
 9802SOL    HW130305   6.933   2.876   1.936
 9802SOL    HW230306   6.888   2.778   2.059
 9803SOL     OW30307   6.418   0.600   6.674
 9803SOL    HW130308   6.318   0.602   6.679
 9803SOL    HW230309   6.447   0.534   6.606
 9804SOL     OW30310   0.195   5.412   3.827
 9804SOL    HW130311   0.103   5.437   3.856
 9804SOL    HW230312   0.190   5.331   3.768
 9805SOL     OW30313   1.223   5.560   6.875
 9805SOL    HW130314   1.168   5.640   6.849
 9805SOL    HW230315   1.279   5.582   6.954
 9806SOL     OW30316   0.746   1.979   1.337
 9806SOL    HW130317   0.790   1.891   1.354
 9806SOL    HW230318   0.676   1.995   1.407
 9807SOL     OW30319   2.880   2.450   6.664
 9807SOL    HW130320   2.837   2.540   6.669
 9807SOL    HW230321   2.891   2.424   6.568
 9808SOL     OW30322   5.702   0.738   5.857
 9808SOL    HW130323   5.655   0.680   5.790
 9808SOL    HW230324   5.640   0.810   5.887
 9809SOL     OW30325   0.606   2.076   6.255
 9809SOL    HW130326   0.653   2.152   6.299
 9809SOL    HW230327   0.513   2.070   6.289
 9810SOL     OW30328   2.685   2.378   3.052
 9810SOL    HW130329   2.643   2.334   3.131
 9810SOL    HW230330   2.769   2.330   3.028
 9811SOL     OW30331   6.208   5.965   3.690
 9811SOL    HW130332   6.220   6.007   3.781
 9811SOL    HW230333   6.115   5.928   3.683
 9812SOL     OW30334   3.864   2.129   6.377
 9812SOL    HW130335   3.828   2.204   6.322
 9812SOL    HW230336   3.874   2.160   6.472
 9813SOL     OW30337   6.174   5.952   0.040
 9813SOL    HW130338   6.158   5.879   7.003
 9813SOL    HW230339   6.087   5.997   0.062
 9814SOL     OW30340   0.294   0.662   6.121
 9814SOL    HW130341   0.239   0.733   6.164
 9814SOL    HW230342   0.286   0.670   6.021
 9815SOL     OW30343   6.627   1.826   1.511
 9815SOL    HW130344   6.551   1.883   1.543
 9815SOL    HW230345   6.619   1.813   1.412
 9816SOL     OW30346   6.493   1.152   6.855
 9816SOL    HW130347   6.456   1.081   6.795
 9816SOL    HW230348   6.593   1.151   6.851
 9817SOL     OW30349   2.999   5.893   1.930
 9817SOL    HW130350   2.983   5.992   1.933
 9817SOL    HW230351   2.965   5.856   1.844
 9818SOL     OW30352   1.958   1.301   3.600
 9818SOL    HW130353   1.921   1.394   3.605
 9818SOL    HW230354   1.987   1.282   3.506
 9819SOL     OW30355   5.482   3.942   4.833
 9819SOL    HW130356   5.387   3.941   4.866
 9819SOL    HW230357   5.485   3.982   4.742
 9820SOL     OW30358   2.762   2.595   6.425
 9820SOL    HW130359   2.830   2.533   6.386
 9820SOL    HW230360   2.675   2.584   6.378
 9821SOL     OW30361   4.321   1.849   1.391
 9821SOL    HW130362   4.318   1.815   1.485
 9821SOL    HW230363   4.233   1.832   1.346
 9822SOL     OW30364   3.891   6.163   4.448
 9822SOL    HW130365   3.859   6.145   4.541
 9822SOL    HW230366   3.956   6.093   4.420
 9823SOL     OW30367   1.442   0.688   2.211
 9823SOL    HW130368   1.508   0.650   2.147
 9823SOL    HW230369   1.416   0.780   2.181
 9824SOL     OW30370   2.698   5.898   5.354
 9824SOL    HW130371   2.625   5.967   5.350
 9824SOL    HW230372   2.670   5.825   5.417
 9825SOL     OW30373   5.465   5.929   4.673
 9825SOL    HW130374   5.543   5.952   4.732
 9825SOL    HW230375   5.382   5.922   4.728
 9826SOL     OW30376   3.507   6.693   5.640
 9826SOL    HW130377   3.555   6.639   5.709
 9826SOL    HW230378   3.412   6.706   5.668
 9827SOL     OW30379   2.042   5.487   2.724
 9827SOL    HW130380   2.036   5.410   2.787
 9827SOL    HW230381   2.114   5.469   2.657
 9828SOL     OW30382   3.643   2.151   5.057
 9828SOL    HW130383   3.576   2.176   5.126
 9828SOL    HW230384   3.597   2.109   4.979
 9829SOL     OW30385   5.273   6.524   6.033
 9829SOL    HW130386   5.311   6.505   6.123
 9829SOL    HW230387   5.221   6.445   6.001
 9830SOL     OW30388   5.703   1.447   2.617
 9830SOL    HW130389   5.664   1.368   2.664
 9830SOL    HW230390   5.706   1.429   2.518
 9831SOL     OW30391   0.132   4.437   1.933
 9831SOL    HW130392   0.075   4.516   1.958
 9831SOL    HW230393   0.120   4.364   2.000
 9832SOL     OW30394   4.981   4.937   4.411
 9832SOL    HW130395   4.891   4.900   4.388
 9832SOL    HW230396   4.993   4.937   4.510
 9833SOL     OW30397   3.340   4.161   3.417
 9833SOL    HW130398   3.410   4.195   3.354
 9833SOL    HW230399   3.259   4.133   3.365
 9834SOL     OW30400   2.543   5.340   5.663
 9834SOL    HW130401   2.489   5.262   5.632
 9834SOL    HW230402   2.605   5.369   5.591
 9835SOL     OW30403   4.029   3.719   3.854
 9835SOL    HW130404   4.083   3.641   3.824
 9835SOL    HW230405   4.048   3.738   3.950
 9836SOL     OW30406   0.947   4.625   5.461
 9836SOL    HW130407   0.956   4.656   5.366
 9836SOL    HW230408   0.935   4.705   5.520
 9837SOL     OW30409   5.681   2.048   2.105
 9837SOL    HW130410   5.690   2.137   2.151
 9837SOL    HW230411   5.597   2.047   2.051
 9838SOL     OW30412   1.273   6.416   1.264
 9838SOL    HW130413   1.283   6.328   1.311
 9838SOL    HW230414   1.211   6.474   1.316
 9839SOL     OW30415   4.964   1.010   3.800
 9839SOL    HW130416   4.973   1.051   3.709
 9839SOL    HW230417   4.885   0.949   3.801
 9840SOL     OW30418   5.244   1.372   6.992
 9840SOL    HW130419   5.173   1.427   6.949
 9840SOL    HW230420   5.257   1.401   0.058
 9841SOL     OW30421   0.161   5.120   3.362
 9841SOL    HW130422   0.066   5.114   3.330
 9841SOL    HW230423   0.219   5.062   3.305
 9842SOL     OW30424   3.820   3.300   0.485
 9842SOL    HW130425   3.822   3.392   0.446
 9842SOL    HW230426   3.742   3.292   0.547
 9843SOL     OW30427   6.221   0.086   1.709
 9843SOL    HW130428   6.247   0.074   1.613
 9843SOL    HW230429   6.264   0.168   1.745
 9844SOL     OW30430   5.841   0.422   4.593
 9844SOL    HW130431   5.846   0.333   4.546
 9844SOL    HW230432   5.855   0.495   4.527
 9845SOL     OW30433   1.229   2.271   2.412
 9845SOL    HW130434   1.171   2.338   2.458
 9845SOL    HW230435   1.215   2.181   2.453
 9846SOL     OW30436   5.105   1.665   0.694
 9846SOL    HW130437   5.196   1.687   0.727
 9846SOL    HW230438   5.036   1.702   0.757
 9847SOL     OW30439   3.916   2.948   1.930
 9847SOL    HW130440   3.992   3.013   1.938
 9847SOL    HW230441   3.920   2.903   1.841
 9848SOL     OW30442   3.385   4.163   5.507
 9848SOL    HW130443   3.323   4.191   5.434
 9848SOL    HW230444   3.479   4.166   5.473
 9849SOL     OW30445   1.191   0.678   6.441
 9849SOL    HW130446   1.103   0.633   6.454
 9849SOL    HW230447   1.265   0.611   6.448
 9850SOL     OW30448   0.357   0.283   4.160
 9850SOL    HW130449   0.387   0.194   4.126
 9850SOL    HW230450   0.311   0.333   4.087
 9851SOL     OW30451   2.878   5.393   4.746
 9851SOL    HW130452   2.907   5.488   4.732
 9851SOL    HW230453   2.949   5.331   4.715
 9852SOL     OW30454   1.262   2.044   6.424
 9852SOL    HW130455   1.236   2.051   6.520
 9852SOL    HW230456   1.349   1.995   6.416
 9853SOL     OW30457   0.022   4.149   4.979
 9853SOL    HW130458   0.074   4.072   4.943
 9853SOL    HW230459   6.957   4.145   4.944
 9854SOL     OW30460   1.000   5.666   5.532
 9854SOL    HW130461   1.067   5.655   5.459
 9854SOL    HW230462   1.046   5.661   5.621
 9855SOL     OW30463   0.871   3.551   0.680
 9855SOL    HW130464   0.876   3.499   0.594
 9855SOL    HW230465   0.832   3.641   0.662
 9856SOL     OW30466   5.721   5.117   3.899
 9856SOL    HW130467   5.648   5.172   3.940
 9856SOL    HW230468   5.772   5.071   3.971
 9857SOL     OW30469   5.393   2.746   3.337
 9857SOL    HW130470   5.429   2.837   3.360
 9857SOL    HW230471   5.294   2.751   3.326
 9858SOL     OW30472   1.077   6.638   2.141
 9858SOL    HW130473   1.090   6.650   2.239
 9858SOL    HW230474   0.987   6.599   2.123
 9859SOL     OW30475   6.914   5.058   4.751
 9859SOL    HW130476   6.970   4.977   4.766
 9859SOL    HW230477   6.827   5.046   4.799
 9860SOL     OW30478   2.021   2.284   4.995
 9860SOL    HW130479   1.935   2.290   5.045
 9860SOL    HW230480   2.053   2.190   4.993
 9861SOL     OW30481   3.335   1.533   3.649
 9861SOL    HW130482   3.342   1.447   3.700
 9861SOL    HW230483   3.295   1.603   3.708
 9862SOL     OW30484   2.337   4.188   1.132
 9862SOL    HW130485   2.240   4.167   1.145
 9862SOL    HW230486   2.392   4.106   1.149
 9863SOL     OW30487   3.231   5.689   0.906
 9863SOL    HW130488   3.300   5.639   0.853
 9863SOL    HW230489   3.219   5.644   0.995
 9864SOL     OW30490   2.809   6.454   5.358
 9864SOL    HW130491   2.906   6.478   5.355
 9864SOL    HW230492   2.796   6.370   5.410
 9865SOL     OW30493   0.303   0.043   5.457
 9865SOL    HW130494   0.402   0.050   5.440
 9865SOL    HW230495   0.256   0.028   5.370
 9866SOL     OW30496   6.109   4.610   4.629
 9866SOL    HW130497   6.116   4.679   4.700
 9866SOL    HW230498   6.040   4.542   4.655
 9867SOL     OW30499   4.927   2.129   2.406
 9867SOL    HW130500   4.881   2.042   2.391
 9867SOL    HW230501   4.872   2.186   2.467
 9868SOL     OW30502   0.959   4.160   3.467
 9868SOL    HW130503   0.875   4.106   3.452
 9868SOL    HW230504   1.038   4.100   3.459
 9869SOL     OW30505   0.313   2.472   1.278
 9869SOL    HW130506   0.252   2.423   1.340
 9869SOL    HW230507   0.402   2.485   1.322
 9870SOL     OW30508   4.052   1.415   2.081
 9870SOL    HW130509   4.067   1.435   2.178
 9870SOL    HW230510   4.077   1.319   2.063
 9871SOL     OW30511   6.720   2.950   5.595
 9871SOL    HW130512   6.762   2.928   5.507
 9871SOL    HW230513   6.763   3.032   5.632
 9872SOL     OW30514   2.328   5.429   5.036
 9872SOL    HW130515   2.310   5.501   4.968
 9872SOL    HW230516   2.411   5.380   5.011
 9873SOL     OW30517   2.044   2.263   5.776
 9873SOL    HW130518   1.956   2.298   5.745
 9873SOL    HW230519   2.084   2.326   5.843
 9874SOL     OW30520   1.154   2.829   4.514
 9874SOL    HW130521   1.097   2.775   4.451
 9874SOL    HW230522   1.219   2.883   4.462
 9875SOL     OW30523   0.338   6.390   0.854
 9875SOL    HW130524   0.307   6.327   0.783
 9875SOL    HW230525   0.395   6.462   0.813
 9876SOL     OW30526   3.193   0.260   3.428
 9876SOL    HW130527   3.275   0.307   3.395
 9876SOL    HW230528   3.214   0.163   3.443
 9877SOL     OW30529   6.905   4.202   4.523
 9877SOL    HW130530   6.919   4.177   4.427
 9877SOL    HW230531   6.920   4.123   4.581
 9878SOL     OW30532   1.800   2.963   0.166
 9878SOL    HW130533   1.798   3.023   0.246
 9878SOL    HW230534   1.793   3.019   0.083
 9879SOL     OW30535   1.234   4.529   6.110
 9879SOL    HW130536   1.333   4.526   6.121
 9879SOL    HW230537   1.199   4.615   6.147
 9880SOL     OW30538   2.620   1.225   0.207
 9880SOL    HW130539   2.609   1.181   0.118
 9880SOL    HW230540   2.685   1.173   0.262
 9881SOL     OW30541   5.382   0.789   4.725
 9881SOL    HW130542   5.318   0.760   4.654
 9881SOL    HW230543   5.459   0.726   4.729
 9882SOL     OW30544   4.020   3.183   4.795
 9882SOL    HW130545   3.947   3.232   4.746
 9882SOL    HW230546   4.054   3.108   4.738
 9883SOL     OW30547   1.761   5.731   2.042
 9883SOL    HW130548   1.860   5.732   2.046
 9883SOL    HW230549   1.725   5.821   2.068
 9884SOL     OW30550   1.257   3.285   0.115
 9884SOL    HW130551   1.190   3.344   0.068
 9884SOL    HW230552   1.312   3.340   0.177
 9885SOL     OW30553   0.153   2.972   3.791
 9885SOL    HW130554   0.231   2.952   3.850
 9885SOL    HW230555   0.080   3.014   3.845
 9886SOL     OW30556   5.679   6.044   1.771
 9886SOL    HW130557   5.602   6.045   1.707
 9886SOL    HW230558   5.713   6.137   1.784
 9887SOL     OW30559   4.313   6.769   0.382
 9887SOL    HW130560   4.358   6.808   0.462
 9887SOL    HW230561   4.234   6.715   0.412
 9888SOL     OW30562   5.829   5.485   2.641
 9888SOL    HW130563   5.799   5.390   2.646
 9888SOL    HW230564   5.906   5.492   2.577
 9889SOL     OW30565   6.778   4.825   2.867
 9889SOL    HW130566   6.808   4.920   2.858
 9889SOL    HW230567   6.691   4.822   2.917
 9890SOL     OW30568   6.581   2.586   0.792
 9890SOL    HW130569   6.520   2.538   0.728
 9890SOL    HW230570   6.674   2.587   0.754
 9891SOL     OW30571   5.039   5.013   0.880
 9891SOL    HW130572   5.013   5.103   0.845
 9891SOL    HW230573   5.068   4.954   0.805
 9892SOL     OW30574   2.191   5.142   3.765
 9892SOL    HW130575   2.270   5.081   3.757
 9892SOL    HW230576   2.157   5.164   3.674
 9893SOL     OW30577   5.786   5.799   2.645
 9893SOL    HW130578   5.846   5.851   2.584
 9893SOL    HW230579   5.818   5.704   2.649
 9894SOL     OW30580   3.781   1.866   6.048
 9894SOL    HW130581   3.799   1.805   6.125
 9894SOL    HW230582   3.682   1.876   6.035
 9895SOL     OW30583   5.368   2.257   6.478
 9895SOL    HW130584   5.387   2.236   6.573
 9895SOL    HW230585   5.453   2.276   6.429
 9896SOL     OW30586   3.642   3.433   0.925
 9896SOL    HW130587   3.657   3.457   1.021
 9896SOL    HW230588   3.720   3.379   0.893
 9897SOL     OW30589   4.981   1.351   2.872
 9897SOL    HW130590   4.933   1.348   2.785
 9897SOL    HW230591   4.922   1.315   2.944
 9898SOL     OW30592   1.189   4.839   5.456
 9898SOL    HW130593   1.144   4.853   5.369
 9898SOL    HW230594   1.136   4.882   5.529
 9899SOL     OW30595   5.475   4.528   2.122
 9899SOL    HW130596   5.417   4.504   2.043
 9899SOL    HW230597   5.563   4.482   2.113
 9900SOL     OW30598   1.632   1.943   3.569
 9900SOL    HW130599   1.570   1.867   3.548
 9900SOL    HW230600   1.701   1.950   3.497
 9901SOL     OW30601   2.002   1.860   6.414
 9901SOL    HW130602   1.946   1.910   6.480
 9901SOL    HW230603   2.085   1.827   6.458
 9902SOL     OW30604   3.717   3.607   0.690
 9902SOL    HW130605   3.630   3.618   0.641
 9902SOL    HW230606   3.707   3.537   0.761
 9903SOL     OW30607   4.716   0.845   2.199
 9903SOL    HW130608   4.624   0.875   2.222
 9903SOL    HW230609   4.731   0.854   2.100
 9904SOL     OW30610   6.491   3.157   0.142
 9904SOL    HW130611   6.460   3.252   0.139
 9904SOL    HW230612   6.584   3.151   0.107
 9905SOL     OW30613   1.380   6.058   6.841
 9905SOL    HW130614   1.302   6.107   6.878
 9905SOL    HW230615   1.351   6.005   6.761
 9906SOL     OW30616   1.594   2.804   6.116
 9906SOL    HW130617   1.628   2.835   6.205
 9906SOL    HW230618   1.525   2.869   6.082
 9907SOL     OW30619   2.827   5.693   3.357
 9907SOL    HW130620   2.827   5.604   3.404
 9907SOL    HW230621   2.858   5.764   3.421
 9908SOL     OW30622   0.795   3.589   6.289
 9908SOL    HW130623   0.844   3.555   6.209
 9908SOL    HW230624   0.736   3.665   6.261
 9909SOL     OW30625   2.325   1.533   2.548
 9909SOL    HW130626   2.395   1.551   2.617
 9909SOL    HW230627   2.266   1.459   2.580
 9910SOL     OW30628   0.348   4.999   1.030
 9910SOL    HW130629   0.253   4.966   1.029
 9910SOL    HW230630   0.349   5.098   1.041
 9911SOL     OW30631   4.953   5.092   2.489
 9911SOL    HW130632   4.931   5.030   2.565
 9911SOL    HW230633   4.869   5.135   2.456
 9912SOL     OW30634   4.260   0.794   2.486
 9912SOL    HW130635   4.231   0.748   2.403
 9912SOL    HW230636   4.226   0.744   2.566
 9913SOL     OW30637   5.502   2.887   2.439
 9913SOL    HW130638   5.535   2.839   2.521
 9913SOL    HW230639   5.430   2.832   2.396
 9914SOL     OW30640   1.686   0.836   5.464
 9914SOL    HW130641   1.746   0.897   5.412
 9914SOL    HW230642   1.739   0.758   5.497
 9915SOL     OW30643   5.734   3.357   3.881
 9915SOL    HW130644   5.757   3.307   3.798
 9915SOL    HW230645   5.730   3.455   3.860
 9916SOL     OW30646   2.149   3.215   2.662
 9916SOL    HW130647   2.059   3.244   2.628
 9916SOL    HW230648   2.161   3.248   2.756
 9917SOL     OW30649   3.361   3.800   4.910
 9917SOL    HW130650   3.355   3.832   4.815
 9917SOL    HW230651   3.273   3.814   4.955
 9918SOL     OW30652   2.268   1.387   6.549
 9918SOL    HW130653   2.261   1.413   6.645
 9918SOL    HW230654   2.224   1.299   6.534
 9919SOL     OW30655   1.360   5.686   2.571
 9919SOL    HW130656   1.267   5.702   2.536
 9919SOL    HW230657   1.409   5.773   2.577
 9920SOL     OW30658   3.900   6.885   1.877
 9920SOL    HW130659   3.984   6.852   1.835
 9920SOL    HW230660   3.867   6.817   1.943
 9921SOL     OW30661   5.912   0.096   3.388
 9921SOL    HW130662   5.972   0.176   3.386
 9921SOL    HW230663   5.854   0.096   3.306
 9922SOL     OW30664   4.577   4.857   1.133
 9922SOL    HW130665   4.477   4.868   1.135
 9922SOL    HW230666   4.611   4.879   1.041
 9923SOL     OW30667   6.327   2.271   6.525
 9923SOL    HW130668   6.359   2.330   6.451
 9923SOL    HW230669   6.242   2.226   6.496
 9924SOL     OW30670   5.938   1.514   2.749
 9924SOL    HW130671   5.859   1.524   2.688
 9924SOL    HW230672   6.019   1.550   2.704
 9925SOL     OW30673   2.351   3.527   5.676
 9925SOL    HW130674   2.433   3.583   5.670
 9925SOL    HW230675   2.270   3.585   5.669
 9926SOL     OW30676   1.946   1.874   1.027
 9926SOL    HW130677   1.861   1.919   1.055
 9926SOL    HW230678   1.981   1.917   0.944
 9927SOL     OW30679   0.971   2.033   2.471
 9927SOL    HW130680   1.026   2.084   2.537
 9927SOL    HW230681   0.982   1.935   2.487
 9928SOL     OW30682   0.365   4.727   1.724
 9928SOL    HW130683   0.403   4.817   1.747
 9928SOL    HW230684   0.436   4.658   1.730
 9929SOL     OW30685   3.405   4.475   5.333
 9929SOL    HW130686   3.310   4.449   5.319
 9929SOL    HW230687   3.424   4.484   5.431
 9930SOL     OW30688   0.061   0.654   5.789
 9930SOL    HW130689   0.043   0.749   5.761
 9930SOL    HW230690   0.160   0.641   5.797
 9931SOL     OW30691   1.273   6.424   4.559
 9931SOL    HW130692   1.262   6.517   4.525
 9931SOL    HW230693   1.368   6.410   4.588
 9932SOL     OW30694   1.383   2.007   0.668
 9932SOL    HW130695   1.324   2.028   0.590
 9932SOL    HW230696   1.412   1.912   0.664
 9933SOL     OW30697   2.424   0.287   3.836
 9933SOL    HW130698   2.362   0.291   3.757
 9933SOL    HW230699   2.375   0.252   3.915
 9934SOL     OW30700   6.153   1.143   6.586
 9934SOL    HW130701   6.066   1.108   6.622
 9934SOL    HW230702   6.229   1.098   6.633
 9935SOL     OW30703   2.803   2.210   0.301
 9935SOL    HW130704   2.860   2.224   0.381
 9935SOL    HW230705   2.781   2.112   0.293
 9936SOL     OW30706   5.227   4.937   5.919
 9936SOL    HW130707   5.171   4.994   5.980
 9936SOL    HW230708   5.200   4.954   5.824
 9937SOL     OW30709   6.856   0.123   2.529
 9937SOL    HW130710   6.827   0.138   2.624
 9937SOL    HW230711   6.947   0.082   2.528
 9938SOL     OW30712   6.104   1.242   4.639
 9938SOL    HW130713   6.105   1.310   4.713
 9938SOL    HW230714   6.089   1.151   4.678
 9939SOL     OW30715   1.774   3.359   1.590
 9939SOL    HW130716   1.831   3.325   1.515
 9939SOL    HW230717   1.815   3.441   1.629
 9940SOL     OW30718   6.867   0.034   2.772
 9940SOL    HW130719   6.950   7.010   2.792
 9940SOL    HW230720   6.797   7.000   2.736
 9941SOL     OW30721   3.920   5.375   5.839
 9941SOL    HW130722   4.007   5.333   5.813
 9941SOL    HW230723   3.850   5.304   5.847
 9942SOL     OW30724   5.023   5.122   2.850
 9942SOL    HW130725   5.035   5.032   2.808
 9942SOL    HW230726   4.926   5.139   2.867
 9943SOL     OW30727   1.802   3.852   6.489
 9943SOL    HW130728   1.808   3.888   6.396
 9943SOL    HW230729   1.838   3.918   6.554
 9944SOL     OW30730   1.637   5.341   6.627
 9944SOL    HW130731   1.642   5.423   6.684
 9944SOL    HW230732   1.602   5.264   6.681
 9945SOL     OW30733   6.321   3.656   6.753
 9945SOL    HW130734   6.363   3.743   6.727
 9945SOL    HW230735   6.228   3.672   6.785
 9946SOL     OW30736   6.199   0.971   3.026
 9946SOL    HW130737   6.131   0.945   3.094
 9946SOL    HW230738   6.162   1.043   2.968
 9947SOL     OW30739   1.163   2.488   4.452
 9947SOL    HW130740   1.244   2.541   4.477
 9947SOL    HW230741   1.149   2.492   4.353
 9948SOL     OW30742   6.685   6.706   4.508
 9948SOL    HW130743   6.708   6.722   4.412
 9948SOL    HW230744   6.659   6.610   4.520
 9949SOL     OW30745   6.629   4.222   5.215
 9949SOL    HW130746   6.566   4.147   5.238
 9949SOL    HW230747   6.588   4.309   5.241
 9950SOL     OW30748   6.244   4.610   6.339
 9950SOL    HW130749   6.344   4.616   6.341
 9950SOL    HW230750   6.216   4.566   6.254
 9951SOL     OW30751   1.164   2.999   2.627
 9951SOL    HW130752   1.158   3.002   2.527
 9951SOL    HW230753   1.091   2.940   2.662
 9952SOL     OW30754   0.838   3.828   1.624
 9952SOL    HW130755   0.926   3.859   1.590
 9952SOL    HW230756   0.774   3.820   1.548
 9953SOL     OW30757   6.525   2.799   3.538
 9953SOL    HW130758   6.459   2.804   3.463
 9953SOL    HW230759   6.476   2.784   3.624
 9954SOL     OW30760   2.821   1.535   5.174
 9954SOL    HW130761   2.839   1.631   5.152
 9954SOL    HW230762   2.744   1.529   5.237
 9955SOL     OW30763   4.438   3.373   0.604
 9955SOL    HW130764   4.349   3.329   0.591
 9955SOL    HW230765   4.509   3.303   0.615
 9956SOL     OW30766   0.909   4.278   2.765
 9956SOL    HW130767   0.964   4.217   2.708
 9956SOL    HW230768   0.898   4.366   2.718
 9957SOL     OW30769   5.556   0.302   1.519
 9957SOL    HW130770   5.593   0.239   1.587
 9957SOL    HW230771   5.591   0.279   1.429
 9958SOL     OW30772   3.785   4.814   6.311
 9958SOL    HW130773   3.721   4.738   6.323
 9958SOL    HW230774   3.736   4.900   6.324
 9959SOL     OW30775   4.911   4.105   1.338
 9959SOL    HW130776   5.000   4.145   1.357
 9959SOL    HW230777   4.853   4.172   1.292
 9960SOL     OW30778   6.363   6.488   1.353
 9960SOL    HW130779   6.341   6.577   1.393
 9960SOL    HW230780   6.457   6.463   1.377
 9961SOL     OW30781   1.263   4.192   1.555
 9961SOL    HW130782   1.213   4.197   1.641
 9961SOL    HW230783   1.209   4.232   1.482
 9962SOL     OW30784   3.538   6.205   1.717
 9962SOL    HW130785   3.613   6.225   1.780
 9962SOL    HW230786   3.567   6.137   1.650
 9963SOL     OW30787   2.600   2.328   0.123
 9963SOL    HW130788   2.587   2.251   0.060
 9963SOL    HW230789   2.673   2.306   0.188
 9964SOL     OW30790   4.505   4.633   5.425
 9964SOL    HW130791   4.495   4.697   5.501
 9964SOL    HW230792   4.590   4.582   5.436
 9965SOL     OW30793   3.259   5.973   5.075
 9965SOL    HW130794   3.281   5.880   5.103
 9965SOL    HW230795   3.208   6.019   5.147
 9966SOL     OW30796   2.795   4.694   2.445
 9966SOL    HW130797   2.721   4.627   2.439
 9966SOL    HW230798   2.821   4.707   2.541
 9967SOL     OW30799   6.127   6.349   2.711
 9967SOL    HW130800   6.163   6.426   2.657
 9967SOL    HW230801   6.066   6.384   2.782
 9968SOL     OW30802   4.703   5.532   6.987
 9968SOL    HW130803   4.800   5.510   6.995
 9968SOL    HW230804   4.690   5.601   6.915
 9969SOL     OW30805   1.105   4.388   4.613
 9969SOL    HW130806   1.194   4.354   4.646
 9969SOL    HW230807   1.040   4.390   4.688
 9970SOL     OW30808   5.079   5.379   1.481
 9970SOL    HW130809   5.012   5.311   1.509
 9970SOL    HW230810   5.151   5.335   1.427
 9971SOL     OW30811   1.302   2.736   1.331
 9971SOL    HW130812   1.218   2.706   1.376
 9971SOL    HW230813   1.376   2.737   1.398
 9972SOL     OW30814   3.144   3.860   1.138
 9972SOL    HW130815   3.221   3.917   1.110
 9972SOL    HW230816   3.178   3.774   1.176
 9973SOL     OW30817   4.500   2.533   4.438
 9973SOL    HW130818   4.474   2.457   4.379
 9973SOL    HW230819   4.417   2.576   4.474
 9974SOL     OW30820   6.812   2.624   3.297
 9974SOL    HW130821   6.717   2.653   3.285
 9974SOL    HW230822   6.874   2.698   3.270
 9975SOL     OW30823   0.998   5.046   6.817
 9975SOL    HW130824   0.945   5.116   6.866
 9975SOL    HW230825   1.083   5.086   6.784
 9976SOL     OW30826   1.225   5.273   5.689
 9976SOL    HW130827   1.276   5.188   5.698
 9976SOL    HW230828   1.157   5.264   5.617
 9977SOL     OW30829   5.387   5.292   5.091
 9977SOL    HW130830   5.409   5.195   5.105
 9977SOL    HW230831   5.448   5.330   5.021
 9978SOL     OW30832   0.400   2.223   5.885
 9978SOL    HW130833   0.491   2.206   5.848
 9978SOL    HW230834   0.341   2.261   5.813
 9979SOL     OW30835   5.653   3.706   5.848
 9979SOL    HW130836   5.659   3.723   5.947
 9979SOL    HW230837   5.606   3.619   5.833
 9980SOL     OW30838   1.418   1.100   0.357
 9980SOL    HW130839   1.398   1.036   0.283
 9980SOL    HW230840   1.515   1.092   0.382
 9981SOL     OW30841   1.472   2.024   1.182
 9981SOL    HW130842   1.436   2.022   1.089
 9981SOL    HW230843   1.432   1.950   1.236
 9982SOL     OW30844   1.737   1.109   4.534
 9982SOL    HW130845   1.746   1.160   4.619
 9982SOL    HW230846   1.652   1.134   4.488
 9983SOL     OW30847   6.367   2.790   2.571
 9983SOL    HW130848   6.289   2.809   2.512
 9983SOL    HW230849   6.361   2.847   2.654
 9984SOL     OW30850   0.069   5.689   0.991
 9984SOL    HW130851   0.160   5.730   0.984
 9984SOL    HW230852   0.030   5.679   0.900
 9985SOL     OW30853   3.581   5.172   1.000
 9985SOL    HW130854   3.490   5.146   1.033
 9985SOL    HW230855   3.573   5.251   0.939
 9986SOL     OW30856   5.616   4.749   0.746
 9986SOL    HW130857   5.619   4.740   0.646
 9986SOL    HW230858   5.678   4.823   0.774
 9987SOL     OW30859   5.406   3.207   1.830
 9987SOL    HW130860   5.346   3.244   1.901
 9987SOL    HW230861   5.402   3.266   1.749
 9988SOL     OW30862   0.138   5.453   4.470
 9988SOL    HW130863   0.189   5.369   4.448
 9988SOL    HW230864   0.124   5.459   4.569
 9989SOL     OW30865   6.199   3.427   2.128
 9989SOL    HW130866   6.239   3.343   2.165
 9989SOL    HW230867   6.270   3.496   2.117
 9990SOL     OW30868   0.837   6.129   3.192
 9990SOL    HW130869   0.898   6.127   3.271
 9990SOL    HW230870   0.756   6.074   3.211
 9991SOL     OW30871   1.838   3.691   3.730
 9991SOL    HW130872   1.806   3.678   3.824
 9991SOL    HW230873   1.937   3.680   3.727
 9992SOL     OW30874   3.405   3.945   1.035
 9992SOL    HW130875   3.340   4.001   0.983
 9992SOL    HW230876   3.472   3.905   0.972
 9993SOL     OW30877   2.964   6.184   3.847
 9993SOL    HW130878   2.925   6.276   3.849
 9993SOL    HW230879   2.891   6.117   3.862
 9994SOL     OW30880   7.010   4.245   3.245
 9994SOL    HW130881   0.076   4.224   3.222
 9994SOL    HW230882   6.973   4.309   3.178
 9995SOL     OW30883   3.526   0.961   3.586
 9995SOL    HW130884   3.428   0.961   3.603
 9995SOL    HW230885   3.574   0.992   3.669
 9996SOL     OW30886   3.246   3.737   0.793
 9996SOL    HW130887   3.156   3.713   0.827
 9996SOL    HW230888   3.315   3.681   0.839
 9997SOL     OW30889   5.044   1.484   3.286
 9997SOL    HW130890   5.075   1.530   3.203
 9997SOL    HW230891   5.062   1.386   3.279
 9998SOL     OW30892   5.020   4.084   2.672
 9998SOL    HW130893   5.078   4.156   2.710
 9998SOL    HW230894   5.035   4.078   2.574
 9999SOL     OW30895   0.721   6.901   4.059
 9999SOL    HW130896   0.668   6.913   4.143
 9999SOL    HW230897   0.768   6.986   4.037
10000SOL     OW30898   5.712   1.465   1.325
10000SOL    HW130899   5.722   1.544   1.385
10000SOL    HW230900   5.635   1.409   1.356
10001SOL     OW30901   3.443   6.519   2.492
10001SOL    HW130902   3.429   6.462   2.573
10001SOL    HW230903   3.366   6.583   2.483
10002SOL     OW30904   2.415   1.406   1.131
10002SOL    HW130905   2.400   1.491   1.081
10002SOL    HW230906   2.328   1.357   1.141
10003SOL     OW30907   2.898   1.812   2.108
10003SOL    HW130908   2.940   1.830   2.197
10003SOL    HW230909   2.925   1.884   2.044
10004SOL     OW30910   5.445   4.941   4.867
10004SOL    HW130911   5.381   4.868   4.894
10004SOL    HW230912   5.463   4.999   4.946
10005SOL     OW30913   3.265   5.164   2.579
10005SOL    HW130914   3.244   5.076   2.535
10005SOL    HW230915   3.362   5.166   2.605
10006SOL     OW30916   5.465   0.474   5.412
10006SOL    HW130917   5.475   0.390   5.357
10006SOL    HW230918   5.491   0.553   5.356
10007SOL     OW30919   0.408   3.409   4.467
10007SOL    HW130920   0.321   3.413   4.516
10007SOL    HW230921   0.441   3.314   4.465
10008SOL     OW30922   4.694   1.719   3.941
10008SOL    HW130923   4.753   1.793   3.973
10008SOL    HW230924   4.703   1.710   3.842
10009SOL     OW30925   1.790   4.146   1.455
10009SOL    HW130926   1.823   4.201   1.379
10009SOL    HW230927   1.690   4.153   1.460
10010SOL     OW30928   2.951   5.618   6.886
10010SOL    HW130929   2.970   5.528   6.927
10010SOL    HW230930   3.037   5.666   6.871
10011SOL     OW30931   0.233   4.122   6.815
10011SOL    HW130932   0.265   4.147   6.723
10011SOL    HW230933   0.164   4.050   6.807
10012SOL     OW30934   4.554   0.355   2.391
10012SOL    HW130935   4.565   0.454   2.383
10012SOL    HW230936   4.503   0.320   2.312
10013SOL     OW30937   0.864   4.420   4.065
10013SOL    HW130938   0.830   4.326   4.071
10013SOL    HW230939   0.925   4.438   4.142
10014SOL     OW30940   1.823   6.956   2.351
10014SOL    HW130941   1.846   0.024   2.340
10014SOL    HW230942   1.896   6.900   2.311
10015SOL     OW30943   4.207   5.097   0.409
10015SOL    HW130944   4.214   5.014   0.354
10015SOL    HW230945   4.257   5.171   0.364
10016SOL     OW30946   2.295   1.475   5.154
10016SOL    HW130947   2.367   1.503   5.090
10016SOL    HW230948   2.207   1.510   5.121
10017SOL     OW30949   1.935   1.286   3.283
10017SOL    HW130950   2.032   1.289   3.257
10017SOL    HW230951   1.880   1.329   3.212
10018SOL     OW30952   6.417   3.798   5.594
10018SOL    HW130953   6.470   3.866   5.543
10018SOL    HW230954   6.371   3.843   5.671
10019SOL     OW30955   0.320   0.971   2.986
10019SOL    HW130956   0.277   0.885   3.013
10019SOL    HW230957   0.276   1.005   2.903
10020SOL     OW30958   0.565   1.145   2.332
10020SOL    HW130959   0.544   1.233   2.376
10020SOL    HW230960   0.570   1.158   2.233
10021SOL     OW30961   0.499   3.293   1.987
10021SOL    HW130962   0.400   3.279   1.981
10021SOL    HW230963   0.534   3.320   1.897
10022SOL     OW30964   2.522   5.540   0.377
10022SOL    HW130965   2.550   5.566   0.284
10022SOL    HW230966   2.542   5.615   0.440
10023SOL     OW30967   2.922   5.716   5.680
10023SOL    HW130968   2.932   5.619   5.659
10023SOL    HW230969   3.006   5.749   5.725
10024SOL     OW30970   0.671   5.465   3.270
10024SOL    HW130971   0.763   5.453   3.231
10024SOL    HW230972   0.671   5.436   3.366
10025SOL     OW30973   1.609   2.768   2.564
10025SOL    HW130974   1.612   2.743   2.661
10025SOL    HW230975   1.514   2.764   2.532
10026SOL     OW30976   4.975   0.171   3.625
10026SOL    HW130977   4.962   0.258   3.672
10026SOL    HW230978   4.888   0.139   3.587
10027SOL     OW30979   0.844   2.648   5.288
10027SOL    HW130980   0.769   2.602   5.239
10027SOL    HW230981   0.929   2.599   5.272
10028SOL     OW30982   2.611   1.360   0.942
10028SOL    HW130983   2.596   1.262   0.928
10028SOL    HW230984   2.566   1.389   1.027
10029SOL     OW30985   1.065   3.561   3.871
10029SOL    HW130986   1.022   3.617   3.800
10029SOL    HW230987   0.994   3.523   3.931
10030SOL     OW30988   3.436   0.378   5.089
10030SOL    HW130989   3.443   0.366   4.990
10030SOL    HW230990   3.403   0.471   5.108
10031SOL     OW30991   4.479   5.207   4.813
10031SOL    HW130992   4.420   5.196   4.893
10031SOL    HW230993   4.530   5.122   4.797
10032SOL     OW30994   4.136   0.268   6.104
10032SOL    HW130995   4.132   0.218   6.190
10032SOL    HW230996   4.086   0.217   6.034
10033SOL     OW30997   4.619   1.961   4.631
10033SOL    HW130998   4.558   1.989   4.705
10033SOL    HW230999   4.700   1.917   4.670
10034SOL     OW31000   2.236   0.874   4.040
10034SOL    HW131001   2.272   0.920   3.958
10034SOL    HW231002   2.136   0.870   4.035
10035SOL     OW31003   5.764   4.217   0.285
10035SOL    HW131004   5.750   4.191   0.381
10035SOL    HW231005   5.676   4.233   0.242
10036SOL     OW31006   6.599   1.000   1.044
10036SOL    HW131007   6.512   1.048   1.030
10036SOL    HW231008   6.673   1.066   1.042
10037SOL     OW31009   6.147   6.404   6.411
10037SOL    HW131010   6.182   6.404   6.317
10037SOL    HW231011   6.178   6.487   6.457
10038SOL     OW31012   4.364   0.015   5.907
10038SOL    HW131013   4.368   6.951   5.868
10038SOL    HW231014   4.387   0.082   5.836
10039SOL     OW31015   5.710   6.750   5.036
10039SOL    HW131016   5.639   6.706   4.981
10039SOL    HW231017   5.667   6.806   5.108
10040SOL     OW31018   4.316   6.369   5.735
10040SOL    HW131019   4.273   6.299   5.793
10040SOL    HW231020   4.405   6.393   5.774
10041SOL     OW31021   5.729   5.390   6.098
10041SOL    HW131022   5.699   5.335   6.176
10041SOL    HW231023   5.669   5.469   6.087
10042SOL     OW31024   0.256   0.907   5.327
10042SOL    HW131025   0.221   0.994   5.362
10042SOL    HW231026   0.287   0.918   5.233
10043SOL     OW31027   0.909   0.826   4.062
10043SOL    HW131028   0.878   0.738   4.098
10043SOL    HW231029   0.834   0.870   4.013
10044SOL     OW31030   2.662   2.313   3.450
10044SOL    HW131031   2.736   2.354   3.397
10044SOL    HW231032   2.664   2.214   3.440
10045SOL     OW31033   5.482   0.367   3.862
10045SOL    HW131034   5.528   0.361   3.951
10045SOL    HW231035   5.544   0.336   3.790
10046SOL     OW31036   1.329   2.211   1.367
10046SOL    HW131037   1.265   2.246   1.299
10046SOL    HW231038   1.376   2.131   1.330
10047SOL     OW31039   6.126   3.781   4.947
10047SOL    HW131040   6.087   3.715   5.012
10047SOL    HW231041   6.222   3.758   4.931
10048SOL     OW31042   3.671   2.077   2.688
10048SOL    HW131043   3.749   2.139   2.697
10048SOL    HW231044   3.669   2.039   2.595
10049SOL     OW31045   0.438   1.122   6.994
10049SOL    HW131046   0.517   1.183   6.998
10049SOL    HW231047   0.398   1.125   6.902
10050SOL     OW31048   6.088   2.492   5.247
10050SOL    HW131049   5.993   2.486   5.277
10050SOL    HW231050   6.119   2.403   5.213
10051SOL     OW31051   6.336   2.590   4.846
10051SOL    HW131052   6.336   2.686   4.872
10051SOL    HW231053   6.250   2.567   4.801
10052SOL     OW31054   1.708   2.231   2.267
10052SOL    HW131055   1.759   2.160   2.315
10052SOL    HW231056   1.738   2.321   2.298
10053SOL     OW31057   3.366   5.524   1.985
10053SOL    HW131058   3.371   5.473   2.071
10053SOL    HW231059   3.281   5.576   1.982
10054SOL     OW31060   4.200   6.152   5.860
10054SOL    HW131061   4.198   6.056   5.832
10054SOL    HW231062   4.174   6.159   5.956
10055SOL     OW31063   5.407   2.059   5.888
10055SOL    HW131064   5.505   2.039   5.892
10055SOL    HW231065   5.362   1.992   5.829
10056SOL     OW31066   6.773   5.255   0.354
10056SOL    HW131067   6.747   5.339   0.402
10056SOL    HW231068   6.842   5.277   0.285
10057SOL     OW31069   4.341   1.023   4.358
10057SOL    HW131070   4.290   1.104   4.331
10057SOL    HW231071   4.279   0.956   4.398
10058SOL     OW31072   0.617   3.632   4.520
10058SOL    HW131073   0.561   3.556   4.488
10058SOL    HW231074   0.648   3.615   4.613
10059SOL     OW31075   5.670   6.201   0.185
10059SOL    HW131076   5.571   6.200   0.200
10059SOL    HW231077   5.713   6.267   0.248
10060SOL     OW31078   2.133   1.388   1.879
10060SOL    HW131079   2.174   1.457   1.820
10060SOL    HW231080   2.192   1.307   1.880
10061SOL     OW31081   5.737   0.916   4.616
10061SOL    HW131082   5.678   0.914   4.535
10061SOL    HW231083   5.736   1.008   4.656
10062SOL     OW31084   6.153   6.594   4.632
10062SOL    HW131085   6.252   6.588   4.618
10062SOL    HW231086   6.135   6.612   4.729
10063SOL     OW31087   1.801   1.750   3.210
10063SOL    HW131088   1.771   1.673   3.267
10063SOL    HW231089   1.734   1.765   3.137
10064SOL     OW31090   5.693   6.253   6.496
10064SOL    HW131091   5.757   6.283   6.426
10064SOL    HW231092   5.601   6.249   6.458
10065SOL     OW31093   1.986   0.656   1.695
10065SOL    HW131094   1.976   0.559   1.675
10065SOL    HW231095   2.069   0.691   1.651
10066SOL     OW31096   2.003   1.125   4.083
10066SOL    HW131097   2.007   1.082   4.173
10066SOL    HW231098   2.069   1.200   4.079
10067SOL     OW31099   6.143   3.944   5.422
10067SOL    HW131100   6.137   3.849   5.454
10067SOL    HW231101   6.217   3.951   5.354
10068SOL     OW31102   5.885   3.313   4.117
10068SOL    HW131103   5.916   3.219   4.125
10068SOL    HW231104   5.838   3.326   4.030
10069SOL     OW31105   2.119   5.172   3.504
10069SOL    HW131106   2.019   5.168   3.506
10069SOL    HW231107   2.148   5.252   3.452
10070SOL     OW31108   6.988   0.200   5.438
10070SOL    HW131109   6.973   0.290   5.398
10070SOL    HW231110   0.034   0.205   5.504
10071SOL     OW31111   5.184   5.657   3.794
10071SOL    HW131112   5.115   5.662   3.866
10071SOL    HW231113   5.227   5.746   3.781
10072SOL     OW31114   0.757   6.077   4.191
10072SOL    HW131115   0.768   6.124   4.279
10072SOL    HW231116   0.824   6.113   4.126
10073SOL     OW31117   6.326   4.299   4.400
10073SOL    HW131118   6.385   4.219   4.415
10073SOL    HW231119   6.364   4.378   4.448
10074SOL     OW31120   1.326   0.904   5.332
10074SOL    HW131121   1.354   0.851   5.413
10074SOL    HW231122   1.394   0.975   5.314
10075SOL     OW31123   1.282   2.689   2.850
10075SOL    HW131124   1.372   2.721   2.821
10075SOL    HW231125   1.272   2.703   2.949
10076SOL     OW31126   6.120   0.053   3.778
10076SOL    HW131127   6.173   0.074   3.861
10076SOL    HW231128   6.122   6.983   3.762
10077SOL     OW31129   3.526   2.398   6.379
10077SOL    HW131130   3.604   2.440   6.334
10077SOL    HW231131   3.530   2.299   6.367
10078SOL     OW31132   0.210   6.092   4.187
10078SOL    HW131133   0.252   6.012   4.228
10078SOL    HW231134   0.238   6.174   4.237
10079SOL     OW31135   0.587   3.458   2.176
10079SOL    HW131136   0.570   3.397   2.099
10079SOL    HW231137   0.518   3.442   2.247
10080SOL     OW31138   3.467   1.173   5.775
10080SOL    HW131139   3.417   1.238   5.717
10080SOL    HW231140   3.508   1.222   5.852
10081SOL     OW31141   0.745   0.683   0.764
10081SOL    HW131142   0.671   0.628   0.724
10081SOL    HW231143   0.790   0.736   0.692
10082SOL     OW31144   6.755   4.510   2.359
10082SOL    HW131145   6.815   4.450   2.307
10082SOL    HW231146   6.775   4.500   2.457
10083SOL     OW31147   5.117   0.607   2.760
10083SOL    HW131148   5.065   0.547   2.699
10083SOL    HW231149   5.108   0.702   2.728
10084SOL     OW31150   3.081   1.177   5.939
10084SOL    HW131151   3.159   1.117   5.953
10084SOL    HW231152   3.028   1.146   5.860
10085SOL     OW31153   0.819   6.207   2.428
10085SOL    HW131154   0.750   6.218   2.499
10085SOL    HW231155   0.910   6.203   2.471
10086SOL     OW31156   5.608   5.231   1.678
10086SOL    HW131157   5.514   5.204   1.700
10086SOL    HW231158   5.662   5.235   1.762
10087SOL     OW31159   7.002   6.722   3.976
10087SOL    HW131160   7.006   6.816   4.008
10087SOL    HW231161   7.013   6.719   3.877
10088SOL     OW31162   6.999   0.256   0.130
10088SOL    HW131163   6.917   0.212   0.166
10088SOL    HW231164   0.006   0.201   0.054
10089SOL     OW31165   2.620   2.398   2.744
10089SOL    HW131166   2.681   2.409   2.823
10089SOL    HW231167   2.565   2.480   2.733
10090SOL     OW31168   1.002   4.539   0.819
10090SOL    HW131169   1.031   4.556   0.724
10090SOL    HW231170   1.078   4.556   0.881
10091SOL     OW31171   1.452   3.328   5.421
10091SOL    HW131172   1.511   3.252   5.447
10091SOL    HW231173   1.358   3.295   5.412
10092SOL     OW31174   2.189   3.473   5.007
10092SOL    HW131175   2.192   3.373   5.014
10092SOL    HW231176   2.176   3.498   4.911
10093SOL     OW31177   0.487   4.604   4.618
10093SOL    HW131178   0.507   4.697   4.588
10093SOL    HW231179   0.510   4.540   4.544
10094SOL     OW31180   1.837   6.135   2.071
10094SOL    HW131181   1.926   6.140   2.115
10094SOL    HW231182   1.817   6.222   2.026
10095SOL     OW31183   6.031   2.021   5.591
10095SOL    HW131184   5.955   2.014   5.526
10095SOL    HW231185   6.041   1.935   5.640
10096SOL     OW31186   5.401   5.138   2.085
10096SOL    HW131187   5.458   5.144   2.167
10096SOL    HW231188   5.326   5.074   2.101
10097SOL     OW31189   1.202   1.066   0.059
10097SOL    HW131190   1.110   1.035   0.082
10097SOL    HW231191   1.260   0.987   0.041
10098SOL     OW31192   2.576   0.904   5.354
10098SOL    HW131193   2.588   0.822   5.410
10098SOL    HW231194   2.481   0.909   5.322
10099SOL     OW31195   7.012   4.828   0.303
10099SOL    HW131196   6.947   4.790   0.237
10099SOL    HW231197   7.014   4.769   0.384
10100SOL     OW31198   5.247   0.174   4.241
10100SOL    HW131199   5.320   0.106   4.236
10100SOL    HW231200   5.230   0.197   4.337
10101SOL     OW31201   5.727   4.017   1.364
10101SOL    HW131202   5.688   3.942   1.418
10101SOL    HW231203   5.655   4.084   1.344
10102SOL     OW31204   1.531   0.955   2.474
10102SOL    HW131205   1.504   0.890   2.545
10102SOL    HW231206   1.629   0.973   2.481
10103SOL     OW31207   2.194   1.870   6.005
10103SOL    HW131208   2.227   1.943   5.945
10103SOL    HW231209   2.095   1.879   6.016
10104SOL     OW31210   1.410   2.649   4.430
10104SOL    HW131211   1.485   2.609   4.482
10104SOL    HW231212   1.370   2.725   4.482
10105SOL     OW31213   0.980   0.960   0.146
10105SOL    HW131214   1.011   0.916   0.230
10105SOL    HW231215   0.930   0.893   0.090
10106SOL     OW31216   4.445   6.396   0.871
10106SOL    HW131217   4.398   6.313   0.901
10106SOL    HW231218   4.538   6.396   0.907
10107SOL     OW31219   0.471   1.962   6.798
10107SOL    HW131220   0.456   1.907   6.879
10107SOL    HW231221   0.559   1.937   6.756
10108SOL     OW31222   6.809   6.403   6.999
10108SOL    HW131223   6.875   6.362   0.034
10108SOL    HW231224   6.765   6.482   0.015
10109SOL     OW31225   4.066   6.913   1.130
10109SOL    HW131226   4.163   6.921   1.112
10109SOL    HW231227   4.014   6.968   1.064
10110SOL     OW31228   4.635   6.273   4.836
10110SOL    HW131229   4.585   6.228   4.911
10110SOL    HW231230   4.724   6.302   4.870
10111SOL     OW31231   5.872   3.460   3.518
10111SOL    HW131232   5.940   3.473   3.590
10111SOL    HW231233   5.792   3.413   3.556
10112SOL     OW31234   5.856   4.014   4.180
10112SOL    HW131235   5.818   3.922   4.173
10112SOL    HW231236   5.787   4.081   4.153
10113SOL     OW31237   4.418   0.138   5.011
10113SOL    HW131238   4.407   0.081   5.092
10113SOL    HW231239   4.515   0.147   4.989
10114SOL     OW31240   5.503   0.755   0.856
10114SOL    HW131241   5.456   0.834   0.895
10114SOL    HW231242   5.599   0.756   0.883
10115SOL     OW31243   3.278   1.945   3.951
10115SOL    HW131244   3.305   2.029   3.999
10115SOL    HW231245   3.360   1.890   3.933
10116SOL     OW31246   0.241   6.458   0.485
10116SOL    HW131247   0.152   6.467   0.440
10116SOL    HW231248   0.239   6.381   0.548
10117SOL     OW31249   6.986   6.870   5.153
10117SOL    HW131250   0.045   6.879   5.201
10117SOL    HW231251   7.001   6.872   5.054
10118SOL     OW31252   1.265   5.452   2.935
10118SOL    HW131253   1.280   5.512   3.014
10118SOL    HW231254   1.167   5.436   2.924
10119SOL     OW31255   0.617   6.512   4.278
10119SOL    HW131256   0.596   6.433   4.222
10119SOL    HW231257   0.715   6.532   4.273
10120SOL     OW31258   1.767   4.051   4.954
10120SOL    HW131259   1.700   4.087   4.890
10120SOL    HW231260   1.761   3.951   4.957
10121SOL     OW31261   6.040   4.255   6.290
10121SOL    HW131262   6.031   4.172   6.345
10121SOL    HW231263   5.969   4.321   6.316
10122SOL     OW31264   5.687   3.061   0.770
10122SOL    HW131265   5.676   3.060   0.671
10122SOL    HW231266   5.755   2.992   0.797
10123SOL     OW31267   6.716   7.014   6.863
10123SOL    HW131268   6.794   6.958   6.837
10123SOL    HW231269   6.737   0.082   6.845
10124SOL     OW31270   1.870   3.456   7.025
10124SOL    HW131271   1.933   3.529   0.023
10124SOL    HW231272   1.859   3.455   6.926
10125SOL     OW31273   1.966   0.696   2.530
10125SOL    HW131274   1.988   0.731   2.439
10125SOL    HW231275   1.873   0.659   2.531
10126SOL     OW31276   0.424   6.825   6.249
10126SOL    HW131277   0.327   6.825   6.223
10126SOL    HW231278   0.473   6.895   6.197
10127SOL     OW31279   2.169   4.656   5.955
10127SOL    HW131280   2.235   4.705   5.898
10127SOL    HW231281   2.209   4.637   6.045
10128SOL     OW31282   1.645   0.927   1.346
10128SOL    HW131283   1.568   0.867   1.368
10128SOL    HW231284   1.731   0.877   1.361
10129SOL     OW31285   5.808   2.766   3.688
10129SOL    HW131286   5.791   2.708   3.768
10129SOL    HW231287   5.786   2.861   3.712
10130SOL     OW31288   1.756   4.276   1.975
10130SOL    HW131289   1.709   4.314   2.055
10130SOL    HW231290   1.837   4.331   1.956
10131SOL     OW31291   0.730   0.270   3.663
10131SOL    HW131292   0.722   0.237   3.569
10131SOL    HW231293   0.826   0.282   3.686
10132SOL     OW31294   3.041   0.018   4.531
10132SOL    HW131295   3.087   0.025   4.443
10132SOL    HW231296   3.010   0.109   4.559
10133SOL     OW31297   4.751   6.333   1.247
10133SOL    HW131298   4.743   6.244   1.203
10133SOL    HW231299   4.660   6.371   1.264
10134SOL     OW31300   7.010   6.063   4.045
10134SOL    HW131301   6.940   6.013   4.096
10134SOL    HW231302   0.064   6.072   4.101
10135SOL     OW31303   4.893   3.353   3.326
10135SOL    HW131304   4.874   3.430   3.387
10135SOL    HW231305   4.905   3.387   3.233
10136SOL     OW31306   5.303   0.936   3.260
10136SOL    HW131307   5.352   0.993   3.193
10136SOL    HW231308   5.204   0.942   3.242
10137SOL     OW31309   5.774   4.397   4.360
10137SOL    HW131310   5.863   4.351   4.355
10137SOL    HW231311   5.787   4.492   4.387
10138SOL     OW31312   5.134   2.487   0.824
10138SOL    HW131313   5.183   2.407   0.859
10138SOL    HW231314   5.036   2.477   0.841
10139SOL     OW31315   3.732   3.992   3.573
10139SOL    HW131316   3.772   3.900   3.569
10139SOL    HW231317   3.727   4.022   3.668
10140SOL     OW31318   6.394   6.431   5.918
10140SOL    HW131319   6.455   6.394   5.987
10140SOL    HW231320   6.431   6.518   5.884
10141SOL     OW31321   3.866   1.916   4.737
10141SOL    HW131322   3.846   2.009   4.706
10141SOL    HW231323   3.863   1.914   4.837
10142SOL     OW31324   6.078   6.661   4.325
10142SOL    HW131325   6.139   6.646   4.403
10142SOL    HW231326   6.133   6.678   4.243
10143SOL     OW31327   3.992   0.551   0.175
10143SOL    HW131328   4.026   0.467   0.219
10143SOL    HW231329   4.061   0.587   0.113
10144SOL     OW31330   3.944   7.028   6.569
10144SOL    HW131331   3.967   0.024   6.475
10144SOL    HW231332   3.879   6.952   6.569
10145SOL     OW31333   2.980   5.470   5.590
10145SOL    HW131334   2.978   5.460   5.490
10145SOL    HW231335   2.945   5.386   5.632
10146SOL     OW31336   3.937   5.548   4.332
10146SOL    HW131337   3.935   5.646   4.313
10146SOL    HW231338   4.017   5.507   4.288
10147SOL     OW31339   5.723   4.008   4.988
10147SOL    HW131340   5.629   3.983   4.963
10147SOL    HW231341   5.785   3.983   4.914
10148SOL     OW31342   4.960   5.467   0.025
10148SOL    HW131343   4.993   5.387   0.074
10148SOL    HW231344   4.992   5.550   0.071
10149SOL     OW31345   6.065   2.926   0.521
10149SOL    HW131346   6.130   2.866   0.568
10149SOL    HW231347   6.044   2.888   0.431
10150SOL     OW31348   4.033   3.705   0.432
10150SOL    HW131349   4.101   3.715   0.359
10150SOL    HW231350   4.008   3.795   0.467
10151SOL     OW31351   1.123   6.798   7.013
10151SOL    HW131352   1.144   6.768   6.920
10151SOL    HW231353   1.081   6.722   0.035
10152SOL     OW31354   0.617   6.309   4.774
10152SOL    HW131355   0.546   6.364   4.817
10152SOL    HW231356   0.701   6.363   4.768
10153SOL     OW31357   4.624   6.462   3.899
10153SOL    HW131358   4.640   6.392   3.830
10153SOL    HW231359   4.632   6.422   3.990
10154SOL     OW31360   5.744   0.159   5.021
10154SOL    HW131361   5.788   0.073   4.994
10154SOL    HW231362   5.786   0.192   5.106
10155SOL     OW31363   3.587   2.027   5.607
10155SOL    HW131364   3.566   1.993   5.699
10155SOL    HW231365   3.562   2.123   5.600
10156SOL     OW31366   6.365   1.313   2.980
10156SOL    HW131367   6.309   1.298   3.061
10156SOL    HW231368   6.331   1.393   2.930
10157SOL     OW31369   6.255   2.338   0.212
10157SOL    HW131370   6.217   2.246   0.203
10157SOL    HW231371   6.225   2.394   0.135
10158SOL     OW31372   6.235   3.631   1.240
10158SOL    HW131373   6.195   3.581   1.164
10158SOL    HW231374   6.165   3.687   1.284
10159SOL     OW31375   2.530   2.876   6.681
10159SOL    HW131376   2.457   2.916   6.626
10159SOL    HW231377   2.492   2.845   6.768
10160SOL     OW31378   1.875   3.014   2.196
10160SOL    HW131379   1.961   3.054   2.165
10160SOL    HW231380   1.880   2.996   2.295
10161SOL     OW31381   3.058   2.977   6.557
10161SOL    HW131382   3.055   2.915   6.635
10161SOL    HW231383   2.970   2.975   6.509
10162SOL     OW31384   3.708   4.503   0.748
10162SOL    HW131385   3.791   4.510   0.803
10162SOL    HW231386   3.707   4.577   0.680
10163SOL     OW31387   6.223   4.822   5.956
10163SOL    HW131388   6.236   4.894   5.888
10163SOL    HW231389   6.134   4.779   5.943
10164SOL     OW31390   5.755   3.785   4.722
10164SOL    HW131391   5.830   3.836   4.764
10164SOL    HW231392   5.737   3.821   4.630
10165SOL     OW31393   0.355   2.613   3.520
10165SOL    HW131394   0.261   2.583   3.500
10165SOL    HW231395   0.414   2.589   3.443
10166SOL     OW31396   3.445   2.141   1.390
10166SOL    HW131397   3.405   2.176   1.475
10166SOL    HW231398   3.393   2.175   1.312
10167SOL     OW31399   2.273   3.465   7.007
10167SOL    HW131400   2.260   3.478   6.908
10167SOL    HW231401   2.225   3.382   0.007
10168SOL     OW31402   5.991   3.362   5.654
10168SOL    HW131403   5.929   3.350   5.577
10168SOL    HW231404   5.961   3.441   5.708
10169SOL     OW31405   6.951   4.476   3.760
10169SOL    HW131406   6.977   4.572   3.759
10169SOL    HW231407   6.946   4.441   3.667
10170SOL     OW31408   1.204   5.175   5.335
10170SOL    HW131409   1.174   5.093   5.287
10170SOL    HW231410   1.300   5.193   5.315
10171SOL     OW31411   6.587   2.516   5.577
10171SOL    HW131412   6.523   2.488   5.505
10171SOL    HW231413   6.565   2.608   5.607
10172SOL     OW31414   6.817   6.660   5.035
10172SOL    HW131415   6.837   6.562   5.034
10172SOL    HW231416   6.901   6.711   5.052
10173SOL     OW31417   1.082   3.151   1.451
10173SOL    HW131418   1.157   3.160   1.386
10173SOL    HW231419   1.012   3.090   1.413
10174SOL     OW31420   5.599   5.147   2.293
10174SOL    HW131421   5.603   5.092   2.376
10174SOL    HW231422   5.690   5.154   2.253
10175SOL     OW31423   4.912   2.013   3.997
10175SOL    HW131424   4.892   2.080   3.926
10175SOL    HW231425   5.010   1.994   3.998
10176SOL     OW31426   0.930   3.637   5.646
10176SOL    HW131427   0.841   3.640   5.601
10176SOL    HW231428   0.965   3.544   5.645
10177SOL     OW31429   2.608   0.309   0.573
10177SOL    HW131430   2.694   0.357   0.592
10177SOL    HW231431   2.570   0.342   0.486
10178SOL     OW31432   6.913   0.666   6.016
10178SOL    HW131433   6.852   0.588   6.000
10178SOL    HW231434   6.988   0.664   5.950
10179SOL     OW31435   0.972   1.879   6.679
10179SOL    HW131436   1.033   1.813   6.636
10179SOL    HW231437   1.013   1.913   6.763
10180SOL     OW31438   4.416   0.316   6.259
10180SOL    HW131439   4.456   0.388   6.202
10180SOL    HW231440   4.350   0.356   6.322
10181SOL     OW31441   5.996   2.751   1.684
10181SOL    HW131442   5.929   2.798   1.743
10181SOL    HW231443   6.071   2.814   1.663
10182SOL     OW31444   4.276   1.040   1.417
10182SOL    HW131445   4.225   0.960   1.384
10182SOL    HW231446   4.367   1.011   1.446
10183SOL     OW31447   6.942   2.263   7.006
10183SOL    HW131448   6.878   2.200   0.022
10183SOL    HW231449   7.029   2.216   6.989
10184SOL     OW31450   4.378   0.875   6.335
10184SOL    HW131451   4.404   0.798   6.392
10184SOL    HW231452   4.308   0.847   6.270
10185SOL     OW31453   5.797   6.175   2.157
10185SOL    HW131454   5.701   6.147   2.161
10185SOL    HW231455   5.803   6.273   2.142
10186SOL     OW31456   5.896   3.855   3.818
10186SOL    HW131457   5.826   3.926   3.813
10186SOL    HW231458   5.865   3.783   3.880
10187SOL     OW31459   0.407   3.450   0.762
10187SOL    HW131460   0.477   3.403   0.708
10187SOL    HW231461   0.334   3.386   0.785
10188SOL     OW31462   3.405   5.580   0.712
10188SOL    HW131463   3.443   5.672   0.709
10188SOL    HW231464   3.360   5.559   0.625
10189SOL     OW31465   0.758   1.252   6.266
10189SOL    HW131466   0.788   1.163   6.232
10189SOL    HW231467   0.835   1.301   6.306
10190SOL     OW31468   4.953   3.115   2.130
10190SOL    HW131469   4.870   3.079   2.088
10190SOL    HW231470   4.991   3.188   2.073
10191SOL     OW31471   5.816   5.246   5.302
10191SOL    HW131472   5.866   5.212   5.382
10191SOL    HW231473   5.833   5.185   5.224
10192SOL     OW31474   4.312   1.093   5.470
10192SOL    HW131475   4.233   1.080   5.410
10192SOL    HW231476   4.347   1.186   5.460
10193SOL     OW31477   4.133   3.386   1.974
10193SOL    HW131478   4.139   3.305   1.916
10193SOL    HW231479   4.103   3.359   2.066
10194SOL     OW31480   5.656   5.949   5.616
10194SOL    HW131481   5.658   5.856   5.578
10194SOL    HW231482   5.584   5.956   5.685
10195SOL     OW31483   6.460   5.521   0.538
10195SOL    HW131484   6.418   5.470   0.464
10195SOL    HW231485   6.409   5.505   0.623
10196SOL     OW31486   5.236   1.393   3.668
10196SOL    HW131487   5.137   1.404   3.665
10196SOL    HW231488   5.281   1.481   3.656
10197SOL     OW31489   5.655   1.668   5.759
10197SOL    HW131490   5.618   1.725   5.686
10197SOL    HW231491   5.603   1.684   5.843
10198SOL     OW31492   2.621   6.928   2.380
10198SOL    HW131493   2.584   6.957   2.469
10198SOL    HW231494   2.682   6.850   2.393
10199SOL     OW31495   2.551   2.608   0.057
10199SOL    HW131496   2.572   2.514   0.084
10199SOL    HW231497   2.511   2.657   0.135
10200SOL     OW31498   4.969   1.926   6.950
10200SOL    HW131499   5.003   1.906   0.013
10200SOL    HW231500   4.959   1.841   6.898
10201SOL     OW31501   1.369   4.575   0.754
10201SOL    HW131502   1.465   4.575   0.724
10201SOL    HW231503   1.325   4.490   0.725
10202SOL     OW31504   3.547   3.487   0.306
10202SOL    HW131505   3.645   3.497   0.320
10202SOL    HW231506   3.497   3.530   0.381
10203SOL     OW31507   6.303   3.004   2.978
10203SOL    HW131508   6.254   2.980   3.061
10203SOL    HW231509   6.293   2.930   2.911
10204SOL     OW31510   5.521   5.800   0.068
10204SOL    HW131511   5.464   5.722   0.042
10204SOL    HW231512   5.612   5.767   0.093
10205SOL     OW31513   1.613   0.290   1.277
10205SOL    HW131514   1.594   0.215   1.214
10205SOL    HW231515   1.559   0.370   1.250
10206SOL     OW31516   0.118   0.871   0.317
10206SOL    HW131517   0.104   0.821   0.403
10206SOL    HW231518   0.140   0.966   0.338
10207SOL     OW31519   1.220   2.009   0.075
10207SOL    HW131520   1.188   1.981   7.013
10207SOL    HW231521   1.154   2.074   0.115
10208SOL     OW31522   6.079   4.562   4.058
10208SOL    HW131523   6.142   4.561   3.980
10208SOL    HW231524   6.129   4.546   4.143
10209SOL     OW31525   0.486   0.106   0.238
10209SOL    HW131526   0.420   0.145   0.174
10209SOL    HW231527   0.534   0.179   0.285
10210SOL     OW31528   4.874   6.613   2.231
10210SOL    HW131529   4.798   6.596   2.168
10210SOL    HW231530   4.914   6.525   2.258
10211SOL     OW31531   3.744   6.442   5.039
10211SOL    HW131532   3.714   6.392   4.958
10211SOL    HW231533   3.668   6.495   5.077
10212SOL     OW31534   0.966   0.276   5.244
10212SOL    HW131535   0.981   0.278   5.343
10212SOL    HW231536   0.897   0.208   5.222
10213SOL     OW31537   5.758   3.119   1.243
10213SOL    HW131538   5.814   3.067   1.306
10213SOL    HW231539   5.663   3.089   1.249
10214SOL     OW31540   1.630   1.405   2.087
10214SOL    HW131541   1.715   1.399   2.035
10214SOL    HW231542   1.609   1.315   2.126
10215SOL     OW31543   4.009   3.768   3.047
10215SOL    HW131544   3.910   3.760   3.055
10215SOL    HW231545   4.040   3.851   3.094
10216SOL     OW31546   0.345   1.245   1.529
10216SOL    HW131547   0.264   1.304   1.534
10216SOL    HW231548   0.416   1.281   1.589
10217SOL     OW31549   3.136   2.134   3.120
10217SOL    HW131550   3.221   2.100   3.080
10217SOL    HW231551   3.083   2.181   3.050
10218SOL     OW31552   1.612   1.414   1.129
10218SOL    HW131553   1.609   1.352   1.050
10218SOL    HW231554   1.701   1.458   1.134
10219SOL     OW31555   0.160   2.070   2.605
10219SOL    HW131556   0.201   2.034   2.522
10219SOL    HW231557   0.186   2.166   2.617
10220SOL     OW31558   4.954   1.800   0.859
10220SOL    HW131559   4.978   1.896   0.845
10220SOL    HW231560   4.956   1.778   0.957
10221SOL     OW31561   0.743   5.119   3.497
10221SOL    HW131562   0.671   5.072   3.548
10221SOL    HW231563   0.717   5.123   3.400
10222SOL     OW31564   2.788   3.539   6.220
10222SOL    HW131565   2.752   3.578   6.135
10222SOL    HW231566   2.712   3.517   6.281
10223SOL     OW31567   0.780   4.916   1.251
10223SOL    HW131568   0.847   4.849   1.219
10223SOL    HW231569   0.827   4.986   1.305
10224SOL     OW31570   6.915   3.114   4.283
10224SOL    HW131571   6.981   3.040   4.276
10224SOL    HW231572   6.827   3.078   4.314
10225SOL     OW31573   1.404   4.989   5.754
10225SOL    HW131574   1.339   4.955   5.821
10225SOL    HW231575   1.494   5.002   5.797
10226SOL     OW31576   2.727   1.043   6.125
10226SOL    HW131577   2.644   1.003   6.165
10226SOL    HW231578   2.807   1.016   6.178
10227SOL     OW31579   5.803   4.912   0.807
10227SOL    HW131580   5.853   4.928   0.722
10227SOL    HW231581   5.837   4.975   0.878
10228SOL     OW31582   0.450   6.590   1.738
10228SOL    HW131583   0.454   6.598   1.838
10228SOL    HW231584   0.376   6.646   1.703
10229SOL     OW31585   1.068   3.367   4.663
10229SOL    HW131586   1.128   3.390   4.739
10229SOL    HW231587   1.000   3.300   4.693
10230SOL     OW31588   5.736   6.146   3.104
10230SOL    HW131589   5.639   6.166   3.093
10230SOL    HW231590   5.752   6.100   3.191
10231SOL     OW31591   6.831   5.839   5.188
10231SOL    HW131592   6.867   5.746   5.196
10231SOL    HW231593   6.782   5.863   5.272
10232SOL     OW31594   3.065   1.274   3.437
10232SOL    HW131595   2.976   1.280   3.391
10232SOL    HW231596   3.132   1.232   3.376
10233SOL     OW31597   3.715   4.202   4.826
10233SOL    HW131598   3.752   4.294   4.838
10233SOL    HW231599   3.790   4.139   4.805
10234SOL     OW31600   5.883   1.583   1.732
10234SOL    HW131601   5.793   1.543   1.751
10234SOL    HW231602   5.875   1.682   1.727
10235SOL     OW31603   2.104   2.676   1.776
10235SOL    HW131604   2.087   2.773   1.794
10235SOL    HW231605   2.194   2.665   1.733
10236SOL     OW31606   3.094   6.919   6.993
10236SOL    HW131607   3.191   6.941   7.003
10236SOL    HW231608   3.039   7.001   7.013
10237SOL     OW31609   6.960   3.362   0.080
10237SOL    HW131610   6.902   3.440   0.104
10237SOL    HW231611   6.937   3.330   7.017
10238SOL     OW31612   3.864   4.277   1.730
10238SOL    HW131613   3.960   4.249   1.725
10238SOL    HW231614   3.806   4.196   1.732
10239SOL     OW31615   1.548   2.926   4.525
10239SOL    HW131616   1.585   2.904   4.435
10239SOL    HW231617   1.615   2.979   4.577
10240SOL     OW31618   2.174   5.108   2.229
10240SOL    HW131619   2.193   5.134   2.135
10240SOL    HW231620   2.093   5.157   2.262
10241SOL     OW31621   5.558   0.408   2.273
10241SOL    HW131622   5.604   0.339   2.329
10241SOL    HW231623   5.625   0.458   2.218
10242SOL     OW31624   0.066   1.357   0.545
10242SOL    HW131625   0.027   1.442   0.509
10242SOL    HW231626   0.022   1.336   0.632
10243SOL     OW31627   2.456   4.492   1.882
10243SOL    HW131628   2.546   4.511   1.841
10243SOL    HW231629   2.435   4.395   1.870
10244SOL     OW31630   1.492   4.411   0.400
10244SOL    HW131631   1.589   4.398   0.421
10244SOL    HW231632   1.475   4.508   0.378
10245SOL     OW31633   3.417   3.553   0.967
10245SOL    HW131634   3.505   3.520   0.932
10245SOL    HW231635   3.413   3.539   1.066
10246SOL     OW31636   3.210   4.049   4.073
10246SOL    HW131637   3.174   4.029   3.982
10246SOL    HW231638   3.273   4.127   4.068
10247SOL     OW31639   6.334   4.141   5.886
10247SOL    HW131640   6.364   4.145   5.981
10247SOL    HW231641   6.269   4.215   5.869
10248SOL     OW31642   1.338   6.480   2.940
10248SOL    HW131643   1.358   6.578   2.946
10248SOL    HW231644   1.401   6.430   2.999
10249SOL     OW31645   3.089   5.652   6.591
10249SOL    HW131646   3.087   5.552   6.591
10249SOL    HW231647   2.998   5.688   6.568
10250SOL     OW31648   6.416   3.195   1.124
10250SOL    HW131649   6.338   3.136   1.098
10250SOL    HW231650   6.501   3.149   1.100
10251SOL     OW31651   2.133   1.471   4.704
10251SOL    HW131652   2.047   1.480   4.654
10251SOL    HW231653   2.157   1.558   4.745
10252SOL     OW31654   4.217   3.655   6.173
10252SOL    HW131655   4.160   3.685   6.096
10252SOL    HW231656   4.200   3.558   6.191
10253SOL     OW31657   3.153   5.401   0.665
10253SOL    HW131658   3.208   5.317   0.670
10253SOL    HW231659   3.114   5.420   0.755
10254SOL     OW31660   4.982   1.300   5.324
10254SOL    HW131661   5.065   1.252   5.296
10254SOL    HW231662   4.902   1.243   5.306
10255SOL     OW31663   2.625   6.644   1.013
10255SOL    HW131664   2.640   6.604   1.104
10255SOL    HW231665   2.664   6.584   0.944
10256SOL     OW31666   4.108   1.851   2.148
10256SOL    HW131667   4.123   1.811   2.239
10256SOL    HW231668   4.013   1.840   2.122
10257SOL     OW31669   2.101   5.450   3.916
10257SOL    HW131670   2.091   5.532   3.974
10257SOL    HW231671   2.152   5.380   3.965
10258SOL     OW31672   3.917   2.169   3.196
10258SOL    HW131673   3.969   2.169   3.281
10258SOL    HW231674   3.979   2.163   3.118
10259SOL     OW31675   0.780   4.248   3.191
10259SOL    HW131676   0.779   4.331   3.136
10259SOL    HW231677   0.842   4.181   3.150
10260SOL     OW31678   0.797   1.364   3.125
10260SOL    HW131679   0.762   1.397   3.037
10260SOL    HW231680   0.738   1.396   3.198
10261SOL     OW31681   6.631   5.308   1.257
10261SOL    HW131682   6.537   5.282   1.233
10261SOL    HW231683   6.693   5.232   1.237
10262SOL     OW31684   3.233   6.863   5.938
10262SOL    HW131685   3.150   6.913   5.959
10262SOL    HW231686   3.312   6.923   5.949
10263SOL     OW31687   5.735   0.240   1.027
10263SOL    HW131688   5.815   0.221   0.971
10263SOL    HW231689   5.744   0.331   1.069
10264SOL     OW31690   0.287   6.305   6.494
10264SOL    HW131691   0.269   6.395   6.453
10264SOL    HW231692   0.329   6.245   6.427
10265SOL     OW31693   2.910   2.437   0.851
10265SOL    HW131694   2.987   2.376   0.838
10265SOL    HW231695   2.851   2.433   0.770
10266SOL     OW31696   3.965   3.095   3.618
10266SOL    HW131697   3.962   3.015   3.678
10266SOL    HW231698   3.940   3.069   3.525
10267SOL     OW31699   5.297   1.614   0.411
10267SOL    HW131700   5.206   1.611   0.453
10267SOL    HW231701   5.363   1.572   0.473
10268SOL     OW31702   6.161   6.400   2.123
10268SOL    HW131703   6.260   6.389   2.130
10268SOL    HW231704   6.115   6.320   2.162
10269SOL     OW31705   0.979   3.427   6.123
10269SOL    HW131706   1.027   3.349   6.162
10269SOL    HW231707   0.970   3.415   6.024
10270SOL     OW31708   3.023   5.250   2.478
10270SOL    HW131709   3.110   5.217   2.515
10270SOL    HW231710   2.961   5.173   2.465
10271SOL     OW31711   3.641   2.373   0.170
10271SOL    HW131712   3.645   2.448   0.103
10271SOL    HW231713   3.546   2.358   0.197
10272SOL     OW31714   1.024   0.983   5.495
10272SOL    HW131715   0.986   1.037   5.419
10272SOL    HW231716   1.123   0.992   5.494
10273SOL     OW31717   3.137   5.738   2.872
10273SOL    HW131718   3.088   5.784   2.798
10273SOL    HW231719   3.084   5.745   2.957
10274SOL     OW31720   0.555   4.793   6.016
10274SOL    HW131721   0.577   4.715   6.074
10274SOL    HW231722   0.484   4.848   6.060
10275SOL     OW31723   0.487   0.325   2.106
10275SOL    HW131724   0.484   0.385   2.026
10275SOL    HW231725   0.501   0.381   2.188
10276SOL     OW31726   5.181   6.110   5.022
10276SOL    HW131727   5.114   6.037   5.035
10276SOL    HW231728   5.220   6.136   5.111
10277SOL     OW31729   2.060   6.145   4.759
10277SOL    HW131730   2.023   6.054   4.743
10277SOL    HW231731   2.069   6.160   4.858
10278SOL     OW31732   1.673   1.559   3.374
10278SOL    HW131733   1.609   1.524   3.442
10278SOL    HW231734   1.647   1.528   3.283
10279SOL     OW31735   1.421   4.551   4.466
10279SOL    HW131736   1.443   4.565   4.563
10279SOL    HW231737   1.497   4.582   4.409
10280SOL     OW31738   6.404   2.441   6.330
10280SOL    HW131739   6.470   2.430   6.256
10280SOL    HW231740   6.415   2.532   6.371
10281SOL     OW31741   6.243   2.028   3.418
10281SOL    HW131742   6.249   2.082   3.502
10281SOL    HW231743   6.238   1.931   3.441
10282SOL     OW31744   5.181   3.611   3.865
10282SOL    HW131745   5.140   3.585   3.778
10282SOL    HW231746   5.226   3.532   3.905
10283SOL     OW31747   1.645   3.085   1.279
10283SOL    HW131748   1.558   3.073   1.326
10283SOL    HW231749   1.629   3.117   1.186
10284SOL     OW31750   5.342   1.573   5.398
10284SOL    HW131751   5.389   1.561   5.310
10284SOL    HW231752   5.290   1.658   5.395
10285SOL     OW31753   5.272   6.376   3.148
10285SOL    HW131754   5.344   6.406   3.086
10285SOL    HW231755   5.182   6.401   3.110
10286SOL     OW31756   4.122   0.828   3.717
10286SOL    HW131757   4.037   0.781   3.694
10286SOL    HW231758   4.154   0.879   3.637
10287SOL     OW31759   2.938   5.429   1.795
10287SOL    HW131760   2.975   5.346   1.837
10287SOL    HW231761   2.839   5.432   1.808
10288SOL     OW31762   4.580   6.320   2.804
10288SOL    HW131763   4.595   6.221   2.800
10288SOL    HW231764   4.500   6.339   2.861
10289SOL     OW31765   2.931   6.315   0.074
10289SOL    HW131766   2.989   6.286   7.026
10289SOL    HW231767   2.860   6.377   0.041
10290SOL     OW31768   2.912   3.338   2.876
10290SOL    HW131769   2.827   3.378   2.909
10290SOL    HW231770   2.947   3.393   2.800
10291SOL     OW31771   3.846   1.964   2.840
10291SOL    HW131772   3.924   2.020   2.813
10291SOL    HW231773   3.762   2.000   2.799
10292SOL     OW31774   1.576   1.938   4.991
10292SOL    HW131775   1.657   1.909   5.041
10292SOL    HW231776   1.508   1.974   5.055
10293SOL     OW31777   1.451   3.393   2.249
10293SOL    HW131778   1.551   3.387   2.250
10293SOL    HW231779   1.417   3.401   2.343
10294SOL     OW31780   4.300   1.635   3.552
10294SOL    HW131781   4.290   1.606   3.457
10294SOL    HW231782   4.276   1.560   3.613
10295SOL     OW31783   0.689   3.293   5.820
10295SOL    HW131784   0.725   3.200   5.831
10295SOL    HW231785   0.605   3.302   5.874
10296SOL     OW31786   5.276   1.153   6.823
10296SOL    HW131787   5.267   1.239   6.873
10296SOL    HW231788   5.327   1.087   6.878
10297SOL     OW31789   2.079   1.002   5.760
10297SOL    HW131790   2.092   0.993   5.661
10297SOL    HW231791   2.103   1.095   5.788
10298SOL     OW31792   2.914   4.177   1.105
10298SOL    HW131793   2.817   4.184   1.086
10298SOL    HW231794   2.928   4.124   1.190
10299SOL     OW31795   3.845   4.811   3.184
10299SOL    HW131796   3.917   4.835   3.119
10299SOL    HW231797   3.827   4.713   3.180
10300SOL     OW31798   1.298   4.200   2.008
10300SOL    HW131799   1.387   4.172   1.973
10300SOL    HW231800   1.280   4.153   2.095
10301SOL     OW31801   4.868   2.211   5.489
10301SOL    HW131802   4.947   2.260   5.454
10301SOL    HW231803   4.874   2.205   5.589
10302SOL     OW31804   2.506   6.584   4.700
10302SOL    HW131805   2.459   6.535   4.627
10302SOL    HW231806   2.451   6.663   4.728
10303SOL     OW31807   1.403   5.930   3.417
10303SOL    HW131808   1.447   5.994   3.355
10303SOL    HW231809   1.372   5.978   3.499
10304SOL     OW31810   5.700   0.228   1.805
10304SOL    HW131811   5.677   0.136   1.836
10304SOL    HW231812   5.796   0.232   1.779
10305SOL     OW31813   1.649   4.002   5.900
10305SOL    HW131814   1.720   3.933   5.917
10305SOL    HW231815   1.631   4.007   5.801
10306SOL     OW31816   5.248   5.942   6.930
10306SOL    HW131817   5.190   6.023   6.933
10306SOL    HW231818   5.342   5.967   6.952
10307SOL     OW31819   3.007   2.224   5.305
10307SOL    HW131820   3.083   2.290   5.305
10307SOL    HW231821   2.976   2.210   5.211
10308SOL     OW31822   2.127   3.736   2.653
10308SOL    HW131823   2.139   3.834   2.638
10308SOL    HW231824   2.031   3.717   2.676
10309SOL     OW31825   0.167   2.178   0.084
10309SOL    HW131826   0.241   2.181   0.017
10309SOL    HW231827   0.167   2.262   0.138
10310SOL     OW31828   3.448   3.969   0.578
10310SOL    HW131829   3.383   4.043   0.568
10310SOL    HW231830   3.540   4.006   0.590
10311SOL     OW31831   6.716   5.489   0.472
10311SOL    HW131832   6.763   5.577   0.469
10311SOL    HW231833   6.626   5.501   0.515
10312SOL     OW31834   3.628   6.660   2.326
10312SOL    HW131835   3.647   6.618   2.237
10312SOL    HW231836   3.568   6.600   2.379
10313SOL     OW31837   4.083   5.745   2.046
10313SOL    HW131838   4.178   5.735   2.075
10313SOL    HW231839   4.071   5.833   2.001
10314SOL     OW31840   6.524   0.287   1.582
10314SOL    HW131841   6.597   0.221   1.602
10314SOL    HW231842   6.537   0.323   1.490
10315SOL     OW31843   5.564   5.685   4.551
10315SOL    HW131844   5.661   5.684   4.524
10315SOL    HW231845   5.538   5.778   4.577
10316SOL     OW31846   6.181   2.265   5.651
10316SOL    HW131847   6.177   2.166   5.661
10316SOL    HW231848   6.254   2.301   5.709
10317SOL     OW31849   5.021   6.211   6.176
10317SOL    HW131850   5.058   6.293   6.222
10317SOL    HW231851   4.924   6.226   6.156
10318SOL     OW31852   4.955   0.306   6.920
10318SOL    HW131853   4.988   0.400   6.917
10318SOL    HW231854   5.031   0.246   6.946
10319SOL     OW31855   0.191   3.443   5.331
10319SOL    HW131856   0.167   3.354   5.292
10319SOL    HW231857   0.288   3.444   5.354
10320SOL     OW31858   0.940   6.844   2.531
10320SOL    HW131859   0.886   6.828   2.614
10320SOL    HW231860   0.953   6.942   2.518
10321SOL     OW31861   4.364   2.014   1.871
10321SOL    HW131862   4.422   1.949   1.920
10321SOL    HW231863   4.317   2.073   1.938
10322SOL     OW31864   5.458   5.818   5.057
10322SOL    HW131865   5.375   5.817   5.112
10322SOL    HW231866   5.506   5.905   5.070
10323SOL     OW31867   5.972   4.404   5.070
10323SOL    HW131868   5.935   4.320   5.109
10323SOL    HW231869   5.963   4.401   4.970
10324SOL     OW31870   3.150   2.919   2.186
10324SOL    HW131871   3.250   2.921   2.193
10324SOL    HW231872   3.114   2.860   2.258
10325SOL     OW31873   6.542   3.973   2.058
10325SOL    HW131874   6.586   4.027   2.130
10325SOL    HW231875   6.606   3.959   1.983
10326SOL     OW31876   4.078   4.481   6.954
10326SOL    HW131877   4.170   4.459   6.985
10326SOL    HW231878   4.025   4.397   6.943
10327SOL     OW31879   2.086   2.327   0.675
10327SOL    HW131880   2.033   2.412   0.683
10327SOL    HW231881   2.142   2.315   0.756
10328SOL     OW31882   6.378   2.338   1.148
10328SOL    HW131883   6.409   2.426   1.112
10328SOL    HW231884   6.456   2.276   1.156
10329SOL     OW31885   3.139   1.125   3.655
10329SOL    HW131886   3.159   1.177   3.738
10329SOL    HW231887   3.110   1.187   3.583
10330SOL     OW31888   4.152   1.323   2.572
10330SOL    HW131889   4.245   1.302   2.601
10330SOL    HW231890   4.099   1.238   2.567
10331SOL     OW31891   6.509   0.489   6.013
10331SOL    HW131892   6.485   0.393   5.994
10331SOL    HW231893   6.438   0.530   6.070
10332SOL     OW31894   0.112   0.516   1.146
10332SOL    HW131895   0.062   0.469   1.073
10332SOL    HW231896   0.094   0.614   1.141
10333SOL     OW31897   0.435   4.638   5.021
10333SOL    HW131898   0.491   4.583   4.959
10333SOL    HW231899   0.339   4.631   4.995
10334SOL     OW31900   3.541   0.804   3.907
10334SOL    HW131901   3.573   0.743   3.834
10334SOL    HW231902   3.620   0.843   3.954
10335SOL     OW31903   3.042   4.305   6.296
10335SOL    HW131904   3.116   4.367   6.324
10335SOL    HW231905   3.076   4.242   6.227
10336SOL     OW31906   6.898   6.836   1.346
10336SOL    HW131907   6.838   6.772   1.393
10336SOL    HW231908   6.993   6.803   1.353
10337SOL     OW31909   0.286   6.445   5.971
10337SOL    HW131910   0.329   6.512   6.032
10337SOL    HW231911   0.350   6.371   5.952
10338SOL     OW31912   2.139   6.184   2.376
10338SOL    HW131913   2.231   6.151   2.398
10338SOL    HW231914   2.134   6.282   2.395
10339SOL     OW31915   4.451   3.527   6.611
10339SOL    HW131916   4.542   3.536   6.570
10339SOL    HW231917   4.458   3.533   6.710
10340SOL     OW31918   1.087   3.915   1.461
10340SOL    HW131919   1.080   3.939   1.364
10340SOL    HW231920   1.147   3.981   1.507
10341SOL     OW31921   2.091   3.262   2.342
10341SOL    HW131922   2.102   3.358   2.371
10341SOL    HW231923   2.131   3.202   2.411
10342SOL     OW31924   1.885   0.201   5.090
10342SOL    HW131925   1.917   0.157   5.006
10342SOL    HW231926   1.857   0.295   5.069
10343SOL     OW31927   3.914   5.269   6.586
10343SOL    HW131928   3.820   5.300   6.570
10343SOL    HW231929   3.949   5.312   6.669
10344SOL     OW31930   4.189   3.264   1.213
10344SOL    HW131931   4.238   3.347   1.188
10344SOL    HW231932   4.227   3.226   1.298
10345SOL     OW31933   1.537   1.662   6.372
10345SOL    HW131934   1.458   1.625   6.323
10345SOL    HW231935   1.590   1.587   6.411
10346SOL     OW31936   0.372   5.325   1.680
10346SOL    HW131937   0.383   5.271   1.764
10346SOL    HW231938   0.460   5.367   1.657
10347SOL     OW31939   3.831   1.868   3.553
10347SOL    HW131940   3.856   1.860   3.457
10347SOL    HW231941   3.778   1.788   3.581
10348SOL     OW31942   6.586   2.065   0.234
10348SOL    HW131943   6.508   2.127   0.242
10348SOL    HW231944   6.570   2.001   0.159
10349SOL     OW31945   1.070   0.635   0.150
10349SOL    HW131946   1.075   0.543   0.111
10349SOL    HW231947   1.140   0.693   0.110
10350SOL     OW31948   2.711   6.641   4.915
10350SOL    HW131949   2.669   6.609   4.830
10350SOL    HW231950   2.719   6.564   4.979
10351SOL     OW31951   4.604   4.664   5.772
10351SOL    HW131952   4.639   4.644   5.864
10351SOL    HW231953   4.506   4.682   5.778
10352SOL     OW31954   3.462   1.367   6.004
10352SOL    HW131955   3.389   1.415   5.954
10352SOL    HW231956   3.529   1.433   6.037
10353SOL     OW31957   6.468   2.908   5.603
10353SOL    HW131958   6.567   2.909   5.591
10353SOL    HW231959   6.444   2.846   5.678
10354SOL     OW31960   5.605   2.714   2.637
10354SOL    HW131961   5.704   2.723   2.648
10354SOL    HW231962   5.582   2.618   2.622
10355SOL     OW31963   2.206   6.862   1.689
10355SOL    HW131964   2.231   6.772   1.653
10355SOL    HW231965   2.286   6.907   1.727
10356SOL     OW31966   1.112   4.953   5.205
10356SOL    HW131967   1.033   4.927   5.150
10356SOL    HW231968   1.184   4.989   5.145
10357SOL     OW31969   1.755   2.875   6.346
10357SOL    HW131970   1.806   2.961   6.353
10357SOL    HW231971   1.753   2.830   6.435
10358SOL     OW31972   6.853   3.412   3.062
10358SOL    HW131973   6.824   3.407   2.966
10358SOL    HW231974   6.826   3.328   3.109
10359SOL     OW31975   0.901   1.783   1.510
10359SOL    HW131976   0.809   1.748   1.526
10359SOL    HW231977   0.969   1.713   1.536
10360SOL     OW31978   5.213   4.566   3.125
10360SOL    HW131979   5.280   4.494   3.109
10360SOL    HW231980   5.236   4.646   3.070
10361SOL     OW31981   2.741   6.516   3.427
10361SOL    HW131982   2.744   6.593   3.362
10361SOL    HW231983   2.806   6.446   3.398
10362SOL     OW31984   0.925   4.785   4.777
10362SOL    HW131985   0.837   4.830   4.786
10362SOL    HW231986   0.961   4.800   4.685
10363SOL     OW31987   4.703   0.948   1.285
10363SOL    HW131988   4.639   0.871   1.291
10363SOL    HW231989   4.676   1.008   1.209
10364SOL     OW31990   2.938   3.278   1.501
10364SOL    HW131991   3.014   3.289   1.564
10364SOL    HW231992   2.936   3.184   1.467
10365SOL     OW31993   4.248   4.400   6.245
10365SOL    HW131994   4.176   4.408   6.314
10365SOL    HW231995   4.259   4.304   6.220
10366SOL     OW31996   3.027   0.785   3.944
10366SOL    HW131997   3.035   0.685   3.934
10366SOL    HW231998   3.118   0.825   3.951
10367SOL     OW31999   6.585   2.103   2.891
10367SOL    HW132000   6.495   2.072   2.861
10367SOL    HW232001   6.655   2.039   2.858
10368SOL     OW32002   1.747   1.195   1.287
10368SOL    HW132003   1.716   1.257   1.215
10368SOL    HW232004   1.692   1.112   1.285
10369SOL     OW32005   4.114   0.506   5.563
10369SOL    HW132006   4.071   0.596   5.556
10369SOL    HW232007   4.175   0.492   5.484
10370SOL     OW32008   5.276   1.273   5.051
10370SOL    HW132009   5.364   1.242   5.016
10370SOL    HW232010   5.261   1.368   5.023
10371SOL     OW32011   2.933   6.057   4.742
10371SOL    HW132012   3.016   6.002   4.749
10371SOL    HW232013   2.854   6.000   4.763
10372SOL     OW32014   1.337   1.502   6.247
10372SOL    HW132015   1.349   1.531   6.152
10372SOL    HW232016   1.240   1.482   6.263
10373SOL     OW32017   2.309   6.007   4.690
10373SOL    HW132018   2.288   5.952   4.609
10373SOL    HW232019   2.247   6.085   4.695
10374SOL     OW32020   4.108   1.376   2.868
10374SOL    HW132021   4.020   1.413   2.836
10374SOL    HW232022   4.159   1.447   2.916
10375SOL     OW32023   3.886   1.648   6.203
10375SOL    HW132024   3.898   1.607   6.294
10375SOL    HW232025   3.857   1.577   6.139
10376SOL     OW32026   0.976   6.345   3.830
10376SOL    HW132027   1.041   6.391   3.769
10376SOL    HW232028   0.905   6.301   3.775
10377SOL     OW32029   6.815   0.364   3.939
10377SOL    HW132030   6.755   0.437   3.971
10377SOL    HW232031   6.759   0.290   3.900
10378SOL     OW32032   6.821   0.898   5.507
10378SOL    HW132033   6.787   0.807   5.532
10378SOL    HW232034   6.748   0.949   5.461
10379SOL     OW32035   3.827   0.309   5.196
10379SOL    HW132036   3.838   0.380   5.127
10379SOL    HW232037   3.792   0.349   5.281
10380SOL     OW32038   6.841   1.266   2.967
10380SOL    HW132039   6.789   1.338   2.921
10380SOL    HW232040   6.784   1.222   3.036
10381SOL     OW32041   4.684   5.721   5.928
10381SOL    HW132042   4.659   5.802   5.982
10381SOL    HW232043   4.609   5.699   5.865
10382SOL     OW32044   2.147   4.543   6.434
10382SOL    HW132045   2.238   4.565   6.397
10382SOL    HW232046   2.079   4.601   6.390
10383SOL     OW32047   0.533   3.425   1.058
10383SOL    HW132048   0.625   3.396   1.031
10383SOL    HW232049   0.470   3.414   0.981
10384SOL     OW32050   0.628   7.010   0.836
10384SOL    HW132051   0.632   6.950   0.756
10384SOL    HW232052   0.565   6.971   0.904
10385SOL     OW32053   4.872   6.930   6.679
10385SOL    HW132054   4.927   6.896   6.755
10385SOL    HW232055   4.928   6.936   6.597
10386SOL     OW32056   0.110   3.869   4.880
10386SOL    HW132057   0.174   3.886   4.955
10386SOL    HW232058   0.155   3.813   4.810
10387SOL     OW32059   3.984   2.081   2.412
10387SOL    HW132060   3.955   2.086   2.316
10387SOL    HW232061   4.083   2.066   2.416
10388SOL     OW32062   0.777   5.776   3.628
10388SOL    HW132063   0.717   5.786   3.708
10388SOL    HW232064   0.803   5.679   3.619
10389SOL     OW32065   0.578   5.802   1.952
10389SOL    HW132066   0.503   5.867   1.964
10389SOL    HW232067   0.637   5.804   2.033
10390SOL     OW32068   1.436   3.867   2.115
10390SOL    HW132069   1.470   3.773   2.104
10390SOL    HW232070   1.351   3.878   2.064
10391SOL     OW32071   1.366   5.738   5.483
10391SOL    HW132072   1.316   5.678   5.420
10391SOL    HW232073   1.463   5.713   5.482
10392SOL     OW32074   6.480   3.926   0.464
10392SOL    HW132075   6.561   3.868   0.464
10392SOL    HW232076   6.438   3.923   0.373
10393SOL     OW32077   1.610   1.563   2.722
10393SOL    HW132078   1.557   1.543   2.804
10393SOL    HW232079   1.548   1.578   2.645
10394SOL     OW32080   2.666   6.829   6.273
10394SOL    HW132081   2.608   6.755   6.307
10394SOL    HW232082   2.753   6.828   6.322
10395SOL     OW32083   6.327   0.935   4.856
10395SOL    HW132084   6.229   0.937   4.841
10395SOL    HW232085   6.362   1.028   4.868
10396SOL     OW32086   1.204   0.428   3.878
10396SOL    HW132087   1.175   0.522   3.861
10396SOL    HW232088   1.240   0.388   3.794
10397SOL     OW32089   3.692   1.574   3.802
10397SOL    HW132090   3.668   1.597   3.707
10397SOL    HW232091   3.785   1.606   3.822
10398SOL     OW32092   6.358   2.239   0.518
10398SOL    HW132093   6.316   2.173   0.580
10398SOL    HW232094   6.326   2.222   0.425
10399SOL     OW32095   4.383   1.367   5.435
10399SOL    HW132096   4.348   1.427   5.507
10399SOL    HW232097   4.347   1.398   5.346
10400SOL     OW32098   3.504   5.927   2.041
10400SOL    HW132099   3.501   5.913   2.140
10400SOL    HW232100   3.412   5.917   2.002
10401SOL     OW32101   6.734   6.975   2.091
10401SOL    HW132102   6.678   6.953   2.170
10401SOL    HW232103   6.676   6.986   2.010
10402SOL     OW32104   0.762   3.024   5.846
10402SOL    HW132105   0.684   2.985   5.797
10402SOL    HW232106   0.752   3.004   5.944
10403SOL     OW32107   5.594   1.688   2.546
10403SOL    HW132108   5.501   1.657   2.524
10403SOL    HW232109   5.639   1.619   2.602
10404SOL     OW32110   0.689   6.510   3.487
10404SOL    HW132111   0.619   6.454   3.444
10404SOL    HW232112   0.665   6.526   3.582
10405SOL     OW32113   1.710   5.526   5.230
10405SOL    HW132114   1.810   5.518   5.233
10405SOL    HW232115   1.679   5.523   5.135
10406SOL     OW32116   1.991   4.314   4.802
10406SOL    HW132117   1.988   4.258   4.885
10406SOL    HW232118   1.928   4.276   4.734
10407SOL     OW32119   1.776   0.821   6.501
10407SOL    HW132120   1.744   0.729   6.524
10407SOL    HW232121   1.755   0.840   6.405
10408SOL     OW32122   4.257   6.172   2.835
10408SOL    HW132123   4.163   6.195   2.858
10408SOL    HW232124   4.274   6.194   2.739
10409SOL     OW32125   0.481   4.679   1.429
10409SOL    HW132126   0.478   4.770   1.387
10409SOL    HW232127   0.441   4.612   1.366
10410SOL     OW32128   5.460   1.010   1.331
10410SOL    HW132129   5.362   0.994   1.348
10410SOL    HW232130   5.514   0.969   1.404
10411SOL     OW32131   2.118   4.601   4.083
10411SOL    HW132132   2.188   4.665   4.113
10411SOL    HW232133   2.028   4.638   4.106
10412SOL     OW32134   0.341   1.414   0.430
10412SOL    HW132135   0.251   1.434   0.468
10412SOL    HW232136   0.354   1.315   0.425
10413SOL     OW32137   1.054   2.327   0.851
10413SOL    HW132138   0.987   2.379   0.905
10413SOL    HW232139   1.146   2.351   0.881
10414SOL     OW32140   5.058   6.453   6.306
10414SOL    HW132141   4.992   6.441   6.380
10414SOL    HW232142   5.140   6.499   6.340
10415SOL     OW32143   1.519   4.825   3.708
10415SOL    HW132144   1.536   4.818   3.806
10415SOL    HW232145   1.435   4.877   3.692
10416SOL     OW32146   6.454   1.796   6.071
10416SOL    HW132147   6.469   1.835   5.981
10416SOL    HW232148   6.542   1.784   6.117
10417SOL     OW32149   4.289   4.647   3.186
10417SOL    HW132150   4.359   4.576   3.184
10417SOL    HW232151   4.277   4.685   3.094
10418SOL     OW32152   6.457   4.217   5.637
10418SOL    HW132153   6.404   4.302   5.633
10418SOL    HW232154   6.410   4.151   5.696
10419SOL     OW32155   2.759   1.284   5.074
10419SOL    HW132156   2.764   1.370   5.124
10419SOL    HW232157   2.749   1.208   5.139
10420SOL     OW32158   6.760   3.789   2.371
10420SOL    HW132159   6.687   3.851   2.399
10420SOL    HW232160   6.824   3.776   2.447
10421SOL     OW32161   1.447   4.047   4.062
10421SOL    HW132162   1.422   4.121   3.999
10421SOL    HW232163   1.521   3.993   4.022
10422SOL     OW32164   6.578   4.009   5.496
10422SOL    HW132165   6.534   4.093   5.527
10422SOL    HW232166   6.543   3.985   5.405
10423SOL     OW32167   3.766   4.998   4.187
10423SOL    HW132168   3.680   5.031   4.225
10423SOL    HW232169   3.838   5.004   4.257
10424SOL     OW32170   4.403   1.178   0.201
10424SOL    HW132171   4.479   1.118   0.178
10424SOL    HW232172   4.427   1.273   0.180
10425SOL     OW32173   1.167   6.529   1.574
10425SOL    HW132174   1.141   6.606   1.632
10425SOL    HW232175   1.086   6.489   1.533
10426SOL     OW32176   4.638   3.190   5.401
10426SOL    HW132177   4.626   3.098   5.364
10426SOL    HW232178   4.702   3.241   5.344
10427SOL     OW32179   5.379   5.927   5.431
10427SOL    HW132180   5.341   5.875   5.355
10427SOL    HW232181   5.454   5.876   5.472
10428SOL     OW32182   1.451   1.742   3.548
10428SOL    HW132183   1.469   1.648   3.579
10428SOL    HW232184   1.408   1.740   3.458
10429SOL     OW32185   1.214   3.444   2.441
10429SOL    HW132186   1.153   3.465   2.365
10429SOL    HW232187   1.260   3.528   2.471
10430SOL     OW32188   3.577   6.058   4.332
10430SOL    HW132189   3.633   6.141   4.336
10430SOL    HW232190   3.532   6.053   4.243
10431SOL     OW32191   2.610   1.790   4.571
10431SOL    HW132192   2.521   1.746   4.578
10431SOL    HW232193   2.668   1.740   4.507
10432SOL     OW32194   0.637   0.440   5.001
10432SOL    HW132195   0.548   0.481   5.020
10432SOL    HW232196   0.627   0.371   4.929
10433SOL     OW32197   1.529   6.688   1.899
10433SOL    HW132198   1.592   6.744   1.953
10433SOL    HW232199   1.579   6.644   1.825
10434SOL     OW32200   5.216   0.084   5.231
10434SOL    HW132201   5.117   0.089   5.223
10434SOL    HW232202   5.242   0.096   5.327
10435SOL     OW32203   1.074   2.391   6.507
10435SOL    HW132204   1.043   2.346   6.423
10435SOL    HW232205   1.159   2.348   6.538
10436SOL     OW32206   7.022   3.613   4.672
10436SOL    HW132207   0.071   3.673   4.691
10436SOL    HW232208   0.017   3.550   4.598
10437SOL     OW32209   5.040   5.077   5.129
10437SOL    HW132210   5.057   4.979   5.119
10437SOL    HW232211   5.050   5.103   5.226
10438SOL     OW32212   0.175   6.657   5.692
10438SOL    HW132213   0.095   6.607   5.724
10438SOL    HW232214   0.223   6.603   5.622
10439SOL     OW32215   6.707   1.049   4.945
10439SOL    HW132216   6.718   1.148   4.939
10439SOL    HW232217   6.797   1.005   4.936
10440SOL     OW32218   6.734   1.395   0.045
10440SOL    HW132219   6.829   1.385   0.076
10440SOL    HW232220   6.672   1.373   0.120
10441SOL     OW32221   3.388   1.608   1.307
10441SOL    HW132222   3.455   1.624   1.235
10441SOL    HW232223   3.356   1.697   1.342
10442SOL     OW32224   3.168   0.836   5.438
10442SOL    HW132225   3.238   0.784   5.390
10442SOL    HW232226   3.186   0.835   5.536
10443SOL     OW32227   0.234   2.264   3.141
10443SOL    HW132228   0.186   2.324   3.204
10443SOL    HW232229   0.174   2.190   3.111
10444SOL     OW32230   3.610   5.053   3.860
10444SOL    HW132231   3.557   5.025   3.940
10444SOL    HW232232   3.690   4.993   3.850
10445SOL     OW32233   0.139   3.677   2.003
10445SOL    HW132234   0.177   3.627   2.080
10445SOL    HW232235   0.053   3.635   1.975
10446SOL     OW32236   1.882   4.075   5.311
10446SOL    HW132237   1.861   4.159   5.260
10446SOL    HW232238   1.944   4.018   5.256
10447SOL     OW32239   6.124   2.129   2.690
10447SOL    HW132240   6.155   2.123   2.595
10447SOL    HW232241   6.045   2.069   2.703
10448SOL     OW32242   2.820   1.088   3.646
10448SOL    HW132243   2.722   1.074   3.638
10448SOL    HW232244   2.861   1.014   3.699
10449SOL     OW32245   3.341   5.435   6.762
10449SOL    HW132246   3.383   5.524   6.742
10449SOL    HW232247   3.354   5.374   6.685
10450SOL     OW32248   6.428   0.683   6.204
10450SOL    HW132249   6.360   0.750   6.177
10450SOL    HW232250   6.500   0.728   6.258
10451SOL     OW32251   2.532   0.662   3.681
10451SOL    HW132252   2.548   0.677   3.779
10451SOL    HW232253   2.577   0.577   3.652
10452SOL     OW32254   6.966   2.791   2.818
10452SOL    HW132255   6.939   2.737   2.898
10452SOL    HW232256   6.999   2.880   2.848
10453SOL     OW32257   4.425   6.593   2.608
10453SOL    HW132258   4.515   6.595   2.565
10453SOL    HW232259   4.363   6.653   2.558
10454SOL     OW32260   6.408   1.383   7.000
10454SOL    HW132261   6.460   1.369   0.056
10454SOL    HW232262   6.430   1.310   6.935
10455SOL     OW32263   5.937   6.115   4.178
10455SOL    HW132264   6.014   6.152   4.229
10455SOL    HW232265   5.904   6.184   4.113
10456SOL     OW32266   0.081   5.691   0.144
10456SOL    HW132267   0.009   5.625   0.124
10456SOL    HW232268   0.170   5.649   0.128
10457SOL     OW32269   4.698   3.695   0.000
10457SOL    HW132270   4.713   3.783   6.982
10457SOL    HW232271   4.786   3.659   0.031
10458SOL     OW32272   6.828   0.184   5.747
10458SOL    HW132273   6.747   0.227   5.705
10458SOL    HW232274   6.894   0.254   5.771
10459SOL     OW32275   6.728   5.319   0.858
10459SOL    HW132276   6.703   5.226   0.830
10459SOL    HW232277   6.824   5.336   0.836
10460SOL     OW32278   6.605   4.271   1.910
10460SOL    HW132279   6.607   4.351   1.850
10460SOL    HW232280   6.522   4.272   1.966
10461SOL     OW32281   6.457   4.436   5.229
10461SOL    HW132282   6.402   4.374   5.173
10461SOL    HW232283   6.399   4.480   5.297
10462SOL     OW32284   4.495   1.736   1.650
10462SOL    HW132285   4.438   1.673   1.703
10462SOL    HW232286   4.496   1.826   1.695
10463SOL     OW32287   4.611   1.475   6.110
10463SOL    HW132288   4.558   1.558   6.092
10463SOL    HW232289   4.549   1.401   6.138
10464SOL     OW32290   5.278   5.335   2.260
10464SOL    HW132291   5.181   5.322   2.241
10464SOL    HW232292   5.328   5.343   2.174
10465SOL     OW32293   5.328   4.105   3.186
10465SOL    HW132294   5.248   4.090   3.243
10465SOL    HW232295   5.378   4.019   3.175
10466SOL     OW32296   5.263   4.515   6.198
10466SOL    HW132297   5.219   4.476   6.116
10466SOL    HW232298   5.356   4.478   6.206
10467SOL     OW32299   1.936   2.818   6.729
10467SOL    HW132300   1.839   2.805   6.708
10467SOL    HW232301   1.949   2.907   6.772
10468SOL     OW32302   3.693   5.327   3.817
10468SOL    HW132303   3.685   5.309   3.719
10468SOL    HW232304   3.676   5.243   3.868
10469SOL     OW32305   5.244   3.911   5.640
10469SOL    HW132306   5.199   3.854   5.709
10469SOL    HW232307   5.294   3.853   5.576
10470SOL     OW32308   2.500   1.739   3.431
10470SOL    HW132309   2.578   1.726   3.370
10470SOL    HW232310   2.422   1.686   3.398
10471SOL     OW32311   2.753   0.775   6.841
10471SOL    HW132312   2.686   0.797   6.912
10471SOL    HW232313   2.823   0.846   6.838
10472SOL     OW32314   2.719   4.975   0.941
10472SOL    HW132315   2.732   4.924   0.856
10472SOL    HW232316   2.771   5.060   0.938
10473SOL     OW32317   5.581   5.801   6.170
10473SOL    HW132318   5.499   5.751   6.143
10473SOL    HW232319   5.619   5.760   6.253
10474SOL     OW32320   5.326   0.889   4.123
10474SOL    HW132321   5.373   0.890   4.211
10474SOL    HW232322   5.359   0.812   4.068
10475SOL     OW32323   2.475   6.180   1.876
10475SOL    HW132324   2.417   6.131   1.942
10475SOL    HW232325   2.466   6.278   1.891
10476SOL     OW32326   5.086   6.331   5.927
10476SOL    HW132327   5.139   6.280   5.858
10476SOL    HW232328   5.058   6.268   5.999
10477SOL     OW32329   0.043   6.507   4.168
10477SOL    HW132330   7.017   6.590   4.151
10477SOL    HW232331   0.128   6.513   4.116
10478SOL     OW32332   6.466   6.989   0.401
10478SOL    HW132333   6.377   6.950   0.374
10478SOL    HW232334   6.507   0.006   0.323
10479SOL     OW32335   6.974   2.536   2.117
10479SOL    HW132336   6.908   2.511   2.187
10479SOL    HW232337   0.038   2.519   2.150
10480SOL     OW32338   1.918   0.393   2.204
10480SOL    HW132339   1.855   0.469   2.219
10480SOL    HW232340   1.865   0.309   2.187
10481SOL     OW32341   0.747   6.231   2.933
10481SOL    HW132342   0.679   6.298   2.960
10481SOL    HW232343   0.803   6.206   3.012
10482SOL     OW32344   5.871   4.615   4.446
10482SOL    HW132345   5.901   4.695   4.394
10482SOL    HW232346   5.951   4.573   4.490
10483SOL     OW32347   5.576   5.512   0.585
10483SOL    HW132348   5.526   5.562   0.514
10483SOL    HW232349   5.555   5.414   0.578
10484SOL     OW32350   4.750   1.279   1.153
10484SOL    HW132351   4.712   1.327   1.074
10484SOL    HW232352   4.801   1.199   1.122
10485SOL     OW32353   3.639   3.928   6.904
10485SOL    HW132354   3.640   3.881   6.815
10485SOL    HW232355   3.561   3.990   6.908
10486SOL     OW32356   6.668   1.464   0.981
10486SOL    HW132357   6.710   1.513   0.905
10486SOL    HW232358   6.732   1.460   1.058
10487SOL     OW32359   4.955   6.419   2.454
10487SOL    HW132360   5.038   6.475   2.459
10487SOL    HW232361   4.949   6.363   2.537
10488SOL     OW32362   2.768   2.869   6.351
10488SOL    HW132363   2.778   2.771   6.368
10488SOL    HW232364   2.765   2.886   6.253
10489SOL     OW32365   0.680   6.981   5.679
10489SOL    HW132366   0.584   6.971   5.703
10489SOL    HW232367   0.724   6.891   5.678
10490SOL     OW32368   6.408   1.805   2.588
10490SOL    HW132369   6.483   1.869   2.573
10490SOL    HW232370   6.323   1.843   2.554
10491SOL     OW32371   1.635   3.672   6.785
10491SOL    HW132372   1.615   3.732   6.708
10491SOL    HW232373   1.734   3.656   6.790
10492SOL     OW32374   5.703   3.604   5.559
10492SOL    HW132375   5.645   3.677   5.524
10492SOL    HW232376   5.668   3.516   5.526
10493SOL     OW32377   3.414   0.868   1.720
10493SOL    HW132378   3.365   0.941   1.672
10493SOL    HW232379   3.378   0.779   1.692
10494SOL     OW32380   5.256   2.521   5.285
10494SOL    HW132381   5.259   2.471   5.199
10494SOL    HW232382   5.347   2.556   5.307
10495SOL     OW32383   2.498   6.830   0.255
10495SOL    HW132384   2.445   6.745   0.251
10495SOL    HW232385   2.447   6.898   0.309
10496SOL     OW32386   0.423   6.666   1.181
10496SOL    HW132387   0.504   6.645   1.127
10496SOL    HW232388   0.341   6.636   1.131
10497SOL     OW32389   2.215   6.666   2.248
10497SOL    HW132390   2.300   6.719   2.257
10497SOL    HW232391   2.145   6.721   2.203
10498SOL     OW32392   2.733   6.431   1.821
10498SOL    HW132393   2.775   6.521   1.833
10498SOL    HW232394   2.802   6.360   1.835
10499SOL     OW32395   2.946   6.337   2.647
10499SOL    HW132396   3.005   6.272   2.695
10499SOL    HW232397   2.988   6.428   2.649
10500SOL     OW32398   0.147   1.301   5.782
10500SOL    HW132399   0.121   1.397   5.795
10500SOL    HW232400   0.151   1.281   5.684
10501SOL     OW32401   1.439   5.739   3.620
10501SOL    HW132402   1.415   5.773   3.711
10501SOL    HW232403   1.411   5.805   3.550
10502SOL     OW32404   3.321   0.115   0.768
10502SOL    HW132405   3.320   0.213   0.788
10502SOL    HW232406   3.371   0.067   0.841
10503SOL     OW32407   4.231   2.409   0.535
10503SOL    HW132408   4.182   2.328   0.567
10503SOL    HW232409   4.313   2.423   0.590
10504SOL     OW32410   1.710   2.221   0.426
10504SOL    HW132411   1.635   2.156   0.416
10504SOL    HW232412   1.770   2.216   0.346
10505SOL     OW32413   6.084   5.527   0.452
10505SOL    HW132414   5.984   5.532   0.452
10505SOL    HW232415   6.122   5.615   0.422
10506SOL     OW32416   0.710   5.828   6.232
10506SOL    HW132417   0.703   5.737   6.272
10506SOL    HW232418   0.791   5.833   6.174
10507SOL     OW32419   2.301   6.186   0.077
10507SOL    HW132420   2.386   6.178   0.130
10507SOL    HW232421   2.308   6.128   7.024
10508SOL     OW32422   5.569   5.997   4.365
10508SOL    HW132423   5.481   6.002   4.317
10508SOL    HW232424   5.609   6.089   4.369
10509SOL     OW32425   0.768   6.708   5.691
10509SOL    HW132426   0.688   6.705   5.751
10509SOL    HW232427   0.803   6.615   5.677
10510SOL     OW32428   5.567   5.232   5.479
10510SOL    HW132429   5.501   5.271   5.415
10510SOL    HW232430   5.660   5.253   5.449
10511SOL     OW32431   4.755   2.710   1.366
10511SOL    HW132432   4.660   2.742   1.365
10511SOL    HW232433   4.809   2.770   1.426
10512SOL     OW32434   3.878   0.748   6.070
10512SOL    HW132435   3.820   0.719   6.146
10512SOL    HW232436   3.957   0.797   6.105
10513SOL     OW32437   6.762   3.097   5.892
10513SOL    HW132438   6.818   3.092   5.975
10513SOL    HW232439   6.703   3.177   5.897
10514SOL     OW32440   0.135   3.753   0.127
10514SOL    HW132441   0.226   3.777   0.093
10514SOL    HW232442   0.066   3.799   0.072
10515SOL     OW32443   6.156   2.927   3.209
10515SOL    HW132444   6.159   2.974   3.298
10515SOL    HW232445   6.064   2.935   3.171
10516SOL     OW32446   4.760   0.775   6.528
10516SOL    HW132447   4.763   0.762   6.429
10516SOL    HW232448   4.817   0.852   6.554
10517SOL     OW32449   0.612   2.131   2.888
10517SOL    HW132450   0.569   2.126   2.978
10517SOL    HW232451   0.694   2.187   2.893
10518SOL     OW32452   0.803   4.746   6.780
10518SOL    HW132453   0.838   4.812   6.713
10518SOL    HW232454   0.705   4.761   6.793
10519SOL     OW32455   2.988   2.671   6.253
10519SOL    HW132456   2.988   2.659   6.153
10519SOL    HW232457   2.991   2.581   6.297
10520SOL     OW32458   2.090   2.870   6.477
10520SOL    HW132459   2.034   2.858   6.559
10520SOL    HW232460   2.037   2.917   6.406
10521SOL     OW32461   6.055   5.278   1.632
10521SOL    HW132462   5.957   5.281   1.617
10521SOL    HW232463   6.097   5.363   1.602
10522SOL     OW32464   6.281   0.664   0.843
10522SOL    HW132465   6.378   0.676   0.865
10522SOL    HW232466   6.271   0.651   0.745
10523SOL     OW32467   0.279   6.712   4.585
10523SOL    HW132468   0.364   6.677   4.545
10523SOL    HW232469   0.289   6.809   4.604
10524SOL     OW32470   1.787   1.853   5.145
10524SOL    HW132471   1.818   1.946   5.163
10524SOL    HW232472   1.857   1.805   5.092
10525SOL     OW32473   3.231   6.698   5.707
10525SOL    HW132474   3.226   6.600   5.728
10525SOL    HW232475   3.224   6.751   5.792
10526SOL     OW32476   0.038   6.901   2.852
10526SOL    HW132477   0.065   6.809   2.826
10526SOL    HW232478   0.117   6.952   2.886
10527SOL     OW32479   0.274   2.595   4.193
10527SOL    HW132480   0.228   2.630   4.111
10527SOL    HW232481   0.207   2.586   4.267
10528SOL     OW32482   0.464   4.266   5.358
10528SOL    HW132483   0.409   4.326   5.299
10528SOL    HW232484   0.560   4.292   5.349
10529SOL     OW32485   1.267   6.323   3.372
10529SOL    HW132486   1.224   6.390   3.311
10529SOL    HW232487   1.204   6.248   3.390
10530SOL     OW32488   1.868   1.384   6.292
10530SOL    HW132489   1.824   1.309   6.244
10530SOL    HW232490   1.881   1.461   6.229
10531SOL     OW32491   1.081   3.181   4.920
10531SOL    HW132492   1.060   3.228   5.006
10531SOL    HW232493   0.999   3.175   4.864
10532SOL     OW32494   2.172   3.701   0.356
10532SOL    HW132495   2.189   3.602   0.361
10532SOL    HW232496   2.107   3.727   0.427
10533SOL     OW32497   3.356   1.815   4.372
10533SOL    HW132498   3.298   1.766   4.437
10533SOL    HW232499   3.414   1.749   4.323
10534SOL     OW32500   6.699   5.790   0.816
10534SOL    HW132501   6.607   5.821   0.793
10534SOL    HW232502   6.694   5.712   0.878
10535SOL     OW32503   0.175   2.585   1.709
10535SOL    HW132504   0.095   2.526   1.694
10535SOL    HW232505   0.258   2.535   1.685
10536SOL     OW32506   3.679   0.553   2.990
10536SOL    HW132507   3.584   0.582   2.988
10536SOL    HW232508   3.738   0.631   3.010
10537SOL     OW32509   3.212   5.852   3.182
10537SOL    HW132510   3.298   5.813   3.148
10537SOL    HW232511   3.138   5.787   3.166
10538SOL     OW32512   4.793   2.962   6.706
10538SOL    HW132513   4.852   2.951   6.786
10538SOL    HW232514   4.757   2.872   6.678
10539SOL     OW32515   0.517   4.119   6.412
10539SOL    HW132516   0.609   4.092   6.387
10539SOL    HW232517   0.497   4.209   6.372
10540SOL     OW32518   1.815   1.303   5.771
10540SOL    HW132519   1.911   1.282   5.789
10540SOL    HW232520   1.775   1.232   5.715
10541SOL     OW32521   3.678   3.875   1.693
10541SOL    HW132522   3.757   3.856   1.751
10541SOL    HW232523   3.594   3.857   1.745
10542SOL     OW32524   6.866   1.989   6.996
10542SOL    HW132525   6.781   2.032   6.967
10542SOL    HW232526   6.845   1.910   0.025
10543SOL     OW32527   0.757   1.162   4.757
10543SOL    HW132528   0.812   1.101   4.814
10543SOL    HW232529   0.816   1.209   4.692
10544SOL     OW32530   1.675   0.043   2.673
10544SOL    HW132531   1.613   7.004   2.632
10544SOL    HW232532   1.741   0.074   2.605
10545SOL     OW32533   6.312   0.947   2.603
10545SOL    HW132534   6.230   0.910   2.559
10545SOL    HW232535   6.363   0.872   2.646
10546SOL     OW32536   0.515   0.871   6.170
10546SOL    HW132537   0.611   0.861   6.144
10546SOL    HW232538   0.457   0.838   6.096
10547SOL     OW32539   4.314   2.004   1.150
10547SOL    HW132540   4.394   2.063   1.138
10547SOL    HW232541   4.308   1.977   1.246
10548SOL     OW32542   5.014   3.433   4.990
10548SOL    HW132543   4.935   3.492   5.009
10548SOL    HW232544   5.080   3.440   5.064
10549SOL     OW32545   6.401   0.564   1.968
10549SOL    HW132546   6.474   0.619   1.927
10549SOL    HW232547   6.313   0.606   1.948
10550SOL     OW32548   4.147   6.737   4.875
10550SOL    HW132549   4.112   6.725   4.968
10550SOL    HW232550   4.149   6.649   4.828
10551SOL     OW32551   1.465   2.761   5.500
10551SOL    HW132552   1.487   2.806   5.413
10551SOL    HW232553   1.548   2.745   5.552
10552SOL     OW32554   3.967   2.036   6.140
10552SOL    HW132555   3.904   1.984   6.083
10552SOL    HW232556   3.928   2.048   6.231
10553SOL     OW32557   1.378   4.902   1.586
10553SOL    HW132558   1.420   4.813   1.605
10553SOL    HW232559   1.284   4.888   1.554
10554SOL     OW32560   5.244   5.221   6.501
10554SOL    HW132561   5.172   5.203   6.567
10554SOL    HW232562   5.290   5.307   6.524
10555SOL     OW32563   2.868   2.377   1.291
10555SOL    HW132564   2.879   2.442   1.367
10555SOL    HW232565   2.894   2.421   1.206
10556SOL     OW32566   1.765   3.107   5.227
10556SOL    HW132567   1.777   3.202   5.200
10556SOL    HW232568   1.852   3.070   5.260
10557SOL     OW32569   1.026   2.884   3.004
10557SOL    HW132570   0.973   2.909   2.923
10557SOL    HW232571   1.047   2.787   3.001
10558SOL     OW32572   3.901   7.009   4.715
10558SOL    HW132573   3.858   0.030   4.790
10558SOL    HW232574   3.999   0.001   4.713
10559SOL     OW32575   3.620   1.101   0.767
10559SOL    HW132576   3.636   1.187   0.815
10559SOL    HW232577   3.708   1.066   0.734
10560SOL     OW32578   2.209   5.754   4.240
10560SOL    HW132579   2.276   5.681   4.226
10560SOL    HW232580   2.122   5.728   4.198
10561SOL     OW32581   2.600   4.710   6.930
10561SOL    HW132582   2.659   4.667   6.861
10561SOL    HW232583   2.572   4.641   6.997
10562SOL     OW32584   5.383   6.174   0.252
10562SOL    HW132585   5.302   6.224   0.282
10562SOL    HW232586   5.381   6.082   0.290
10563SOL     OW32587   1.235   0.634   4.134
10563SOL    HW132588   1.181   0.686   4.068
10563SOL    HW232589   1.269   0.550   4.091
10564SOL     OW32590   5.698   6.695   2.148
10564SOL    HW132591   5.774   6.667   2.206
10564SOL    HW232592   5.698   6.795   2.138
10565SOL     OW32593   0.521   0.857   5.550
10565SOL    HW132594   0.511   0.953   5.523
10565SOL    HW232595   0.431   0.811   5.545
10566SOL     OW32596   4.234   2.803   0.093
10566SOL    HW132597   4.225   2.789   7.023
10566SOL    HW232598   4.150   2.842   0.130
10567SOL     OW32599   2.259   3.010   3.805
10567SOL    HW132600   2.205   2.984   3.724
10567SOL    HW232601   2.353   3.031   3.777
10568SOL     OW32602   5.496   1.364   1.501
10568SOL    HW132603   5.407   1.318   1.503
10568SOL    HW232604   5.485   1.457   1.467
10569SOL     OW32605   6.371   2.984   1.439
10569SOL    HW132606   6.405   2.890   1.443
10569SOL    HW232607   6.442   3.044   1.402
10570SOL     OW32608   2.034   5.177   2.548
10570SOL    HW132609   2.093   5.108   2.590
10570SOL    HW232610   1.950   5.186   2.601
10571SOL     OW32611   0.259   5.245   4.389
10571SOL    HW132612   0.210   5.172   4.436
10571SOL    HW232613   0.300   5.208   4.305
10572SOL     OW32614   6.421   3.198   3.485
10572SOL    HW132615   6.503   3.162   3.529
10572SOL    HW232616   6.365   3.122   3.452
10573SOL     OW32617   5.582   6.137   3.935
10573SOL    HW132618   5.561   6.042   3.960
10573SOL    HW232619   5.641   6.139   3.855
10574SOL     OW32620   1.973   2.288   4.210
10574SOL    HW132621   1.881   2.314   4.181
10574SOL    HW232622   1.986   2.190   4.197
10575SOL     OW32623   0.091   0.936   3.748
10575SOL    HW132624   0.166   0.907   3.808
10575SOL    HW232625   0.117   1.020   3.700
10576SOL     OW32626   0.318   6.511   5.484
10576SOL    HW132627   0.321   6.555   5.395
10576SOL    HW232628   0.300   6.413   5.473
10577SOL     OW32629   1.303   2.348   6.666
10577SOL    HW132630   1.307   2.447   6.649
10577SOL    HW232631   1.396   2.312   6.672
10578SOL     OW32632   6.594   0.357   3.326
10578SOL    HW132633   6.664   0.357   3.254
10578SOL    HW232634   6.639   0.365   3.415
10579SOL     OW32635   3.251   2.130   0.290
10579SOL    HW132636   3.269   2.194   0.215
10579SOL    HW232637   3.289   2.166   0.375
10580SOL     OW32638   6.763   0.153   0.204
10580SOL    HW132639   6.695   0.223   0.225
10580SOL    HW232640   6.720   0.082   0.148
10581SOL     OW32641   5.984   0.146   2.637
10581SOL    HW132642   6.077   0.146   2.673
10581SOL    HW232643   5.959   0.054   2.607
10582SOL     OW32644   4.106   4.858   6.708
10582SOL    HW132645   4.051   4.910   6.774
10582SOL    HW232646   4.202   4.886   6.715
10583SOL     OW32647   4.212   0.938   5.667
10583SOL    HW132648   4.167   1.002   5.729
10583SOL    HW232649   4.261   0.989   5.597
10584SOL     OW32650   6.130   0.009   0.937
10584SOL    HW132651   6.161   6.977   0.864
10584SOL    HW232652   6.133   6.988   1.024
10585SOL     OW32653   1.539   3.182   5.741
10585SOL    HW132654   1.581   3.272   5.749
10585SOL    HW232655   1.547   3.149   5.648
10586SOL     OW32656   1.816   5.959   5.732
10586SOL    HW132657   1.873   5.893   5.683
10586SOL    HW232658   1.759   5.912   5.799
10587SOL     OW32659   6.015   3.964   6.951
10587SOL    HW132660   6.037   3.870   6.926
10587SOL    HW232661   5.944   3.965   7.021
10588SOL     OW32662   1.042   4.408   1.575
10588SOL    HW132663   1.080   4.467   1.646
10588SOL    HW232664   0.987   4.335   1.617
10589SOL     OW32665   5.588   1.465   4.443
10589SOL    HW132666   5.685   1.483   4.458
10589SOL    HW232667   5.577   1.383   4.387
10590SOL     OW32668   0.952   0.506   1.692
10590SOL    HW132669   1.046   0.471   1.695
10590SOL    HW232670   0.900   0.456   1.622
10591SOL     OW32671   1.627   1.621   5.833
10591SOL    HW132672   1.690   1.576   5.896
10591SOL    HW232673   1.675   1.647   5.750
10592SOL     OW32674   5.714   2.728   0.801
10592SOL    HW132675   5.626   2.725   0.848
10592SOL    HW232676   5.699   2.725   0.702
10593SOL     OW32677   2.915   5.092   0.759
10593SOL    HW132678   3.014   5.083   0.765
10593SOL    HW232679   2.878   5.016   0.704
10594SOL     OW32680   5.851   1.570   3.618
10594SOL    HW132681   5.902   1.502   3.565
10594SOL    HW232682   5.755   1.542   3.624
10595SOL     OW32683   3.656   0.221   6.336
10595SOL    HW132684   3.746   0.243   6.373
10595SOL    HW232685   3.639   0.276   6.255
10596SOL     OW32686   4.195   6.926   1.839
10596SOL    HW132687   4.215   6.875   1.922
10596SOL    HW232688   4.164   7.018   1.863
10597SOL     OW32689   2.876   1.203   4.699
10597SOL    HW132690   2.957   1.225   4.755
10597SOL    HW232691   2.902   1.136   4.629
10598SOL     OW32692   2.736   2.797   6.961
10598SOL    HW132693   2.680   2.715   6.967
10598SOL    HW232694   2.807   2.794   0.003
10599SOL     OW32695   5.653   2.184   0.211
10599SOL    HW132696   5.649   2.153   0.306
10599SOL    HW232697   5.749   2.197   0.185
10600SOL     OW32698   1.830   3.217   0.646
10600SOL    HW132699   1.809   3.123   0.622
10600SOL    HW232700   1.882   3.260   0.572
10601SOL     OW32701   2.360   5.350   5.877
10601SOL    HW132702   2.414   5.350   5.793
10601SOL    HW232703   2.353   5.256   5.912
10602SOL     OW32704   5.449   1.394   3.101
10602SOL    HW132705   5.467   1.492   3.098
10602SOL    HW232706   5.411   1.365   3.014
10603SOL     OW32707   2.296   5.860   3.270
10603SOL    HW132708   2.360   5.900   3.337
10603SOL    HW232709   2.244   5.934   3.227
10604SOL     OW32710   5.693   4.266   4.766
10604SOL    HW132711   5.624   4.282   4.836
10604SOL    HW232712   5.650   4.267   4.675
10605SOL     OW32713   1.031   4.764   0.330
10605SOL    HW132714   1.121   4.760   0.374
10605SOL    HW232715   1.037   4.819   0.247
10606SOL     OW32716   5.965   0.651   2.202
10606SOL    HW132717   5.981   0.726   2.137
10606SOL    HW232718   6.042   0.587   2.199
10607SOL     OW32719   4.164   3.668   5.658
10607SOL    HW132720   4.161   3.653   5.559
10607SOL    HW232721   4.177   3.766   5.677
10608SOL     OW32722   5.819   1.935   4.880
10608SOL    HW132723   5.796   2.004   4.949
10608SOL    HW232724   5.837   1.847   4.924
10609SOL     OW32725   2.915   6.172   1.911
10609SOL    HW132726   2.970   6.245   1.870
10609SOL    HW232727   2.851   6.136   1.843
10610SOL     OW32728   0.253   4.211   6.565
10610SOL    HW132729   0.307   4.163   6.496
10610SOL    HW232730   0.193   4.277   6.519
10611SOL     OW32731   5.265   3.460   6.861
10611SOL    HW132732   5.188   3.496   6.808
10611SOL    HW232733   5.231   3.394   6.928
10612SOL     OW32734   2.345   6.969   5.607
10612SOL    HW132735   2.443   6.991   5.616
10612SOL    HW232736   2.293   0.025   5.601
10613SOL     OW32737   0.286   6.840   5.881
10613SOL    HW132738   0.266   6.764   5.818
10613SOL    HW232739   0.228   6.831   5.962
10614SOL     OW32740   0.101   1.814   4.367
10614SOL    HW132741   0.049   1.743   4.320
10614SOL    HW232742   0.168   1.771   4.427
10615SOL     OW32743   4.283   5.694   5.609
10615SOL    HW132744   4.313   5.786   5.584
10615SOL    HW232745   4.195   5.675   5.566
10616SOL     OW32746   3.528   6.198   0.424
10616SOL    HW132747   3.472   6.281   0.433
10616SOL    HW232748   3.617   6.222   0.387
10617SOL     OW32749   2.157   2.938   0.664
10617SOL    HW132750   2.092   2.955   0.738
10617SOL    HW232751   2.250   2.936   0.701
10618SOL     OW32752   5.697   2.925   0.093
10618SOL    HW132753   5.720   2.999   0.029
10618SOL    HW232754   5.620   2.954   0.151
10619SOL     OW32755   0.326   3.292   1.704
10619SOL    HW132756   0.423   3.290   1.730
10619SOL    HW232757   0.316   3.325   1.610
10620SOL     OW32758   0.870   6.135   5.146
10620SOL    HW132759   0.777   6.141   5.181
10620SOL    HW232760   0.872   6.074   5.067
10621SOL     OW32761   1.657   5.697   0.808
10621SOL    HW132762   1.739   5.754   0.803
10621SOL    HW232763   1.578   5.754   0.831
10622SOL     OW32764   4.547   0.933   0.823
10622SOL    HW132765   4.643   0.914   0.845
10622SOL    HW232766   4.493   0.849   0.833
10623SOL     OW32767   6.067   3.456   3.694
10623SOL    HW132768   6.145   3.394   3.699
10623SOL    HW232769   6.094   3.546   3.727
10624SOL     OW32770   1.039   1.128   4.590
10624SOL    HW132771   1.017   1.120   4.492
10624SOL    HW232772   1.012   1.218   4.623
10625SOL     OW32773   0.591   4.100   6.659
10625SOL    HW132774   0.548   4.115   6.570
10625SOL    HW232775   0.682   4.142   6.660
10626SOL     OW32776   0.722   2.622   1.500
10626SOL    HW132777   0.656   2.697   1.507
10626SOL    HW232778   0.708   2.558   1.575
10627SOL     OW32779   5.427   6.091   2.381
10627SOL    HW132780   5.427   6.186   2.411
10627SOL    HW232781   5.445   6.031   2.459
10628SOL     OW32782   5.453   5.265   5.783
10628SOL    HW132783   5.414   5.355   5.768
10628SOL    HW232784   5.492   5.231   5.697
10629SOL     OW32785   2.605   4.542   5.264
10629SOL    HW132786   2.701   4.551   5.237
10629SOL    HW232787   2.547   4.586   5.195
10630SOL     OW32788   6.578   0.685   3.309
10630SOL    HW132789   6.644   0.747   3.267
10630SOL    HW232790   6.626   0.604   3.344
10631SOL     OW32791   1.480   5.699   4.608
10631SOL    HW132792   1.573   5.712   4.573
10631SOL    HW232793   1.414   5.724   4.538
10632SOL     OW32794   5.458   2.495   4.217
10632SOL    HW132795   5.372   2.458   4.182
10632SOL    HW232796   5.519   2.420   4.241
10633SOL     OW32797   2.968   3.799   1.452
10633SOL    HW132798   3.068   3.804   1.453
10633SOL    HW232799   2.935   3.794   1.546
10634SOL     OW32800   3.586   5.365   0.771
10634SOL    HW132801   3.661   5.346   0.708
10634SOL    HW232802   3.522   5.430   0.729
10635SOL     OW32803   2.678   1.498   1.249
10635SOL    HW132804   2.747   1.519   1.180
10635SOL    HW232805   2.590   1.480   1.204
10636SOL     OW32806   1.105   2.507   1.977
10636SOL    HW132807   1.077   2.587   2.031
10636SOL    HW232808   1.193   2.526   1.932
10637SOL     OW32809   3.793   3.697   5.791
10637SOL    HW132810   3.700   3.661   5.775
10637SOL    HW232811   3.789   3.795   5.806
10638SOL     OW32812   0.014   6.060   2.503
10638SOL    HW132813   0.078   6.125   2.462
10638SOL    HW232814   0.057   5.969   2.506
10639SOL     OW32815   0.545   1.729   3.484
10639SOL    HW132816   0.624   1.788   3.500
10639SOL    HW232817   0.525   1.676   3.566
10640SOL     OW32818   4.126   0.044   6.754
10640SOL    HW132819   4.219   0.021   6.726
10640SOL    HW232820   4.066   0.043   6.674
10641SOL     OW32821   3.782   1.939   0.089
10641SOL    HW132822   3.856   1.889   0.043
10641SOL    HW232823   3.786   1.921   0.187
10642SOL     OW32824   0.596   3.238   1.461
10642SOL    HW132825   0.527   3.173   1.428
10642SOL    HW232826   0.661   3.189   1.520
10643SOL     OW32827   1.863   4.519   6.011
10643SOL    HW132828   1.940   4.547   5.953
10643SOL    HW232829   1.796   4.592   6.015
10644SOL     OW32830   4.825   2.189   3.792
10644SOL    HW132831   4.732   2.162   3.767
10644SOL    HW232832   4.830   2.289   3.798
10645SOL     OW32833   1.133   1.195   4.168
10645SOL    HW132834   1.164   1.124   4.104
10645SOL    HW232835   1.079   1.263   4.118
10646SOL     OW32836   0.953   1.855   5.576
10646SOL    HW132837   0.972   1.890   5.668
10646SOL    HW232838   1.032   1.805   5.542
10647SOL     OW32839   5.237   5.810   6.290
10647SOL    HW132840   5.186   5.736   6.333
10647SOL    HW232841   5.292   5.774   6.215
10648SOL     OW32842   5.300   2.866   6.382
10648SOL    HW132843   5.257   2.910   6.461
10648SOL    HW232844   5.240   2.874   6.303
10649SOL     OW32845   0.248   4.363   3.777
10649SOL    HW132846   0.164   4.386   3.728
10649SOL    HW232847   0.248   4.407   3.866
10650SOL     OW32848   1.319   6.627   3.482
10650SOL    HW132849   1.300   6.649   3.387
10650SOL    HW232850   1.416   6.644   3.501
10651SOL     OW32851   4.760   6.904   5.712
10651SOL    HW132852   4.794   6.892   5.805
10651SOL    HW232853   4.700   6.828   5.688
10652SOL     OW32854   3.602   0.140   6.899
10652SOL    HW132855   3.516   0.175   6.862
10652SOL    HW232856   3.673   0.145   6.828
10653SOL     OW32857   5.173   4.729   4.392
10653SOL    HW132858   5.092   4.787   4.380
10653SOL    HW232859   5.231   4.767   4.464
10654SOL     OW32860   3.883   0.335   1.345
10654SOL    HW132861   3.913   0.268   1.277
10654SOL    HW232862   3.922   0.312   1.434
10655SOL     OW32863   3.369   5.464   1.375
10655SOL    HW132864   3.371   5.562   1.353
10655SOL    HW232865   3.432   5.446   1.450
10656SOL     OW32866   6.227   2.073   0.653
10656SOL    HW132867   6.261   2.026   0.735
10656SOL    HW232868   6.136   2.111   0.672
10657SOL     OW32869   6.270   6.840   0.276
10657SOL    HW132870   6.232   6.905   0.210
10657SOL    HW232871   6.263   6.747   0.239
10658SOL     OW32872   0.253   4.460   4.692
10658SOL    HW132873   0.314   4.536   4.669
10658SOL    HW232874   0.233   4.408   4.609
10659SOL     OW32875   6.755   6.792   1.077
10659SOL    HW132876   6.818   6.811   1.152
10659SOL    HW232877   6.787   6.836   0.994
10660SOL     OW32878   5.250   4.080   6.516
10660SOL    HW132879   5.246   4.168   6.564
10660SOL    HW232880   5.318   4.085   6.443
10661SOL     OW32881   6.888   6.724   2.627
10661SOL    HW132882   6.832   6.652   2.587
10661SOL    HW232883   6.901   6.705   2.725
10662SOL     OW32884   6.130   1.066   2.051
10662SOL    HW132885   6.115   1.127   1.973
10662SOL    HW232886   6.193   1.110   2.116
10663SOL     OW32887   0.727   0.249   1.067
10663SOL    HW132888   0.770   0.262   0.978
10663SOL    HW232889   0.788   0.195   1.126
10664SOL     OW32890   2.464   4.117   6.274
10664SOL    HW132891   2.381   4.062   6.268
10664SOL    HW232892   2.505   4.127   6.184
10665SOL     OW32893   1.035   0.953   6.551
10665SOL    HW132894   0.956   0.905   6.590
10665SOL    HW232895   1.017   0.976   6.455
10666SOL     OW32896   4.168   4.064   0.089
10666SOL    HW132897   4.078   4.026   0.064
10666SOL    HW232898   4.240   4.011   0.045
10667SOL     OW32899   4.167   1.792   5.369
10667SOL    HW132900   4.145   1.695   5.381
10667SOL    HW232901   4.136   1.843   5.449
10668SOL     OW32902   1.286   2.128   5.677
10668SOL    HW132903   1.218   2.178   5.623
10668SOL    HW232904   1.377   2.147   5.639
10669SOL     OW32905   0.319   6.813   0.675
10669SOL    HW132906   0.335   6.870   0.594
10669SOL    HW232907   0.228   6.770   0.668
10670SOL     OW32908   5.130   4.476   5.942
10670SOL    HW132909   5.190   4.520   5.874
10670SOL    HW232910   5.068   4.413   5.895
10671SOL     OW32911   2.135   3.408   2.907
10671SOL    HW132912   2.227   3.447   2.911
10671SOL    HW232913   2.067   3.480   2.916
10672SOL     OW32914   6.896   2.912   0.796
10672SOL    HW132915   6.930   2.849   0.866
10672SOL    HW232916   6.819   2.870   0.748
10673SOL     OW32917   2.709   2.674   5.846
10673SOL    HW132918   2.653   2.726   5.781
10673SOL    HW232919   2.649   2.622   5.907
10674SOL     OW32920   3.802   3.577   0.419
10674SOL    HW132921   3.754   3.610   0.501
10674SOL    HW232922   3.891   3.621   0.414
10675SOL     OW32923   0.778   0.755   5.485
10675SOL    HW132924   0.685   0.768   5.517
10675SOL    HW232925   0.839   0.818   5.533
10676SOL     OW32926   6.144   0.112   6.005
10676SOL    HW132927   6.168   0.163   5.922
10676SOL    HW232928   6.221   0.055   6.033
10677SOL     OW32929   0.882   0.695   2.151
10677SOL    HW132930   0.859   0.661   2.242
10677SOL    HW232931   0.971   0.741   2.154
10678SOL     OW32932   3.661   5.339   2.873
10678SOL    HW132933   3.716   5.360   2.954
10678SOL    HW232934   3.574   5.387   2.879
10679SOL     OW32935   5.533   5.544   4.991
10679SOL    HW132936   5.602   5.516   5.057
10679SOL    HW232937   5.490   5.629   5.022
10680SOL     OW32938   1.610   3.341   3.007
10680SOL    HW132939   1.577   3.421   2.957
10680SOL    HW232940   1.540   3.311   3.072
10681SOL     OW32941   6.445   4.059   6.849
10681SOL    HW132942   6.517   4.112   6.896
10681SOL    HW232943   6.355   4.092   6.879
10682SOL     OW32944   1.818   1.737   2.772
10682SOL    HW132945   1.883   1.667   2.743
10682SOL    HW232946   1.728   1.696   2.785
10683SOL     OW32947   2.569   2.557   3.979
10683SOL    HW132948   2.649   2.502   3.954
10683SOL    HW232949   2.552   2.547   4.077
10684SOL     OW32950   5.258   4.024   0.330
10684SOL    HW132951   5.309   3.939   0.344
10684SOL    HW232952   5.320   4.095   0.295
10685SOL     OW32953   0.814   4.023   2.871
10685SOL    HW132954   0.723   3.989   2.893
10685SOL    HW232955   0.807   4.104   2.814
10686SOL     OW32956   4.319   5.990   6.766
10686SOL    HW132957   4.305   6.082   6.728
10686SOL    HW232958   4.328   5.924   6.692
10687SOL     OW32959   0.089   5.255   2.095
10687SOL    HW132960   0.096   5.282   2.191
10687SOL    HW232961   0.178   5.223   2.063
10688SOL     OW32962   6.212   4.438   2.296
10688SOL    HW132963   6.165   4.409   2.213
10688SOL    HW232964   6.209   4.365   2.364
10689SOL     OW32965   6.841   6.852   3.025
10689SOL    HW132966   6.877   6.859   3.118
10689SOL    HW232967   6.915   6.865   2.959
10690SOL     OW32968   4.507   5.640   3.058
10690SOL    HW132969   4.577   5.627   3.128
10690SOL    HW232970   4.508   5.561   2.996
10691SOL     OW32971   6.558   1.238   1.776
10691SOL    HW132972   6.496   1.315   1.792
10691SOL    HW232973   6.547   1.170   1.848
10692SOL     OW32974   2.961   5.836   3.550
10692SOL    HW132975   2.973   5.806   3.644
10692SOL    HW232976   3.045   5.879   3.517
10693SOL     OW32977   1.282   1.304   1.115
10693SOL    HW132978   1.242   1.265   1.032
10693SOL    HW232979   1.305   1.231   1.179
10694SOL     OW32980   3.257   6.160   1.419
10694SOL    HW132981   3.336   6.220   1.430
10694SOL    HW232982   3.263   6.113   1.330
10695SOL     OW32983   6.658   2.585   4.042
10695SOL    HW132984   6.647   2.615   4.136
10695SOL    HW232985   6.719   2.648   3.994
10696SOL     OW32986   6.843   5.679   1.553
10696SOL    HW132987   6.830   5.595   1.501
10696SOL    HW232988   6.892   5.659   1.638
10697SOL     OW32989   0.308   6.339   3.538
10697SOL    HW132990   0.239   6.271   3.564
10697SOL    HW232991   0.299   6.420   3.596
10698SOL     OW32992   3.072   0.344   3.720
10698SOL    HW132993   3.170   0.331   3.735
10698SOL    HW232994   3.057   0.372   3.625
10699SOL     OW32995   4.549   1.454   2.968
10699SOL    HW132996   4.599   1.504   2.897
10699SOL    HW232997   4.584   1.361   2.974
10700SOL     OW32998   1.104   0.322   0.433
10700SOL    HW132999   1.123   0.262   0.356
10700SOL    HW233000   1.070   0.268   0.510
10701SOL     OW33001   4.551   6.109   6.503
10701SOL    HW133002   4.471   6.056   6.476
10701SOL    HW233003   4.634   6.055   6.487
10702SOL     OW33004   5.646   2.629   1.240
10702SOL    HW133005   5.646   2.530   1.222
10702SOL    HW233006   5.716   2.651   1.307
10703SOL     OW33007   3.716   3.780   3.059
10703SOL    HW133008   3.702   3.748   3.153
10703SOL    HW233009   3.652   3.734   2.998
10704SOL     OW33010   5.015   6.603   1.903
10704SOL    HW133011   5.020   6.625   2.000
10704SOL    HW233012   4.953   6.667   1.857
10705SOL     OW33013   1.419   3.575   6.562
10705SOL    HW133014   1.483   3.544   6.632
10705SOL    HW233015   1.446   3.667   6.532
10706SOL     OW33016   4.557   0.644   2.364
10706SOL    HW133017   4.465   0.681   2.354
10706SOL    HW233018   4.587   0.655   2.459
10707SOL     OW33019   0.007   6.748   5.972
10707SOL    HW133020   7.028   6.817   5.900
10707SOL    HW233021   7.022   6.657   5.932
10708SOL     OW33022   4.944   0.815   1.080
10708SOL    HW133023   4.911   0.785   1.169
10708SOL    HW233024   5.040   0.789   1.069
10709SOL     OW33025   6.349   0.646   5.480
10709SOL    HW133026   6.428   0.587   5.467
10709SOL    HW233027   6.365   0.734   5.436
10710SOL     OW33028   6.516   5.889   3.950
10710SOL    HW133029   6.423   5.912   3.979
10710SOL    HW233030   6.518   5.797   3.912
10711SOL     OW33031   2.147   0.149   3.963
10711SOL    HW133032   2.103   0.155   3.874
10711SOL    HW233033   2.125   0.230   4.017
10712SOL     OW33034   3.678   1.295   4.944
10712SOL    HW133035   3.759   1.247   4.977
10712SOL    HW233036   3.596   1.244   4.969
10713SOL     OW33037   2.072   5.531   2.195
10713SOL    HW133038   2.153   5.513   2.138
10713SOL    HW233039   2.016   5.601   2.152
10714SOL     OW33040   0.382   4.880   4.879
10714SOL    HW133041   0.322   4.883   4.799
10714SOL    HW233042   0.399   4.785   4.904
10715SOL     OW33043   4.785   1.892   4.214
10715SOL    HW133044   4.832   1.934   4.136
10715SOL    HW233045   4.797   1.793   4.211
10716SOL     OW33046   6.365   1.281   3.973
10716SOL    HW133047   6.452   1.256   4.015
10716SOL    HW233048   6.292   1.222   4.007
10717SOL     OW33049   0.418   1.301   1.259
10717SOL    HW133050   0.392   1.281   1.353
10717SOL    HW233051   0.503   1.254   1.237
10718SOL     OW33052   6.595   5.486   0.224
10718SOL    HW133053   6.651   5.490   0.306
10718SOL    HW233054   6.553   5.576   0.208
10719SOL     OW33055   5.114   0.902   2.428
10719SOL    HW133056   5.142   0.946   2.342
10719SOL    HW233057   5.176   0.825   2.447
10720SOL     OW33058   6.988   3.796   6.060
10720SOL    HW133059   0.007   3.850   6.129
10720SOL    HW233060   0.025   3.735   6.015
10721SOL     OW33061   6.507   2.116   4.482
10721SOL    HW133062   6.542   2.092   4.573
10721SOL    HW233063   6.429   2.057   4.461
10722SOL     OW33064   6.442   3.646   0.282
10722SOL    HW133065   6.495   3.675   0.202
10722SOL    HW233066   6.503   3.602   0.349
10723SOL     OW33067   5.204   4.113   6.924
10723SOL    HW133068   5.149   4.059   6.860
10723SOL    HW233069   5.281   4.058   6.955
10724SOL     OW33070   4.600   6.652   6.043
10724SOL    HW133071   4.558   6.701   6.120
10724SOL    HW233072   4.675   6.707   6.006
10725SOL     OW33073   0.597   6.336   4.046
10725SOL    HW133074   0.694   6.319   4.063
10725SOL    HW233075   0.561   6.267   3.982
10726SOL     OW33076   5.603   0.590   5.177
10726SOL    HW133077   5.575   0.549   5.090
10726SOL    HW233078   5.568   0.683   5.182
10727SOL     OW33079   2.507   4.911   5.121
10727SOL    HW133080   2.423   4.908   5.176
10727SOL    HW233081   2.535   4.818   5.098
10728SOL     OW33082   4.678   6.870   2.577
10728SOL    HW133083   4.610   6.903   2.512
10728SOL    HW233084   4.714   6.947   2.630
10729SOL     OW33085   6.001   2.584   2.956
10729SOL    HW133086   5.988   2.485   2.949
10729SOL    HW233087   5.956   2.618   3.038
10730SOL     OW33088   2.639   5.957   2.535
10730SOL    HW133089   2.692   6.021   2.480
10730SOL    HW233090   2.595   5.891   2.474
10731SOL     OW33091   3.330   5.259   0.418
10731SOL    HW133092   3.334   5.356   0.395
10731SOL    HW233093   3.422   5.221   0.417
10732SOL     OW33094   5.446   6.438   2.928
10732SOL    HW133095   5.387   6.367   2.890
10732SOL    HW233096   5.538   6.402   2.942
10733SOL     OW33097   5.762   1.121   0.109
10733SOL    HW133098   5.770   1.106   0.010
10733SOL    HW233099   5.691   1.189   0.126
10734SOL     OW33100   0.805   0.051   6.521
10734SOL    HW133101   0.786   0.058   6.619
10734SOL    HW233102   0.737   0.102   6.469
10735SOL     OW33103   0.858   5.429   2.207
10735SOL    HW133104   0.954   5.445   2.185
10735SOL    HW233105   0.821   5.509   2.254
10736SOL     OW33106   6.800   0.682   4.284
10736SOL    HW133107   6.780   0.616   4.357
10736SOL    HW233108   6.751   0.768   4.303
10737SOL     OW33109   0.073   1.977   1.101
10737SOL    HW133110   0.010   1.928   1.041
10737SOL    HW233111   0.140   2.026   1.045
10738SOL     OW33112   2.647   1.284   2.497
10738SOL    HW133113   2.631   1.341   2.417
10738SOL    HW233114   2.729   1.316   2.545
10739SOL     OW33115   6.312   2.066   2.868
10739SOL    HW133116   6.278   2.052   2.961
10739SOL    HW233117   6.236   2.088   2.807
10740SOL     OW33118   1.307   6.921   5.739
10740SOL    HW133119   1.346   6.921   5.647
10740SOL    HW233120   1.231   6.857   5.744
10741SOL     OW33121   1.537   2.698   3.145
10741SOL    HW133122   1.489   2.786   3.144
10741SOL    HW233123   1.635   2.713   3.135
10742SOL     OW33124   6.281   5.676   2.038
10742SOL    HW133125   6.296   5.636   1.947
10742SOL    HW233126   6.331   5.762   2.046
10743SOL     OW33127   3.530   1.408   5.357
10743SOL    HW133128   3.587   1.408   5.439
10743SOL    HW233129   3.485   1.497   5.347
10744SOL     OW33130   3.308   0.470   1.491
10744SOL    HW133131   3.293   0.449   1.394
10744SOL    HW233132   3.402   0.449   1.515
10745SOL     OW33133   1.958   4.637   0.799
10745SOL    HW133134   1.953   4.657   0.897
10745SOL    HW233135   1.990   4.543   0.785
10746SOL     OW33136   2.744   5.710   0.456
10746SOL    HW133137   2.716   5.662   0.539
10746SOL    HW233138   2.737   5.808   0.470
10747SOL     OW33139   5.740   2.580   4.339
10747SOL    HW133140   5.819   2.520   4.348
10747SOL    HW233141   5.722   2.626   4.427
10748SOL     OW33142   4.494   5.498   1.021
10748SOL    HW133143   4.576   5.502   0.964
10748SOL    HW233144   4.519   5.517   1.116
10749SOL     OW33145   5.820   4.645   3.489
10749SOL    HW133146   5.735   4.664   3.440
10749SOL    HW233147   5.887   4.716   3.469
10750SOL     OW33148   4.843   3.906   3.888
10750SOL    HW133149   4.822   3.993   3.932
10750SOL    HW233150   4.809   3.906   3.794
10751SOL     OW33151   1.327   3.552   4.995
10751SOL    HW133152   1.355   3.591   4.907
10751SOL    HW233153   1.247   3.601   5.029
10752SOL     OW33154   6.139   4.897   6.541
10752SOL    HW133155   6.230   4.896   6.501
10752SOL    HW233156   6.111   4.804   6.563
10753SOL     OW33157   4.172   6.287   4.574
10753SOL    HW133158   4.151   6.287   4.477
10753SOL    HW233159   4.270   6.275   4.587
10754SOL     OW33160   0.690   3.070   2.009
10754SOL    HW133161   0.780   3.113   2.003
10754SOL    HW233162   0.621   3.140   2.028
10755SOL     OW33163   6.793   1.999   1.943
10755SOL    HW133164   6.831   1.939   1.874
10755SOL    HW233165   6.863   2.062   1.976
10756SOL     OW33166   5.999   2.205   0.704
10756SOL    HW133167   6.030   2.239   0.793
10756SOL    HW233168   5.988   2.281   0.641
10757SOL     OW33169   6.720   3.797   0.281
10757SOL    HW133170   6.656   3.766   0.211
10757SOL    HW233171   6.792   3.728   0.293
10758SOL     OW33172   1.230   5.485   6.433
10758SOL    HW133173   1.263   5.579   6.426
10758SOL    HW233174   1.130   5.486   6.443
10759SOL     OW33175   1.351   2.315   6.256
10759SOL    HW133176   1.275   2.297   6.193
10759SOL    HW233177   1.370   2.233   6.310
10760SOL     OW33178   1.259   6.416   0.441
10760SOL    HW133179   1.329   6.382   0.503
10760SOL    HW233180   1.302   6.466   0.365
10761SOL     OW33181   0.938   2.268   6.293
10761SOL    HW133182   0.933   2.212   6.376
10761SOL    HW233183   1.014   2.238   6.237
10762SOL     OW33184   4.119   0.564   5.862
10762SOL    HW133185   4.107   0.553   5.764
10762SOL    HW233186   4.209   0.603   5.881
10763SOL     OW33187   5.830   0.921   2.806
10763SOL    HW133188   5.862   0.912   2.900
10763SOL    HW233189   5.837   0.833   2.759
10764SOL     OW33190   4.559   0.800   5.079
10764SOL    HW133191   4.626   0.729   5.101
10764SOL    HW233192   4.524   0.841   5.163
10765SOL     OW33193   5.737   2.051   2.533
10765SOL    HW133194   5.751   1.970   2.476
10765SOL    HW233195   5.640   2.075   2.534
10766SOL     OW33196   1.481   5.235   0.138
10766SOL    HW133197   1.390   5.203   0.112
10766SOL    HW233198   1.539   5.156   0.159
10767SOL     OW33199   2.016   6.494   0.378
10767SOL    HW133200   1.956   6.459   0.307
10767SOL    HW233201   1.994   6.590   0.396
10768SOL     OW33202   5.239   5.345   0.185
10768SOL    HW133203   5.156   5.291   0.201
10768SOL    HW233204   5.282   5.314   0.100
10769SOL     OW33205   2.656   4.119   5.488
10769SOL    HW133206   2.679   4.084   5.579
10769SOL    HW233207   2.571   4.076   5.457
10770SOL     OW33208   5.329   6.401   4.609
10770SOL    HW133209   5.367   6.443   4.527
10770SOL    HW233210   5.232   6.424   4.618
10771SOL     OW33211   4.563   0.304   5.293
10771SOL    HW133212   4.660   0.325   5.290
10771SOL    HW233213   4.515   0.361   5.226
10772SOL     OW33214   5.775   6.372   3.745
10772SOL    HW133215   5.701   6.341   3.686
10772SOL    HW233216   5.787   6.471   3.735
10773SOL     OW33217   6.685   4.296   0.430
10773SOL    HW133218   6.595   4.319   0.467
10773SOL    HW233219   6.676   4.220   0.365
10774SOL     OW33220   1.306   2.296   0.952
10774SOL    HW133221   1.344   2.334   1.036
10774SOL    HW233222   1.312   2.197   0.954
10775SOL     OW33223   1.648   4.550   0.700
10775SOL    HW133224   1.651   4.450   0.697
10775SOL    HW233225   1.738   4.586   0.724
10776SOL     OW33226   6.403   0.555   2.866
10776SOL    HW133227   6.303   0.561   2.857
10776SOL    HW233228   6.427   0.465   2.903
10777SOL     OW33229   2.820   0.858   3.774
10777SOL    HW133230   2.728   0.849   3.812
10777SOL    HW233231   2.887   0.842   3.847
10778SOL     OW33232   6.675   6.402   4.645
10778SOL    HW133233   6.670   6.483   4.704
10778SOL    HW233234   6.766   6.362   4.651
10779SOL     OW33235   5.517   4.540   3.409
10779SOL    HW133236   5.502   4.638   3.407
10779SOL    HW233237   5.430   4.492   3.421
10780SOL     OW33238   0.849   6.157   4.718
10780SOL    HW133239   0.855   6.152   4.618
10780SOL    HW233240   0.764   6.203   4.744
10781SOL     OW33241   6.177   1.866   5.218
10781SOL    HW133242   6.113   1.900   5.286
10781SOL    HW233243   6.156   1.908   5.129
10782SOL     OW33244   6.772   3.149   5.054
10782SOL    HW133245   6.675   3.141   5.075
10782SOL    HW233246   6.804   3.240   5.079
10783SOL     OW33247   1.435   2.429   2.290
10783SOL    HW133248   1.520   2.439   2.341
10783SOL    HW233249   1.374   2.367   2.339
10784SOL     OW33250   2.949   5.902   2.319
10784SOL    HW133251   2.895   5.922   2.237
10784SOL    HW233252   2.956   5.984   2.375
10785SOL     OW33253   1.372   5.166   1.614
10785SOL    HW133254   1.380   5.067   1.604
10785SOL    HW233255   1.285   5.197   1.575
10786SOL     OW33256   4.462   2.470   2.552
10786SOL    HW133257   4.376   2.507   2.587
10786SOL    HW233258   4.457   2.370   2.551
10787SOL     OW33259   3.542   1.670   4.214
10787SOL    HW133260   3.489   1.609   4.154
10787SOL    HW233261   3.604   1.725   4.158
10788SOL     OW33262   0.995   4.479   0.171
10788SOL    HW133263   0.910   4.430   0.151
10788SOL    HW233264   0.984   4.531   0.256
10789SOL     OW33265   6.396   1.149   0.365
10789SOL    HW133266   6.366   1.168   0.459
10789SOL    HW233267   6.449   1.064   0.364
10790SOL     OW33268   0.632   2.396   5.282
10790SOL    HW133269   0.645   2.449   5.198
10790SOL    HW233270   0.563   2.440   5.339
10791SOL     OW33271   2.127   1.881   2.303
10791SOL    HW133272   2.169   1.838   2.223
10791SOL    HW233273   2.150   1.828   2.385
10792SOL     OW33274   3.286   2.475   1.355
10792SOL    HW133275   3.229   2.502   1.432
10792SOL    HW233276   3.237   2.408   1.298
10793SOL     OW33277   5.048   1.615   4.790
10793SOL    HW133278   5.053   1.684   4.863
10793SOL    HW233279   5.100   1.648   4.711
10794SOL     OW33280   4.455   3.243   1.663
10794SOL    HW133281   4.483   3.155   1.702
10794SOL    HW233282   4.523   3.273   1.596
10795SOL     OW33283   6.980   3.990   2.194
10795SOL    HW133284   6.968   4.086   2.221
10795SOL    HW233285   0.023   3.984   2.125
10796SOL     OW33286   6.076   6.946   6.519
10796SOL    HW133287   6.134   7.001   6.579
10796SOL    HW233288   5.981   6.976   6.528
10797SOL     OW33289   3.613   2.665   0.533
10797SOL    HW133290   3.710   2.650   0.517
10797SOL    HW233291   3.601   2.716   0.618
10798SOL     OW33292   2.688   0.280   6.253
10798SOL    HW133293   2.747   0.360   6.262
10798SOL    HW233294   2.741   0.203   6.218
10799SOL     OW33295   3.290   1.781   2.681
10799SOL    HW133296   3.308   1.873   2.648
10799SOL    HW233297   3.218   1.783   2.750
10800SOL     OW33298   1.459   0.218   0.844
10800SOL    HW133299   1.464   0.120   0.825
10800SOL    HW233300   1.378   0.256   0.798
10801SOL     OW33301   2.196   6.258   5.496
10801SOL    HW133302   2.113   6.217   5.532
10801SOL    HW233303   2.179   6.292   5.403
10802SOL     OW33304   1.588   3.762   4.135
10802SOL    HW133305   1.649   3.834   4.169
10802SOL    HW233306   1.514   3.746   4.201
10803SOL     OW33307   5.564   4.785   5.170
10803SOL    HW133308   5.534   4.707   5.116
10803SOL    HW233309   5.626   4.755   5.242
10804SOL     OW33310   6.331   4.122   1.677
10804SOL    HW133311   6.298   4.213   1.705
10804SOL    HW233312   6.334   4.061   1.756
10805SOL     OW33313   4.146   6.553   0.846
10805SOL    HW133314   4.151   6.516   0.939
10805SOL    HW233315   4.094   6.638   0.846
10806SOL     OW33316   5.602   3.401   0.434
10806SOL    HW133317   5.532   3.338   0.467
10806SOL    HW233318   5.560   3.472   0.378
10807SOL     OW33319   3.536   6.199   3.740
10807SOL    HW133320   3.472   6.234   3.809
10807SOL    HW233321   3.500   6.219   3.649
10808SOL     OW33322   0.539   3.290   6.752
10808SOL    HW133323   0.632   3.322   6.771
10808SOL    HW233324   0.543   3.210   6.691
10809SOL     OW33325   3.162   1.587   4.517
10809SOL    HW133326   3.206   1.668   4.556
10809SOL    HW233327   3.069   1.610   4.488
10810SOL     OW33328   0.109   1.688   5.563
10810SOL    HW133329   0.139   1.675   5.469
10810SOL    HW233330   0.182   1.659   5.626
10811SOL     OW33331   4.337   5.502   5.273
10811SOL    HW133332   4.387   5.581   5.307
10811SOL    HW233333   4.398   5.443   5.220
10812SOL     OW33334   6.821   3.120   2.853
10812SOL    HW133335   6.893   3.069   2.900
10812SOL    HW233336   6.732   3.093   2.889
10813SOL     OW33337   2.717   5.814   1.980
10813SOL    HW133338   2.742   5.722   2.011
10813SOL    HW233339   2.800   5.862   1.949
10814SOL     OW33340   2.584   0.267   5.221
10814SOL    HW133341   2.492   0.243   5.192
10814SOL    HW233342   2.642   0.281   5.141
10815SOL     OW33343   5.482   4.156   2.811
10815SOL    HW133344   5.512   4.170   2.905
10815SOL    HW233345   5.539   4.087   2.768
10816SOL     OW33346   2.016   0.786   2.270
10816SOL    HW133347   2.098   0.772   2.214
10816SOL    HW233348   1.971   0.871   2.244
10817SOL     OW33349   5.380   0.330   2.501
10817SOL    HW133350   5.403   0.368   2.411
10817SOL    HW233351   5.354   0.403   2.563
10818SOL     OW33352   5.435   3.052   6.797
10818SOL    HW133353   5.468   2.958   6.802
10818SOL    HW233354   5.390   3.068   6.709
10819SOL     OW33355   0.382   4.415   6.331
10819SOL    HW133356   0.363   4.412   6.429
10819SOL    HW233357   0.296   4.415   6.280
10820SOL     OW33358   0.544   6.853   3.873
10820SOL    HW133359   0.607   6.880   3.946
10820SOL    HW233360   0.455   6.831   3.913
10821SOL     OW33361   0.138   6.914   1.404
10821SOL    HW133362   0.077   6.976   1.455
10821SOL    HW233363   0.133   6.935   1.307
10822SOL     OW33364   0.670   3.086   2.424
10822SOL    HW133365   0.601   3.089   2.495
10822SOL    HW233366   0.658   3.003   2.369
10823SOL     OW33367   2.739   6.018   1.466
10823SOL    HW133368   2.818   6.055   1.516
10823SOL    HW233369   2.751   5.920   1.453
10824SOL     OW33370   5.057   0.547   3.146
10824SOL    HW133371   5.077   0.457   3.185
10824SOL    HW233372   5.139   0.604   3.152
10825SOL     OW33373   2.867   1.263   1.107
10825SOL    HW133374   2.792   1.224   1.052
10825SOL    HW233375   2.955   1.237   1.066
10826SOL     OW33376   0.059   3.815   1.669
10826SOL    HW133377   7.020   3.851   1.605
10826SOL    HW233378   0.023   3.819   1.762
10827SOL     OW33379   0.028   3.644   4.326
10827SOL    HW133380   6.986   3.703   4.365
10827SOL    HW233381   0.020   3.552   4.365
10828SOL     OW33382   1.357   5.637   0.987
10828SOL    HW133383   1.393   5.708   1.047
10828SOL    HW233384   1.397   5.549   1.011
10829SOL     OW33385   2.875   3.798   1.743
10829SOL    HW133386   2.868   3.896   1.728
10829SOL    HW233387   2.946   3.780   1.811
10830SOL     OW33388   5.681   3.529   4.744
10830SOL    HW133389   5.728   3.615   4.764
10830SOL    HW233390   5.650   3.530   4.649
10831SOL     OW33391   5.023   1.117   2.563
10831SOL    HW133392   5.058   1.031   2.525
10831SOL    HW233393   5.078   1.193   2.530
10832SOL     OW33394   0.969   1.897   0.407
10832SOL    HW133395   0.892   1.962   0.411
10832SOL    HW233396   0.933   1.805   0.390
10833SOL     OW33397   2.583   0.703   4.396
10833SOL    HW133398   2.485   0.724   4.396
10833SOL    HW233399   2.630   0.762   4.462
10834SOL     OW33400   0.531   1.097   5.450
10834SOL    HW133401   0.567   1.179   5.495
10834SOL    HW233402   0.532   1.110   5.351
10835SOL     OW33403   6.119   1.853   2.566
10835SOL    HW133404   6.043   1.862   2.631
10835SOL    HW233405   6.144   1.943   2.531
10836SOL     OW33406   0.549   1.547   5.453
10836SOL    HW133407   0.471   1.588   5.501
10836SOL    HW233408   0.628   1.608   5.463
10837SOL     OW33409   6.743   4.459   0.187
10837SOL    HW133410   6.724   4.432   0.281
10837SOL    HW233411   6.787   4.549   0.187
10838SOL     OW33412   5.838   0.059   6.586
10838SOL    HW133413   5.750   0.014   6.604
10838SOL    HW233414   5.822   0.149   6.546
10839SOL     OW33415   2.717   1.677   7.022
10839SOL    HW133416   2.618   1.670   7.027
10839SOL    HW233417   2.742   1.757   6.969
10840SOL     OW33418   3.589   6.003   1.529
10840SOL    HW133419   3.624   5.912   1.508
10840SOL    HW233420   3.629   6.070   1.466
10841SOL     OW33421   4.110   6.100   6.102
10841SOL    HW133422   4.180   6.144   6.158
10841SOL    HW233423   4.031   6.077   6.158
10842SOL     OW33424   6.473   2.574   1.048
10842SOL    HW133425   6.491   2.604   0.954
10842SOL    HW233426   6.544   2.610   1.109
10843SOL     OW33427   1.395   1.542   2.090
10843SOL    HW133428   1.493   1.523   2.089
10843SOL    HW233429   1.344   1.456   2.094
10844SOL     OW33430   6.421   6.705   3.916
10844SOL    HW133431   6.368   6.668   3.840
10844SOL    HW233432   6.507   6.654   3.924
10845SOL     OW33433   1.005   1.124   1.482
10845SOL    HW133434   0.938   1.144   1.554
10845SOL    HW233435   1.089   1.089   1.524
10846SOL     OW33436   4.305   2.317   0.933
10846SOL    HW133437   4.299   2.340   1.030
10846SOL    HW233438   4.217   2.332   0.889
10847SOL     OW33439   3.151   1.969   5.983
10847SOL    HW133440   3.226   2.001   6.041
10847SOL    HW233441   3.164   2.003   5.890
10848SOL     OW33442   2.366   0.945   0.077
10848SOL    HW133443   2.314   1.022   0.115
10848SOL    HW233444   2.308   0.865   0.071
10849SOL     OW33445   2.892   5.051   4.188
10849SOL    HW133446   2.898   5.062   4.287
10849SOL    HW233447   2.869   4.956   4.166
10850SOL     OW33448   5.376   6.726   7.003
10850SOL    HW133449   5.459   6.684   6.968
10850SOL    HW233450   5.296   6.677   6.969
10851SOL     OW33451   2.536   2.552   6.018
10851SOL    HW133452   2.514   2.630   6.076
10851SOL    HW233453   2.457   2.528   5.962
10852SOL     OW33454   0.117   1.156   6.457
10852SOL    HW133455   0.034   1.168   6.511
10852SOL    HW233456   0.160   1.069   6.480
10853SOL     OW33457   2.807   1.914   4.903
10853SOL    HW133458   2.832   1.829   4.855
10853SOL    HW233459   2.740   1.964   4.848
10854SOL     OW33460   5.702   6.876   6.685
10854SOL    HW133461   5.603   6.888   6.692
10854SOL    HW233462   5.733   6.817   6.760
10855SOL     OW33463   1.884   6.160   2.570
10855SOL    HW133464   1.969   6.185   2.525
10855SOL    HW233465   1.861   6.065   2.549
10856SOL     OW33466   6.252   6.361   6.841
10856SOL    HW133467   6.217   6.284   6.788
10856SOL    HW233468   6.343   6.386   6.807
10857SOL     OW33469   6.035   2.554   3.682
10857SOL    HW133470   5.976   2.503   3.745
10857SOL    HW233471   6.028   2.652   3.701
10858SOL     OW33472   1.713   3.461   0.215
10858SOL    HW133473   1.682   3.553   0.242
10858SOL    HW233474   1.750   3.465   0.123
10859SOL     OW33475   1.059   4.380   3.327
10859SOL    HW133476   1.010   4.362   3.241
10859SOL    HW233477   1.035   4.310   3.394
10860SOL     OW33478   6.764   1.107   0.367
10860SOL    HW133479   6.671   1.070   0.372
10860SOL    HW233480   6.827   1.045   0.414
10861SOL     OW33481   2.934   2.594   1.694
10861SOL    HW133482   2.849   2.619   1.648
10861SOL    HW233483   2.915   2.571   1.789
10862SOL     OW33484   2.862   2.271   5.951
10862SOL    HW133485   2.960   2.293   5.951
10862SOL    HW233486   2.826   2.277   5.858
10863SOL     OW33487   2.320   0.332   3.181
10863SOL    HW133488   2.391   0.400   3.200
10863SOL    HW233489   2.268   0.360   3.101
10864SOL     OW33490   2.842   4.559   1.391
10864SOL    HW133491   2.835   4.529   1.295
10864SOL    HW233492   2.808   4.653   1.399
10865SOL     OW33493   5.508   2.888   3.601
10865SOL    HW133494   5.572   2.965   3.594
10865SOL    HW233495   5.444   2.904   3.676
10866SOL     OW33496   6.506   2.742   1.388
10866SOL    HW133497   6.602   2.754   1.364
10866SOL    HW233498   6.497   2.669   1.456
10867SOL     OW33499   2.658   2.579   0.417
10867SOL    HW133500   2.615   2.579   0.327
10867SOL    HW233501   2.594   2.617   0.484
10868SOL     OW33502   0.437   1.909   3.291
10868SOL    HW133503   0.347   1.953   3.297
10868SOL    HW233504   0.456   1.859   3.376
10869NA      NA33505   0.322   2.001   5.946
10870NA      NA33506   4.458   4.588   5.195
10871NA      NA33507   1.627   5.376   2.591
10872NA      NA33508   5.220   4.253   3.832
10873NA      NA33509   4.301   2.510   5.305
10874NA      NA33510   2.678   5.033   1.301
10875NA      NA33511   1.262   5.468   0.421
10876NA      NA33512   3.491   4.003   1.289
10877NA      NA33513   4.494   4.537   0.655
10878NA      NA33514   3.376   1.114   6.432
10879NA      NA33515   5.297   5.956   2.250
10880NA      NA33516   1.475   0.238   5.200
10881NA      NA33517   4.617   5.062   2.016
10882NA      NA33518   3.188   3.349   0.127
   7.02855   7.02855   7.02855
