Generated by trjconv : CNT in water t= 107.00000
33518
    1C        C    1   2.846   2.777   4.748
    1C        C    2   2.905   2.724   4.865
    1C        C    3   2.844   2.772   4.982
    1C        C    4   2.845   2.769   4.260
    1C        C    5   2.901   2.728   4.382
    1C        C    6   2.849   2.772   4.506
    1C        C    7   3.012   2.639   4.626
    1C        C    8   2.899   2.725   4.629
    1C        C    9   3.079   2.604   4.745
    1C        C   10   3.011   2.632   4.865
    1C        C   11   3.178   2.487   4.973
    1C        C   12   3.061   2.565   4.978
    1C        C   13   2.851   2.769   3.771
    1C        C   14   2.901   2.722   3.894
    1C        C   15   2.849   2.773   4.016
    1C        C   16   3.021   2.650   4.141
    1C        C   17   2.900   2.724   4.138
    1C        C   18   3.083   2.614   4.263
    1C        C   19   3.018   2.648   4.384
    1C        C   20   3.210   2.557   4.503
    1C        C   21   3.078   2.608   4.505
    1C        C   22   3.279   2.538   4.625
    1C        C   23   3.209   2.546   4.748
    1C        C   24   3.413   2.477   4.865
    1C        C   25   3.271   2.495   4.865
    1C        C   26   3.489   2.477   4.983
    1C        C   27   2.849   2.768   3.283
    1C        C   28   2.902   2.721   3.405
    1C        C   29   2.855   2.773   3.527
    1C        C   30   3.021   2.642   3.652
    1C        C   31   2.905   2.722   3.649
    1C        C   32   3.077   2.604   3.777
    1C        C   33   3.016   2.640   3.899
    1C        C   34   3.208   2.548   4.017
    1C        C   35   3.079   2.605   4.020
    1C        C   36   3.277   2.527   4.138
    1C        C   37   3.211   2.555   4.260
    1C        C   38   3.418   2.506   4.381
    1C        C   39   3.280   2.536   4.382
    1C        C   40   3.486   2.502   4.504
    1C        C   41   3.415   2.503   4.626
    1C        C   42   3.629   2.481   4.748
    1C        C   43   3.487   2.475   4.744
    1C        C   44   3.706   2.484   4.866
    1C        C   45   3.628   2.482   4.983
    1C        C   46   2.838   2.752   2.795
    1C        C   47   2.893   2.705   2.917
    1C        C   48   2.841   2.755   3.038
    1C        C   49   3.014   2.636   3.164
    1C        C   50   2.897   2.715   3.161
    1C        C   51   3.081   2.608   3.286
    1C        C   52   3.020   2.643   3.409
    1C        C   53   3.209   2.544   3.529
    1C        C   54   3.083   2.607   3.530
    1C        C   55   3.274   2.523   3.652
    1C        C   56   3.205   2.545   3.774
    1C        C   57   3.414   2.505   3.896
    1C        C   58   3.274   2.522   3.895
    1C        C   59   3.487   2.499   4.017
    1C        C   60   3.415   2.499   4.138
    1C        C   61   3.629   2.495   4.260
    1C        C   62   3.488   2.491   4.259
    1C        C   63   3.700   2.501   4.382
    1C        C   64   3.628   2.500   4.504
    1C        C   65   3.831   2.551   4.622
    1C        C   66   3.697   2.508   4.627
    1C        C   67   3.901   2.567   4.744
    1C        C   68   3.842   2.521   4.864
    1C        C   69   4.053   2.584   4.976
    1C        C   70   3.924   2.531   4.977
    1C        C   71   2.822   2.733   2.310
    1C        C   72   2.883   2.694   2.432
    1C        C   73   2.835   2.749   2.553
    1C        C   74   3.012   2.628   2.675
    1C        C   75   2.892   2.704   2.674
    1C        C   76   3.073   2.592   2.796
    1C        C   77   3.009   2.624   2.918
    1C        C   78   3.201   2.539   3.042
    1C        C   79   3.071   2.596   3.041
    1C        C   80   3.273   2.524   3.162
    1C        C   81   3.208   2.548   3.285
    1C        C   82   3.414   2.495   3.405
    1C        C   83   3.274   2.518   3.406
    1C        C   84   3.484   2.493   3.527
    1C        C   85   3.413   2.497   3.650
    1C        C   86   3.624   2.508   3.771
    1C        C   87   3.483   2.497   3.773
    1C        C   88   3.697   2.512   3.892
    1C        C   89   3.629   2.502   4.015
    1C        C   90   3.834   2.551   4.134
    1C        C   91   3.698   2.513   4.138
    1C        C   92   3.898   2.577   4.257
    1C        C   93   3.833   2.548   4.379
    1C        C   94   4.025   2.638   4.499
    1C        C   95   3.900   2.572   4.501
    1C        C   96   4.088   2.673   4.620
    1C        C   97   4.027   2.633   4.741
    1C        C   98   4.191   2.767   4.862
    1C        C   99   4.099   2.657   4.861
    1C        C  100   4.222   2.841   4.977
    1C        C  101   2.823   2.732   2.074
    1C        C  102   2.993   2.594   2.193
    1C        C  103   2.877   2.678   2.191
    1C        C  104   3.065   2.576   2.314
    1C        C  105   2.999   2.614   2.433
    1C        C  106   3.199   2.531   2.553
    1C        C  107   3.071   2.590   2.552
    1C        C  108   3.269   2.513   2.675
    1C        C  109   3.203   2.535   2.798
    1C        C  110   3.410   2.498   2.917
    1C        C  111   3.270   2.517   2.921
    1C        C  112   3.482   2.489   3.038
    1C        C  113   3.412   2.496   3.160
    1C        C  114   3.624   2.497   3.282
    1C        C  115   3.483   2.487   3.282
    1C        C  116   3.693   2.508   3.405
    1C        C  117   3.625   2.500   3.529
    1C        C  118   3.833   2.550   3.648
    1C        C  119   3.696   2.516   3.650
    1C        C  120   3.898   2.580   3.770
    1C        C  121   3.833   2.550   3.892
    1C        C  122   4.026   2.642   4.013
    1C        C  123   3.900   2.579   4.013
    1C        C  124   4.083   2.682   4.136
    1C        C  125   4.021   2.646   4.258
    1C        C  126   4.196   2.770   4.378
    1C        C  127   4.085   2.682   4.378
    1C        C  128   4.246   2.822   4.499
    1C        C  129   4.190   2.771   4.619
    1C        C  130   4.324   2.937   4.738
    1C        C  131   4.237   2.825   4.741
    1C        C  132   4.356   3.006   4.857
    1C        C  133   4.293   2.960   4.974
    1C        C  134   3.175   2.475   2.082
    1C        C  135   3.041   2.517   2.082
    1C        C  136   3.261   2.474   2.193
    1C        C  137   3.195   2.518   2.310
    1C        C  138   3.403   2.473   2.427
    1C        C  139   3.265   2.501   2.432
    1C        C  140   3.477   2.481   2.548
    1C        C  141   3.409   2.495   2.671
    1C        C  142   3.620   2.493   2.792
    1C        C  143   3.479   2.490   2.793
    1C        C  144   3.691   2.505   2.913
    1C        C  145   3.624   2.493   3.037
    1C        C  146   3.830   2.539   3.156
    1C        C  147   3.694   2.502   3.159
    1C        C  148   3.895   2.571   3.278
    1C        C  149   3.828   2.549   3.400
    1C        C  150   4.022   2.632   3.522
    1C        C  151   3.896   2.569   3.523
    1C        C  152   4.085   2.670   3.642
    1C        C  153   4.025   2.641   3.767
    1C        C  154   4.193   2.770   3.887
    1C        C  155   4.084   2.679   3.889
    1C        C  156   4.243   2.815   4.012
    1C        C  157   4.198   2.764   4.136
    1C        C  158   4.339   2.926   4.252
    1C        C  159   4.253   2.814   4.256
    1C        C  160   4.382   2.984   4.374
    1C        C  161   4.339   2.927   4.496
    1C        C  162   4.434   3.119   4.617
    1C        C  163   4.370   2.994   4.617
    1C        C  164   4.472   3.185   4.736
    1C        C  165   4.429   3.127   4.857
    1C        C  166   4.516   3.323   4.971
    1C        C  167   4.476   3.189   4.973
    1C        C  168   3.478   2.429   2.075
    1C        C  169   3.400   2.453   2.190
    1C        C  170   3.619   2.467   2.306
    1C        C  171   3.477   2.458   2.308
    1C        C  172   3.690   2.489   2.426
    1C        C  173   3.618   2.484   2.548
    1C        C  174   3.824   2.542   2.665
    1C        C  175   3.690   2.498   2.669
    1C        C  176   3.892   2.563   2.787
    1C        C  177   3.828   2.541   2.911
    1C        C  178   4.020   2.628   3.033
    1C        C  179   3.896   2.561   3.033
    1C        C  180   4.083   2.665   3.154
    1C        C  181   4.023   2.631   3.277
    1C        C  182   4.192   2.758   3.398
    1C        C  183   4.082   2.669   3.399
    1C        C  184   4.242   2.809   3.520
    1C        C  185   4.198   2.755   3.643
    1C        C  186   4.338   2.918   3.764
    1C        C  187   4.250   2.807   3.764
    1C        C  188   4.379   2.978   3.885
    1C        C  189   4.335   2.922   4.007
    1C        C  190   4.445   3.105   4.127
    1C        C  191   4.376   2.982   4.128
    1C        C  192   4.472   3.173   4.248
    1C        C  193   4.443   3.111   4.372
    1C        C  194   4.500   3.317   4.492
    1C        C  195   4.465   3.180   4.493
    1C        C  196   4.524   3.389   4.611
    1C        C  197   4.517   3.319   4.734
    1C        C  198   4.560   3.536   4.851
    1C        C  199   4.538   3.395   4.853
    1C        C  200   4.587   3.618   4.965
    1C        C  201   3.618   2.420   2.069
    1C        C  202   3.825   2.512   2.179
    1C        C  203   3.693   2.456   2.185
    1C        C  204   3.895   2.543   2.299
    1C        C  205   3.825   2.530   2.421
    1C        C  206   4.018   2.622   2.542
    1C        C  207   3.890   2.562   2.542
    1C        C  208   4.077   2.661   2.664
    1C        C  209   4.021   2.623   2.788
    1C        C  210   4.191   2.749   2.908
    1C        C  211   4.082   2.660   2.910
    1C        C  212   4.243   2.801   3.029
    1C        C  213   4.196   2.750   3.152
    1C        C  214   4.336   2.909   3.269
    1C        C  215   4.246   2.800   3.274
    1C        C  216   4.370   2.970   3.392
    1C        C  217   4.333   2.917   3.518
    1C        C  218   4.434   3.104   3.638
    1C        C  219   4.373   2.976   3.640
    1C        C  220   4.459   3.172   3.759
    1C        C  221   4.443   3.104   3.882
    1C        C  222   4.505   3.307   4.003
    1C        C  223   4.472   3.170   4.004
    1C        C  224   4.513   3.379   4.125
    1C        C  225   4.505   3.310   4.248
    1C        C  226   4.520   3.525   4.367
    1C        C  227   4.515   3.383   4.368
    1C        C  228   4.518   3.599   4.487
    1C        C  229   4.532   3.530   4.609
    1C        C  230   4.509   3.745   4.730
    1C        C  231   4.538   3.605   4.728
    1C        C  232   4.500   3.821   4.848
    1C        C  233   4.545   3.752   4.961
    1C        C  234   4.015   2.615   2.061
    1C        C  235   3.895   2.544   2.063
    1C        C  236   4.082   2.651   2.179
    1C        C  237   4.023   2.607   2.299
    1C        C  238   4.200   2.731   2.419
    1C        C  239   4.083   2.649   2.420
    1C        C  240   4.248   2.787   2.540
    1C        C  241   4.189   2.748   2.663
    1C        C  242   4.329   2.908   2.782
    1C        C  243   4.241   2.798   2.784
    1C        C  244   4.371   2.966   2.903
    1C        C  245   4.331   2.911   3.027
    1C        C  246   4.441   3.094   3.149
    1C        C  247   4.379   2.967   3.147
    1C        C  248   4.462   3.161   3.271
    1C        C  249   4.433   3.096   3.394
    1C        C  250   4.501   3.301   3.513
    1C        C  251   4.461   3.165   3.514
    1C        C  252   4.513   3.374   3.633
    1C        C  253   4.501   3.307   3.757
    1C        C  254   4.525   3.515   3.878
    1C        C  255   4.521   3.374   3.880
    1C        C  256   4.524   3.588   3.999
    1C        C  257   4.525   3.519   4.122
    1C        C  258   4.487   3.731   4.240
    1C        C  259   4.513   3.592   4.242
    1C        C  260   4.477   3.803   4.361
    1C        C  261   4.492   3.738   4.485
    1C        C  262   4.425   3.939   4.604
    1C        C  263   4.479   3.808   4.607
    1C        C  264   4.400   4.010   4.723
    1C        C  265   4.438   3.948   4.844
    1C        C  266   4.325   4.131   4.958
    1C        C  267   4.392   4.009   4.962
    1C        C  268   4.262   2.775   2.062
    1C        C  269   4.195   2.736   2.178
    1C        C  270   4.346   2.890   2.296
    1C        C  271   4.249   2.786   2.299
    1C        C  272   4.376   2.955   2.417
    1C        C  273   4.332   2.900   2.539
    1C        C  274   4.441   3.086   2.657
    1C        C  275   4.375   2.961   2.659
    1C        C  276   4.471   3.150   2.779
    1C        C  277   4.442   3.089   2.903
    1C        C  278   4.507   3.291   3.022
    1C        C  279   4.469   3.155   3.024
    1C        C  280   4.515   3.363   3.144
    1C        C  281   4.503   3.296   3.268
    1C        C  282   4.520   3.508   3.389
    1C        C  283   4.518   3.367   3.389
    1C        C  284   4.517   3.583   3.509
    1C        C  285   4.518   3.515   3.633
    1C        C  286   4.494   3.724   3.754
    1C        C  287   4.517   3.585   3.756
    1C        C  288   4.471   3.793   3.875
    1C        C  289   4.493   3.726   3.998
    1C        C  290   4.429   3.933   4.116
    1C        C  291   4.475   3.800   4.118
    1C        C  292   4.398   3.998   4.238
    1C        C  293   4.427   3.935   4.361
    1C        C  294   4.327   4.127   4.478
    1C        C  295   4.394   4.002   4.481
    1C        C  296   4.287   4.189   4.598
    1C        C  297   4.326   4.131   4.721
    1C        C  298   4.198   4.310   4.836
    1C        C  299   4.286   4.197   4.841
    1C        C  300   4.165   4.395   4.946
    1C        C  301   4.349   2.884   2.060
    1C        C  302   4.477   3.065   2.177
    1C        C  303   4.398   2.945   2.176
    1C        C  304   4.487   3.140   2.297
    1C        C  305   4.443   3.080   2.417
    1C        C  306   4.511   3.287   2.535
    1C        C  307   4.472   3.151   2.535
    1C        C  308   4.518   3.357   2.657
    1C        C  309   4.507   3.287   2.779
    1C        C  310   4.529   3.500   2.902
    1C        C  311   4.523   3.359   2.900
    1C        C  312   4.524   3.574   3.023
    1C        C  313   4.524   3.504   3.145
    1C        C  314   4.493   3.716   3.264
    1C        C  315   4.519   3.577   3.266
    1C        C  316   4.480   3.788   3.385
    1C        C  317   4.500   3.723   3.508
    1C        C  318   4.423   3.921   3.626
    1C        C  319   4.478   3.791   3.630
    1C        C  320   4.394   3.986   3.748
    1C        C  321   4.426   3.926   3.872
    1C        C  322   4.314   4.108   3.992
    1C        C  323   4.396   3.994   3.993
    1C        C  324   4.271   4.168   4.113
    1C        C  325   4.324   4.118   4.234
    1C        C  326   4.185   4.280   4.354
    1C        C  327   4.284   4.179   4.355
    1C        C  328   4.139   4.341   4.473
    1C        C  329   4.194   4.296   4.594
    1C        C  330   4.026   4.435   4.712
    1C        C  331   4.139   4.348   4.713
    1C        C  332   3.967   4.487   4.830
    1C        C  333   4.052   4.477   4.941
    1C        C  334   4.549   3.265   2.061
    1C        C  335   4.533   3.126   2.060
    1C        C  336   4.541   3.349   2.172
    1C        C  337   4.520   3.279   2.293
    1C        C  338   4.528   3.496   2.412
    1C        C  339   4.526   3.355   2.411
    1C        C  340   4.524   3.567   2.534
    1C        C  341   4.528   3.498   2.657
    1C        C  342   4.501   3.709   2.773
    1C        C  343   4.523   3.569   2.779
    1C        C  344   4.477   3.779   2.893
    1C        C  345   4.494   3.712   3.017
    1C        C  346   4.421   3.910   3.140
    1C        C  347   4.477   3.780   3.139
    1C        C  348   4.388   3.979   3.259
    1C        C  349   4.422   3.917   3.381
    1C        C  350   4.315   4.101   3.503
    1C        C  351   4.390   3.981   3.503
    1C        C  352   4.275   4.161   3.624
    1C        C  353   4.320   4.106   3.746
    1C        C  354   4.173   4.262   3.865
    1C        C  355   4.271   4.161   3.867
    1C        C  356   4.121   4.314   3.986
    1C        C  357   4.176   4.272   4.109
    1C        C  358   4.011   4.401   4.231
    1C        C  359   4.129   4.324   4.232
    1C        C  360   3.950   4.446   4.351
    1C        C  361   4.019   4.415   4.470
    1C        C  362   3.830   4.517   4.593
    1C        C  363   3.959   4.460   4.590
    1C        C  364   3.762   4.549   4.712
    1C        C  365   3.837   4.541   4.832
    1C        C  366   3.628   4.590   4.948
    1C        C  367   3.766   4.574   4.948
    1C        C  368   4.508   3.564   2.053
    1C        C  369   4.523   3.489   2.171
    1C        C  370   4.508   3.706   2.287
    1C        C  371   4.525   3.566   2.289
    1C        C  372   4.490   3.776   2.409
    1C        C  373   4.506   3.707   2.531
    1C        C  374   4.424   3.906   2.650
    1C        C  375   4.484   3.778   2.651
    1C        C  376   4.389   3.968   2.772
    1C        C  377   4.424   3.910   2.896
    1C        C  378   4.315   4.093   3.012
    1C        C  379   4.391   3.974   3.018
    1C        C  380   4.269   4.149   3.134
    1C        C  381   4.317   4.101   3.258
    1C        C  382   4.172   4.256   3.380
    1C        C  383   4.274   4.157   3.380
    1C        C  384   4.119   4.308   3.500
    1C        C  385   4.177   4.263   3.621
    1C        C  386   4.003   4.387   3.742
    1C        C  387   4.120   4.308   3.743
    1C        C  388   3.942   4.428   3.863
    1C        C  389   4.007   4.398   3.984
    1C        C  390   3.819   4.488   4.108
    1C        C  391   3.947   4.430   4.108
    1C        C  392   3.753   4.521   4.229
    1C        C  393   3.824   4.509   4.350
    1C        C  394   3.617   4.548   4.476
    1C        C  395   3.758   4.534   4.473
    1C        C  396   3.546   4.562   4.597
    1C        C  397   3.622   4.571   4.715
    1C        C  398   3.408   4.556   4.839
    1C        C  399   3.547   4.580   4.834
    1C        C  400   3.343   4.516   4.957
    1C        C  401   4.504   3.703   2.051
    1C        C  402   4.454   3.915   2.165
    1C        C  403   4.492   3.779   2.167
    1C        C  404   4.416   3.977   2.286
    1C        C  405   4.437   3.907   2.407
    1C        C  406   4.325   4.091   2.524
    1C        C  407   4.397   3.970   2.527
    1C        C  408   4.275   4.146   2.645
    1C        C  409   4.314   4.088   2.768
    1C        C  410   4.173   4.248   2.888
    1C        C  411   4.274   4.148   2.889
    1C        C  412   4.122   4.296   3.011
    1C        C  413   4.172   4.252   3.135
    1C        C  414   4.001   4.378   3.251
    1C        C  415   4.119   4.299   3.257
    1C        C  416   3.941   4.413   3.374
    1C        C  417   3.999   4.383   3.499
    1C        C  418   3.809   4.477   3.619
    1C        C  419   3.938   4.421   3.621
    1C        C  420   3.747   4.507   3.742
    1C        C  421   3.813   4.486   3.865
    1C        C  422   3.609   4.537   3.987
    1C        C  423   3.747   4.506   3.988
    1C        C  424   3.541   4.543   4.111
    1C        C  425   3.614   4.543   4.232
    1C        C  426   3.402   4.549   4.357
    1C        C  427   3.544   4.549   4.355
    1C        C  428   3.330   4.551   4.478
    1C        C  429   3.405   4.558   4.598
    1C        C  430   3.195   4.517   4.722
    1C        C  431   3.333   4.549   4.720
    1C        C  432   3.127   4.496   4.845
    1C        C  433   3.206   4.498   4.961
    1C        C  434   4.377   4.119   2.045
    1C        C  435   4.445   3.997   2.052
    1C        C  436   4.304   4.159   2.161
    1C        C  437   4.339   4.097   2.284
    1C        C  438   4.182   4.249   2.400
    1C        C  439   4.284   4.151   2.403
    1C        C  440   4.126   4.293   2.521
    1C        C  441   4.176   4.246   2.645
    1C        C  442   4.004   4.373   2.765
    1C        C  443   4.123   4.297   2.766
    1C        C  444   3.943   4.407   2.887
    1C        C  445   4.007   4.377   3.009
    1C        C  446   3.810   4.466   3.131
    1C        C  447   3.941   4.414   3.129
    1C        C  448   3.745   4.493   3.253
    1C        C  449   3.813   4.472   3.375
    1C        C  450   3.607   4.532   3.496
    1C        C  451   3.745   4.502   3.495
    1C        C  452   3.538   4.540   3.619
    1C        C  453   3.609   4.538   3.741
    1C        C  454   3.400   4.542   3.866
    1C        C  455   3.541   4.550   3.864
    1C        C  456   3.332   4.533   3.990
    1C        C  457   3.400   4.541   4.114
    1C        C  458   3.193   4.503   4.238
    1C        C  459   3.330   4.536   4.236
    1C        C  460   3.124   4.490   4.360
    1C        C  461   3.192   4.522   4.480
    1C        C  462   2.994   4.440   4.604
    1C        C  463   3.124   4.497   4.601
    1C        C  464   2.935   4.399   4.725
    1C        C  465   2.994   4.443   4.846
    1C        C  466   2.800   4.341   4.960
    1C        C  467   2.904   4.436   4.957
    1C        C  468   4.123   4.285   2.042
    1C        C  469   4.193   4.249   2.158
    1C        C  470   4.009   4.369   2.279
    1C        C  471   4.132   4.298   2.277
    1C        C  472   3.943   4.403   2.399
    1C        C  473   4.009   4.373   2.520
    1C        C  474   3.816   4.463   2.643
    1C        C  475   3.946   4.409   2.641
    1C        C  476   3.748   4.489   2.764
    1C        C  477   3.811   4.459   2.886
    1C        C  478   3.605   4.516   3.009
    1C        C  479   3.743   4.484   3.008
    1C        C  480   3.537   4.534   3.131
    1C        C  481   3.608   4.528   3.253
    1C        C  482   3.394   4.532   3.376
    1C        C  483   3.535   4.534   3.374
    1C        C  484   3.324   4.533   3.498
    1C        C  485   3.396   4.542   3.619
    1C        C  486   3.193   4.502   3.746
    1C        C  487   3.330   4.536   3.744
    1C        C  488   3.130   4.477   3.870
    1C        C  489   3.195   4.498   3.994
    1C        C  490   3.002   4.413   4.118
    1C        C  491   3.126   4.481   4.115
    1C        C  492   2.939   4.383   4.241
    1C        C  493   3.001   4.421   4.362
    1C        C  494   2.828   4.301   4.486
    1C        C  495   2.938   4.389   4.485
    1C        C  496   2.772   4.256   4.608
    1C        C  497   2.822   4.311   4.728
    1C        C  498   2.664   4.166   4.847
    1C        C  499   2.754   4.274   4.846
    1C        C  500   2.594   4.121   4.960
    1C        C  501   4.005   4.359   2.040
    1C        C  502   3.816   4.463   2.155
    1C        C  503   3.943   4.401   2.158
    1C        C  504   3.748   4.486   2.276
    1C        C  505   3.814   4.460   2.399
    1C        C  506   3.609   4.513   2.521
    1C        C  507   3.746   4.480   2.521
    1C        C  508   3.536   4.526   2.642
    1C        C  509   3.610   4.519   2.762
    1C        C  510   3.398   4.528   2.884
    1C        C  511   3.540   4.526   2.884
    1C        C  512   3.325   4.524   3.005
    1C        C  513   3.395   4.537   3.127
    1C        C  514   3.191   4.491   3.254
    1C        C  515   3.328   4.528   3.251
    1C        C  516   3.122   4.474   3.376
    1C        C  517   3.186   4.500   3.499
    1C        C  518   3.002   4.408   3.629
    1C        C  519   3.124   4.479   3.624
    1C        C  520   2.946   4.367   3.752
    1C        C  521   3.006   4.409   3.872
    1C        C  522   2.835   4.284   3.997
    1C        C  523   2.947   4.371   3.995
    1C        C  524   2.786   4.237   4.121
    1C        C  525   2.835   4.288   4.243
    1C        C  526   2.698   4.130   4.366
    1C        C  527   2.779   4.246   4.366
    1C        C  528   2.649   4.080   4.489
    1C        C  529   2.684   4.146   4.609
    1C        C  530   2.576   3.963   4.732
    1C        C  531   2.638   4.091   4.731
    1C        C  532   2.543   3.900   4.856
    1C        C  533   2.530   3.997   4.960
    1C        C  534   3.619   4.555   2.036
    1C        C  535   3.753   4.516   2.042
    1C        C  536   3.539   4.532   2.153
    1C        C  537   3.609   4.515   2.276
    1C        C  538   3.398   4.521   2.398
    1C        C  539   3.539   4.521   2.399
    1C        C  540   3.323   4.516   2.518
    1C        C  541   3.395   4.523   2.640
    1C        C  542   3.189   4.489   2.767
    1C        C  543   3.326   4.523   2.763
    1C        C  544   3.122   4.466   2.890
    1C        C  545   3.188   4.491   3.012
    1C        C  546   2.998   4.398   3.136
    1C        C  547   3.121   4.467   3.134
    1C        C  548   2.942   4.363   3.261
    1C        C  549   2.997   4.409   3.383
    1C        C  550   2.836   4.275   3.506
    1C        C  551   2.941   4.369   3.507
    1C        C  552   2.782   4.230   3.629
    1C        C  553   2.832   4.283   3.750
    1C        C  554   2.699   4.123   3.875
    1C        C  555   2.786   4.234   3.874
    1C        C  556   2.657   4.068   3.998
    1C        C  557   2.700   4.125   4.120
    1C        C  558   2.599   3.942   4.248
    1C        C  559   2.663   4.068   4.244
    1C        C  560   2.567   3.880   4.371
    1C        C  561   2.587   3.953   4.491
    1C        C  562   2.532   3.751   4.615
    1C        C  563   2.556   3.890   4.613
    1C        C  564   2.517   3.683   4.738
    1C        C  565   2.518   3.759   4.858
    1C        C  566   2.539   3.548   4.977
    1C        C  567   2.531   3.687   4.977
    1C        C  568   3.325   4.484   2.042
    1C        C  569   3.399   4.509   2.158
    1C        C  570   3.186   4.473   2.279
    1C        C  571   3.324   4.507   2.279
    1C        C  572   3.119   4.452   2.402
    1C        C  573   3.187   4.478   2.523
    1C        C  574   2.994   4.399   2.648
    1C        C  575   3.122   4.458   2.646
    1C        C  576   2.935   4.359   2.770
    1C        C  577   2.997   4.401   2.890
    1C        C  578   2.828   4.276   3.016
    1C        C  579   2.936   4.366   3.013
    1C        C  580   2.783   4.220   3.138
    1C        C  581   2.836   4.270   3.259
    1C        C  582   2.697   4.116   3.384
    1C        C  583   2.788   4.224   3.384
    1C        C  584   2.655   4.060   3.507
    1C        C  585   2.693   4.121   3.629
    1C        C  586   2.593   3.938   3.757
    1C        C  587   2.661   4.062   3.754
    1C        C  588   2.568   3.872   3.880
    1C        C  589   2.596   3.940   4.001
    1C        C  590   2.534   3.742   4.128
    1C        C  591   2.572   3.878   4.125
    1C        C  592   2.520   3.674   4.251
    1C        C  593   2.530   3.744   4.373
    1C        C  594   2.512   3.534   4.498
    1C        C  595   2.522   3.675   4.496
    1C        C  596   2.517   3.465   4.621
    1C        C  597   2.515   3.541   4.740
    1C        C  598   2.541   3.329   4.863
    1C        C  599   2.534   3.470   4.861
    1C        C  600   2.528   3.251   4.978
    1C        C  601   3.193   4.445   2.043
    1C        C  602   2.982   4.392   2.159
    1C        C  603   3.115   4.447   2.159
    1C        C  604   2.927   4.356   2.285
    1C        C  605   2.992   4.391   2.405
    1C        C  606   2.820   4.272   2.529
    1C        C  607   2.928   4.362   2.528
    1C        C  608   2.769   4.225   2.652
    1C        C  609   2.824   4.272   2.773
    1C        C  610   2.687   4.112   2.897
    1C        C  611   2.774   4.223   2.896
    1C        C  612   2.656   4.050   3.020
    1C        C  613   2.696   4.109   3.141
    1C        C  614   2.593   3.926   3.267
    1C        C  615   2.658   4.052   3.265
    1C        C  616   2.568   3.866   3.392
    1C        C  617   2.595   3.932   3.514
    1C        C  618   2.526   3.734   3.639
    1C        C  619   2.565   3.870   3.637
    1C        C  620   2.515   3.667   3.763
    1C        C  621   2.530   3.736   3.885
    1C        C  622   2.516   3.528   4.010
    1C        C  623   2.517   3.669   4.008
    1C        C  624   2.517   3.459   4.133
    1C        C  625   2.514   3.533   4.253
    1C        C  626   2.538   3.324   4.380
    1C        C  627   2.515   3.463   4.376
    1C        C  628   2.555   3.253   4.502
    1C        C  629   2.539   3.326   4.622
    1C        C  630   2.594   3.118   4.744
    1C        C  631   2.551   3.254   4.743
    1C        C  632   2.610   3.050   4.868
    1C        C  633   2.559   3.114   4.985
    1C        C  634   2.787   4.305   2.057
    1C        C  635   2.896   4.392   2.045
    1C        C  636   2.746   4.233   2.170
    1C        C  637   2.811   4.274   2.289
    1C        C  638   2.674   4.111   2.409
    1C        C  639   2.762   4.221   2.410
    1C        C  640   2.639   4.052   2.533
    1C        C  641   2.684   4.111   2.653
    1C        C  642   2.587   3.924   2.777
    1C        C  643   2.648   4.051   2.775
    1C        C  644   2.556   3.860   2.899
    1C        C  645   2.591   3.925   3.020
    1C        C  646   2.523   3.728   3.150
    1C        C  647   2.563   3.863   3.144
    1C        C  648   2.513   3.658   3.272
    1C        C  649   2.524   3.732   3.392
    1C        C  650   2.516   3.523   3.517
    1C        C  651   2.513   3.665   3.516
    1C        C  652   2.517   3.456   3.641
    1C        C  653   2.513   3.525   3.764
    1C        C  654   2.540   3.317   3.891
    1C        C  655   2.519   3.457   3.888
    1C        C  656   2.552   3.250   4.015
    1C        C  657   2.535   3.319   4.137
    1C        C  658   2.613   3.123   4.260
    1C        C  659   2.555   3.252   4.260
    1C        C  660   2.638   3.055   4.381
    1C        C  661   2.600   3.120   4.501
    1C        C  662   2.709   2.938   4.626
    1C        C  663   2.628   3.053   4.623
    1C        C  664   2.750   2.882   4.749
    1C        C  665   2.693   2.934   4.869
    1C        C  666   2.744   2.869   4.982
    1C        C  667   2.680   4.021   2.056
    1C        C  668   2.684   4.106   2.167
    1C        C  669   2.582   3.917   2.292
    1C        C  670   2.639   4.047   2.288
    1C        C  671   2.553   3.853   2.414
    1C        C  672   2.582   3.923   2.533
    1C        C  673   2.518   3.721   2.661
    1C        C  674   2.557   3.857   2.656
    1C        C  675   2.505   3.652   2.783
    1C        C  676   2.517   3.725   2.903
    1C        C  677   2.510   3.517   3.031
    1C        C  678   2.507   3.658   3.028
    1C        C  679   2.513   3.445   3.152
    1C        C  680   2.507   3.517   3.274
    1C        C  681   2.532   3.308   3.404
    1C        C  682   2.511   3.448   3.397
    1C        C  683   2.557   3.243   3.527
    1C        C  684   2.543   3.317   3.647
    1C        C  685   2.612   3.117   3.773
    1C        C  686   2.566   3.250   3.769
    1C        C  687   2.644   3.055   3.896
    1C        C  688   2.608   3.121   4.016
    1C        C  689   2.714   2.936   4.141
    1C        C  690   2.639   3.056   4.138
    1C        C  691   2.750   2.874   4.262
    1C        C  692   2.712   2.935   4.384
    1C        C  693   2.755   2.878   4.506
    1C        C  694   2.629   3.891   2.058
    1C        C  695   2.528   3.704   2.176
    1C        C  696   2.573   3.838   2.175
    1C        C  697   2.506   3.641   2.300
    1C        C  698   2.513   3.718   2.418
    1C        C  699   2.491   3.509   2.543
    1C        C  700   2.499   3.650   2.541
    1C        C  701   2.505   3.438   2.665
    1C        C  702   2.500   3.510   2.786
    1C        C  703   2.529   3.304   2.913
    1C        C  704   2.510   3.444   2.910
    1C        C  705   2.549   3.235   3.035
    1C        C  706   2.537   3.305   3.157
    1C        C  707   2.602   3.109   3.279
    1C        C  708   2.554   3.242   3.281
    1C        C  709   2.637   3.051   3.403
    1C        C  710   2.614   3.114   3.527
    1C        C  711   2.718   2.932   3.649
    1C        C  712   2.644   3.053   3.651
    1C        C  713   2.765   2.881   3.772
    1C        C  714   2.721   2.937   3.894
    1C        C  715   2.757   2.880   4.019
    1C        C  716   2.454   3.503   2.061
    1C        C  717   2.490   3.638   2.058
    1C        C  718   2.470   3.425   2.180
    1C        C  719   2.486   3.500   2.301
    1C        C  720   2.517   3.293   2.424
    1C        C  721   2.488   3.432   2.424
    1C        C  722   2.538   3.226   2.546
    1C        C  723   2.530   3.299   2.666
    1C        C  724   2.595   3.103   2.791
    1C        C  725   2.544   3.234   2.791
    1C        C  726   2.631   3.040   2.913
    1C        C  727   2.600   3.103   3.035
    1C        C  728   2.711   2.925   3.158
    1C        C  729   2.631   3.041   3.158
    1C        C  730   2.756   2.875   3.282
    1C        C  731   2.716   2.934   3.403
    1C        C  732   2.758   2.877   3.525
    1C        C  733   2.490   3.196   2.073
    1C        C  734   2.493   3.284   2.182
    1C        C  735   2.589   3.091   2.305
    1C        C  736   2.534   3.222   2.303
    1C        C  737   2.615   3.025   2.427
    1C        C  738   2.590   3.094   2.548
    1C        C  739   2.703   2.917   2.671
    1C        C  740   2.628   3.036   2.671
    1C        C  741   2.747   2.860   2.793
    1C        C  742   2.704   2.919   2.914
    1C        C  743   2.752   2.865   3.036
    1C        C  744   2.541   3.067   2.075
    1C        C  745   2.691   2.901   2.190
    1C        C  746   2.610   3.017   2.186
    1C        C  747   2.727   2.838   2.311
    1C        C  748   2.688   2.904   2.430
    1C        C  749   2.742   2.855   2.551
    1C        C  750   2.739   2.842   2.072
    1C        C  751   3.661   2.317   1.972
    1C        O  752   3.642   2.195   1.995
    1C        O  753   3.685   2.336   1.835
    1C        C  754   4.609   3.048   1.961
    1C        O  755   4.559   3.025   1.847
    1C        O  756   4.743   3.010   1.978
    1C        C  757   4.432   4.223   1.955
    1C        O  758   4.554   4.255   1.954
    1C        O  759   4.391   4.246   1.823
    1C        C  760   3.604   4.682   1.961
    1C        O  761   3.586   4.791   2.021
    1C        O  762   3.596   4.687   1.821
    1C        C  763   2.862   4.522   1.983
    1C        O  764   2.881   4.548   1.861
    1C        O  765   2.755   4.601   2.026
    1C        C  766   2.347   3.490   1.959
    1C        O  767   2.382   3.448   1.846
    1C        O  768   2.217   3.443   1.983
    1C        C  769   4.704   3.593   5.052
    1C        O  770   4.697   3.589   5.177
    1C        O  771   4.829   3.612   4.990
    1C        C  772   4.265   4.459   5.036
    1C        O  773   4.261   4.457   5.162
    1C        O  774   4.400   4.482   5.006
    1C        C  775   4.147   2.525   5.074
    1C        O  776   4.173   2.402   5.062
    1C        O  777   4.151   2.578   5.203
    1C        C  778   2.869   4.559   5.031
    1C        O  779   2.842   4.664   4.965
    1C        O  780   2.863   4.564   5.171
    1C        C  781   2.487   3.034   5.086
    1C        O  782   2.407   2.941   5.057
    1C        O  783   2.542   3.020   5.213
    1C        C  784   2.395   4.007   5.021
    1C        O  785   2.291   3.980   4.956
    1C        O  786   2.384   3.977   5.158
    1C        C  787   2.952   2.423   2.009
    1C        O  788   2.915   2.439   1.890
    1C        O  789   2.918   2.296   2.054
    1C        C  790   3.176   2.359   5.048
    1C        O  791   3.155   2.248   4.993
    1C        O  792   3.127   2.361   5.179
    1C        H  793   4.254   3.035   5.040
    1C        H  794   4.171   2.823   5.069
    1C        H  795   4.512   3.126   5.052
    1C        H  796   4.482   3.383   5.053
    1C        H  797   4.555   3.810   5.051
    1C        H  798   4.394   3.958   5.056
    1C        H  799   4.285   4.167   5.050
    1C        H  800   4.036   4.545   5.022
    1C        H  801   3.818   4.588   5.040
    1C        H  802   3.582   4.608   5.044
    1C        H  803   3.400   4.490   5.044
    1C        H  804   3.154   4.504   5.055
    1C        H  805   3.898   2.471   5.062
    1C        H  806   3.665   2.440   5.074
    1C        H  807   2.992   2.525   5.049
    1C        H  808   3.448   2.531   5.066
    1C        H  809   2.876   2.728   5.074
    1C        H  810   2.693   2.875   5.076
    1C        H  811   2.487   3.295   5.067
    1C        H  812   2.516   3.505   5.072
    1C        H  813   2.549   3.735   5.071
    1C        H  814   2.636   4.139   5.057
    1C        H  815   2.773   4.307   5.057
    1C        H  816   2.691   2.868   1.979
    1C        H  817   2.814   2.668   1.989
    1C        H  818   3.196   2.404   2.006
    1C        H  819   3.431   2.446   1.981
    1C        H  820   3.875   2.493   1.971
    1C        H  821   4.055   2.628   1.963
    1C        H  822   4.274   2.701   1.986
    1C        H  823   4.347   2.944   1.971
    1C        H  824   4.572   3.311   1.967
    1C        H  825   4.539   3.513   1.964
    1C        H  826   4.486   3.752   1.958
    1C        H  827   3.803   4.532   1.949
    1C        H  828   3.988   4.415   1.950
    1C        H  829   4.180   4.302   1.953
    1C        H  830   4.481   3.961   1.957
    1C        H  831   2.633   3.835   1.967
    1C        H  832   2.727   4.059   1.968
    1C        H  833   2.719   4.313   1.975
    1C        H  834   3.358   4.532   1.951
    1C        H  835   3.150   4.414   1.950
    1C        H  836   2.522   2.997   1.996
    1C        H  837   2.424   3.218   1.991
    1C        H  838   2.453   3.702   1.981
    2V3OU   H29  839   2.801   3.549   1.518
    2V3OU   C27  840   2.786   3.503   1.619
    2V3OU   H27  841   2.724   3.570   1.683
    2V3OU   H28  842   2.729   3.407   1.610
    2V3OU   O11  843   2.912   3.471   1.678
    2V3OU   C15  844   2.921   3.401   1.797
    2V3OU   C13  845   3.051   3.375   1.845
    2V3OU   C14  846   3.075   3.268   1.932
    2V3OU   C16  847   2.973   3.183   1.974
    2V3OU    H6  848   2.991   3.099   2.042
    2V3OU   C12  849   3.215   3.230   1.963
    2V3OU    O2  850   3.246   3.127   2.026
    2V3OU   C10  851   3.324   3.306   1.899
    2V3OU    C8  852   3.455   3.267   1.920
    2V3OU   O10  853   3.492   3.146   1.971
    2V3OU   H26  854   3.405   3.118   2.004
    2V3OU    C6  855   3.565   3.350   1.879
    2V3OU    C5  856   3.538   3.465   1.806
    2V3OU    C4  857   3.702   3.293   1.875
    2V3OU    H4  858   3.724   3.225   1.963
    2V3OU    H5  859   3.712   3.230   1.781
    2V3OU    C2  860   3.813   3.398   1.879
    2V3OU    O6  861   3.804   3.475   1.999
    2V3OU   H21  862   3.769   3.558   1.961
    2V3OU    C3  863   3.784   3.496   1.765
    2V3OU    H2  864   3.863   3.576   1.766
    2V3OU    H3  865   3.787   3.441   1.668
    2V3OU   C25  866   3.949   3.329   1.869
    2V3OU    O7  867   4.000   3.299   1.761
    2V3OU   C26  868   4.029   3.290   1.992
    2V3OU   H22  869   4.058   3.388   2.036
    2V3OU   H23  870   4.118   3.229   1.961
    2V3OU    O8  871   3.959   3.208   2.082
    2V3OU   H24  872   3.912   3.263   2.146
    2V3OU    C1  873   3.648   3.562   1.775
    2V3OU    H1  874   3.625   3.616   1.678
    2V3OU    O3  875   3.661   3.656   1.882
    2V3OU   C19  876   3.618   3.791   1.861
    2V3OU    H9  877   3.519   3.805   1.810
    2V3OU    O4  878   3.713   3.847   1.773
    2V3OU   C20  879   3.844   3.878   1.821
    2V3OU   H10  880   3.887   3.775   1.840
    2V3OU   C24  881   3.610   3.853   2.001
    2V3OU   H16  882   3.544   3.790   2.066
    2V3OU   H17  883   3.564   3.954   1.989
    2V3OU   C23  884   3.751   3.873   2.057
    2V3OU   H15  885   3.793   3.769   2.076
    2V3OU    N1  886   3.742   3.959   2.174
    2V3OU   H19  887   3.804   3.927   2.246
    2V3OU   H20  888   3.649   3.948   2.209
    2V3OU   C21  889   3.847   3.946   1.958
    2V3OU   H11  890   3.955   3.925   1.985
    2V3OU    O5  891   3.832   4.087   1.959
    2V3OU   H18  892   3.781   4.103   2.040
    2V3OU   C22  893   3.913   3.951   1.708
    2V3OU   H12  894   3.859   4.045   1.681
    2V3OU   H13  895   3.915   3.886   1.616
    2V3OU   H14  896   4.022   3.966   1.731
    2V3OU   C11  897   3.158   3.470   1.810
    2V3OU    O1  898   3.136   3.585   1.766
    2V3OU    C9  899   3.298   3.429   1.833
    2V3OU    C7  900   3.403   3.504   1.781
    2V3OU    O9  901   3.390   3.623   1.712
    2V3OU   H25  902   3.295   3.635   1.728
    2V3OU   C17  903   2.821   3.313   1.843
    2V3OU    H7  904   2.717   3.345   1.830
    2V3OU   C18  905   2.845   3.204   1.925
    2V3OU    H8  906   2.760   3.148   1.969
    3SOL     OW  907   1.674   3.887   1.264
    3SOL    HW1  908   1.664   3.869   1.362
    3SOL    HW2  909   1.704   3.981   1.250
    4SOL     OW  910   6.304   0.688   1.842
    4SOL    HW1  911   6.283   0.631   1.763
    4SOL    HW2  912   6.219   0.722   1.882
    5SOL     OW  913   4.126   1.160   0.666
    5SOL    HW1  914   4.193   1.234   0.667
    5SOL    HW2  915   4.050   1.183   0.727
    6SOL     OW  916   3.158   2.030   2.299
    6SOL    HW1  917   3.089   2.025   2.372
    6SOL    HW2  918   3.113   2.058   2.214
    7SOL     OW  919   5.726   2.071   2.334
    7SOL    HW1  920   5.692   2.150   2.384
    7SOL    HW2  921   5.693   1.987   2.378
    8SOL     OW  922   2.626   6.927   4.145
    8SOL    HW1  923   2.535   6.890   4.129
    8SOL    HW2  924   2.649   6.992   4.072
    9SOL     OW  925   1.555   5.209   5.655
    9SOL    HW1  926   1.464   5.216   5.697
    9SOL    HW2  927   1.575   5.113   5.635
   10SOL     OW  928   0.718   4.822   5.859
   10SOL    HW1  929   0.780   4.802   5.935
   10SOL    HW2  930   0.722   4.920   5.838
   11SOL     OW  931   3.699   6.778   0.284
   11SOL    HW1  932   3.740   6.697   0.325
   11SOL    HW2  933   3.606   6.758   0.254
   12SOL     OW  934   5.043   5.491   3.190
   12SOL    HW1  935   5.131   5.447   3.170
   12SOL    HW2  936   4.970   5.443   3.141
   13SOL     OW  937   2.712   6.319   3.989
   13SOL    HW1  938   2.709   6.228   3.949
   13SOL    HW2  939   2.790   6.326   4.052
   14SOL     OW  940   3.550   6.151   7.010
   14SOL    HW1  941   3.613   6.095   0.039
   14SOL    HW2  942   3.523   6.232   0.039
   15SOL     OW  943   1.121   6.231   6.861
   15SOL    HW1  944   1.084   6.236   6.954
   15SOL    HW2  945   1.218   6.254   6.862
   16SOL     OW  946   6.546   2.528   6.051
   16SOL    HW1  947   6.574   2.616   6.090
   16SOL    HW2  948   6.620   2.492   5.994
   17SOL     OW  949   5.225   6.721   4.084
   17SOL    HW1  950   5.264   6.686   4.169
   17SOL    HW2  951   5.297   6.758   4.026
   18SOL     OW  952   2.123   1.959   5.655
   18SOL    HW1  953   2.220   1.968   5.629
   18SOL    HW2  954   2.070   2.028   5.607
   19SOL     OW  955   6.987   0.107   2.604
   19SOL    HW1  956   7.013   0.173   2.676
   19SOL    HW2  957   0.010   0.131   2.519
   20SOL     OW  958   3.159   1.580   4.037
   20SOL    HW1  959   3.141   1.646   3.964
   20SOL    HW2  960   3.192   1.628   4.118
   21SOL     OW  961   2.993   1.622   1.762
   21SOL    HW1  962   2.980   1.564   1.843
   21SOL    HW2  963   3.001   1.718   1.790
   22SOL     OW  964   2.285   6.424   6.069
   22SOL    HW1  965   2.227   6.345   6.087
   22SOL    HW2  966   2.274   6.491   6.143
   23SOL     OW  967   4.234   6.530   3.452
   23SOL    HW1  968   4.222   6.617   3.404
   23SOL    HW2  969   4.329   6.524   3.485
   24SOL     OW  970   5.257   0.969   4.929
   24SOL    HW1  971   5.206   0.885   4.949
   24SOL    HW2  972   5.214   1.045   4.977
   25SOL     OW  973   3.272   5.213   0.456
   25SOL    HW1  974   3.310   5.120   0.454
   25SOL    HW2  975   3.334   5.275   0.408
   26SOL     OW  976   6.197   1.412   1.610
   26SOL    HW1  977   6.279   1.398   1.667
   26SOL    HW2  978   6.207   1.496   1.558
   27SOL     OW  979   6.235   0.145   2.069
   27SOL    HW1  980   6.215   0.243   2.075
   27SOL    HW2  981   6.276   0.114   2.155
   28SOL     OW  982   4.591   0.614   6.882
   28SOL    HW1  983   4.569   0.711   6.884
   28SOL    HW2  984   4.538   0.569   6.810
   29SOL     OW  985   4.889   2.527   1.672
   29SOL    HW1  986   4.877   2.624   1.648
   29SOL    HW2  987   4.829   2.471   1.615
   30SOL     OW  988   3.234   0.225   5.230
   30SOL    HW1  989   3.328   0.197   5.207
   30SOL    HW2  990   3.227   0.324   5.220
   31SOL     OW  991   0.689   1.339   5.256
   31SOL    HW1  992   0.722   1.366   5.165
   31SOL    HW2  993   0.743   1.262   5.289
   32SOL     OW  994   0.920   2.003   2.077
   32SOL    HW1  995   0.872   2.086   2.103
   32SOL    HW2  996   0.900   1.930   2.143
   33SOL     OW  997   1.930   2.474   5.702
   33SOL    HW1  998   2.012   2.420   5.723
   33SOL    HW2  999   1.940   2.566   5.740
   34SOL     OW 1000   1.982   0.218   4.855
   34SOL    HW1 1001   2.006   0.121   4.857
   34SOL    HW2 1002   1.944   0.245   4.943
   35SOL     OW 1003   4.705   1.472   0.216
   35SOL    HW1 1004   4.689   1.374   0.204
   35SOL    HW2 1005   4.677   1.499   0.309
   36SOL     OW 1006   1.484   0.853   5.911
   36SOL    HW1 1007   1.448   0.917   5.843
   36SOL    HW2 1008   1.507   0.766   5.866
   37SOL     OW 1009   2.615   6.574   1.502
   37SOL    HW1 1010   2.539   6.626   1.541
   37SOL    HW2 1011   2.612   6.582   1.402
   38SOL     OW 1012   7.022   6.301   3.294
   38SOL    HW1 1013   6.945   6.276   3.353
   38SOL    HW2 1014   0.078   6.321   3.350
   39SOL     OW 1015   6.520   3.551   5.556
   39SOL    HW1 1016   6.609   3.553   5.512
   39SOL    HW2 1017   6.522   3.488   5.634
   40SOL     OW 1018   6.257   1.270   2.526
   40SOL    HW1 1019   6.280   1.367   2.516
   40SOL    HW2 1020   6.338   1.220   2.557
   41SOL     OW 1021   1.963   6.737   4.733
   41SOL    HW1 1022   1.917   6.649   4.748
   41SOL    HW2 1023   1.967   6.756   4.635
   42SOL     OW 1024   3.543   0.258   6.393
   42SOL    HW1 1025   3.539   0.250   6.293
   42SOL    HW2 1026   3.485   0.188   6.434
   43SOL     OW 1027   5.494   6.568   5.934
   43SOL    HW1 1028   5.582   6.537   5.971
   43SOL    HW2 1029   5.509   6.625   5.853
   44SOL     OW 1030   0.599   2.904   6.320
   44SOL    HW1 1031   0.634   2.903   6.413
   44SOL    HW2 1032   0.499   2.913   6.321
   45SOL     OW 1033   3.123   1.100   2.143
   45SOL    HW1 1034   3.069   1.152   2.076
   45SOL    HW2 1035   3.208   1.070   2.100
   46SOL     OW 1036   1.735   3.563   4.153
   46SOL    HW1 1037   1.652   3.616   4.171
   46SOL    HW2 1038   1.766   3.519   4.237
   47SOL     OW 1039   6.318   4.414   3.051
   47SOL    HW1 1040   6.279   4.500   3.085
   47SOL    HW2 1041   6.246   4.359   3.009
   48SOL     OW 1042   0.051   2.424   4.843
   48SOL    HW1 1043   6.975   2.415   4.848
   48SOL    HW2 1044   0.082   2.485   4.915
   49SOL     OW 1045   4.545   4.006   0.634
   49SOL    HW1 1046   4.601   4.088   0.621
   49SOL    HW2 1047   4.581   3.932   0.577
   50SOL     OW 1048   6.493   3.578   4.810
   50SOL    HW1 1049   6.444   3.664   4.799
   50SOL    HW2 1050   6.535   3.575   4.901
   51SOL     OW 1051   3.446   4.932   2.691
   51SOL    HW1 1052   3.347   4.935   2.680
   51SOL    HW2 1053   3.470   4.944   2.787
   52SOL     OW 1054   2.968   1.594   2.731
   52SOL    HW1 1055   3.053   1.630   2.768
   52SOL    HW2 1056   2.937   1.652   2.656
   53SOL     OW 1057   4.961   6.879   3.892
   53SOL    HW1 1058   4.957   6.796   3.949
   53SOL    HW2 1059   4.882   6.937   3.913
   54SOL     OW 1060   2.866   4.904   5.846
   54SOL    HW1 1061   2.908   4.906   5.755
   54SOL    HW2 1062   2.821   4.991   5.865
   55SOL     OW 1063   3.531   1.308   6.044
   55SOL    HW1 1064   3.594   1.283   6.118
   55SOL    HW2 1065   3.548   1.249   5.965
   56SOL     OW 1066   1.311   0.795   2.393
   56SOL    HW1 1067   1.240   0.778   2.325
   56SOL    HW2 1068   1.299   0.733   2.470
   57SOL     OW 1069   5.058   0.844   0.713
   57SOL    HW1 1070   5.025   0.795   0.794
   57SOL    HW2 1071   5.048   0.785   0.633
   58SOL     OW 1072   0.362   6.824   0.061
   58SOL    HW1 1073   0.364   6.886   0.139
   58SOL    HW2 1074   0.279   6.768   0.066
   59SOL     OW 1075   1.590   0.571   5.864
   59SOL    HW1 1076   1.609   0.510   5.786
   59SOL    HW2 1077   1.660   0.557   5.934
   60SOL     OW 1078   4.348   0.104   5.437
   60SOL    HW1 1079   4.253   0.125   5.414
   60SOL    HW2 1080   4.384   0.176   5.497
   61SOL     OW 1081   4.913   0.256   4.008
   61SOL    HW1 1082   5.003   0.218   3.985
   61SOL    HW2 1083   4.922   0.318   4.086
   62SOL     OW 1084   1.594   0.509   4.005
   62SOL    HW1 1085   1.564   0.506   4.100
   62SOL    HW2 1086   1.514   0.508   3.944
   63SOL     OW 1087   6.724   2.469   3.304
   63SOL    HW1 1088   6.642   2.490   3.357
   63SOL    HW2 1089   6.730   2.370   3.291
   64SOL     OW 1090   6.491   3.801   6.453
   64SOL    HW1 1091   6.530   3.820   6.543
   64SOL    HW2 1092   6.562   3.765   6.393
   65SOL     OW 1093   6.721   4.722   4.911
   65SOL    HW1 1094   6.707   4.719   4.812
   65SOL    HW2 1095   6.665   4.794   4.951
   66SOL     OW 1096   3.365   0.724   6.436
   66SOL    HW1 1097   3.417   0.710   6.352
   66SOL    HW2 1098   3.337   0.635   6.473
   67SOL     OW 1099   5.522   6.175   5.422
   67SOL    HW1 1100   5.563   6.090   5.454
   67SOL    HW2 1101   5.484   6.225   5.501
   68SOL     OW 1102   5.945   1.853   6.606
   68SOL    HW1 1103   5.887   1.793   6.661
   68SOL    HW2 1104   5.959   1.812   6.516
   69SOL     OW 1105   2.607   4.508   5.988
   69SOL    HW1 1106   2.610   4.587   5.927
   69SOL    HW2 1107   2.697   4.493   6.029
   70SOL     OW 1108   6.849   5.438   2.556
   70SOL    HW1 1109   6.941   5.448   2.516
   70SOL    HW2 1110   6.793   5.382   2.496
   71SOL     OW 1111   2.431   2.758   3.102
   71SOL    HW1 1112   2.396   2.685   3.044
   71SOL    HW2 1113   2.499   2.721   3.165
   72SOL     OW 1114   3.180   5.640   4.089
   72SOL    HW1 1115   3.155   5.644   3.993
   72SOL    HW2 1116   3.109   5.593   4.141
   73SOL     OW 1117   3.276   1.583   0.073
   73SOL    HW1 1118   3.221   1.512   0.117
   73SOL    HW2 1119   3.229   1.617   7.016
   74SOL     OW 1120   5.370   6.657   6.642
   74SOL    HW1 1121   5.414   6.647   6.732
   74SOL    HW2 1122   5.433   6.627   6.571
   75SOL     OW 1123   3.494   6.028   5.449
   75SOL    HW1 1124   3.468   5.933   5.463
   75SOL    HW2 1125   3.525   6.067   5.536
   76SOL     OW 1126   2.303   2.287   1.250
   76SOL    HW1 1127   2.221   2.232   1.234
   76SOL    HW2 1128   2.334   2.274   1.344
   77SOL     OW 1129   5.385   5.141   5.117
   77SOL    HW1 1130   5.293   5.178   5.130
   77SOL    HW2 1131   5.387   5.046   5.147
   78SOL     OW 1132   6.377   6.168   5.803
   78SOL    HW1 1133   6.296   6.176   5.862
   78SOL    HW2 1134   6.395   6.072   5.785
   79SOL     OW 1135   3.224   6.935   1.003
   79SOL    HW1 1136   3.252   6.856   0.949
   79SOL    HW2 1137   3.233   7.018   0.948
   80SOL     OW 1138   6.361   1.285   5.087
   80SOL    HW1 1139   6.444   1.266   5.035
   80SOL    HW2 1140   6.283   1.240   5.043
   81SOL     OW 1141   2.265   0.803   2.823
   81SOL    HW1 1142   2.277   0.831   2.728
   81SOL    HW2 1143   2.353   0.802   2.870
   82SOL     OW 1144   6.603   4.982   6.593
   82SOL    HW1 1145   6.592   5.018   6.501
   82SOL    HW2 1146   6.696   4.945   6.603
   83SOL     OW 1147   6.819   6.696   0.600
   83SOL    HW1 1148   6.773   6.684   0.688
   83SOL    HW2 1149   6.762   6.661   0.527
   84SOL     OW 1150   5.354   3.872   2.075
   84SOL    HW1 1151   5.362   3.960   2.122
   84SOL    HW2 1152   5.344   3.799   2.143
   85SOL     OW 1153   0.693   1.625   5.093
   85SOL    HW1 1154   0.756   1.702   5.098
   85SOL    HW2 1155   0.624   1.633   5.165
   86SOL     OW 1156   0.488   0.506   5.820
   86SOL    HW1 1157   0.585   0.523   5.807
   86SOL    HW2 1158   0.449   0.579   5.877
   87SOL     OW 1159   5.104   2.934   0.152
   87SOL    HW1 1160   5.052   2.894   0.077
   87SOL    HW2 1161   5.192   2.967   0.118
   88SOL     OW 1162   4.998   1.604   0.568
   88SOL    HW1 1163   4.955   1.529   0.518
   88SOL    HW2 1164   4.929   1.652   0.622
   89SOL     OW 1165   1.549   2.633   6.564
   89SOL    HW1 1166   1.634   2.685   6.568
   89SOL    HW2 1167   1.511   2.624   6.656
   90SOL     OW 1168   5.953   6.428   3.477
   90SOL    HW1 1169   6.009   6.404   3.398
   90SOL    HW2 1170   6.007   6.482   3.541
   91SOL     OW 1171   4.947   4.653   3.895
   91SOL    HW1 1172   4.953   4.656   3.995
   91SOL    HW2 1173   5.019   4.593   3.860
   92SOL     OW 1174   3.140   5.030   1.028
   92SOL    HW1 1175   3.084   4.989   1.101
   92SOL    HW2 1176   3.228   4.983   1.023
   93SOL     OW 1177   3.222   4.702   5.865
   93SOL    HW1 1178   3.127   4.712   5.894
   93SOL    HW2 1179   3.251   4.785   5.819
   94SOL     OW 1180   3.331   5.378   0.066
   94SOL    HW1 1181   3.329   5.443   0.142
   94SOL    HW2 1182   3.247   5.325   0.064
   95SOL     OW 1183   0.472   0.882   3.528
   95SOL    HW1 1184   0.398   0.871   3.461
   95SOL    HW2 1185   0.560   0.873   3.482
   96SOL     OW 1186   2.585   6.997   5.217
   96SOL    HW1 1187   2.679   6.963   5.218
   96SOL    HW2 1188   2.585   0.073   5.210
   97SOL     OW 1189   5.918   3.923   4.307
   97SOL    HW1 1190   5.835   3.916   4.252
   97SOL    HW2 1191   5.918   3.849   4.375
   98SOL     OW 1192   5.451   2.721   6.547
   98SOL    HW1 1193   5.386   2.699   6.620
   98SOL    HW2 1194   5.489   2.812   6.564
   99SOL     OW 1195   4.160   2.744   1.068
   99SOL    HW1 1196   4.097   2.822   1.066
   99SOL    HW2 1197   4.149   2.694   1.154
  100SOL     OW 1198   0.389   6.648   6.867
  100SOL    HW1 1199   0.374   6.723   6.932
  100SOL    HW2 1200   0.384   6.561   6.916
  101SOL     OW 1201   0.576   6.016   3.297
  101SOL    HW1 1202   0.555   6.062   3.211
  101SOL    HW2 1203   0.669   6.040   3.326
  102SOL     OW 1204   4.122   0.345   3.303
  102SOL    HW1 1205   4.055   0.343   3.228
  102SOL    HW2 1206   4.168   0.434   3.304
  103SOL     OW 1207   3.972   1.857   1.579
  103SOL    HW1 1208   3.915   1.899   1.650
  103SOL    HW2 1209   3.988   1.923   1.505
  104SOL     OW 1210   6.440   5.296   2.760
  104SOL    HW1 1211   6.433   5.345   2.847
  104SOL    HW2 1212   6.355   5.247   2.742
  105SOL     OW 1213   6.740   1.169   6.681
  105SOL    HW1 1214   6.833   1.173   6.716
  105SOL    HW2 1215   6.709   1.074   6.680
  106SOL     OW 1216   2.438   6.162   6.384
  106SOL    HW1 1217   2.341   6.159   6.357
  106SOL    HW2 1218   2.452   6.106   6.465
  107SOL     OW 1219   1.530   2.551   1.331
  107SOL    HW1 1220   1.573   2.462   1.314
  107SOL    HW2 1221   1.468   2.542   1.409
  108SOL     OW 1222   4.999   4.711   6.915
  108SOL    HW1 1223   4.970   4.632   6.971
  108SOL    HW2 1224   4.918   4.753   6.874
  109SOL     OW 1225   0.512   0.272   0.933
  109SOL    HW1 1226   0.580   0.202   0.952
  109SOL    HW2 1227   0.430   0.229   0.895
  110SOL     OW 1228   3.603   6.031   5.729
  110SOL    HW1 1229   3.537   5.990   5.791
  110SOL    HW2 1230   3.633   6.119   5.766
  111SOL     OW 1231   3.798   0.559   3.753
  111SOL    HW1 1232   3.858   0.635   3.779
  111SOL    HW2 1233   3.848   0.473   3.762
  112SOL     OW 1234   5.584   5.972   5.760
  112SOL    HW1 1235   5.547   6.064   5.771
  112SOL    HW2 1236   5.511   5.905   5.772
  113SOL     OW 1237   6.534   4.728   3.498
  113SOL    HW1 1238   6.581   4.797   3.552
  113SOL    HW2 1239   6.595   4.649   3.485
  114SOL     OW 1240   0.701   6.563   0.739
  114SOL    HW1 1241   0.678   6.585   0.644
  114SOL    HW2 1242   0.620   6.577   0.796
  115SOL     OW 1243   5.114   1.151   4.045
  115SOL    HW1 1244   5.023   1.140   4.084
  115SOL    HW2 1245   5.108   1.203   3.960
  116SOL     OW 1246   6.316   4.647   2.403
  116SOL    HW1 1247   6.362   4.623   2.489
  116SOL    HW2 1248   6.384   4.653   2.330
  117SOL     OW 1249   1.059   0.636   6.329
  117SOL    HW1 1250   1.147   0.677   6.352
  117SOL    HW2 1251   1.069   0.536   6.323
  118SOL     OW 1252   0.524   1.532   1.403
  118SOL    HW1 1253   0.485   1.473   1.333
  118SOL    HW2 1254   0.498   1.627   1.386
  119SOL     OW 1255   6.847   2.470   6.300
  119SOL    HW1 1256   6.798   2.395   6.256
  119SOL    HW2 1257   6.782   2.540   6.328
  120SOL     OW 1258   6.102   0.186   0.732
  120SOL    HW1 1259   6.071   0.091   0.734
  120SOL    HW2 1260   6.202   0.189   0.725
  121SOL     OW 1261   2.656   3.492   6.394
  121SOL    HW1 1262   2.617   3.547   6.320
  121SOL    HW2 1263   2.669   3.398   6.362
  122SOL     OW 1264   1.232   3.840   5.054
  122SOL    HW1 1265   1.312   3.894   5.027
  122SOL    HW2 1266   1.194   3.877   5.139
  123SOL     OW 1267   6.980   2.107   1.180
  123SOL    HW1 1268   6.899   2.053   1.204
  123SOL    HW2 1269   6.997   2.175   1.252
  124SOL     OW 1270   4.874   3.697   0.316
  124SOL    HW1 1271   4.804   3.689   0.245
  124SOL    HW2 1272   4.879   3.611   0.367
  125SOL     OW 1273   1.886   1.891   2.232
  125SOL    HW1 1274   1.972   1.867   2.277
  125SOL    HW2 1275   1.867   1.988   2.247
  126SOL     OW 1276   2.726   4.557   0.937
  126SOL    HW1 1277   2.755   4.652   0.927
  126SOL    HW2 1278   2.711   4.536   1.034
  127SOL     OW 1279   6.677   4.953   5.862
  127SOL    HW1 1280   6.681   5.042   5.909
  127SOL    HW2 1281   6.602   4.899   5.900
  128SOL     OW 1282   4.468   2.971   1.582
  128SOL    HW1 1283   4.558   2.965   1.539
  128SOL    HW2 1284   4.475   2.939   1.677
  129SOL     OW 1285   3.570   3.449   6.343
  129SOL    HW1 1286   3.592   3.355   6.369
  129SOL    HW2 1287   3.575   3.508   6.424
  130SOL     OW 1288   1.514   0.945   4.449
  130SOL    HW1 1289   1.500   0.854   4.488
  130SOL    HW2 1290   1.435   1.003   4.470
  131SOL     OW 1291   5.054   1.405   3.562
  131SOL    HW1 1292   4.971   1.455   3.586
  131SOL    HW2 1293   5.035   1.346   3.483
  132SOL     OW 1294   1.340   3.130   1.245
  132SOL    HW1 1295   1.396   3.060   1.200
  132SOL    HW2 1296   1.256   3.088   1.280
  133SOL     OW 1297   5.644   6.478   2.631
  133SOL    HW1 1298   5.668   6.574   2.642
  133SOL    HW2 1299   5.546   6.466   2.646
  134SOL     OW 1300   6.348   2.653   3.298
  134SOL    HW1 1301   6.256   2.640   3.335
  134SOL    HW2 1302   6.409   2.583   3.336
  135SOL     OW 1303   5.196   1.640   3.603
  135SOL    HW1 1304   5.281   1.595   3.578
  135SOL    HW2 1305   5.120   1.575   3.598
  136SOL     OW 1306   5.235   4.425   5.367
  136SOL    HW1 1307   5.228   4.344   5.309
  136SOL    HW2 1308   5.175   4.414   5.446
  137SOL     OW 1309   4.906   6.846   5.313
  137SOL    HW1 1310   4.934   6.849   5.409
  137SOL    HW2 1311   4.902   6.751   5.282
  138SOL     OW 1312   0.598   5.172   4.520
  138SOL    HW1 1313   0.568   5.179   4.615
  138SOL    HW2 1314   0.553   5.095   4.476
  139SOL     OW 1315   2.500   5.345   5.059
  139SOL    HW1 1316   2.591   5.333   5.020
  139SOL    HW2 1317   2.431   5.315   4.993
  140SOL     OW 1318   5.716   5.198   3.918
  140SOL    HW1 1319   5.642   5.260   3.890
  140SOL    HW2 1320   5.677   5.110   3.943
  141SOL     OW 1321   0.865   1.832   5.097
  141SOL    HW1 1322   0.945   1.809   5.153
  141SOL    HW2 1323   0.839   1.927   5.113
  142SOL     OW 1324   1.337   6.251   1.980
  142SOL    HW1 1325   1.270   6.197   1.928
  142SOL    HW2 1326   1.369   6.327   1.924
  143SOL     OW 1327   5.617   4.598   2.092
  143SOL    HW1 1328   5.653   4.566   2.179
  143SOL    HW2 1329   5.536   4.655   2.108
  144SOL     OW 1330   1.418   6.476   6.279
  144SOL    HW1 1331   1.346   6.493   6.345
  144SOL    HW2 1332   1.399   6.392   6.229
  145SOL     OW 1333   0.828   5.633   0.448
  145SOL    HW1 1334   0.880   5.566   0.394
  145SOL    HW2 1335   0.818   5.717   0.395
  146SOL     OW 1336   5.231   6.537   0.220
  146SOL    HW1 1337   5.316   6.534   0.168
  146SOL    HW2 1338   5.245   6.498   0.311
  147SOL     OW 1339   6.576   2.884   0.469
  147SOL    HW1 1340   6.492   2.832   0.480
  147SOL    HW2 1341   6.655   2.823   0.481
  148SOL     OW 1342   0.499   5.257   5.175
  148SOL    HW1 1343   0.456   5.348   5.181
  148SOL    HW2 1344   0.454   5.195   5.239
  149SOL     OW 1345   3.230   1.094   4.069
  149SOL    HW1 1346   3.166   1.025   4.103
  149SOL    HW2 1347   3.184   1.183   4.065
  150SOL     OW 1348   6.889   4.944   6.559
  150SOL    HW1 1349   6.935   5.009   6.499
  150SOL    HW2 1350   6.830   4.885   6.505
  151SOL     OW 1351   3.670   1.333   1.214
  151SOL    HW1 1352   3.583   1.372   1.244
  151SOL    HW2 1353   3.705   1.271   1.285
  152SOL     OW 1354   2.767   0.761   4.611
  152SOL    HW1 1355   2.821   0.764   4.695
  152SOL    HW2 1356   2.670   0.772   4.634
  153SOL     OW 1357   2.397   0.238   2.233
  153SOL    HW1 1358   2.383   0.175   2.157
  153SOL    HW2 1359   2.321   0.230   2.298
  154SOL     OW 1360   0.071   2.510   1.737
  154SOL    HW1 1361   0.082   2.588   1.799
  154SOL    HW2 1362   0.091   2.539   1.644
  155SOL     OW 1363   0.339   1.296   3.412
  155SOL    HW1 1364   0.384   1.231   3.352
  155SOL    HW2 1365   0.289   1.247   3.484
  156SOL     OW 1366   5.936   1.616   1.341
  156SOL    HW1 1367   5.969   1.638   1.433
  156SOL    HW2 1368   6.002   1.558   1.294
  157SOL     OW 1369   6.202   3.121   2.563
  157SOL    HW1 1370   6.104   3.107   2.548
  157SOL    HW2 1371   6.223   3.219   2.556
  158SOL     OW 1372   3.136   0.839   2.822
  158SOL    HW1 1373   3.207   0.775   2.849
  158SOL    HW2 1374   3.137   0.919   2.883
  159SOL     OW 1375   4.752   4.602   1.904
  159SOL    HW1 1376   4.728   4.675   1.840
  159SOL    HW2 1377   4.740   4.513   1.860
  160SOL     OW 1378   6.955   4.662   6.146
  160SOL    HW1 1379   6.888   4.727   6.185
  160SOL    HW2 1380   6.907   4.580   6.115
  161SOL     OW 1381   2.089   4.740   4.858
  161SOL    HW1 1382   2.125   4.729   4.765
  161SOL    HW2 1383   1.994   4.773   4.853
  162SOL     OW 1384   4.262   5.999   0.522
  162SOL    HW1 1385   4.282   6.060   0.444
  162SOL    HW2 1386   4.332   5.928   0.526
  163SOL     OW 1387   3.991   6.491   1.759
  163SOL    HW1 1388   3.958   6.456   1.671
  163SOL    HW2 1389   4.089   6.512   1.751
  164SOL     OW 1390   6.559   3.790   1.218
  164SOL    HW1 1391   6.609   3.852   1.279
  164SOL    HW2 1392   6.572   3.696   1.248
  165SOL     OW 1393   4.614   3.431   6.828
  165SOL    HW1 1394   4.555   3.361   6.787
  165SOL    HW2 1395   4.606   3.516   6.775
  166SOL     OW 1396   0.237   6.330   3.509
  166SOL    HW1 1397   0.272   6.422   3.493
  166SOL    HW2 1398   0.145   6.335   3.548
  167SOL     OW 1399   6.108   2.568   6.887
  167SOL    HW1 1400   6.060   2.509   6.952
  167SOL    HW2 1401   6.206   2.557   6.899
  168SOL     OW 1402   2.444   4.382   1.039
  168SOL    HW1 1403   2.472   4.379   0.943
  168SOL    HW2 1404   2.399   4.470   1.058
  169SOL     OW 1405   2.795   0.597   1.993
  169SOL    HW1 1406   2.848   0.633   1.916
  169SOL    HW2 1407   2.741   0.519   1.963
  170SOL     OW 1408   6.981   1.761   3.815
  170SOL    HW1 1409   0.032   1.785   3.877
  170SOL    HW2 1410   6.894   1.769   3.864
  171SOL     OW 1411   3.520   3.766   0.631
  171SOL    HW1 1412   3.613   3.794   0.609
  171SOL    HW2 1413   3.470   3.844   0.668
  172SOL     OW 1414   6.853   2.141   5.021
  172SOL    HW1 1415   6.854   2.062   5.083
  172SOL    HW2 1416   6.818   2.221   5.070
  173SOL     OW 1417   0.056   6.941   4.515
  173SOL    HW1 1418   7.009   6.956   4.447
  173SOL    HW2 1419   0.128   7.010   4.505
  174SOL     OW 1420   2.550   5.272   3.662
  174SOL    HW1 1421   2.565   5.182   3.703
  174SOL    HW2 1422   2.584   5.272   3.568
  175SOL     OW 1423   2.030   6.542   2.238
  175SOL    HW1 1424   2.023   6.509   2.144
  175SOL    HW2 1425   1.992   6.635   2.244
  176SOL     OW 1426   1.955   4.294   1.313
  176SOL    HW1 1427   2.052   4.314   1.297
  176SOL    HW2 1428   1.899   4.336   1.242
  177SOL     OW 1429   5.568   2.241   3.350
  177SOL    HW1 1430   5.667   2.244   3.336
  177SOL    HW2 1431   5.540   2.147   3.369
  178SOL     OW 1432   4.976   4.240   6.318
  178SOL    HW1 1433   4.925   4.318   6.283
  178SOL    HW2 1434   4.996   4.253   6.415
  179SOL     OW 1435   2.846   0.610   0.650
  179SOL    HW1 1436   2.873   0.535   0.590
  179SOL    HW2 1437   2.864   0.584   0.745
  180SOL     OW 1438   0.830   1.343   6.946
  180SOL    HW1 1439   0.926   1.340   6.920
  180SOL    HW2 1440   0.811   1.273   7.014
  181SOL     OW 1441   3.521   1.822   6.683
  181SOL    HW1 1442   3.563   1.737   6.652
  181SOL    HW2 1443   3.424   1.822   6.658
  182SOL     OW 1444   4.421   2.203   4.208
  182SOL    HW1 1445   4.501   2.146   4.229
  182SOL    HW2 1446   4.353   2.193   4.280
  183SOL     OW 1447   4.315   1.126   1.809
  183SOL    HW1 1448   4.357   1.044   1.848
  183SOL    HW2 1449   4.215   1.119   1.816
  184SOL     OW 1450   1.225   5.388   3.271
  184SOL    HW1 1451   1.242   5.482   3.243
  184SOL    HW2 1452   1.269   5.325   3.206
  185SOL     OW 1453   1.375   3.742   6.663
  185SOL    HW1 1454   1.342   3.836   6.675
  185SOL    HW2 1455   1.303   3.686   6.623
  186SOL     OW 1456   6.251   0.287   3.363
  186SOL    HW1 1457   6.314   0.320   3.292
  186SOL    HW2 1458   6.245   0.356   3.436
  187SOL     OW 1459   5.725   1.170   4.282
  187SOL    HW1 1460   5.671   1.201   4.203
  187SOL    HW2 1461   5.686   1.207   4.366
  188SOL     OW 1462   5.850   2.153   3.437
  188SOL    HW1 1463   5.898   2.235   3.470
  188SOL    HW2 1464   5.915   2.095   3.387
  189SOL     OW 1465   2.394   5.560   2.729
  189SOL    HW1 1466   2.355   5.517   2.647
  189SOL    HW2 1467   2.453   5.636   2.702
  190SOL     OW 1468   3.521   1.370   5.350
  190SOL    HW1 1469   3.556   1.290   5.301
  190SOL    HW2 1470   3.438   1.344   5.400
  191SOL     OW 1471   5.849   5.670   6.257
  191SOL    HW1 1472   5.889   5.621   6.180
  191SOL    HW2 1473   5.922   5.698   6.320
  192SOL     OW 1474   6.373   6.820   2.227
  192SOL    HW1 1475   6.463   6.858   2.208
  192SOL    HW2 1476   6.316   6.889   2.272
  193SOL     OW 1477   4.950   2.866   6.427
  193SOL    HW1 1478   4.852   2.868   6.406
  193SOL    HW2 1479   4.966   2.912   6.514
  194SOL     OW 1480   3.320   0.671   3.135
  194SOL    HW1 1481   3.388   0.635   3.199
  194SOL    HW2 1482   3.364   0.689   3.047
  195SOL     OW 1483   1.932   5.184   3.817
  195SOL    HW1 1484   1.959   5.210   3.724
  195SOL    HW2 1485   1.841   5.221   3.837
  196SOL     OW 1486   1.449   2.167   6.915
  196SOL    HW1 1487   1.404   2.233   6.975
  196SOL    HW2 1488   1.404   2.167   6.826
  197SOL     OW 1489   2.166   1.270   1.162
  197SOL    HW1 1490   2.249   1.323   1.178
  197SOL    HW2 1491   2.121   1.252   1.250
  198SOL     OW 1492   4.446   1.139   3.298
  198SOL    HW1 1493   4.360   1.168   3.256
  198SOL    HW2 1494   4.521   1.196   3.265
  199SOL     OW 1495   1.226   2.637   4.460
  199SOL    HW1 1496   1.152   2.570   4.468
  199SOL    HW2 1497   1.287   2.629   4.539
  200SOL     OW 1498   0.206   2.614   0.673
  200SOL    HW1 1499   0.262   2.536   0.700
  200SOL    HW2 1500   0.205   2.623   0.574
  201SOL     OW 1501   0.736   0.642   5.785
  201SOL    HW1 1502   0.793   0.651   5.704
  201SOL    HW2 1503   0.792   0.656   5.867
  202SOL     OW 1504   4.527   0.090   6.164
  202SOL    HW1 1505   4.527   0.188   6.187
  202SOL    HW2 1506   4.519   0.036   6.248
  203SOL     OW 1507   5.885   3.001   5.314
  203SOL    HW1 1508   5.920   3.010   5.220
  203SOL    HW2 1509   5.799   2.949   5.312
  204SOL     OW 1510   0.470   0.318   5.640
  204SOL    HW1 1511   0.479   0.382   5.716
  204SOL    HW2 1512   0.550   0.257   5.640
  205SOL     OW 1513   1.095   2.532   2.304
  205SOL    HW1 1514   1.135   2.553   2.215
  205SOL    HW2 1515   1.119   2.438   2.330
  206SOL     OW 1516   0.448   3.265   1.067
  206SOL    HW1 1517   0.381   3.289   0.996
  206SOL    HW2 1518   0.400   3.252   1.154
  207SOL     OW 1519   4.919   2.032   3.464
  207SOL    HW1 1520   4.918   2.005   3.561
  207SOL    HW2 1521   5.001   2.087   3.446
  208SOL     OW 1522   0.889   3.930   4.954
  208SOL    HW1 1523   0.929   3.950   4.865
  208SOL    HW2 1524   0.792   3.908   4.943
  209SOL     OW 1525   6.629   4.296   2.525
  209SOL    HW1 1526   6.680   4.380   2.506
  209SOL    HW2 1527   6.594   4.300   2.619
  210SOL     OW 1528   4.385   2.305   0.459
  210SOL    HW1 1529   4.298   2.315   0.507
  210SOL    HW2 1530   4.393   2.377   0.390
  211SOL     OW 1531   1.568   0.477   3.220
  211SOL    HW1 1532   1.508   0.426   3.283
  211SOL    HW2 1533   1.610   0.553   3.269
  212SOL     OW 1534   1.597   3.559   3.194
  212SOL    HW1 1535   1.521   3.601   3.143
  212SOL    HW2 1536   1.599   3.595   3.287
  213SOL     OW 1537   1.547   5.114   1.496
  213SOL    HW1 1538   1.637   5.094   1.457
  213SOL    HW2 1539   1.476   5.088   1.431
  214SOL     OW 1540   4.150   5.616   2.371
  214SOL    HW1 1541   4.104   5.532   2.341
  214SOL    HW2 1542   4.228   5.592   2.428
  215SOL     OW 1543   2.152   5.004   2.033
  215SOL    HW1 1544   2.090   5.063   2.083
  215SOL    HW2 1545   2.101   4.928   1.992
  216SOL     OW 1546   1.521   0.266   2.713
  216SOL    HW1 1547   1.521   0.205   2.791
  216SOL    HW2 1548   1.531   0.361   2.744
  217SOL     OW 1549   1.450   3.477   6.009
  217SOL    HW1 1550   1.391   3.554   6.034
  217SOL    HW2 1551   1.449   3.409   6.082
  218SOL     OW 1552   0.945   2.341   5.393
  218SOL    HW1 1553   0.881   2.390   5.333
  218SOL    HW2 1554   0.993   2.407   5.451
  219SOL     OW 1555   3.620   0.579   0.318
  219SOL    HW1 1556   3.689   0.647   0.341
  219SOL    HW2 1557   3.664   0.495   0.287
  220SOL     OW 1558   3.393   0.237   1.241
  220SOL    HW1 1559   3.377   0.267   1.147
  220SOL    HW2 1560   3.309   0.199   1.279
  221SOL     OW 1561   5.550   5.551   1.129
  221SOL    HW1 1562   5.634   5.526   1.178
  221SOL    HW2 1563   5.491   5.470   1.121
  222SOL     OW 1564   2.138   4.281   6.484
  222SOL    HW1 1565   2.119   4.245   6.393
  222SOL    HW2 1566   2.229   4.252   6.513
  223SOL     OW 1567   6.894   2.621   5.227
  223SOL    HW1 1568   6.802   2.581   5.228
  223SOL    HW2 1569   6.953   2.569   5.289
  224SOL     OW 1570   2.425   1.881   6.086
  224SOL    HW1 1571   2.397   1.948   6.017
  224SOL    HW2 1572   2.430   1.790   6.044
  225SOL     OW 1573   4.930   3.806   5.941
  225SOL    HW1 1574   5.005   3.869   5.920
  225SOL    HW2 1575   4.846   3.838   5.897
  226SOL     OW 1576   1.069   1.799   6.453
  226SOL    HW1 1577   1.003   1.790   6.528
  226SOL    HW2 1578   1.029   1.762   6.369
  227SOL     OW 1579   2.024   4.122   2.395
  227SOL    HW1 1580   1.927   4.136   2.411
  227SOL    HW2 1581   2.061   4.060   2.465
  228SOL     OW 1582   1.573   0.536   2.765
  228SOL    HW1 1583   1.552   0.623   2.721
  228SOL    HW2 1584   1.669   0.513   2.748
  229SOL     OW 1585   5.213   4.700   6.749
  229SOL    HW1 1586   5.185   4.739   6.662
  229SOL    HW2 1587   5.141   4.715   6.818
  230SOL     OW 1588   4.275   5.889   4.650
  230SOL    HW1 1589   4.251   5.824   4.722
  230SOL    HW2 1590   4.349   5.850   4.595
  231SOL     OW 1591   5.115   1.491   6.820
  231SOL    HW1 1592   5.141   1.586   6.802
  231SOL    HW2 1593   5.116   1.474   6.918
  232SOL     OW 1594   0.866   2.683   6.114
  232SOL    HW1 1595   0.864   2.614   6.186
  232SOL    HW2 1596   0.955   2.681   6.069
  233SOL     OW 1597   2.977   1.406   3.463
  233SOL    HW1 1598   2.990   1.429   3.560
  233SOL    HW2 1599   3.054   1.351   3.431
  234SOL     OW 1600   5.770   1.169   6.221
  234SOL    HW1 1601   5.861   1.186   6.258
  234SOL    HW2 1602   5.709   1.138   6.293
  235SOL     OW 1603   5.135   3.359   2.209
  235SOL    HW1 1604   5.171   3.296   2.278
  235SOL    HW2 1605   5.056   3.408   2.247
  236SOL     OW 1606   4.445   3.440   6.440
  236SOL    HW1 1607   4.530   3.493   6.436
  236SOL    HW2 1608   4.423   3.406   6.348
  237SOL     OW 1609   6.191   3.894   2.691
  237SOL    HW1 1610   6.262   3.962   2.710
  237SOL    HW2 1611   6.153   3.911   2.600
  238SOL     OW 1612   6.026   1.594   0.344
  238SOL    HW1 1613   6.000   1.654   0.268
  238SOL    HW2 1614   5.997   1.501   0.324
  239SOL     OW 1615   1.097   3.981   0.620
  239SOL    HW1 1616   1.189   4.020   0.620
  239SOL    HW2 1617   1.091   3.911   0.691
  240SOL     OW 1618   6.573   3.789   2.930
  240SOL    HW1 1619   6.627   3.735   2.866
  240SOL    HW2 1620   6.566   3.741   3.017
  241SOL     OW 1621   2.592   1.740   4.298
  241SOL    HW1 1622   2.499   1.747   4.261
  241SOL    HW2 1623   2.655   1.714   4.225
  242SOL     OW 1624   3.265   3.955   3.429
  242SOL    HW1 1625   3.192   3.899   3.467
  242SOL    HW2 1626   3.348   3.899   3.417
  243SOL     OW 1627   4.761   2.582   6.656
  243SOL    HW1 1628   4.712   2.669   6.665
  243SOL    HW2 1629   4.794   2.572   6.563
  244SOL     OW 1630   6.193   3.325   6.305
  244SOL    HW1 1631   6.107   3.274   6.306
  244SOL    HW2 1632   6.226   3.336   6.398
  245SOL     OW 1633   3.414   1.909   3.623
  245SOL    HW1 1634   3.377   1.861   3.543
  245SOL    HW2 1635   3.461   1.843   3.682
  246SOL     OW 1636   5.863   1.566   3.458
  246SOL    HW1 1637   5.888   1.660   3.479
  246SOL    HW2 1638   5.868   1.511   3.542
  247SOL     OW 1639   2.021   2.357   0.750
  247SOL    HW1 1640   1.982   2.271   0.718
  247SOL    HW2 1641   2.121   2.353   0.742
  248SOL     OW 1642   2.415   1.485   2.330
  248SOL    HW1 1643   2.427   1.466   2.233
  248SOL    HW2 1644   2.488   1.545   2.362
  249SOL     OW 1645   5.418   0.039   5.079
  249SOL    HW1 1646   5.507   0.086   5.075
  249SOL    HW2 1647   5.392   0.025   5.174
  250SOL     OW 1648   3.555   2.642   0.802
  250SOL    HW1 1649   3.536   2.597   0.715
  250SOL    HW2 1650   3.497   2.723   0.811
  251SOL     OW 1651   4.477   3.636   5.630
  251SOL    HW1 1652   4.488   3.642   5.530
  251SOL    HW2 1653   4.520   3.553   5.664
  252SOL     OW 1654   6.023   6.783   5.824
  252SOL    HW1 1655   6.091   6.798   5.752
  252SOL    HW2 1656   5.944   6.841   5.807
  253SOL     OW 1657   4.146   5.036   5.593
  253SOL    HW1 1658   4.113   5.070   5.505
  253SOL    HW2 1659   4.072   4.989   5.641
  254SOL     OW 1660   6.615   2.884   4.284
  254SOL    HW1 1661   6.628   2.785   4.291
  254SOL    HW2 1662   6.692   2.924   4.234
  255SOL     OW 1663   1.516   4.797   6.044
  255SOL    HW1 1664   1.557   4.878   6.001
  255SOL    HW2 1665   1.549   4.789   6.138
  256SOL     OW 1666   4.714   3.233   6.199
  256SOL    HW1 1667   4.717   3.168   6.123
  256SOL    HW2 1668   4.690   3.185   6.283
  257SOL     OW 1669   4.571   6.107   2.647
  257SOL    HW1 1670   4.661   6.097   2.691
  257SOL    HW2 1671   4.516   6.026   2.667
  258SOL     OW 1672   2.717   4.077   5.844
  258SOL    HW1 1673   2.687   4.165   5.807
  258SOL    HW2 1674   2.660   4.004   5.806
  259SOL     OW 1675   4.655   0.406   2.508
  259SOL    HW1 1676   4.630   0.382   2.602
  259SOL    HW2 1677   4.718   0.484   2.510
  260SOL     OW 1678   3.968   4.828   3.283
  260SOL    HW1 1679   4.029   4.824   3.204
  260SOL    HW2 1680   3.891   4.888   3.263
  261SOL     OW 1681   4.914   4.835   0.969
  261SOL    HW1 1682   4.833   4.779   0.951
  261SOL    HW2 1683   4.987   4.808   0.907
  262SOL     OW 1684   2.074   3.445   0.920
  262SOL    HW1 1685   1.978   3.446   0.947
  262SOL    HW2 1686   2.117   3.532   0.944
  263SOL     OW 1687   1.274   0.086   4.151
  263SOL    HW1 1688   1.195   0.029   4.174
  263SOL    HW2 1689   1.334   0.036   4.089
  264SOL     OW 1690   0.070   2.921   7.012
  264SOL    HW1 1691   0.008   2.864   0.043
  264SOL    HW2 1692   0.144   2.864   6.977
  265SOL     OW 1693   6.088   6.705   3.855
  265SOL    HW1 1694   6.078   6.801   3.831
  265SOL    HW2 1695   6.044   6.687   3.943
  266SOL     OW 1696   5.082   2.449   5.981
  266SOL    HW1 1697   5.062   2.478   6.074
  266SOL    HW2 1698   5.057   2.352   5.970
  267SOL     OW 1699   1.172   0.643   5.071
  267SOL    HW1 1700   1.247   0.631   5.136
  267SOL    HW2 1701   1.126   0.730   5.088
  268SOL     OW 1702   3.933   1.248   6.854
  268SOL    HW1 1703   3.901   1.230   6.761
  268SOL    HW2 1704   3.950   1.346   6.865
  269SOL     OW 1705   2.961   1.953   0.004
  269SOL    HW1 1706   2.882   1.970   0.063
  269SOL    HW2 1707   3.035   2.016   0.029
  270SOL     OW 1708   0.637   6.722   0.149
  270SOL    HW1 1709   0.664   6.808   0.193
  270SOL    HW2 1710   0.562   6.739   0.086
  271SOL     OW 1711   0.417   1.685   6.292
  271SOL    HW1 1712   0.456   1.777   6.286
  271SOL    HW2 1713   0.325   1.690   6.330
  272SOL     OW 1714   3.431   5.622   4.158
  272SOL    HW1 1715   3.467   5.535   4.190
  272SOL    HW2 1716   3.333   5.614   4.143
  273SOL     OW 1717   1.712   4.943   5.650
  273SOL    HW1 1718   1.689   4.850   5.621
  273SOL    HW2 1719   1.760   4.990   5.576
  274SOL     OW 1720   3.811   0.984   4.140
  274SOL    HW1 1721   3.867   0.990   4.223
  274SOL    HW2 1722   3.864   1.014   4.061
  275SOL     OW 1723   0.249   6.890   2.686
  275SOL    HW1 1724   0.263   6.981   2.646
  275SOL    HW2 1725   0.155   6.861   2.669
  276SOL     OW 1726   0.406   0.257   4.356
  276SOL    HW1 1727   0.486   0.206   4.389
  276SOL    HW2 1728   0.390   0.335   4.415
  277SOL     OW 1729   2.197   2.977   0.632
  277SOL    HW1 1730   2.273   3.003   0.691
  277SOL    HW2 1731   2.183   3.046   0.562
  278SOL     OW 1732   6.997   3.011   3.264
  278SOL    HW1 1733   0.044   2.950   3.299
  278SOL    HW2 1734   7.018   3.036   3.170
  279SOL     OW 1735   5.589   2.729   4.798
  279SOL    HW1 1736   5.520   2.667   4.835
  279SOL    HW2 1737   5.679   2.700   4.828
  280SOL     OW 1738   1.772   5.157   1.875
  280SOL    HW1 1739   1.687   5.190   1.835
  280SOL    HW2 1740   1.844   5.158   1.806
  281SOL     OW 1741   2.254   3.947   1.298
  281SOL    HW1 1742   2.286   4.010   1.369
  281SOL    HW2 1743   2.235   3.999   1.214
  282SOL     OW 1744   3.302   1.851   5.937
  282SOL    HW1 1745   3.233   1.922   5.951
  282SOL    HW2 1746   3.260   1.761   5.946
  283SOL     OW 1747   5.246   2.635   6.711
  283SOL    HW1 1748   5.272   2.549   6.669
  283SOL    HW2 1749   5.151   2.630   6.741
  284SOL     OW 1750   0.747   3.779   3.585
  284SOL    HW1 1751   0.666   3.781   3.526
  284SOL    HW2 1752   0.777   3.684   3.598
  285SOL     OW 1753   5.720   4.541   3.692
  285SOL    HW1 1754   5.695   4.455   3.649
  285SOL    HW2 1755   5.818   4.558   3.679
  286SOL     OW 1756   3.404   3.927   6.999
  286SOL    HW1 1757   3.504   3.921   6.993
  286SOL    HW2 1758   3.363   3.883   6.918
  287SOL     OW 1759   1.689   3.580   0.510
  287SOL    HW1 1760   1.746   3.498   0.513
  287SOL    HW2 1761   1.704   3.635   0.592
  288SOL     OW 1762   4.471   1.411   7.006
  288SOL    HW1 1763   4.507   1.383   0.071
  288SOL    HW2 1764   4.483   1.338   6.940
  289SOL     OW 1765   2.033   4.779   5.809
  289SOL    HW1 1766   2.031   4.726   5.724
  289SOL    HW2 1767   1.995   4.724   5.883
  290SOL     OW 1768   0.187   2.161   5.513
  290SOL    HW1 1769   0.215   2.134   5.605
  290SOL    HW2 1770   0.219   2.254   5.494
  291SOL     OW 1771   0.254   1.583   3.059
  291SOL    HW1 1772   0.279   1.503   3.005
  291SOL    HW2 1773   0.327   1.651   3.055
  292SOL     OW 1774   2.229   0.556   3.420
  292SOL    HW1 1775   2.183   0.642   3.397
  292SOL    HW2 1776   2.228   0.495   3.341
  293SOL     OW 1777   4.613   5.352   4.143
  293SOL    HW1 1778   4.565   5.290   4.205
  293SOL    HW2 1779   4.547   5.403   4.088
  294SOL     OW 1780   5.545   6.544   6.464
  294SOL    HW1 1781   5.537   6.574   6.369
  294SOL    HW2 1782   5.554   6.444   6.467
  295SOL     OW 1783   5.105   0.561   3.959
  295SOL    HW1 1784   5.132   0.573   3.863
  295SOL    HW2 1785   5.119   0.646   4.009
  296SOL     OW 1786   3.238   1.643   2.843
  296SOL    HW1 1787   3.271   1.738   2.842
  296SOL    HW2 1788   3.199   1.622   2.932
  297SOL     OW 1789   1.385   3.655   3.453
  297SOL    HW1 1790   1.480   3.676   3.432
  297SOL    HW2 1791   1.381   3.591   3.531
  298SOL     OW 1792   6.099   5.569   1.124
  298SOL    HW1 1793   6.010   5.613   1.115
  298SOL    HW2 1794   6.110   5.535   1.218
  299SOL     OW 1795   6.264   2.750   5.186
  299SOL    HW1 1796   6.228   2.741   5.094
  299SOL    HW2 1797   6.329   2.676   5.205
  300SOL     OW 1798   6.011   0.816   3.029
  300SOL    HW1 1799   6.058   0.861   2.954
  300SOL    HW2 1800   6.046   0.849   3.116
  301SOL     OW 1801   5.685   3.600   6.361
  301SOL    HW1 1802   5.751   3.595   6.436
  301SOL    HW2 1803   5.688   3.691   6.320
  302SOL     OW 1804   0.877   0.360   3.880
  302SOL    HW1 1805   0.779   0.370   3.900
  302SOL    HW2 1806   0.888   0.309   3.795
  303SOL     OW 1807   5.167   0.994   3.433
  303SOL    HW1 1808   5.218   1.076   3.459
  303SOL    HW2 1809   5.219   0.913   3.460
  304SOL     OW 1810   2.174   0.071   3.610
  304SOL    HW1 1811   2.207   0.032   3.524
  304SOL    HW2 1812   2.175   7.024   3.681
  305SOL     OW 1813   1.042   3.725   0.460
  305SOL    HW1 1814   1.010   3.719   0.554
  305SOL    HW2 1815   1.135   3.762   0.458
  306SOL     OW 1816   2.136   1.151   4.098
  306SOL    HW1 1817   2.167   1.245   4.085
  306SOL    HW2 1818   2.066   1.149   4.170
  307SOL     OW 1819   4.235   0.141   1.149
  307SOL    HW1 1820   4.321   0.118   1.194
  307SOL    HW2 1821   4.172   0.063   1.155
  308SOL     OW 1822   0.816   6.098   3.393
  308SOL    HW1 1823   0.892   6.144   3.348
  308SOL    HW2 1824   0.851   6.038   3.465
  309SOL     OW 1825   3.567   4.836   5.461
  309SOL    HW1 1826   3.617   4.923   5.468
  309SOL    HW2 1827   3.513   4.835   5.376
  310SOL     OW 1828   0.361   6.504   5.656
  310SOL    HW1 1829   0.326   6.556   5.733
  310SOL    HW2 1830   0.444   6.548   5.620
  311SOL     OW 1831   0.570   6.209   1.659
  311SOL    HW1 1832   0.559   6.121   1.705
  311SOL    HW2 1833   0.498   6.271   1.688
  312SOL     OW 1834   4.902   1.921   5.035
  312SOL    HW1 1835   4.931   1.828   5.011
  312SOL    HW2 1836   4.820   1.945   4.982
  313SOL     OW 1837   1.844   4.326   2.008
  313SOL    HW1 1838   1.796   4.391   2.068
  313SOL    HW2 1839   1.901   4.266   2.063
  314SOL     OW 1840   3.433   5.777   0.400
  314SOL    HW1 1841   3.433   5.733   0.490
  314SOL    HW2 1842   3.386   5.865   0.406
  315SOL     OW 1843   0.752   2.212   3.253
  315SOL    HW1 1844   0.802   2.294   3.280
  315SOL    HW2 1845   0.657   2.220   3.281
  316SOL     OW 1846   2.497   2.606   3.686
  316SOL    HW1 1847   2.558   2.676   3.722
  316SOL    HW2 1848   2.547   2.520   3.676
  317SOL     OW 1849   6.881   1.852   0.116
  317SOL    HW1 1850   6.814   1.835   0.189
  317SOL    HW2 1851   6.927   1.766   0.093
  318SOL     OW 1852   2.165   3.721   0.909
  318SOL    HW1 1853   2.165   3.814   0.873
  318SOL    HW2 1854   2.220   3.717   0.993
  319SOL     OW 1855   1.780   6.280   0.749
  319SOL    HW1 1856   1.704   6.215   0.743
  319SOL    HW2 1857   1.814   6.300   0.657
  320SOL     OW 1858   6.100   3.317   0.440
  320SOL    HW1 1859   6.169   3.374   0.485
  320SOL    HW2 1860   6.102   3.225   0.480
  321SOL     OW 1861   1.826   2.846   1.455
  321SOL    HW1 1862   1.856   2.822   1.363
  321SOL    HW2 1863   1.828   2.945   1.466
  322SOL     OW 1864   3.773   3.265   5.272
  322SOL    HW1 1865   3.774   3.360   5.239
  322SOL    HW2 1866   3.842   3.212   5.223
  323SOL     OW 1867   7.016   4.227   1.165
  323SOL    HW1 1868   0.014   4.189   1.254
  323SOL    HW2 1869   0.052   4.304   1.145
  324SOL     OW 1870   1.248   2.870   4.761
  324SOL    HW1 1871   1.230   2.890   4.665
  324SOL    HW2 1872   1.291   2.780   4.769
  325SOL     OW 1873   2.241   2.891   2.027
  325SOL    HW1 1874   2.276   2.840   1.948
  325SOL    HW2 1875   2.262   2.988   2.016
  326SOL     OW 1876   1.519   5.352   6.310
  326SOL    HW1 1877   1.612   5.388   6.319
  326SOL    HW2 1878   1.520   5.253   6.324
  327SOL     OW 1879   6.490   4.682   5.722
  327SOL    HW1 1880   6.438   4.597   5.732
  327SOL    HW2 1881   6.484   4.713   5.627
  328SOL     OW 1882   4.221   4.998   2.399
  328SOL    HW1 1883   4.129   4.997   2.436
  328SOL    HW2 1884   4.219   5.032   2.305
  329SOL     OW 1885   3.491   3.755   3.451
  329SOL    HW1 1886   3.485   3.657   3.469
  329SOL    HW2 1887   3.565   3.795   3.505
  330SOL     OW 1888   3.641   6.927   1.984
  330SOL    HW1 1889   3.700   6.931   1.903
  330SOL    HW2 1890   3.548   6.906   1.957
  331SOL     OW 1891   4.988   5.206   5.854
  331SOL    HW1 1892   4.993   5.278   5.785
  331SOL    HW2 1893   5.076   5.159   5.860
  332SOL     OW 1894   3.372   2.148   2.993
  332SOL    HW1 1895   3.273   2.135   2.984
  332SOL    HW2 1896   3.397   2.138   3.089
  333SOL     OW 1897   4.173   5.885   6.541
  333SOL    HW1 1898   4.144   5.875   6.445
  333SOL    HW2 1899   4.246   5.953   6.546
  334SOL     OW 1900   4.088   0.169   2.458
  334SOL    HW1 1901   4.024   0.093   2.470
  334SOL    HW2 1902   4.161   0.142   2.394
  335SOL     OW 1903   3.030   6.648   3.580
  335SOL    HW1 1904   3.129   6.643   3.571
  335SOL    HW2 1905   2.994   6.717   3.517
  336SOL     OW 1906   3.318   0.821   3.852
  336SOL    HW1 1907   3.370   0.848   3.933
  336SOL    HW2 1908   3.347   0.730   3.823
  337SOL     OW 1909   6.716   4.052   1.393
  337SOL    HW1 1910   6.715   4.059   1.493
  337SOL    HW2 1911   6.802   4.012   1.363
  338SOL     OW 1912   3.315   2.772   1.477
  338SOL    HW1 1913   3.319   2.726   1.388
  338SOL    HW2 1914   3.304   2.704   1.549
  339SOL     OW 1915   4.604   6.392   2.894
  339SOL    HW1 1916   4.678   6.391   2.962
  339SOL    HW2 1917   4.521   6.354   2.935
  340SOL     OW 1918   4.898   3.964   4.600
  340SOL    HW1 1919   4.868   3.882   4.648
  340SOL    HW2 1920   4.994   3.983   4.623
  341SOL     OW 1921   5.254   5.646   4.540
  341SOL    HW1 1922   5.258   5.690   4.629
  341SOL    HW2 1923   5.161   5.654   4.503
  342SOL     OW 1924   6.130   4.743   0.921
  342SOL    HW1 1925   6.064   4.734   0.996
  342SOL    HW2 1926   6.174   4.832   0.927
  343SOL     OW 1927   3.537   0.497   2.233
  343SOL    HW1 1928   3.606   0.539   2.292
  343SOL    HW2 1929   3.582   0.457   2.153
  344SOL     OW 1930   2.283   4.848   0.713
  344SOL    HW1 1931   2.371   4.801   0.717
  344SOL    HW2 1932   2.265   4.892   0.801
  345SOL     OW 1933   0.908   0.332   4.775
  345SOL    HW1 1934   0.811   0.346   4.793
  345SOL    HW2 1935   0.923   0.236   4.750
  346SOL     OW 1936   1.265   0.226   2.912
  346SOL    HW1 1937   1.317   0.141   2.917
  346SOL    HW2 1938   1.324   0.303   2.936
  347SOL     OW 1939   4.806   6.947   6.534
  347SOL    HW1 1940   4.837   6.880   6.602
  347SOL    HW2 1941   4.865   0.003   6.537
  348SOL     OW 1942   3.738   5.216   1.526
  348SOL    HW1 1943   3.832   5.237   1.551
  348SOL    HW2 1944   3.688   5.301   1.508
  349SOL     OW 1945   0.669   4.859   2.490
  349SOL    HW1 1946   0.578   4.878   2.529
  349SOL    HW2 1947   0.670   4.766   2.453
  350SOL     OW 1948   4.101   3.320   1.243
  350SOL    HW1 1949   4.121   3.275   1.330
  350SOL    HW2 1950   4.079   3.416   1.260
  351SOL     OW 1951   2.941   1.663   0.154
  351SOL    HW1 1952   2.859   1.659   0.096
  351SOL    HW2 1953   2.986   1.752   0.142
  352SOL     OW 1954   2.975   0.767   6.470
  352SOL    HW1 1955   2.892   0.821   6.476
  352SOL    HW2 1956   3.032   0.801   6.395
  353SOL     OW 1957   2.004   6.219   0.909
  353SOL    HW1 1958   1.938   6.253   0.842
  353SOL    HW2 1959   2.096   6.249   0.883
  354SOL     OW 1960   4.483   1.287   0.837
  354SOL    HW1 1961   4.565   1.282   0.780
  354SOL    HW2 1962   4.499   1.350   0.913
  355SOL     OW 1963   0.141   3.276   2.736
  355SOL    HW1 1964   0.095   3.188   2.741
  355SOL    HW2 1965   0.083   3.347   2.775
  356SOL     OW 1966   4.128   5.351   3.327
  356SOL    HW1 1967   4.156   5.257   3.344
  356SOL    HW2 1968   4.043   5.352   3.275
  357SOL     OW 1969   6.993   5.615   5.140
  357SOL    HW1 1970   6.998   5.537   5.203
  357SOL    HW2 1971   6.901   5.622   5.102
  358SOL     OW 1972   5.324   0.362   1.287
  358SOL    HW1 1973   5.283   0.451   1.265
  358SOL    HW2 1974   5.400   0.376   1.351
  359SOL     OW 1975   1.597   1.829   1.881
  359SOL    HW1 1976   1.635   1.908   1.930
  359SOL    HW2 1977   1.533   1.781   1.942
  360SOL     OW 1978   4.042   6.832   0.159
  360SOL    HW1 1979   3.944   6.852   0.158
  360SOL    HW2 1980   4.094   6.917   0.164
  361SOL     OW 1981   4.550   6.646   2.415
  361SOL    HW1 1982   4.549   6.744   2.393
  361SOL    HW2 1983   4.471   6.624   2.472
  362SOL     OW 1984   3.199   3.596   0.754
  362SOL    HW1 1985   3.274   3.534   0.730
  362SOL    HW2 1986   3.197   3.608   0.854
  363SOL     OW 1987   4.484   4.635   4.387
  363SOL    HW1 1988   4.399   4.638   4.439
  363SOL    HW2 1989   4.535   4.552   4.410
  364SOL     OW 1990   1.042   5.503   5.753
  364SOL    HW1 1991   0.994   5.529   5.670
  364SOL    HW2 1992   1.090   5.417   5.738
  365SOL     OW 1993   4.836   6.668   1.660
  365SOL    HW1 1994   4.795   6.594   1.607
  365SOL    HW2 1995   4.933   6.650   1.673
  366SOL     OW 1996   5.772   0.969   6.934
  366SOL    HW1 1997   5.798   1.024   6.854
  366SOL    HW2 1998   5.770   0.872   6.909
  367SOL     OW 1999   5.263   2.723   1.316
  367SOL    HW1 2000   5.170   2.708   1.282
  367SOL    HW2 2001   5.286   2.653   1.383
  368SOL     OW 2002   0.884   5.033   4.916
  368SOL    HW1 2003   0.837   5.101   4.972
  368SOL    HW2 2004   0.983   5.043   4.928
  369SOL     OW 2005   0.810   3.747   1.675
  369SOL    HW1 2006   0.891   3.719   1.622
  369SOL    HW2 2007   0.756   3.811   1.621
  370SOL     OW 2008   3.121   1.541   5.756
  370SOL    HW1 2009   3.106   1.636   5.729
  370SOL    HW2 2010   3.141   1.537   5.854
  371SOL     OW 2011   3.853   2.536   0.245
  371SOL    HW1 2012   3.769   2.482   0.248
  371SOL    HW2 2013   3.864   2.587   0.330
  372SOL     OW 2014   0.331   6.199   6.380
  372SOL    HW1 2015   0.416   6.243   6.409
  372SOL    HW2 2016   0.351   6.109   6.342
  373SOL     OW 2017   7.020   6.988   0.321
  373SOL    HW1 2018   6.992   6.962   0.229
  373SOL    HW2 2019   6.940   7.020   0.372
  374SOL     OW 2020   3.326   0.842   1.747
  374SOL    HW1 2021   3.243   0.851   1.802
  374SOL    HW2 2022   3.366   0.751   1.760
  375SOL     OW 2023   6.930   4.928   3.310
  375SOL    HW1 2024   6.919   4.918   3.211
  375SOL    HW2 2025   6.948   4.839   3.351
  376SOL     OW 2026   2.156   2.634   3.987
  376SOL    HW1 2027   2.254   2.625   4.000
  376SOL    HW2 2028   2.113   2.663   4.073
  377SOL     OW 2029   5.040   1.866   3.690
  377SOL    HW1 2030   4.993   1.795   3.743
  377SOL    HW2 2031   5.110   1.825   3.632
  378SOL     OW 2032   5.029   2.731   5.116
  378SOL    HW1 2033   5.000   2.809   5.171
  378SOL    HW2 2034   5.047   2.761   5.022
  379SOL     OW 2035   6.254   3.688   1.185
  379SOL    HW1 2036   6.310   3.767   1.161
  379SOL    HW2 2037   6.186   3.715   1.253
  380SOL     OW 2038   0.994   1.875   1.293
  380SOL    HW1 2039   0.923   1.946   1.293
  380SOL    HW2 2040   1.083   1.917   1.312
  381SOL     OW 2041   3.831   3.444   1.373
  381SOL    HW1 2042   3.758   3.404   1.430
  381SOL    HW2 2043   3.790   3.502   1.304
  382SOL     OW 2044   2.691   5.737   0.613
  382SOL    HW1 2045   2.692   5.798   0.692
  382SOL    HW2 2046   2.645   5.652   0.637
  383SOL     OW 2047   6.327   2.529   0.326
  383SOL    HW1 2048   6.266   2.541   0.247
  383SOL    HW2 2049   6.421   2.550   0.298
  384SOL     OW 2050   1.809   5.595   4.948
  384SOL    HW1 2051   1.884   5.529   4.956
  384SOL    HW2 2052   1.722   5.547   4.953
  385SOL     OW 2053   4.789   5.955   0.472
  385SOL    HW1 2054   4.804   5.865   0.514
  385SOL    HW2 2055   4.743   6.015   0.537
  386SOL     OW 2056   3.429   6.189   5.917
  386SOL    HW1 2057   3.374   6.252   5.862
  386SOL    HW2 2058   3.526   6.209   5.904
  387SOL     OW 2059   0.198   0.692   5.478
  387SOL    HW1 2060   0.290   0.699   5.441
  387SOL    HW2 2061   0.145   0.627   5.424
  388SOL     OW 2062   6.360   2.487   5.280
  388SOL    HW1 2063   6.342   2.516   5.374
  388SOL    HW2 2064   6.300   2.411   5.256
  389SOL     OW 2065   4.059   4.617   1.388
  389SOL    HW1 2066   4.153   4.631   1.419
  389SOL    HW2 2067   3.999   4.680   1.436
  390SOL     OW 2068   3.219   1.830   0.187
  390SOL    HW1 2069   3.239   1.736   0.159
  390SOL    HW2 2070   3.268   1.894   0.127
  391SOL     OW 2071   3.139   4.442   5.695
  391SOL    HW1 2072   3.063   4.397   5.742
  391SOL    HW2 2073   3.152   4.533   5.734
  392SOL     OW 2074   1.190   3.591   1.733
  392SOL    HW1 2075   1.184   3.608   1.831
  392SOL    HW2 2076   1.286   3.576   1.708
  393SOL     OW 2077   0.996   4.314   1.792
  393SOL    HW1 2078   1.040   4.360   1.868
  393SOL    HW2 2079   1.040   4.225   1.776
  394SOL     OW 2080   0.310   1.009   6.604
  394SOL    HW1 2081   0.223   0.969   6.577
  394SOL    HW2 2082   0.326   0.991   6.702
  395SOL     OW 2083   5.629   4.662   1.464
  395SOL    HW1 2084   5.700   4.593   1.478
  395SOL    HW2 2085   5.640   4.704   1.374
  396SOL     OW 2086   2.053   0.778   1.937
  396SOL    HW1 2087   1.954   0.773   1.921
  396SOL    HW2 2088   2.083   0.697   1.986
  397SOL     OW 2089   4.483   2.053   5.124
  397SOL    HW1 2090   4.431   1.970   5.144
  397SOL    HW2 2091   4.552   2.034   5.055
  398SOL     OW 2092   1.464   1.355   4.063
  398SOL    HW1 2093   1.423   1.266   4.083
  398SOL    HW2 2094   1.394   1.418   4.030
  399SOL     OW 2095   6.052   6.293   3.898
  399SOL    HW1 2096   6.139   6.319   3.939
  399SOL    HW2 2097   5.977   6.326   3.956
  400SOL     OW 2098   6.155   0.684   4.794
  400SOL    HW1 2099   6.127   0.752   4.726
  400SOL    HW2 2100   6.248   0.705   4.825
  401SOL     OW 2101   0.006   4.880   5.908
  401SOL    HW1 2102   0.013   4.788   5.946
  401SOL    HW2 2103   6.950   4.885   5.849
  402SOL     OW 2104   6.414   0.478   2.760
  402SOL    HW1 2105   6.431   0.515   2.852
  402SOL    HW2 2106   6.322   0.439   2.756
  403SOL     OW 2107   2.287   1.276   5.377
  403SOL    HW1 2108   2.293   1.313   5.469
  403SOL    HW2 2109   2.233   1.192   5.378
  404SOL     OW 2110   3.679   5.622   3.734
  404SOL    HW1 2111   3.622   5.564   3.676
  404SOL    HW2 2112   3.665   5.718   3.710
  405SOL     OW 2113   2.360   4.753   4.316
  405SOL    HW1 2114   2.420   4.673   4.316
  405SOL    HW2 2115   2.405   4.828   4.268
  406SOL     OW 2116   0.297   5.759   5.724
  406SOL    HW1 2117   0.296   5.793   5.819
  406SOL    HW2 2118   0.213   5.787   5.678
  407SOL     OW 2119   1.893   3.154   4.500
  407SOL    HW1 2120   1.979   3.158   4.553
  407SOL    HW2 2121   1.836   3.080   4.536
  408SOL     OW 2122   2.507   1.539   3.376
  408SOL    HW1 2123   2.529   1.451   3.419
  408SOL    HW2 2124   2.465   1.599   3.444
  409SOL     OW 2125   0.718   3.614   2.865
  409SOL    HW1 2126   0.799   3.635   2.920
  409SOL    HW2 2127   0.636   3.637   2.918
  410SOL     OW 2128   1.975   1.483   1.556
  410SOL    HW1 2129   1.939   1.474   1.649
  410SOL    HW2 2130   2.043   1.557   1.554
  411SOL     OW 2131   0.612   3.140   1.298
  411SOL    HW1 2132   0.699   3.136   1.249
  411SOL    HW2 2133   0.606   3.227   1.347
  412SOL     OW 2134   1.360   5.445   2.341
  412SOL    HW1 2135   1.330   5.533   2.378
  412SOL    HW2 2136   1.295   5.373   2.367
  413SOL     OW 2137   5.530   5.888   2.476
  413SOL    HW1 2138   5.478   5.960   2.430
  413SOL    HW2 2139   5.467   5.827   2.524
  414SOL     OW 2140   2.103   6.305   3.482
  414SOL    HW1 2141   2.196   6.338   3.499
  414SOL    HW2 2142   2.105   6.239   3.407
  415SOL     OW 2143   6.147   1.204   0.430
  415SOL    HW1 2144   6.103   1.250   0.353
  415SOL    HW2 2145   6.204   1.269   0.479
  416SOL     OW 2146   5.296   3.280   4.750
  416SOL    HW1 2147   5.277   3.359   4.808
  416SOL    HW2 2148   5.393   3.279   4.727
  417SOL     OW 2149   2.052   1.759   6.177
  417SOL    HW1 2150   2.128   1.716   6.129
  417SOL    HW2 2151   1.966   1.737   6.129
  418SOL     OW 2152   4.099   6.619   4.641
  418SOL    HW1 2153   4.099   6.621   4.741
  418SOL    HW2 2154   4.016   6.573   4.609
  419SOL     OW 2155   0.314   0.164   0.816
  419SOL    HW1 2156   0.314   0.066   0.795
  419SOL    HW2 2157   0.224   0.202   0.797
  420SOL     OW 2158   4.594   0.881   6.765
  420SOL    HW1 2159   4.675   0.865   6.710
  420SOL    HW2 2160   4.603   0.968   6.814
  421SOL     OW 2161   5.528   3.430   2.699
  421SOL    HW1 2162   5.508   3.443   2.602
  421SOL    HW2 2163   5.448   3.390   2.745
  422SOL     OW 2164   4.893   3.260   1.898
  422SOL    HW1 2165   4.976   3.204   1.895
  422SOL    HW2 2166   4.814   3.204   1.875
  423SOL     OW 2167   3.550   1.192   6.391
  423SOL    HW1 2168   3.611   1.253   6.342
  423SOL    HW2 2169   3.576   1.189   6.488
  424SOL     OW 2170   1.067   3.446   3.547
  424SOL    HW1 2171   1.082   3.539   3.514
  424SOL    HW2 2172   1.054   3.446   3.646
  425SOL     OW 2173   2.712   0.587   6.116
  425SOL    HW1 2174   2.645   0.654   6.148
  425SOL    HW2 2175   2.665   0.504   6.086
  426SOL     OW 2176   2.543   2.157   4.035
  426SOL    HW1 2177   2.530   2.147   4.134
  426SOL    HW2 2178   2.586   2.245   4.016
  427SOL     OW 2179   3.923   2.185   3.129
  427SOL    HW1 2180   3.948   2.279   3.107
  427SOL    HW2 2181   3.886   2.140   3.047
  428SOL     OW 2182   2.884   2.231   6.094
  428SOL    HW1 2183   2.890   2.157   6.160
  428SOL    HW2 2184   2.803   2.217   6.036
  429SOL     OW 2185   0.783   5.657   4.226
  429SOL    HW1 2186   0.839   5.638   4.145
  429SOL    HW2 2187   0.720   5.580   4.242
  430SOL     OW 2188   1.404   6.925   3.986
  430SOL    HW1 2189   1.439   6.933   3.893
  430SOL    HW2 2190   1.479   6.906   4.049
  431SOL     OW 2191   2.544   1.919   1.273
  431SOL    HW1 2192   2.552   1.898   1.175
  431SOL    HW2 2193   2.624   1.883   1.320
  432SOL     OW 2194   5.098   2.107   2.067
  432SOL    HW1 2195   5.073   2.166   2.143
  432SOL    HW2 2196   5.021   2.098   2.004
  433SOL     OW 2197   1.863   4.861   1.013
  433SOL    HW1 2198   1.914   4.945   1.028
  433SOL    HW2 2199   1.769   4.883   0.987
  434SOL     OW 2200   4.478   5.960   3.815
  434SOL    HW1 2201   4.422   5.896   3.867
  434SOL    HW2 2202   4.528   5.910   3.744
  435SOL     OW 2203   3.581   1.640   5.875
  435SOL    HW1 2204   3.529   1.642   5.789
  435SOL    HW2 2205   3.602   1.545   5.899
  436SOL     OW 2206   4.689   0.147   2.815
  436SOL    HW1 2207   4.611   0.112   2.867
  436SOL    HW2 2208   4.689   0.106   2.724
  437SOL     OW 2209   6.372   0.777   4.956
  437SOL    HW1 2210   6.404   0.872   4.961
  437SOL    HW2 2211   6.319   0.756   5.039
  438SOL     OW 2212   0.227   4.431   2.906
  438SOL    HW1 2213   0.127   4.425   2.901
  438SOL    HW2 2214   0.267   4.395   2.823
  439SOL     OW 2215   0.032   0.802   4.476
  439SOL    HW1 2216   6.963   0.797   4.510
  439SOL    HW2 2217   0.090   0.849   4.543
  440SOL     OW 2218   3.947   1.076   0.384
  440SOL    HW1 2219   4.016   1.092   0.454
  440SOL    HW2 2220   3.989   1.086   0.293
  441SOL     OW 2221   0.356   3.819   2.562
  441SOL    HW1 2222   0.369   3.827   2.463
  441SOL    HW2 2223   0.443   3.837   2.608
  442SOL     OW 2224   5.401   3.320   5.625
  442SOL    HW1 2225   5.404   3.232   5.578
  442SOL    HW2 2226   5.494   3.356   5.633
  443SOL     OW 2227   4.879   3.510   2.035
  443SOL    HW1 2228   4.873   3.424   1.984
  443SOL    HW2 2229   4.893   3.491   2.132
  444SOL     OW 2230   3.911   1.113   1.652
  444SOL    HW1 2231   3.831   1.091   1.708
  444SOL    HW2 2232   3.976   1.037   1.655
  445SOL     OW 2233   1.625   5.868   2.316
  445SOL    HW1 2234   1.584   5.785   2.354
  445SOL    HW2 2235   1.601   5.876   2.219
  446SOL     OW 2236   5.322   6.952   1.463
  446SOL    HW1 2237   5.223   6.953   1.472
  446SOL    HW2 2238   5.352   0.007   1.410
  447SOL     OW 2239   5.975   4.753   1.176
  447SOL    HW1 2240   5.944   4.833   1.227
  447SOL    HW2 2241   6.047   4.707   1.228
  448SOL     OW 2242   2.456   0.157   3.205
  448SOL    HW1 2243   2.454   0.103   3.289
  448SOL    HW2 2244   2.497   0.102   3.132
  449SOL     OW 2245   1.720   3.916   4.467
  449SOL    HW1 2246   1.737   4.008   4.431
  449SOL    HW2 2247   1.750   3.912   4.563
  450SOL     OW 2248   0.646   4.835   3.464
  450SOL    HW1 2249   0.657   4.791   3.554
  450SOL    HW2 2250   0.717   4.904   3.451
  451SOL     OW 2251   0.781   1.978   1.767
  451SOL    HW1 2252   0.766   1.879   1.771
  451SOL    HW2 2253   0.822   2.010   1.852
  452SOL     OW 2254   4.464   5.583   2.138
  452SOL    HW1 2255   4.490   5.516   2.208
  452SOL    HW2 2256   4.387   5.548   2.085
  453SOL     OW 2257   3.164   0.568   5.952
  453SOL    HW1 2258   3.079   0.613   5.980
  453SOL    HW2 2259   3.188   0.497   6.019
  454SOL     OW 2260   6.658   3.179   6.352
  454SOL    HW1 2261   6.645   3.180   6.253
  454SOL    HW2 2262   6.695   3.091   6.381
  455SOL     OW 2263   6.085   4.727   6.090
  455SOL    HW1 2264   6.103   4.713   5.993
  455SOL    HW2 2265   6.168   4.761   6.135
  456SOL     OW 2266   2.748   1.031   2.812
  456SOL    HW1 2267   2.707   1.004   2.724
  456SOL    HW2 2268   2.678   1.032   2.883
  457SOL     OW 2269   2.495   6.842   0.334
  457SOL    HW1 2270   2.588   6.826   0.303
  457SOL    HW2 2271   2.441   6.758   0.325
  458SOL     OW 2272   3.280   1.660   3.410
  458SOL    HW1 2273   3.344   1.675   3.335
  458SOL    HW2 2274   3.188   1.690   3.382
  459SOL     OW 2275   3.787   6.850   3.592
  459SOL    HW1 2276   3.831   6.826   3.678
  459SOL    HW2 2277   3.800   6.777   3.526
  460SOL     OW 2278   0.804   1.511   6.121
  460SOL    HW1 2279   0.828   1.414   6.112
  460SOL    HW2 2280   0.792   1.551   6.030
  461SOL     OW 2281   0.828   5.032   5.311
  461SOL    HW1 2282   0.911   4.980   5.292
  461SOL    HW2 2283   0.768   4.978   5.370
  462SOL     OW 2284   3.713   4.149   4.723
  462SOL    HW1 2285   3.735   4.246   4.707
  462SOL    HW2 2286   3.616   4.133   4.706
  463SOL     OW 2287   5.391   6.522   3.466
  463SOL    HW1 2288   5.423   6.504   3.559
  463SOL    HW2 2289   5.313   6.463   3.445
  464SOL     OW 2290   4.021   4.793   6.471
  464SOL    HW1 2291   4.016   4.832   6.379
  464SOL    HW2 2292   3.971   4.853   6.534
  465SOL     OW 2293   0.627   3.752   1.279
  465SOL    HW1 2294   0.703   3.701   1.320
  465SOL    HW2 2295   0.654   3.788   1.190
  466SOL     OW 2296   3.995   5.696   4.652
  466SOL    HW1 2297   3.972   5.782   4.605
  466SOL    HW2 2298   4.033   5.717   4.742
  467SOL     OW 2299   5.888   6.895   1.676
  467SOL    HW1 2300   5.984   6.890   1.701
  467SOL    HW2 2301   5.867   6.985   1.638
  468SOL     OW 2302   3.182   6.584   6.467
  468SOL    HW1 2303   3.107   6.542   6.517
  468SOL    HW2 2304   3.199   6.533   6.383
  469SOL     OW 2305   3.356   4.928   4.995
  469SOL    HW1 2306   3.444   4.946   4.953
  469SOL    HW2 2307   3.283   4.961   4.935
  470SOL     OW 2308   2.202   4.263   2.715
  470SOL    HW1 2309   2.218   4.169   2.745
  470SOL    HW2 2310   2.245   4.278   2.626
  471SOL     OW 2311   1.519   2.144   4.262
  471SOL    HW1 2312   1.473   2.217   4.313
  471SOL    HW2 2313   1.593   2.183   4.207
  472SOL     OW 2314   5.612   3.822   6.199
  472SOL    HW1 2315   5.533   3.873   6.233
  472SOL    HW2 2316   5.682   3.887   6.167
  473SOL     OW 2317   6.186   2.689   2.158
  473SOL    HW1 2318   6.180   2.787   2.140
  473SOL    HW2 2319   6.277   2.656   2.132
  474SOL     OW 2320   4.590   6.576   3.835
  474SOL    HW1 2321   4.600   6.603   3.931
  474SOL    HW2 2322   4.506   6.616   3.798
  475SOL     OW 2323   5.538   1.738   0.273
  475SOL    HW1 2324   5.475   1.816   0.269
  475SOL    HW2 2325   5.612   1.759   0.336
  476SOL     OW 2326   1.069   4.548   1.285
  476SOL    HW1 2327   1.118   4.541   1.372
  476SOL    HW2 2328   1.042   4.457   1.254
  477SOL     OW 2329   1.090   4.563   3.722
  477SOL    HW1 2330   1.185   4.537   3.735
  477SOL    HW2 2331   1.039   4.485   3.685
  478SOL     OW 2332   4.858   5.646   1.979
  478SOL    HW1 2333   4.874   5.740   2.009
  478SOL    HW2 2334   4.945   5.605   1.949
  479SOL     OW 2335   3.020   3.851   3.551
  479SOL    HW1 2336   2.983   3.780   3.611
  479SOL    HW2 2337   2.992   3.833   3.457
  480SOL     OW 2338   1.265   0.675   2.934
  480SOL    HW1 2339   1.176   0.677   2.888
  480SOL    HW2 2340   1.285   0.582   2.963
  481SOL     OW 2341   0.319   6.889   0.584
  481SOL    HW1 2342   0.297   6.881   0.487
  481SOL    HW2 2343   0.416   6.910   0.594
  482SOL     OW 2344   4.001   5.017   1.611
  482SOL    HW1 2345   4.008   4.949   1.684
  482SOL    HW2 2346   4.029   4.977   1.524
  483SOL     OW 2347   5.828   2.100   4.350
  483SOL    HW1 2348   5.928   2.097   4.363
  483SOL    HW2 2349   5.802   2.189   4.315
  484SOL     OW 2350   2.382   4.515   4.021
  484SOL    HW1 2351   2.427   4.504   4.110
  484SOL    HW2 2352   2.443   4.563   3.959
  485SOL     OW 2353   5.538   3.374   1.274
  485SOL    HW1 2354   5.442   3.384   1.246
  485SOL    HW2 2355   5.598   3.385   1.195
  486SOL     OW 2356   5.933   6.243   6.403
  486SOL    HW1 2357   5.847   6.197   6.381
  486SOL    HW2 2358   5.997   6.177   6.444
  487SOL     OW 2359   0.293   6.640   5.931
  487SOL    HW1 2360   0.205   6.634   5.978
  487SOL    HW2 2361   0.364   6.665   5.997
  488SOL     OW 2362   1.911   5.451   3.302
  488SOL    HW1 2363   2.009   5.460   3.288
  488SOL    HW2 2364   1.866   5.536   3.275
  489SOL     OW 2365   1.483   5.622   6.340
  489SOL    HW1 2366   1.416   5.678   6.291
  489SOL    HW2 2367   1.484   5.530   6.302
  490SOL     OW 2368   0.945   4.102   4.296
  490SOL    HW1 2369   1.021   4.095   4.231
  490SOL    HW2 2370   0.926   4.012   4.334
  491SOL     OW 2371   0.286   2.842   0.816
  491SOL    HW1 2372   0.377   2.823   0.852
  491SOL    HW2 2373   0.257   2.769   0.755
  492SOL     OW 2374   1.063   2.510   5.586
  492SOL    HW1 2375   0.977   2.537   5.629
  492SOL    HW2 2376   1.140   2.540   5.642
  493SOL     OW 2377   2.103   5.679   4.425
  493SOL    HW1 2378   2.029   5.700   4.362
  493SOL    HW2 2379   2.065   5.646   4.511
  494SOL     OW 2380   2.502   6.673   4.599
  494SOL    HW1 2381   2.445   6.659   4.518
  494SOL    HW2 2382   2.519   6.585   4.644
  495SOL     OW 2383   3.614   4.024   6.261
  495SOL    HW1 2384   3.642   4.120   6.253
  495SOL    HW2 2385   3.554   4.000   6.184
  496SOL     OW 2386   4.885   1.517   3.254
  496SOL    HW1 2387   4.926   1.435   3.295
  496SOL    HW2 2388   4.947   1.595   3.268
  497SOL     OW 2389   4.719   1.803   0.309
  497SOL    HW1 2390   4.643   1.796   0.243
  497SOL    HW2 2391   4.705   1.737   0.382
  498SOL     OW 2392   0.180   0.042   1.669
  498SOL    HW1 2393   0.230   6.983   1.696
  498SOL    HW2 2394   0.110   0.063   1.737
  499SOL     OW 2395   2.642   5.797   0.320
  499SOL    HW1 2396   2.669   5.787   0.416
  499SOL    HW2 2397   2.556   5.747   0.305
  500SOL     OW 2398   5.472   2.398   0.253
  500SOL    HW1 2399   5.483   2.301   0.273
  500SOL    HW2 2400   5.534   2.424   0.179
  501SOL     OW 2401   1.165   1.338   4.570
  501SOL    HW1 2402   1.107   1.276   4.622
  501SOL    HW2 2403   1.165   1.428   4.614
  502SOL     OW 2404   2.396   4.891   6.696
  502SOL    HW1 2405   2.343   4.905   6.612
  502SOL    HW2 2406   2.336   4.893   6.775
  503SOL     OW 2407   4.322   4.794   0.616
  503SOL    HW1 2408   4.308   4.756   0.525
  503SOL    HW2 2409   4.282   4.886   0.621
  504SOL     OW 2410   6.065   6.110   2.121
  504SOL    HW1 2411   5.999   6.035   2.129
  504SOL    HW2 2412   6.019   6.191   2.085
  505SOL     OW 2413   4.681   5.955   5.056
  505SOL    HW1 2414   4.678   6.034   4.995
  505SOL    HW2 2415   4.725   5.879   5.009
  506SOL     OW 2416   4.259   5.426   2.050
  506SOL    HW1 2417   4.255   5.405   1.952
  506SOL    HW2 2418   4.169   5.412   2.090
  507SOL     OW 2419   2.665   0.812   1.343
  507SOL    HW1 2420   2.697   0.893   1.294
  507SOL    HW2 2421   2.716   0.801   1.428
  508SOL     OW 2422   0.180   3.694   3.304
  508SOL    HW1 2423   0.191   3.595   3.318
  508SOL    HW2 2424   0.130   3.733   3.381
  509SOL     OW 2425   4.769   0.159   6.054
  509SOL    HW1 2426   4.757   0.254   6.024
  509SOL    HW2 2427   4.681   0.121   6.080
  510SOL     OW 2428   6.376   3.926   6.856
  510SOL    HW1 2429   6.331   3.862   6.918
  510SOL    HW2 2430   6.376   4.017   6.897
  511SOL     OW 2431   0.693   2.170   0.679
  511SOL    HW1 2432   0.622   2.168   0.609
  511SOL    HW2 2433   0.783   2.174   0.635
  512SOL     OW 2434   0.096   1.937   4.371
  512SOL    HW1 2435   0.181   1.936   4.424
  512SOL    HW2 2436   0.042   2.018   4.397
  513SOL     OW 2437   5.143   1.101   3.116
  513SOL    HW1 2438   5.065   1.098   3.054
  513SOL    HW2 2439   5.149   1.015   3.166
  514SOL     OW 2440   6.052   0.395   4.604
  514SOL    HW1 2441   6.022   0.438   4.689
  514SOL    HW2 2442   5.975   0.387   4.542
  515SOL     OW 2443   4.027   0.210   5.608
  515SOL    HW1 2444   3.936   0.185   5.643
  515SOL    HW2 2445   4.018   0.288   5.547
  516SOL     OW 2446   2.437   5.846   2.832
  516SOL    HW1 2447   2.417   5.941   2.858
  516SOL    HW2 2448   2.351   5.795   2.827
  517SOL     OW 2449   3.471   5.753   1.583
  517SOL    HW1 2450   3.399   5.689   1.610
  517SOL    HW2 2451   3.441   5.807   1.505
  518SOL     OW 2452   2.141   3.879   4.084
  518SOL    HW1 2453   2.042   3.888   4.096
  518SOL    HW2 2454   2.161   3.843   3.993
  519SOL     OW 2455   6.995   0.152   2.092
  519SOL    HW1 2456   6.933   0.168   2.168
  519SOL    HW2 2457   0.065   0.155   2.124
  520SOL     OW 2458   1.632   4.029   0.751
  520SOL    HW1 2459   1.609   4.097   0.820
  520SOL    HW2 2460   1.691   3.959   0.791
  521SOL     OW 2461   6.619   6.356   4.989
  521SOL    HW1 2462   6.620   6.264   5.027
  521SOL    HW2 2463   6.608   6.351   4.889
  522SOL     OW 2464   3.852   4.235   1.494
  522SOL    HW1 2465   3.911   4.160   1.465
  522SOL    HW2 2466   3.869   4.316   1.439
  523SOL     OW 2467   0.844   6.870   0.925
  523SOL    HW1 2468   0.835   6.838   0.831
  523SOL    HW2 2469   0.928   6.924   0.935
  524SOL     OW 2470   6.938   2.475   1.327
  524SOL    HW1 2471   6.995   2.422   1.263
  524SOL    HW2 2472   6.849   2.493   1.284
  525SOL     OW 2473   0.511   3.645   5.416
  525SOL    HW1 2474   0.607   3.670   5.432
  525SOL    HW2 2475   0.488   3.564   5.471
  526SOL     OW 2476   3.213   0.184   3.824
  526SOL    HW1 2477   3.186   0.115   3.757
  526SOL    HW2 2478   3.228   0.140   3.913
  527SOL     OW 2479   0.114   0.864   0.443
  527SOL    HW1 2480   0.031   0.910   0.474
  527SOL    HW2 2481   0.192   0.926   0.452
  528SOL     OW 2482   0.092   3.360   4.347
  528SOL    HW1 2483   0.124   3.267   4.366
  528SOL    HW2 2484   0.094   3.375   4.248
  529SOL     OW 2485   1.922   0.577   0.323
  529SOL    HW1 2486   1.886   0.669   0.342
  529SOL    HW2 2487   2.000   0.584   0.261
  530SOL     OW 2488   3.659   4.117   1.204
  530SOL    HW1 2489   3.645   4.180   1.128
  530SOL    HW2 2490   3.757   4.104   1.219
  531SOL     OW 2491   1.160   0.127   0.740
  531SOL    HW1 2492   1.229   0.192   0.707
  531SOL    HW2 2493   1.128   0.072   0.663
  532SOL     OW 2494   1.156   2.137   6.433
  532SOL    HW1 2495   1.171   2.112   6.338
  532SOL    HW2 2496   1.121   2.058   6.484
  533SOL     OW 2497   3.820   0.032   4.552
  533SOL    HW1 2498   3.847   0.120   4.514
  533SOL    HW2 2499   3.721   0.032   4.569
  534SOL     OW 2500   2.024   5.205   1.724
  534SOL    HW1 2501   2.117   5.241   1.715
  534SOL    HW2 2502   1.959   5.281   1.722
  535SOL     OW 2503   5.136   3.415   4.149
  535SOL    HW1 2504   5.036   3.415   4.153
  535SOL    HW2 2505   5.166   3.375   4.063
  536SOL     OW 2506   6.529   0.126   2.025
  536SOL    HW1 2507   6.549   0.193   2.097
  536SOL    HW2 2508   6.433   0.133   1.999
  537SOL     OW 2509   4.002   2.135   3.859
  537SOL    HW1 2510   3.942   2.133   3.939
  537SOL    HW2 2511   4.055   2.220   3.860
  538SOL     OW 2512   3.295   4.844   5.275
  538SOL    HW1 2513   3.331   4.877   5.187
  538SOL    HW2 2514   3.247   4.758   5.261
  539SOL     OW 2515   0.990   6.905   0.111
  539SOL    HW1 2516   1.056   6.980   0.112
  539SOL    HW2 2517   0.920   6.922   0.181
  540SOL     OW 2518   0.786   0.014   4.071
  540SOL    HW1 2519   0.798   0.084   4.001
  540SOL    HW2 2520   0.751   6.954   4.028
  541SOL     OW 2521   4.479   6.203   3.968
  541SOL    HW1 2522   4.447   6.136   3.900
  541SOL    HW2 2523   4.448   6.294   3.941
  542SOL     OW 2524   3.532   0.488   5.631
  542SOL    HW1 2525   3.531   0.461   5.535
  542SOL    HW2 2526   3.440   0.478   5.670
  543SOL     OW 2527   6.299   2.216   4.048
  543SOL    HW1 2528   6.377   2.250   3.996
  543SOL    HW2 2529   6.217   2.268   4.024
  544SOL     OW 2530   1.756   3.641   1.212
  544SOL    HW1 2531   1.728   3.736   1.231
  544SOL    HW2 2532   1.850   3.627   1.241
  545SOL     OW 2533   5.625   0.511   1.191
  545SOL    HW1 2534   5.698   0.522   1.124
  545SOL    HW2 2535   5.551   0.575   1.170
  546SOL     OW 2536   7.003   4.328   2.879
  546SOL    HW1 2537   6.944   4.283   2.947
  546SOL    HW2 2538   6.981   4.295   2.788
  547SOL     OW 2539   5.445   0.743   6.128
  547SOL    HW1 2540   5.467   0.825   6.075
  547SOL    HW2 2541   5.515   0.728   6.198
  548SOL     OW 2542   3.956   2.124   0.134
  548SOL    HW1 2543   4.026   2.195   0.120
  548SOL    HW2 2544   3.951   2.102   0.231
  549SOL     OW 2545   5.537   1.522   1.990
  549SOL    HW1 2546   5.445   1.550   1.962
  549SOL    HW2 2547   5.605   1.575   1.939
  550SOL     OW 2548   0.056   5.868   3.168
  550SOL    HW1 2549   0.111   5.841   3.247
  550SOL    HW2 2550   6.983   5.862   3.192
  551SOL     OW 2551   6.342   1.057   0.993
  551SOL    HW1 2552   6.432   1.033   1.031
  551SOL    HW2 2553   6.291   0.973   0.975
  552SOL     OW 2554   6.907   5.232   5.681
  552SOL    HW1 2555   6.817   5.266   5.704
  552SOL    HW2 2556   6.975   5.304   5.693
  553SOL     OW 2557   2.498   1.128   0.289
  553SOL    HW1 2558   2.419   1.186   0.267
  553SOL    HW2 2559   2.571   1.185   0.327
  554SOL     OW 2560   5.230   6.293   1.408
  554SOL    HW1 2561   5.168   6.311   1.332
  554SOL    HW2 2562   5.179   6.290   1.494
  555SOL     OW 2563   1.204   4.047   5.879
  555SOL    HW1 2564   1.266   4.122   5.902
  555SOL    HW2 2565   1.217   4.020   5.784
  556SOL     OW 2566   5.463   0.243   4.273
  556SOL    HW1 2567   5.520   0.308   4.222
  556SOL    HW2 2568   5.370   0.277   4.278
  557SOL     OW 2569   6.756   4.338   6.671
  557SOL    HW1 2570   6.800   4.394   6.601
  557SOL    HW2 2571   6.668   4.306   6.638
  558SOL     OW 2572   3.152   3.955   2.140
  558SOL    HW1 2573   3.222   3.936   2.071
  558SOL    HW2 2574   3.093   4.028   2.108
  559SOL     OW 2575   6.454   6.546   5.436
  559SOL    HW1 2576   6.417   6.473   5.494
  559SOL    HW2 2577   6.390   6.564   5.361
  560SOL     OW 2578   6.424   3.035   3.921
  560SOL    HW1 2579   6.471   3.105   3.974
  560SOL    HW2 2580   6.333   3.068   3.896
  561SOL     OW 2581   0.755   2.942   0.322
  561SOL    HW1 2582   0.850   2.915   0.307
  561SOL    HW2 2583   0.735   3.024   0.268
  562SOL     OW 2584   4.260   6.765   4.998
  562SOL    HW1 2585   4.288   6.682   4.951
  562SOL    HW2 2586   4.313   6.843   4.963
  563SOL     OW 2587   1.570   1.380   4.317
  563SOL    HW1 2588   1.631   1.450   4.280
  563SOL    HW2 2589   1.507   1.350   4.245
  564SOL     OW 2590   6.773   1.612   5.687
  564SOL    HW1 2591   6.743   1.593   5.594
  564SOL    HW2 2592   6.839   1.687   5.687
  565SOL     OW 2593   3.411   3.578   3.819
  565SOL    HW1 2594   3.433   3.489   3.778
  565SOL    HW2 2595   3.381   3.641   3.747
  566SOL     OW 2596   3.370   0.258   3.248
  566SOL    HW1 2597   3.302   0.237   3.319
  566SOL    HW2 2598   3.424   0.176   3.229
  567SOL     OW 2599   2.245   2.777   5.732
  567SOL    HW1 2600   2.284   2.711   5.797
  567SOL    HW2 2601   2.312   2.849   5.715
  568SOL     OW 2602   6.967   6.655   0.256
  568SOL    HW1 2603   6.927   6.741   0.287
  568SOL    HW2 2604   0.021   6.632   0.313
  569SOL     OW 2605   6.358   2.234   0.634
  569SOL    HW1 2606   6.415   2.239   0.717
  569SOL    HW2 2607   6.295   2.312   0.632
  570SOL     OW 2608   2.564   0.118   6.166
  570SOL    HW1 2609   2.513   0.123   6.081
  570SOL    HW2 2610   2.576   0.210   6.203
  571SOL     OW 2611   1.850   5.035   2.108
  571SOL    HW1 2612   1.809   5.079   2.027
  571SOL    HW2 2613   1.778   5.013   2.173
  572SOL     OW 2614   2.879   0.168   4.055
  572SOL    HW1 2615   2.880   0.198   3.960
  572SOL    HW2 2616   2.844   0.242   4.113
  573SOL     OW 2617   7.009   1.090   5.114
  573SOL    HW1 2618   0.075   1.050   5.131
  573SOL    HW2 2619   7.000   1.113   5.018
  574SOL     OW 2620   2.387   2.416   5.701
  574SOL    HW1 2621   2.356   2.507   5.672
  574SOL    HW2 2622   2.476   2.425   5.747
  575SOL     OW 2623   3.917   2.803   0.099
  575SOL    HW1 2624   3.842   2.738   0.085
  575SOL    HW2 2625   3.908   2.845   0.189
  576SOL     OW 2626   2.233   2.933   3.017
  576SOL    HW1 2627   2.211   2.923   2.920
  576SOL    HW2 2628   2.319   2.887   3.037
  577SOL     OW 2629   0.794   1.415   2.180
  577SOL    HW1 2630   0.732   1.338   2.165
  577SOL    HW2 2631   0.804   1.467   2.096
  578SOL     OW 2632   2.470   6.283   6.688
  578SOL    HW1 2633   2.563   6.281   6.724
  578SOL    HW2 2634   2.467   6.342   6.607
  579SOL     OW 2635   1.987   4.673   2.122
  579SOL    HW1 2636   1.919   4.728   2.073
  579SOL    HW2 2637   1.997   4.708   2.215
  580SOL     OW 2638   4.456   5.728   4.522
  580SOL    HW1 2639   4.533   5.743   4.460
  580SOL    HW2 2640   4.426   5.633   4.517
  581SOL     OW 2641   1.704   2.810   4.360
  581SOL    HW1 2642   1.680   2.738   4.426
  581SOL    HW2 2643   1.764   2.876   4.404
  582SOL     OW 2644   5.522   5.686   3.839
  582SOL    HW1 2645   5.456   5.732   3.899
  582SOL    HW2 2646   5.482   5.675   3.748
  583SOL     OW 2647   4.616   5.492   5.725
  583SOL    HW1 2648   4.668   5.472   5.642
  583SOL    HW2 2649   4.552   5.417   5.744
  584SOL     OW 2650   4.961   0.867   5.299
  584SOL    HW1 2651   4.900   0.910   5.233
  584SOL    HW2 2652   4.942   0.769   5.303
  585SOL     OW 2653   3.083   0.889   1.882
  585SOL    HW1 2654   3.046   0.982   1.878
  585SOL    HW2 2655   3.075   0.854   1.975
  586SOL     OW 2656   4.531   6.847   0.654
  586SOL    HW1 2657   4.492   6.910   0.586
  586SOL    HW2 2658   4.618   6.812   0.620
  587SOL     OW 2659   4.729   1.858   1.742
  587SOL    HW1 2660   4.729   1.805   1.827
  587SOL    HW2 2661   4.680   1.808   1.671
  588SOL     OW 2662   1.650   5.126   2.911
  588SOL    HW1 2663   1.627   5.035   2.877
  588SOL    HW2 2664   1.749   5.137   2.914
  589SOL     OW 2665   2.813   6.010   1.243
  589SOL    HW1 2666   2.843   6.103   1.225
  589SOL    HW2 2667   2.866   5.946   1.188
  590SOL     OW 2668   4.919   1.989   0.356
  590SOL    HW1 2669   4.843   1.924   0.348
  590SOL    HW2 2670   4.882   2.078   0.383
  591SOL     OW 2671   3.369   5.858   4.559
  591SOL    HW1 2672   3.309   5.900   4.627
  591SOL    HW2 2673   3.329   5.772   4.528
  592SOL     OW 2674   3.841   2.016   4.121
  592SOL    HW1 2675   3.898   2.091   4.153
  592SOL    HW2 2676   3.892   1.930   4.128
  593SOL     OW 2677   2.779   1.477   6.607
  593SOL    HW1 2678   2.845   1.450   6.537
  593SOL    HW2 2679   2.722   1.551   6.573
  594SOL     OW 2680   4.774   1.294   1.913
  594SOL    HW1 2681   4.731   1.241   1.840
  594SOL    HW2 2682   4.858   1.247   1.942
  595SOL     OW 2683   5.675   5.734   2.686
  595SOL    HW1 2684   5.694   5.781   2.772
  595SOL    HW2 2685   5.670   5.801   2.612
  596SOL     OW 2686   6.351   5.042   4.264
  596SOL    HW1 2687   6.305   5.011   4.180
  596SOL    HW2 2688   6.362   4.964   4.326
  597SOL     OW 2689   2.520   0.486   6.556
  597SOL    HW1 2690   2.495   0.572   6.513
  597SOL    HW2 2691   2.618   0.486   6.576
  598SOL     OW 2692   2.938   3.249   4.487
  598SOL    HW1 2693   2.855   3.224   4.438
  598SOL    HW2 2694   3.001   3.297   4.425
  599SOL     OW 2695   1.159   4.792   1.694
  599SOL    HW1 2696   1.224   4.864   1.671
  599SOL    HW2 2697   1.101   4.773   1.615
  600SOL     OW 2698   6.930   3.957   4.929
  600SOL    HW1 2699   7.024   3.974   4.960
  600SOL    HW2 2700   6.905   4.021   4.857
  601SOL     OW 2701   2.200   6.717   4.845
  601SOL    HW1 2702   2.221   6.807   4.882
  601SOL    HW2 2703   2.109   6.719   4.802
  602SOL     OW 2704   2.078   6.614   3.894
  602SOL    HW1 2705   2.041   6.524   3.916
  602SOL    HW2 2706   2.177   6.607   3.877
  603SOL     OW 2707   1.537   1.271   5.389
  603SOL    HW1 2708   1.599   1.237   5.318
  603SOL    HW2 2709   1.452   1.217   5.388
  604SOL     OW 2710   6.592   2.363   1.606
  604SOL    HW1 2711   6.681   2.409   1.607
  604SOL    HW2 2712   6.522   2.423   1.644
  605SOL     OW 2713   6.677   6.073   2.246
  605SOL    HW1 2714   6.631   6.005   2.189
  605SOL    HW2 2715   6.692   6.034   2.337
  606SOL     OW 2716   3.478   6.351   4.634
  606SOL    HW1 2717   3.571   6.361   4.670
  606SOL    HW2 2718   3.419   6.419   4.677
  607SOL     OW 2719   0.954   4.391   5.965
  607SOL    HW1 2720   0.970   4.340   5.881
  607SOL    HW2 2721   0.866   4.366   6.004
  608SOL     OW 2722   2.669   1.343   5.679
  608SOL    HW1 2723   2.663   1.410   5.605
  608SOL    HW2 2724   2.642   1.253   5.646
  609SOL     OW 2725   3.255   2.860   2.111
  609SOL    HW1 2726   3.253   2.872   2.211
  609SOL    HW2 2727   3.255   2.949   2.066
  610SOL     OW 2728   5.123   3.624   1.063
  610SOL    HW1 2729   5.105   3.711   1.110
  610SOL    HW2 2730   5.054   3.557   1.090
  611SOL     OW 2731   3.473   0.456   2.528
  611SOL    HW1 2732   3.400   0.494   2.585
  611SOL    HW2 2733   3.439   0.441   2.435
  612SOL     OW 2734   4.092   4.681   5.459
  612SOL    HW1 2735   4.034   4.757   5.429
  612SOL    HW2 2736   4.075   4.663   5.556
  613SOL     OW 2737   4.539   4.923   5.720
  613SOL    HW1 2738   4.494   4.842   5.757
  613SOL    HW2 2739   4.484   4.962   5.646
  614SOL     OW 2740   3.770   5.319   5.728
  614SOL    HW1 2741   3.807   5.309   5.820
  614SOL    HW2 2742   3.838   5.363   5.669
  615SOL     OW 2743   0.682   4.615   2.362
  615SOL    HW1 2744   0.589   4.594   2.330
  615SOL    HW2 2745   0.743   4.625   2.283
  616SOL     OW 2746   5.964   3.279   3.287
  616SOL    HW1 2747   6.055   3.302   3.324
  616SOL    HW2 2748   5.954   3.180   3.285
  617SOL     OW 2749   3.475   5.534   6.325
  617SOL    HW1 2750   3.401   5.522   6.259
  617SOL    HW2 2751   3.456   5.479   6.406
  618SOL     OW 2752   1.549   0.763   2.264
  618SOL    HW1 2753   1.570   0.844   2.318
  618SOL    HW2 2754   1.454   0.736   2.281
  619SOL     OW 2755   0.785   0.965   6.862
  619SOL    HW1 2756   0.794   0.865   6.862
  619SOL    HW2 2757   0.804   1.000   6.953
  620SOL     OW 2758   4.453   3.693   0.904
  620SOL    HW1 2759   4.423   3.788   0.899
  620SOL    HW2 2760   4.427   3.654   0.992
  621SOL     OW 2761   0.251   4.824   1.989
  621SOL    HW1 2762   0.192   4.839   2.069
  621SOL    HW2 2763   0.240   4.899   1.924
  622SOL     OW 2764   1.292   0.592   6.935
  622SOL    HW1 2765   1.319   0.496   6.922
  622SOL    HW2 2766   1.240   0.623   6.855
  623SOL     OW 2767   0.840   4.651   6.479
  623SOL    HW1 2768   0.808   4.609   6.394
  623SOL    HW2 2769   0.930   4.693   6.464
  624SOL     OW 2770   0.504   2.600   2.298
  624SOL    HW1 2771   0.480   2.543   2.219
  624SOL    HW2 2772   0.523   2.693   2.267
  625SOL     OW 2773   2.349   1.390   1.768
  625SOL    HW1 2774   2.274   1.398   1.834
  625SOL    HW2 2775   2.418   1.458   1.789
  626SOL     OW 2776   2.903   6.731   4.547
  626SOL    HW1 2777   2.858   6.773   4.468
  626SOL    HW2 2778   2.962   6.656   4.515
  627SOL     OW 2779   5.261   0.741   0.348
  627SOL    HW1 2780   5.259   0.723   0.446
  627SOL    HW2 2781   5.193   0.809   0.324
  628SOL     OW 2782   4.954   4.014   3.768
  628SOL    HW1 2783   4.877   4.072   3.795
  628SOL    HW2 2784   5.039   4.054   3.800
  629SOL     OW 2785   1.248   6.311   0.787
  629SOL    HW1 2786   1.249   6.264   0.875
  629SOL    HW2 2787   1.252   6.410   0.802
  630SOL     OW 2788   4.020   2.003   1.164
  630SOL    HW1 2789   3.972   2.054   1.093
  630SOL    HW2 2790   4.054   2.066   1.233
  631SOL     OW 2791   2.327   6.726   5.346
  631SOL    HW1 2792   2.337   6.787   5.267
  631SOL    HW2 2793   2.295   6.780   5.425
  632SOL     OW 2794   2.220   1.062   1.010
  632SOL    HW1 2795   2.306   1.073   0.961
  632SOL    HW2 2796   2.205   1.141   1.069
  633SOL     OW 2797   2.501   6.877   6.244
  633SOL    HW1 2798   2.583   6.822   6.227
  633SOL    HW2 2799   2.521   6.973   6.221
  634SOL     OW 2800   3.739   6.045   0.153
  634SOL    HW1 2801   3.743   5.950   0.121
  634SOL    HW2 2802   3.727   6.047   0.252
  635SOL     OW 2803   2.604   0.703   2.669
  635SOL    HW1 2804   2.698   0.682   2.697
  635SOL    HW2 2805   2.596   0.693   2.570
  636SOL     OW 2806   5.210   5.244   6.899
  636SOL    HW1 2807   5.161   5.320   6.943
  636SOL    HW2 2808   5.306   5.246   6.927
  637SOL     OW 2809   4.722   4.643   0.881
  637SOL    HW1 2810   4.625   4.628   0.862
  637SOL    HW2 2811   4.776   4.575   0.832
  638SOL     OW 2812   5.143   1.143   2.751
  638SOL    HW1 2813   5.238   1.174   2.759
  638SOL    HW2 2814   5.093   1.166   2.834
  639SOL     OW 2815   4.364   4.714   1.967
  639SOL    HW1 2816   4.422   4.646   2.012
  639SOL    HW2 2817   4.275   4.717   2.013
  640SOL     OW 2818   2.638   4.372   5.475
  640SOL    HW1 2819   2.591   4.287   5.449
  640SOL    HW2 2820   2.651   4.429   5.395
  641SOL     OW 2821   0.028   6.042   4.634
  641SOL    HW1 2822   0.024   6.139   4.611
  641SOL    HW2 2823   6.963   6.012   4.667
  642SOL     OW 2824   1.397   5.406   5.150
  642SOL    HW1 2825   1.300   5.418   5.170
  642SOL    HW2 2826   1.451   5.470   5.205
  643SOL     OW 2827   5.579   5.941   5.129
  643SOL    HW1 2828   5.576   6.041   5.118
  643SOL    HW2 2829   5.537   5.916   5.216
  644SOL     OW 2830   1.487   6.423   2.263
  644SOL    HW1 2831   1.436   6.460   2.341
  644SOL    HW2 2832   1.424   6.404   2.188
  645SOL     OW 2833   5.886   2.744   3.618
  645SOL    HW1 2834   5.982   2.743   3.648
  645SOL    HW2 2835   5.838   2.818   3.664
  646SOL     OW 2836   1.713   2.004   4.728
  646SOL    HW1 2837   1.647   1.931   4.707
  646SOL    HW2 2838   1.787   1.966   4.784
  647SOL     OW 2839   5.580   3.482   0.246
  647SOL    HW1 2840   5.628   3.396   0.263
  647SOL    HW2 2841   5.575   3.535   0.331
  648SOL     OW 2842   6.058   2.976   1.810
  648SOL    HW1 2843   5.978   2.915   1.813
  648SOL    HW2 2844   6.138   2.923   1.783
  649SOL     OW 2845   4.010   4.820   1.123
  649SOL    HW1 2846   4.088   4.815   1.061
  649SOL    HW2 2847   3.931   4.856   1.074
  650SOL     OW 2848   5.072   4.374   0.644
  650SOL    HW1 2849   5.056   4.275   0.636
  650SOL    HW2 2850   5.170   4.392   0.635
  651SOL     OW 2851   1.175   5.825   6.600
  651SOL    HW1 2852   1.131   5.831   6.511
  651SOL    HW2 2853   1.249   5.757   6.596
  652SOL     OW 2854   4.136   1.196   2.895
  652SOL    HW1 2855   4.079   1.277   2.907
  652SOL    HW2 2856   4.077   1.115   2.885
  653SOL     OW 2857   3.857   5.034   3.570
  653SOL    HW1 2858   3.913   5.107   3.610
  653SOL    HW2 2859   3.904   4.947   3.579
  654SOL     OW 2860   6.180   4.470   0.539
  654SOL    HW1 2861   6.085   4.499   0.527
  654SOL    HW2 2862   6.224   4.529   0.607
  655SOL     OW 2863   0.653   0.604   0.642
  655SOL    HW1 2864   0.655   0.506   0.627
  655SOL    HW2 2865   0.618   0.650   0.560
  656SOL     OW 2866   2.807   6.613   2.397
  656SOL    HW1 2867   2.742   6.622   2.472
  656SOL    HW2 2868   2.859   6.528   2.407
  657SOL     OW 2869   3.238   1.885   6.753
  657SOL    HW1 2870   3.211   1.794   6.785
  657SOL    HW2 2871   3.217   1.952   6.823
  658SOL     OW 2872   3.519   4.818   6.040
  658SOL    HW1 2873   3.455   4.742   6.046
  658SOL    HW2 2874   3.485   4.887   5.976
  659SOL     OW 2875   2.915   0.142   0.080
  659SOL    HW1 2876   2.870   0.228   0.101
  659SOL    HW2 2877   2.949   0.143   7.010
  660SOL     OW 2878   3.796   5.328   3.146
  660SOL    HW1 2879   3.789   5.381   3.062
  660SOL    HW2 2880   3.769   5.385   3.224
  661SOL     OW 2881   5.309   5.443   3.033
  661SOL    HW1 2882   5.406   5.432   3.009
  661SOL    HW2 2883   5.266   5.504   2.966
  662SOL     OW 2884   3.179   1.293   0.346
  662SOL    HW1 2885   3.148   1.347   0.268
  662SOL    HW2 2886   3.222   1.353   0.414
  663SOL     OW 2887   2.276   4.342   4.861
  663SOL    HW1 2888   2.350   4.408   4.876
  663SOL    HW2 2889   2.230   4.323   4.948
  664SOL     OW 2890   6.407   1.069   6.888
  664SOL    HW1 2891   6.382   0.977   6.917
  664SOL    HW2 2892   6.505   1.083   6.904
  665SOL     OW 2893   2.457   5.370   3.148
  665SOL    HW1 2894   2.528   5.365   3.078
  665SOL    HW2 2895   2.492   5.419   3.228
  666SOL     OW 2896   4.076   1.064   2.148
  666SOL    HW1 2897   4.158   1.090   2.198
  666SOL    HW2 2898   4.071   1.115   2.063
  667SOL     OW 2899   1.183   6.858   2.639
  667SOL    HW1 2900   1.105   6.894   2.691
  667SOL    HW2 2901   1.190   6.905   2.552
  668SOL     OW 2902   5.197   3.618   0.156
  668SOL    HW1 2903   5.151   3.569   0.230
  668SOL    HW2 2904   5.217   3.712   0.186
  669SOL     OW 2905   5.114   1.885   3.065
  669SOL    HW1 2906   5.155   1.974   3.044
  669SOL    HW2 2907   5.077   1.846   2.981
  670SOL     OW 2908   2.413   2.221   3.054
  670SOL    HW1 2909   2.475   2.257   3.124
  670SOL    HW2 2910   2.322   2.259   3.068
  671SOL     OW 2911   3.370   6.257   1.874
  671SOL    HW1 2912   3.411   6.230   1.787
  671SOL    HW2 2913   3.300   6.190   1.900
  672SOL     OW 2914   1.441   6.778   2.683
  672SOL    HW1 2915   1.344   6.794   2.666
  672SOL    HW2 2916   1.484   6.742   2.600
  673SOL     OW 2917   5.656   6.924   0.252
  673SOL    HW1 2918   5.713   6.870   0.191
  673SOL    HW2 2919   5.569   6.945   0.207
  674SOL     OW 2920   0.189   1.211   4.150
  674SOL    HW1 2921   0.151   1.140   4.090
  674SOL    HW2 2922   0.145   1.205   4.240
  675SOL     OW 2923   5.910   2.860   2.602
  675SOL    HW1 2924   5.942   2.790   2.539
  675SOL    HW2 2925   5.959   2.854   2.689
  676SOL     OW 2926   1.776   5.897   5.969
  676SOL    HW1 2927   1.785   5.929   6.063
  676SOL    HW2 2928   1.779   5.976   5.907
  677SOL     OW 2929   4.730   1.326   0.704
  677SOL    HW1 2930   4.801   1.365   0.763
  677SOL    HW2 2931   4.771   1.300   0.617
  678SOL     OW 2932   2.084   4.992   4.592
  678SOL    HW1 2933   2.114   4.901   4.565
  678SOL    HW2 2934   2.148   5.060   4.554
  679SOL     OW 2935   5.411   1.798   5.490
  679SOL    HW1 2936   5.401   1.746   5.575
  679SOL    HW2 2937   5.320   1.822   5.455
  680SOL     OW 2938   4.725   0.263   4.328
  680SOL    HW1 2939   4.664   0.233   4.255
  680SOL    HW2 2940   4.750   0.184   4.385
  681SOL     OW 2941   4.608   5.097   2.344
  681SOL    HW1 2942   4.569   5.020   2.294
  681SOL    HW2 2943   4.700   5.116   2.309
  682SOL     OW 2944   0.740   0.895   3.485
  682SOL    HW1 2945   0.779   0.817   3.533
  682SOL    HW2 2946   0.753   0.978   3.539
  683SOL     OW 2947   4.362   3.537   1.136
  683SOL    HW1 2948   4.350   3.568   1.230
  683SOL    HW2 2949   4.311   3.452   1.122
  684SOL     OW 2950   6.716   1.246   6.127
  684SOL    HW1 2951   6.652   1.305   6.078
  684SOL    HW2 2952   6.670   1.161   6.151
  685SOL     OW 2953   3.707   0.519   3.101
  685SOL    HW1 2954   3.738   0.598   3.152
  685SOL    HW2 2955   3.616   0.491   3.134
  686SOL     OW 2956   4.617   0.373   5.120
  686SOL    HW1 2957   4.584   0.466   5.138
  686SOL    HW2 2958   4.575   0.310   5.186
  687SOL     OW 2959   1.252   2.270   4.105
  687SOL    HW1 2960   1.259   2.254   4.203
  687SOL    HW2 2961   1.163   2.240   4.072
  688SOL     OW 2962   6.622   1.398   6.624
  688SOL    HW1 2963   6.673   1.312   6.629
  688SOL    HW2 2964   6.620   1.441   6.715
  689SOL     OW 2965   1.078   4.959   5.872
  689SOL    HW1 2966   1.165   4.916   5.848
  689SOL    HW2 2967   1.014   4.948   5.796
  690SOL     OW 2968   5.741   3.263   2.635
  690SOL    HW1 2969   5.702   3.172   2.622
  690SOL    HW2 2970   5.668   3.327   2.658
  691SOL     OW 2971   5.253   1.478   0.585
  691SOL    HW1 2972   5.328   1.527   0.630
  691SOL    HW2 2973   5.169   1.532   0.592
  692SOL     OW 2974   2.463   1.010   5.099
  692SOL    HW1 2975   2.539   1.024   5.035
  692SOL    HW2 2976   2.379   0.993   5.048
  693SOL     OW 2977   5.299   5.851   4.009
  693SOL    HW1 2978   5.219   5.845   4.069
  693SOL    HW2 2979   5.307   5.943   3.971
  694SOL     OW 2980   4.420   6.000   5.319
  694SOL    HW1 2981   4.455   6.074   5.261
  694SOL    HW2 2982   4.495   5.940   5.346
  695SOL     OW 2983   3.182   0.266   4.185
  695SOL    HW1 2984   3.107   0.217   4.142
  695SOL    HW2 2985   3.195   0.354   4.139
  696SOL     OW 2986   4.964   4.674   3.027
  696SOL    HW1 2987   4.867   4.690   3.007
  696SOL    HW2 2988   4.985   4.709   3.119
  697SOL     OW 2989   0.271   5.624   2.250
  697SOL    HW1 2990   0.351   5.643   2.193
  697SOL    HW2 2991   0.224   5.542   2.216
  698SOL     OW 2992   5.848   6.747   0.425
  698SOL    HW1 2993   5.869   6.842   0.449
  698SOL    HW2 2994   5.883   6.728   0.334
  699SOL     OW 2995   2.419   2.337   0.979
  699SOL    HW1 2996   2.383   2.323   1.071
  699SOL    HW2 2997   2.487   2.410   0.980
  700SOL     OW 2998   3.576   0.310   2.742
  700SOL    HW1 2999   3.509   0.347   2.677
  700SOL    HW2 3000   3.624   0.384   2.788
  701SOL     OW 3001   6.005   5.223   1.241
  701SOL    HW1 3002   6.032   5.270   1.325
  701SOL    HW2 3003   6.084   5.218   1.179
  702SOL     OW 3004   3.273   0.973   4.384
  702SOL    HW1 3005   3.178   1.005   4.392
  702SOL    HW2 3006   3.320   0.986   4.472
  703SOL     OW 3007   2.956   2.456   6.262
  703SOL    HW1 3008   2.938   2.371   6.213
  703SOL    HW2 3009   2.908   2.532   6.217
  704SOL     OW 3010   1.314   2.556   5.670
  704SOL    HW1 3011   1.393   2.617   5.658
  704SOL    HW2 3012   1.345   2.462   5.679
  705SOL     OW 3013   0.088   6.651   4.879
  705SOL    HW1 3014   0.027   6.573   4.872
  705SOL    HW2 3015   0.093   6.681   4.975
  706SOL     OW 3016   4.527   0.826   4.922
  706SOL    HW1 3017   4.534   0.812   4.823
  706SOL    HW2 3018   4.467   0.905   4.939
  707SOL     OW 3019   3.668   5.065   3.819
  707SOL    HW1 3020   3.688   4.975   3.859
  707SOL    HW2 3021   3.692   5.065   3.722
  708SOL     OW 3022   3.568   0.271   3.535
  708SOL    HW1 3023   3.587   0.173   3.527
  708SOL    HW2 3024   3.470   0.285   3.550
  709SOL     OW 3025   2.553   0.142   1.738
  709SOL    HW1 3026   2.640   0.106   1.772
  709SOL    HW2 3027   2.492   0.066   1.717
  710SOL     OW 3028   4.549   2.747   1.786
  710SOL    HW1 3029   4.617   2.739   1.713
  710SOL    HW2 3030   4.543   2.843   1.815
  711SOL     OW 3031   0.281   2.364   6.007
  711SOL    HW1 3032   0.284   2.271   6.044
  711SOL    HW2 3033   0.238   2.425   6.073
  712SOL     OW 3034   5.356   4.138   0.649
  712SOL    HW1 3035   5.365   4.039   0.645
  712SOL    HW2 3036   5.263   4.165   0.627
  713SOL     OW 3037   3.944   2.758   5.237
  713SOL    HW1 3038   3.991   2.825   5.294
  713SOL    HW2 3039   4.010   2.692   5.202
  714SOL     OW 3040   5.179   5.056   3.685
  714SOL    HW1 3041   5.147   5.151   3.692
  714SOL    HW2 3042   5.217   5.041   3.594
  715SOL     OW 3043   6.467   5.339   5.379
  715SOL    HW1 3044   6.440   5.345   5.283
  715SOL    HW2 3045   6.509   5.250   5.396
  716SOL     OW 3046   2.441   1.727   2.593
  716SOL    HW1 3047   2.532   1.688   2.579
  716SOL    HW2 3048   2.372   1.662   2.559
  717SOL     OW 3049   5.256   4.701   4.430
  717SOL    HW1 3050   5.279   4.777   4.369
  717SOL    HW2 3051   5.196   4.637   4.381
  718SOL     OW 3052   5.830   1.771   4.668
  718SOL    HW1 3053   5.796   1.678   4.681
  718SOL    HW2 3054   5.795   1.807   4.581
  719SOL     OW 3055   5.416   0.166   3.324
  719SOL    HW1 3056   5.339   0.162   3.261
  719SOL    HW2 3057   5.486   0.100   3.296
  720SOL     OW 3058   2.698   1.352   0.012
  720SOL    HW1 3059   2.674   1.352   0.110
  720SOL    HW2 3060   2.615   1.367   6.982
  721SOL     OW 3061   0.159   1.842   3.376
  721SOL    HW1 3062   0.078   1.807   3.330
  721SOL    HW2 3063   0.222   1.767   3.395
  722SOL     OW 3064   4.190   6.747   0.372
  722SOL    HW1 3065   4.124   6.790   0.311
  722SOL    HW2 3066   4.174   6.648   0.373
  723SOL     OW 3067   2.230   5.507   3.466
  723SOL    HW1 3068   2.268   5.503   3.558
  723SOL    HW2 3069   2.302   5.531   3.401
  724SOL     OW 3070   1.021   1.327   3.728
  724SOL    HW1 3071   1.018   1.335   3.828
  724SOL    HW2 3072   1.112   1.354   3.696
  725SOL     OW 3073   1.158   3.873   2.465
  725SOL    HW1 3074   1.108   3.880   2.551
  725SOL    HW2 3075   1.254   3.896   2.481
  726SOL     OW 3076   1.930   4.286   0.617
  726SOL    HW1 3077   2.011   4.228   0.610
  726SOL    HW2 3078   1.858   4.238   0.667
  727SOL     OW 3079   4.346   5.589   5.489
  727SOL    HW1 3080   4.363   5.491   5.473
  727SOL    HW2 3081   4.433   5.638   5.487
  728SOL     OW 3082   6.268   3.486   4.139
  728SOL    HW1 3083   6.317   3.412   4.094
  728SOL    HW2 3084   6.308   3.574   4.112
  729SOL     OW 3085   0.363   4.166   1.533
  729SOL    HW1 3086   0.302   4.097   1.572
  729SOL    HW2 3087   0.443   4.177   1.593
  730SOL     OW 3088   5.212   0.557   3.103
  730SOL    HW1 3089   5.158   0.495   3.161
  730SOL    HW2 3090   5.304   0.521   3.092
  731SOL     OW 3091   4.381   4.761   6.226
  731SOL    HW1 3092   4.425   4.835   6.174
  731SOL    HW2 3093   4.282   4.766   6.213
  732SOL     OW 3094   4.758   1.451   4.499
  732SOL    HW1 3095   4.827   1.385   4.529
  732SOL    HW2 3096   4.784   1.488   4.410
  733SOL     OW 3097   6.290   6.697   3.056
  733SOL    HW1 3098   6.203   6.740   3.080
  733SOL    HW2 3099   6.279   6.645   2.972
  734SOL     OW 3100   6.105   6.447   2.468
  734SOL    HW1 3101   6.095   6.438   2.567
  734SOL    HW2 3102   6.036   6.391   2.422
  735SOL     OW 3103   4.953   0.866   2.443
  735SOL    HW1 3104   4.990   0.958   2.446
  735SOL    HW2 3105   4.853   0.870   2.442
  736SOL     OW 3106   1.522   1.826   4.643
  736SOL    HW1 3107   1.445   1.886   4.621
  736SOL    HW2 3108   1.512   1.740   4.592
  737SOL     OW 3109   5.416   1.004   6.591
  737SOL    HW1 3110   5.350   0.937   6.624
  737SOL    HW2 3111   5.426   1.077   6.658
  738SOL     OW 3112   2.487   4.171   1.186
  738SOL    HW1 3113   2.475   4.250   1.126
  738SOL    HW2 3114   2.506   4.090   1.132
  739SOL     OW 3115   3.005   6.807   4.801
  739SOL    HW1 3116   2.970   6.780   4.711
  739SOL    HW2 3117   2.950   6.764   4.873
  740SOL     OW 3118   5.356   3.276   2.860
  740SOL    HW1 3119   5.422   3.300   2.932
  740SOL    HW2 3120   5.265   3.269   2.900
  741SOL     OW 3121   2.715   0.512   3.114
  741SOL    HW1 3122   2.635   0.544   3.064
  741SOL    HW2 3123   2.786   0.484   3.049
  742SOL     OW 3124   1.898   6.652   1.707
  742SOL    HW1 3125   1.848   6.604   1.635
  742SOL    HW2 3126   1.833   6.702   1.765
  743SOL     OW 3127   0.652   6.579   3.323
  743SOL    HW1 3128   0.552   6.582   3.320
  743SOL    HW2 3129   0.689   6.658   3.275
  744SOL     OW 3130   4.792   2.210   0.118
  744SOL    HW1 3131   4.693   2.225   0.115
  744SOL    HW2 3132   4.813   2.119   0.085
  745SOL     OW 3133   2.796   6.410   4.977
  745SOL    HW1 3134   2.764   6.503   4.998
  745SOL    HW2 3135   2.895   6.411   4.962
  746SOL     OW 3136   6.774   4.315   5.541
  746SOL    HW1 3137   6.778   4.259   5.623
  746SOL    HW2 3138   6.765   4.255   5.461
  747SOL     OW 3139   4.993   5.959   3.240
  747SOL    HW1 3140   4.898   5.937   3.217
  747SOL    HW2 3141   5.035   6.007   3.163
  748SOL     OW 3142   5.642   5.495   2.374
  748SOL    HW1 3143   5.640   5.403   2.334
  748SOL    HW2 3144   5.641   5.487   2.474
  749SOL     OW 3145   4.949   3.547   3.820
  749SOL    HW1 3146   4.948   3.606   3.739
  749SOL    HW2 3147   4.981   3.456   3.795
  750SOL     OW 3148   2.144   2.042   1.702
  750SOL    HW1 3149   2.062   1.992   1.673
  750SOL    HW2 3150   2.203   2.057   1.623
  751SOL     OW 3151   4.748   0.355   0.422
  751SOL    HW1 3152   4.756   0.256   0.410
  751SOL    HW2 3153   4.661   0.376   0.466
  752SOL     OW 3154   3.597   2.519   5.352
  752SOL    HW1 3155   3.609   2.607   5.308
  752SOL    HW2 3156   3.505   2.484   5.333
  753SOL     OW 3157   3.849   3.640   4.754
  753SOL    HW1 3158   3.799   3.556   4.770
  753SOL    HW2 3159   3.865   3.687   4.841
  754SOL     OW 3160   5.967   0.572   7.000
  754SOL    HW1 3161   6.064   0.557   7.021
  754SOL    HW2 3162   5.936   0.501   6.936
  755SOL     OW 3163   4.085   4.430   5.375
  755SOL    HW1 3164   4.124   4.434   5.282
  755SOL    HW2 3165   4.071   4.523   5.409
  756SOL     OW 3166   1.976   5.264   5.959
  756SOL    HW1 3167   1.900   5.305   5.908
  756SOL    HW2 3168   1.970   5.165   5.955
  757SOL     OW 3169   2.771   6.865   2.704
  757SOL    HW1 3170   2.864   6.836   2.678
  757SOL    HW2 3171   2.774   6.906   2.795
  758SOL     OW 3172   3.231   1.604   3.699
  758SOL    HW1 3173   3.247   1.638   3.607
  758SOL    HW2 3174   3.144   1.639   3.733
  759SOL     OW 3175   0.453   2.736   4.518
  759SOL    HW1 3176   0.385   2.747   4.445
  759SOL    HW2 3177   0.416   2.771   4.604
  760SOL     OW 3178   6.663   5.677   3.342
  760SOL    HW1 3179   6.611   5.654   3.259
  760SOL    HW2 3180   6.602   5.720   3.408
  761SOL     OW 3181   4.029   3.237   6.088
  761SOL    HW1 3182   3.965   3.160   6.089
  761SOL    HW2 3183   4.122   3.203   6.082
  762SOL     OW 3184   3.330   5.308   4.390
  762SOL    HW1 3185   3.381   5.335   4.308
  762SOL    HW2 3186   3.384   5.242   4.442
  763SOL     OW 3187   5.869   0.733   0.168
  763SOL    HW1 3188   5.872   0.668   0.244
  763SOL    HW2 3189   5.888   0.685   0.082
  764SOL     OW 3190   5.728   0.071   5.393
  764SOL    HW1 3191   5.796   0.074   5.466
  764SOL    HW2 3192   5.767   0.022   5.314
  765SOL     OW 3193   6.455   6.611   0.959
  765SOL    HW1 3194   6.493   6.530   1.003
  765SOL    HW2 3195   6.424   6.588   0.867
  766SOL     OW 3196   2.281   2.005   5.229
  766SOL    HW1 3197   2.327   2.089   5.200
  766SOL    HW2 3198   2.197   2.028   5.278
  767SOL     OW 3199   0.012   6.273   4.475
  767SOL    HW1 3200   0.112   6.276   4.484
  767SOL    HW2 3201   7.011   6.204   4.408
  768SOL     OW 3202   2.108   5.266   2.300
  768SOL    HW1 3203   2.033   5.273   2.235
  768SOL    HW2 3204   2.188   5.315   2.264
  769SOL     OW 3205   2.648   2.440   4.893
  769SOL    HW1 3206   2.719   2.510   4.899
  769SOL    HW2 3207   2.674   2.361   4.949
  770SOL     OW 3208   1.871   4.504   5.100
  770SOL    HW1 3209   1.857   4.490   5.198
  770SOL    HW2 3210   1.842   4.596   5.075
  771SOL     OW 3211   1.108   5.957   2.931
  771SOL    HW1 3212   1.107   6.004   3.020
  771SOL    HW2 3213   1.117   5.859   2.946
  772SOL     OW 3214   5.763   4.361   0.607
  772SOL    HW1 3215   5.683   4.324   0.560
  772SOL    HW2 3216   5.735   4.411   0.688
  773SOL     OW 3217   0.451   3.530   3.392
  773SOL    HW1 3218   0.360   3.501   3.422
  773SOL    HW2 3219   0.456   3.530   3.292
  774SOL     OW 3220   2.037   0.615   2.876
  774SOL    HW1 3221   2.043   0.553   2.954
  774SOL    HW2 3222   2.119   0.672   2.872
  775SOL     OW 3223   2.360   4.617   2.811
  775SOL    HW1 3224   2.297   4.692   2.789
  775SOL    HW2 3225   2.416   4.595   2.731
  776SOL     OW 3226   2.371   5.215   6.695
  776SOL    HW1 3227   2.453   5.175   6.654
  776SOL    HW2 3228   2.342   5.159   6.772
  777SOL     OW 3229   2.332   3.795   0.038
  777SOL    HW1 3230   2.287   3.775   0.126
  777SOL    HW2 3231   2.427   3.819   0.054
  778SOL     OW 3232   2.918   6.839   1.580
  778SOL    HW1 3233   2.987   6.888   1.632
  778SOL    HW2 3234   2.893   6.892   1.499
  779SOL     OW 3235   6.878   2.124   3.449
  779SOL    HW1 3236   6.817   2.133   3.370
  779SOL    HW2 3237   6.886   2.027   3.475
  780SOL     OW 3238   0.920   1.905   4.132
  780SOL    HW1 3239   0.871   1.823   4.162
  780SOL    HW2 3240   1.007   1.879   4.090
  781SOL     OW 3241   0.489   4.338   0.362
  781SOL    HW1 3242   0.485   4.325   0.263
  781SOL    HW2 3243   0.581   4.317   0.396
  782SOL     OW 3244   1.850   3.407   5.209
  782SOL    HW1 3245   1.906   3.391   5.128
  782SOL    HW2 3246   1.805   3.496   5.202
  783SOL     OW 3247   6.425   5.045   6.107
  783SOL    HW1 3248   6.391   5.069   6.198
  783SOL    HW2 3249   6.508   5.097   6.087
  784SOL     OW 3250   3.192   6.075   0.534
  784SOL    HW1 3251   3.184   5.977   0.554
  784SOL    HW2 3252   3.103   6.110   0.506
  785SOL     OW 3253   1.342   6.420   4.555
  785SOL    HW1 3254   1.399   6.503   4.551
  785SOL    HW2 3255   1.257   6.441   4.603
  786SOL     OW 3256   6.675   1.111   3.185
  786SOL    HW1 3257   6.588   1.132   3.229
  786SOL    HW2 3258   6.658   1.065   3.098
  787SOL     OW 3259   2.720   0.079   0.818
  787SOL    HW1 3260   2.764   0.025   0.890
  787SOL    HW2 3261   2.773   0.162   0.802
  788SOL     OW 3262   3.113   2.550   1.183
  788SOL    HW1 3263   3.037   2.575   1.243
  788SOL    HW2 3264   3.155   2.466   1.217
  789SOL     OW 3265   4.218   5.010   1.811
  789SOL    HW1 3266   4.137   4.961   1.846
  789SOL    HW2 3267   4.287   4.944   1.783
  790SOL     OW 3268   0.671   2.217   2.477
  790SOL    HW1 3269   0.677   2.315   2.495
  790SOL    HW2 3270   0.626   2.201   2.389
  791SOL     OW 3271   3.071   5.396   4.715
  791SOL    HW1 3272   3.157   5.442   4.691
  791SOL    HW2 3273   3.082   5.349   4.803
  792SOL     OW 3274   1.449   0.613   0.915
  792SOL    HW1 3275   1.480   0.543   0.851
  792SOL    HW2 3276   1.405   0.687   0.864
  793SOL     OW 3277   3.004   5.877   4.223
  793SOL    HW1 3278   3.104   5.876   4.223
  793SOL    HW2 3279   2.970   5.786   4.248
  794SOL     OW 3280   3.405   3.214   3.096
  794SOL    HW1 3281   3.359   3.180   3.014
  794SOL    HW2 3282   3.480   3.274   3.069
  795SOL     OW 3283   3.796   0.380   6.406
  795SOL    HW1 3284   3.792   0.455   6.341
  795SOL    HW2 3285   3.711   0.326   6.401
  796SOL     OW 3286   1.236   2.976   6.857
  796SOL    HW1 3287   1.311   3.041   6.867
  796SOL    HW2 3288   1.165   2.998   6.924
  797SOL     OW 3289   5.281   6.914   0.781
  797SOL    HW1 3290   5.324   6.839   0.832
  797SOL    HW2 3291   5.305   6.907   0.684
  798SOL     OW 3292   3.959   6.138   0.954
  798SOL    HW1 3293   4.056   6.146   0.933
  798SOL    HW2 3294   3.929   6.217   1.007
  799SOL     OW 3295   1.605   2.500   5.480
  799SOL    HW1 3296   1.586   2.456   5.568
  799SOL    HW2 3297   1.701   2.485   5.455
  800SOL     OW 3298   5.830   2.753   2.025
  800SOL    HW1 3299   5.843   2.759   1.926
  800SOL    HW2 3300   5.735   2.729   2.044
  801SOL     OW 3301   1.986   5.433   5.658
  801SOL    HW1 3302   1.891   5.453   5.681
  801SOL    HW2 3303   1.997   5.430   5.559
  802SOL     OW 3304   5.458   2.952   6.288
  802SOL    HW1 3305   5.417   2.862   6.277
  802SOL    HW2 3306   5.525   2.967   6.215
  803SOL     OW 3307   2.578   1.480   5.447
  803SOL    HW1 3308   2.508   1.546   5.420
  803SOL    HW2 3309   2.637   1.460   5.369
  804SOL     OW 3310   5.910   0.753   2.568
  804SOL    HW1 3311   5.851   0.804   2.631
  804SOL    HW2 3312   5.862   0.737   2.482
  805SOL     OW 3313   3.936   0.355   3.101
  805SOL    HW1 3314   3.866   0.286   3.114
  805SOL    HW2 3315   3.893   0.446   3.096
  806SOL     OW 3316   2.133   6.220   5.804
  806SOL    HW1 3317   2.098   6.217   5.711
  806SOL    HW2 3318   2.088   6.149   5.859
  807SOL     OW 3319   0.889   6.316   6.224
  807SOL    HW1 3320   0.796   6.322   6.187
  807SOL    HW2 3321   0.885   6.319   6.324
  808SOL     OW 3322   5.341   3.036   0.059
  808SOL    HW1 3323   5.386   3.110   0.009
  808SOL    HW2 3324   5.321   2.961   7.020
  809SOL     OW 3325   2.343   4.641   0.351
  809SOL    HW1 3326   2.297   4.566   0.400
  809SOL    HW2 3327   2.442   4.629   0.358
  810SOL     OW 3328   3.803   3.144   0.120
  810SOL    HW1 3329   3.796   3.119   0.023
  810SOL    HW2 3330   3.844   3.068   0.170
  811SOL     OW 3331   5.298   4.941   4.321
  811SOL    HW1 3332   5.295   5.034   4.359
  811SOL    HW2 3333   5.288   4.945   4.222
  812SOL     OW 3334   0.501   3.109   2.391
  812SOL    HW1 3335   0.498   3.098   2.490
  812SOL    HW2 3336   0.508   3.206   2.369
  813SOL     OW 3337   0.952   1.969   4.628
  813SOL    HW1 3338   0.900   1.956   4.712
  813SOL    HW2 3339   0.888   1.980   4.551
  814SOL     OW 3340   0.618   4.985   3.018
  814SOL    HW1 3341   0.668   5.072   3.012
  814SOL    HW2 3342   0.543   4.985   2.951
  815SOL     OW 3343   4.800   1.564   4.250
  815SOL    HW1 3344   4.846   1.650   4.227
  815SOL    HW2 3345   4.711   1.561   4.205
  816SOL     OW 3346   5.405   4.921   6.655
  816SOL    HW1 3347   5.410   5.018   6.630
  816SOL    HW2 3348   5.444   4.866   6.580
  817SOL     OW 3349   0.940   4.392   0.052
  817SOL    HW1 3350   0.878   4.467   0.075
  817SOL    HW2 3351   0.984   4.358   0.136
  818SOL     OW 3352   6.280   2.759   4.878
  818SOL    HW1 3353   6.294   2.699   4.799
  818SOL    HW2 3354   6.369   2.784   4.917
  819SOL     OW 3355   5.120   2.439   1.757
  819SOL    HW1 3356   5.038   2.479   1.716
  819SOL    HW2 3357   5.125   2.342   1.734
  820SOL     OW 3358   2.238   1.953   4.895
  820SOL    HW1 3359   2.242   1.885   4.967
  820SOL    HW2 3360   2.142   1.974   4.875
  821SOL     OW 3361   5.739   3.793   5.614
  821SOL    HW1 3362   5.680   3.834   5.684
  821SOL    HW2 3363   5.683   3.738   5.552
  822SOL     OW 3364   0.457   4.115   3.096
  822SOL    HW1 3365   0.475   4.056   3.018
  822SOL    HW2 3366   0.381   4.077   3.150
  823SOL     OW 3367   1.059   3.815   5.914
  823SOL    HW1 3368   1.076   3.751   5.839
  823SOL    HW2 3369   1.095   3.905   5.890
  824SOL     OW 3370   5.666   1.433   5.465
  824SOL    HW1 3371   5.719   1.448   5.548
  824SOL    HW2 3372   5.694   1.500   5.395
  825SOL     OW 3373   6.123   5.847   1.057
  825SOL    HW1 3374   6.125   5.757   1.101
  825SOL    HW2 3375   6.132   5.918   1.127
  826SOL     OW 3376   3.614   1.537   6.646
  826SOL    HW1 3377   3.630   1.545   6.744
  826SOL    HW2 3378   3.517   1.518   6.629
  827SOL     OW 3379   3.738   3.871   4.617
  827SOL    HW1 3380   3.767   3.938   4.686
  827SOL    HW2 3381   3.763   3.779   4.646
  828SOL     OW 3382   6.426   5.980   5.212
  828SOL    HW1 3383   6.418   5.980   5.312
  828SOL    HW2 3384   6.364   5.912   5.174
  829SOL     OW 3385   3.488   3.320   2.655
  829SOL    HW1 3386   3.415   3.367   2.704
  829SOL    HW2 3387   3.501   3.229   2.694
  830SOL     OW 3388   6.490   4.275   0.190
  830SOL    HW1 3389   6.456   4.364   0.220
  830SOL    HW2 3390   6.450   4.251   0.102
  831SOL     OW 3391   4.587   6.857   1.317
  831SOL    HW1 3392   4.563   6.802   1.397
  831SOL    HW2 3393   4.667   6.913   1.337
  832SOL     OW 3394   3.058   1.910   4.620
  832SOL    HW1 3395   3.051   1.991   4.679
  832SOL    HW2 3396   3.039   1.935   4.526
  833SOL     OW 3397   2.351   2.489   6.805
  833SOL    HW1 3398   2.366   2.522   6.711
  833SOL    HW2 3399   2.407   2.408   6.821
  834SOL     OW 3400   5.231   3.467   6.965
  834SOL    HW1 3401   5.251   3.531   6.891
  834SOL    HW2 3402   5.198   3.517   0.020
  835SOL     OW 3403   0.485   6.542   4.518
  835SOL    HW1 3404   0.446   6.511   4.431
  835SOL    HW2 3405   0.585   6.545   4.510
  836SOL     OW 3406   3.773   1.165   4.740
  836SOL    HW1 3407   3.730   1.131   4.656
  836SOL    HW2 3408   3.704   1.214   4.794
  837SOL     OW 3409   1.729   0.792   0.781
  837SOL    HW1 3410   1.695   0.709   0.738
  837SOL    HW2 3411   1.654   0.837   0.829
  838SOL     OW 3412   1.764   4.899   3.465
  838SOL    HW1 3413   1.712   4.983   3.478
  838SOL    HW2 3414   1.862   4.920   3.464
  839SOL     OW 3415   1.073   1.912   0.363
  839SOL    HW1 3416   1.028   1.996   0.393
  839SOL    HW2 3417   1.125   1.931   0.279
  840SOL     OW 3418   5.284   5.484   6.750
  840SOL    HW1 3419   5.259   5.545   6.675
  840SOL    HW2 3420   5.298   5.391   6.714
  841SOL     OW 3421   3.514   4.604   6.893
  841SOL    HW1 3422   3.526   4.590   6.794
  841SOL    HW2 3423   3.582   4.549   6.942
  842SOL     OW 3424   3.466   6.493   6.448
  842SOL    HW1 3425   3.516   6.510   6.533
  842SOL    HW2 3426   3.384   6.550   6.446
  843SOL     OW 3427   1.245   1.048   2.530
  843SOL    HW1 3428   1.308   1.125   2.535
  843SOL    HW2 3429   1.290   0.970   2.488
  844SOL     OW 3430   6.224   0.497   1.647
  844SOL    HW1 3431   6.303   0.436   1.633
  844SOL    HW2 3432   6.145   0.442   1.675
  845SOL     OW 3433   3.830   1.236   2.680
  845SOL    HW1 3434   3.912   1.235   2.624
  845SOL    HW2 3435   3.753   1.272   2.627
  846SOL     OW 3436   2.654   1.967   0.485
  846SOL    HW1 3437   2.661   1.972   0.585
  846SOL    HW2 3438   2.720   1.900   0.451
  847SOL     OW 3439   2.391   4.156   1.455
  847SOL    HW1 3440   2.456   4.187   1.386
  847SOL    HW2 3441   2.441   4.122   1.535
  848SOL     OW 3442   0.242   5.717   0.486
  848SOL    HW1 3443   0.193   5.638   0.521
  848SOL    HW2 3444   0.340   5.696   0.479
  849SOL     OW 3445   5.989   3.642   6.384
  849SOL    HW1 3446   6.089   3.653   6.386
  849SOL    HW2 3447   5.966   3.559   6.334
  850SOL     OW 3448   0.743   0.728   5.183
  850SOL    HW1 3449   0.831   0.681   5.179
  850SOL    HW2 3450   0.756   0.825   5.162
  851SOL     OW 3451   6.732   3.575   5.855
  851SOL    HW1 3452   6.668   3.561   5.930
  851SOL    HW2 3453   6.786   3.493   5.840
  852SOL     OW 3454   0.411   4.142   2.201
  852SOL    HW1 3455   0.503   4.114   2.228
  852SOL    HW2 3456   0.345   4.109   2.269
  853SOL     OW 3457   2.692   3.133   6.896
  853SOL    HW1 3458   2.644   3.114   6.982
  853SOL    HW2 3459   2.789   3.114   6.907
  854SOL     OW 3460   5.525   6.925   6.811
  854SOL    HW1 3461   5.486   6.920   6.719
  854SOL    HW2 3462   5.529   7.021   6.840
  855SOL     OW 3463   6.038   1.454   7.021
  855SOL    HW1 3464   6.065   1.363   6.988
  855SOL    HW2 3465   6.049   1.520   6.947
  856SOL     OW 3466   2.214   5.979   0.799
  856SOL    HW1 3467   2.224   5.884   0.770
  856SOL    HW2 3468   2.174   5.981   0.891
  857SOL     OW 3469   5.936   5.349   5.827
  857SOL    HW1 3470   5.842   5.380   5.840
  857SOL    HW2 3471   5.953   5.337   5.729
  858SOL     OW 3472   4.139   3.343   0.536
  858SOL    HW1 3473   4.137   3.247   0.509
  858SOL    HW2 3474   4.228   3.382   0.514
  859SOL     OW 3475   4.548   6.323   5.540
  859SOL    HW1 3476   4.456   6.293   5.565
  859SOL    HW2 3477   4.542   6.392   5.467
  860SOL     OW 3478   5.177   3.369   5.802
  860SOL    HW1 3479   5.188   3.349   5.900
  860SOL    HW2 3480   5.267   3.372   5.759
  861SOL     OW 3481   2.574   6.014   2.614
  861SOL    HW1 3482   2.488   6.006   2.563
  861SOL    HW2 3483   2.557   6.066   2.698
  862SOL     OW 3484   0.765   4.024   3.324
  862SOL    HW1 3485   0.686   4.060   3.374
  862SOL    HW2 3486   0.816   3.961   3.383
  863SOL     OW 3487   0.030   0.462   0.251
  863SOL    HW1 3488   0.088   0.413   0.316
  863SOL    HW2 3489   6.961   0.427   0.257
  864SOL     OW 3490   5.870   0.300   4.914
  864SOL    HW1 3491   5.780   0.308   4.872
  864SOL    HW2 3492   5.901   0.391   4.943
  865SOL     OW 3493   2.110   6.195   4.208
  865SOL    HW1 3494   2.046   6.121   4.225
  865SOL    HW2 3495   2.201   6.157   4.188
  866SOL     OW 3496   3.453   6.293   2.187
  866SOL    HW1 3497   3.478   6.373   2.132
  866SOL    HW2 3498   3.396   6.322   2.264
  867SOL     OW 3499   5.837   2.093   6.848
  867SOL    HW1 3500   5.830   2.082   6.749
  867SOL    HW2 3501   5.866   2.186   6.870
  868SOL     OW 3502   0.057   2.012   2.512
  868SOL    HW1 3503   0.154   2.032   2.502
  868SOL    HW2 3504   0.012   2.087   2.560
  869SOL     OW 3505   6.603   3.752   3.211
  869SOL    HW1 3506   6.578   3.656   3.207
  869SOL    HW2 3507   6.555   3.796   3.286
  870SOL     OW 3508   3.397   5.200   1.873
  870SOL    HW1 3509   3.369   5.132   1.941
  870SOL    HW2 3510   3.318   5.257   1.849
  871SOL     OW 3511   4.677   1.400   3.435
  871SOL    HW1 3512   4.581   1.405   3.463
  871SOL    HW2 3513   4.724   1.483   3.465
  872SOL     OW 3514   0.036   3.318   5.192
  872SOL    HW1 3515   0.030   3.409   5.151
  872SOL    HW2 3516   0.131   3.288   5.192
  873SOL     OW 3517   4.966   6.844   6.294
  873SOL    HW1 3518   5.043   6.811   6.349
  873SOL    HW2 3519   4.889   6.865   6.354
  874SOL     OW 3520   4.973   4.148   0.279
  874SOL    HW1 3521   4.887   4.098   0.284
  874SOL    HW2 3522   5.035   4.102   0.216
  875SOL     OW 3523   5.108   5.273   0.554
  875SOL    HW1 3524   5.182   5.262   0.620
  875SOL    HW2 3525   5.085   5.370   0.546
  876SOL     OW 3526   6.820   6.262   1.374
  876SOL    HW1 3527   6.795   6.353   1.340
  876SOL    HW2 3528   6.790   6.252   1.468
  877SOL     OW 3529   2.877   3.702   6.732
  877SOL    HW1 3530   2.906   3.610   6.760
  877SOL    HW2 3531   2.859   3.702   6.633
  878SOL     OW 3532   3.931   6.628   4.178
  878SOL    HW1 3533   3.883   6.650   4.264
  878SOL    HW2 3534   3.942   6.529   4.171
  879SOL     OW 3535   5.684   0.618   0.673
  879SOL    HW1 3536   5.636   0.616   0.585
  879SOL    HW2 3537   5.765   0.677   0.664
  880SOL     OW 3538   3.057   3.374   2.778
  880SOL    HW1 3539   3.147   3.414   2.758
  880SOL    HW2 3540   3.011   3.428   2.848
  881SOL     OW 3541   4.362   2.055   6.742
  881SOL    HW1 3542   4.298   1.981   6.762
  881SOL    HW2 3543   4.392   2.049   6.647
  882SOL     OW 3544   1.344   3.402   4.014
  882SOL    HW1 3545   1.347   3.327   3.948
  882SOL    HW2 3546   1.431   3.407   4.063
  883SOL     OW 3547   2.930   0.242   2.548
  883SOL    HW1 3548   3.009   0.193   2.512
  883SOL    HW2 3549   2.855   0.179   2.563
  884SOL     OW 3550   4.938   3.013   5.115
  884SOL    HW1 3551   4.958   3.109   5.131
  884SOL    HW2 3552   4.881   2.978   5.190
  885SOL     OW 3553   3.661   1.985   6.098
  885SOL    HW1 3554   3.610   1.918   6.151
  885SOL    HW2 3555   3.616   2.075   6.106
  886SOL     OW 3556   3.373   0.249   6.727
  886SOL    HW1 3557   3.357   0.323   6.661
  886SOL    HW2 3558   3.364   0.285   6.820
  887SOL     OW 3559   4.475   1.088   4.384
  887SOL    HW1 3560   4.400   1.095   4.318
  887SOL    HW2 3561   4.453   1.019   4.453
  888SOL     OW 3562   6.912   0.214   3.380
  888SOL    HW1 3563   6.937   0.230   3.284
  888SOL    HW2 3564   6.864   0.126   3.388
  889SOL     OW 3565   0.844   3.731   0.017
  889SOL    HW1 3566   0.882   3.734   0.110
  889SOL    HW2 3567   0.812   3.823   7.016
  890SOL     OW 3568   2.672   5.521   3.702
  890SOL    HW1 3569   2.595   5.465   3.669
  890SOL    HW2 3570   2.646   5.617   3.700
  891SOL     OW 3571   5.932   5.713   0.768
  891SOL    HW1 3572   5.926   5.725   0.669
  891SOL    HW2 3573   5.945   5.616   0.790
  892SOL     OW 3574   2.840   4.463   6.142
  892SOL    HW1 3575   2.897   4.385   6.115
  892SOL    HW2 3576   2.845   4.474   6.241
  893SOL     OW 3577   2.753   6.936   3.011
  893SOL    HW1 3578   2.817   7.010   3.033
  893SOL    HW2 3579   2.677   6.937   3.075
  894SOL     OW 3580   1.239   4.087   1.456
  894SOL    HW1 3581   1.306   4.034   1.508
  894SOL    HW2 3582   1.224   4.043   1.367
  895SOL     OW 3583   0.046   6.264   3.710
  895SOL    HW1 3584   0.052   6.203   3.789
  895SOL    HW2 3585   0.070   6.357   3.737
  896SOL     OW 3586   6.641   6.148   5.155
  896SOL    HW1 3587   6.625   6.209   5.233
  896SOL    HW2 3588   6.564   6.085   5.146
  897SOL     OW 3589   5.218   0.687   6.475
  897SOL    HW1 3590   5.191   0.637   6.393
  897SOL    HW2 3591   5.268   0.627   6.536
  898SOL     OW 3592   3.619   6.078   3.082
  898SOL    HW1 3593   3.639   6.084   2.984
  898SOL    HW2 3594   3.593   6.168   3.117
  899SOL     OW 3595   0.262   4.790   6.727
  899SOL    HW1 3596   0.201   4.805   6.649
  899SOL    HW2 3597   0.354   4.772   6.693
  900SOL     OW 3598   5.667   6.303   0.793
  900SOL    HW1 3599   5.735   6.264   0.731
  900SOL    HW2 3600   5.583   6.249   0.789
  901SOL     OW 3601   1.479   1.463   2.053
  901SOL    HW1 3602   1.558   1.473   2.114
  901SOL    HW2 3603   1.445   1.369   2.059
  902SOL     OW 3604   6.247   4.029   1.265
  902SOL    HW1 3605   6.180   4.095   1.299
  902SOL    HW2 3606   6.230   4.012   1.167
  903SOL     OW 3607   6.612   2.181   0.226
  903SOL    HW1 3608   6.699   2.214   0.190
  903SOL    HW2 3609   6.622   2.084   0.251
  904SOL     OW 3610   3.478   1.841   2.867
  904SOL    HW1 3611   3.528   1.798   2.792
  904SOL    HW2 3612   3.476   1.940   2.854
  905SOL     OW 3613   5.955   2.718   6.732
  905SOL    HW1 3614   5.911   2.798   6.773
  905SOL    HW2 3615   5.996   2.661   6.804
  906SOL     OW 3616   6.867   3.153   6.160
  906SOL    HW1 3617   6.858   3.177   6.257
  906SOL    HW2 3618   6.792   3.196   6.109
  907SOL     OW 3619   4.880   3.542   6.894
  907SOL    HW1 3620   4.897   3.505   6.985
  907SOL    HW2 3621   4.791   3.511   6.861
  908SOL     OW 3622   3.015   4.851   2.430
  908SOL    HW1 3623   2.954   4.922   2.465
  908SOL    HW2 3624   2.961   4.772   2.402
  909SOL     OW 3625   5.437   5.202   6.004
  909SOL    HW1 3626   5.392   5.290   5.990
  909SOL    HW2 3627   5.497   5.208   6.084
  910SOL     OW 3628   2.681   3.099   1.580
  910SOL    HW1 3629   2.608   3.168   1.587
  910SOL    HW2 3630   2.642   3.008   1.587
  911SOL     OW 3631   1.168   5.269   6.349
  911SOL    HW1 3632   1.224   5.257   6.267
  911SOL    HW2 3633   1.123   5.358   6.346
  912SOL     OW 3634   4.743   2.236   3.172
  912SOL    HW1 3635   4.824   2.198   3.217
  912SOL    HW2 3636   4.715   2.320   3.220
  913SOL     OW 3637   5.278   0.138   3.078
  913SOL    HW1 3638   5.276   0.038   3.084
  913SOL    HW2 3639   5.223   0.168   3.000
  914SOL     OW 3640   2.770   6.930   0.088
  914SOL    HW1 3641   2.700   6.941   0.018
  914SOL    HW2 3642   2.828   7.011   0.091
  915SOL     OW 3643   5.951   5.964   0.870
  915SOL    HW1 3644   5.940   5.874   0.828
  915SOL    HW2 3645   5.986   5.954   0.963
  916SOL     OW 3646   0.824   2.471   2.215
  916SOL    HW1 3647   0.773   2.448   2.297
  916SOL    HW2 3648   0.913   2.509   2.241
  917SOL     OW 3649   0.078   0.165   0.622
  917SOL    HW1 3650   7.006   0.160   0.595
  917SOL    HW2 3651   0.098   0.097   0.692
  918SOL     OW 3652   1.678   5.288   0.334
  918SOL    HW1 3653   1.718   5.357   0.394
  918SOL    HW2 3654   1.741   5.270   0.258
  919SOL     OW 3655   5.486   1.465   4.269
  919SOL    HW1 3656   5.479   1.438   4.173
  919SOL    HW2 3657   5.481   1.564   4.276
  920SOL     OW 3658   2.884   4.805   2.116
  920SOL    HW1 3659   2.897   4.869   2.039
  920SOL    HW2 3660   2.825   4.730   2.087
  921SOL     OW 3661   4.837   5.917   4.681
  921SOL    HW1 3662   4.831   5.884   4.587
  921SOL    HW2 3663   4.835   5.840   4.744
  922SOL     OW 3664   4.114   3.430   3.625
  922SOL    HW1 3665   4.096   3.489   3.547
  922SOL    HW2 3666   4.095   3.480   3.710
  923SOL     OW 3667   2.305   3.246   5.616
  923SOL    HW1 3668   2.208   3.268   5.622
  923SOL    HW2 3669   2.319   3.151   5.644
  924SOL     OW 3670   0.024   3.597   2.694
  924SOL    HW1 3671   0.002   3.568   2.601
  924SOL    HW2 3672   0.124   3.602   2.704
  925SOL     OW 3673   6.024   1.966   0.225
  925SOL    HW1 3674   6.012   2.030   0.149
  925SOL    HW2 3675   5.999   1.874   0.195
  926SOL     OW 3676   0.594   1.000   2.023
  926SOL    HW1 3677   0.526   0.978   1.954
  926SOL    HW2 3678   0.603   0.925   2.088
  927SOL     OW 3679   5.316   4.207   3.650
  927SOL    HW1 3680   5.285   4.166   3.736
  927SOL    HW2 3681   5.371   4.141   3.599
  928SOL     OW 3682   3.026   5.613   6.974
  928SOL    HW1 3683   3.097   5.683   6.963
  928SOL    HW2 3684   2.952   5.631   6.909
  929SOL     OW 3685   6.776   1.559   5.282
  929SOL    HW1 3686   6.737   1.634   5.335
  929SOL    HW2 3687   6.786   1.479   5.342
  930SOL     OW 3688   5.378   5.744   6.151
  930SOL    HW1 3689   5.309   5.699   6.094
  930SOL    HW2 3690   5.390   5.692   6.236
  931SOL     OW 3691   6.402   2.636   2.716
  931SOL    HW1 3692   6.334   2.686   2.662
  931SOL    HW2 3693   6.433   2.694   2.792
  932SOL     OW 3694   3.593   0.401   4.039
  932SOL    HW1 3695   3.667   0.375   4.102
  932SOL    HW2 3696   3.609   0.359   3.950
  933SOL     OW 3697   1.169   5.106   2.252
  933SOL    HW1 3698   1.118   5.037   2.201
  933SOL    HW2 3699   1.208   5.172   2.188
  934SOL     OW 3700   1.638   4.730   6.283
  934SOL    HW1 3701   1.655   4.762   6.376
  934SOL    HW2 3702   1.652   4.631   6.279
  935SOL     OW 3703   5.347   3.138   3.434
  935SOL    HW1 3704   5.420   3.202   3.457
  935SOL    HW2 3705   5.313   3.158   3.342
  936SOL     OW 3706   1.671   0.499   6.544
  936SOL    HW1 3707   1.715   0.585   6.570
  936SOL    HW2 3708   1.730   0.451   6.479
  937SOL     OW 3709   5.239   1.436   5.793
  937SOL    HW1 3710   5.178   1.456   5.716
  937SOL    HW2 3711   5.187   1.389   5.865
  938SOL     OW 3712   5.730   5.658   4.017
  938SOL    HW1 3713   5.660   5.678   3.948
  938SOL    HW2 3714   5.689   5.606   4.092
  939SOL     OW 3715   0.463   0.183   5.274
  939SOL    HW1 3716   0.391   0.126   5.313
  939SOL    HW2 3717   0.434   0.279   5.277
  940SOL     OW 3718   2.097   4.787   0.530
  940SOL    HW1 3719   2.182   4.797   0.582
  940SOL    HW2 3720   2.031   4.736   0.585
  941SOL     OW 3721   3.294   0.453   6.529
  941SOL    HW1 3722   3.269   0.404   6.445
  941SOL    HW2 3723   3.212   0.494   6.569
  942SOL     OW 3724   0.355   5.028   0.420
  942SOL    HW1 3725   0.354   5.000   0.324
  942SOL    HW2 3726   0.286   4.976   0.470
  943SOL     OW 3727   2.957   5.370   3.155
  943SOL    HW1 3728   3.042   5.417   3.177
  943SOL    HW2 3729   2.884   5.437   3.143
  944SOL     OW 3730   0.619   6.901   4.635
  944SOL    HW1 3731   0.520   6.906   4.643
  944SOL    HW2 3732   0.649   6.808   4.658
  945SOL     OW 3733   0.692   5.533   6.390
  945SOL    HW1 3734   0.711   5.457   6.328
  945SOL    HW2 3735   0.610   5.513   6.443
  946SOL     OW 3736   4.900   3.120   3.444
  946SOL    HW1 3737   4.879   3.104   3.540
  946SOL    HW2 3738   4.904   3.219   3.427
  947SOL     OW 3739   3.920   3.776   4.101
  947SOL    HW1 3740   3.935   3.782   4.200
  947SOL    HW2 3741   3.906   3.868   4.065
  948SOL     OW 3742   4.093   0.610   2.737
  948SOL    HW1 3743   4.080   0.631   2.834
  948SOL    HW2 3744   4.101   0.696   2.686
  949SOL     OW 3745   2.777   6.467   6.376
  949SOL    HW1 3746   2.834   6.469   6.458
  949SOL    HW2 3747   2.752   6.372   6.355
  950SOL     OW 3748   0.245   6.708   2.123
  950SOL    HW1 3749   0.235   6.784   2.187
  950SOL    HW2 3750   0.311   6.642   2.160
  951SOL     OW 3751   2.222   6.760   3.298
  951SOL    HW1 3752   2.130   6.798   3.301
  951SOL    HW2 3753   2.239   6.706   3.381
  952SOL     OW 3754   3.492   1.179   2.223
  952SOL    HW1 3755   3.495   1.118   2.303
  952SOL    HW2 3756   3.477   1.273   2.253
  953SOL     OW 3757   6.155   4.852   5.574
  953SOL    HW1 3758   6.069   4.803   5.564
  953SOL    HW2 3759   6.217   4.825   5.500
  954SOL     OW 3760   4.710   5.959   2.241
  954SOL    HW1 3761   4.691   6.053   2.270
  954SOL    HW2 3762   4.623   5.911   2.225
  955SOL     OW 3763   1.697   4.346   6.996
  955SOL    HW1 3764   1.619   4.408   7.000
  955SOL    HW2 3765   1.664   4.251   7.000
  956SOL     OW 3766   5.902   0.812   1.281
  956SOL    HW1 3767   5.888   0.894   1.336
  956SOL    HW2 3768   5.884   0.833   1.184
  957SOL     OW 3769   6.038   1.970   3.306
  957SOL    HW1 3770   6.069   1.878   3.332
  957SOL    HW2 3771   6.082   1.997   3.221
  958SOL     OW 3772   5.088   0.237   1.878
  958SOL    HW1 3773   5.090   0.210   1.782
  958SOL    HW2 3774   5.014   0.303   1.893
  959SOL     OW 3775   4.179   6.380   4.269
  959SOL    HW1 3776   4.123   6.313   4.220
  959SOL    HW2 3777   4.192   6.461   4.212
  960SOL     OW 3778   0.854   0.231   0.157
  960SOL    HW1 3779   0.892   0.277   0.237
  960SOL    HW2 3780   0.914   0.245   0.078
  961SOL     OW 3781   3.222   7.007   2.637
  961SOL    HW1 3782   3.194   0.040   2.560
  961SOL    HW2 3783   3.190   0.024   2.722
  962SOL     OW 3784   6.495   0.333   4.763
  962SOL    HW1 3785   6.521   0.364   4.855
  962SOL    HW2 3786   6.400   0.302   4.764
  963SOL     OW 3787   5.669   3.059   0.922
  963SOL    HW1 3788   5.682   2.995   0.846
  963SOL    HW2 3789   5.571   3.072   0.938
  964SOL     OW 3790   4.948   4.361   5.253
  964SOL    HW1 3791   4.965   4.454   5.222
  964SOL    HW2 3792   5.008   4.339   5.330
  965SOL     OW 3793   6.218   2.653   3.790
  965SOL    HW1 3794   6.317   2.664   3.786
  965SOL    HW2 3795   6.179   2.717   3.856
  966SOL     OW 3796   4.848   1.856   4.611
  966SOL    HW1 3797   4.946   1.855   4.630
  966SOL    HW2 3798   4.811   1.764   4.624
  967SOL     OW 3799   5.149   3.992   5.885
  967SOL    HW1 3800   5.117   4.077   5.844
  967SOL    HW2 3801   5.209   4.012   5.962
  968SOL     OW 3802   3.509   0.647   1.847
  968SOL    HW1 3803   3.556   0.668   1.761
  968SOL    HW2 3804   3.525   0.721   1.912
  969SOL     OW 3805   3.409   4.052   5.784
  969SOL    HW1 3806   3.317   4.089   5.781
  969SOL    HW2 3807   3.430   4.008   5.697
  970SOL     OW 3808   5.907   0.601   5.790
  970SOL    HW1 3809   5.984   0.582   5.729
  970SOL    HW2 3810   5.844   0.523   5.790
  971SOL     OW 3811   5.543   4.159   2.532
  971SOL    HW1 3812   5.529   4.108   2.448
  971SOL    HW2 3813   5.480   4.125   2.602
  972SOL     OW 3814   0.075   3.014   0.926
  972SOL    HW1 3815   0.008   2.989   0.995
  972SOL    HW2 3816   0.144   2.942   0.919
  973SOL     OW 3817   0.060   3.412   6.255
  973SOL    HW1 3818   6.997   3.446   6.291
  973SOL    HW2 3819   0.084   3.326   6.300
  974SOL     OW 3820   0.271   5.472   3.947
  974SOL    HW1 3821   0.345   5.429   3.998
  974SOL    HW2 3822   0.279   5.447   3.850
  975SOL     OW 3823   2.655   6.969   2.128
  975SOL    HW1 3824   2.695   6.884   2.163
  975SOL    HW2 3825   2.556   6.964   2.135
  976SOL     OW 3826   6.452   3.551   2.666
  976SOL    HW1 3827   6.367   3.574   2.714
  976SOL    HW2 3828   6.449   3.454   2.640
  977SOL     OW 3829   0.289   0.984   2.577
  977SOL    HW1 3830   0.388   0.973   2.582
  977SOL    HW2 3831   0.265   1.080   2.595
  978SOL     OW 3832   5.414   3.182   1.789
  978SOL    HW1 3833   5.474   3.139   1.856
  978SOL    HW2 3834   5.390   3.274   1.820
  979SOL     OW 3835   0.260   4.272   6.736
  979SOL    HW1 3836   0.334   4.324   6.694
  979SOL    HW2 3837   0.286   4.245   6.828
  980SOL     OW 3838   3.546   1.737   4.627
  980SOL    HW1 3839   3.617   1.745   4.697
  980SOL    HW2 3840   3.457   1.755   4.667
  981SOL     OW 3841   6.841   5.988   5.290
  981SOL    HW1 3842   6.890   6.055   5.346
  981SOL    HW2 3843   6.778   6.035   5.229
  982SOL     OW 3844   6.531   1.001   4.959
  982SOL    HW1 3845   6.560   1.096   4.960
  982SOL    HW2 3846   6.598   0.945   5.009
  983SOL     OW 3847   0.150   4.809   4.129
  983SOL    HW1 3848   0.057   4.776   4.115
  983SOL    HW2 3849   0.191   4.834   4.041
  984SOL     OW 3850   1.134   2.161   3.034
  984SOL    HW1 3851   1.137   2.227   3.109
  984SOL    HW2 3852   1.167   2.073   3.066
  985SOL     OW 3853   6.607   4.363   4.668
  985SOL    HW1 3854   6.599   4.329   4.575
  985SOL    HW2 3855   6.702   4.356   4.698
  986SOL     OW 3856   4.908   5.152   1.199
  986SOL    HW1 3857   4.891   5.250   1.187
  986SOL    HW2 3858   4.940   5.113   1.112
  987SOL     OW 3859   5.075   5.002   3.960
  987SOL    HW1 3860   5.098   4.906   3.976
  987SOL    HW2 3861   5.109   5.030   3.870
  988SOL     OW 3862   2.992   4.590   1.547
  988SOL    HW1 3863   2.921   4.660   1.550
  988SOL    HW2 3864   3.063   4.611   1.614
  989SOL     OW 3865   0.601   1.358   0.958
  989SOL    HW1 3866   0.558   1.332   1.044
  989SOL    HW2 3867   0.555   1.439   0.921
  990SOL     OW 3868   3.658   0.239   3.802
  990SOL    HW1 3869   3.748   0.252   3.762
  990SOL    HW2 3870   3.587   0.251   3.732
  991SOL     OW 3871   0.115   4.705   3.627
  991SOL    HW1 3872   0.214   4.702   3.615
  991SOL    HW2 3873   0.092   4.774   3.695
  992SOL     OW 3874   0.325   2.683   1.323
  992SOL    HW1 3875   0.318   2.689   1.224
  992SOL    HW2 3876   0.355   2.591   1.349
  993SOL     OW 3877   1.416   4.949   0.373
  993SOL    HW1 3878   1.449   5.031   0.420
  993SOL    HW2 3879   1.454   4.946   0.280
  994SOL     OW 3880   3.195   6.107   6.745
  994SOL    HW1 3881   3.253   6.077   6.821
  994SOL    HW2 3882   3.250   6.114   6.662
  995SOL     OW 3883   6.126   3.366   5.899
  995SOL    HW1 3884   6.108   3.288   5.840
  995SOL    HW2 3885   6.040   3.411   5.923
  996SOL     OW 3886   3.698   6.280   5.842
  996SOL    HW1 3887   3.683   6.341   5.764
  996SOL    HW2 3888   3.748   6.328   5.914
  997SOL     OW 3889   1.520   5.405   3.503
  997SOL    HW1 3890   1.428   5.368   3.484
  997SOL    HW2 3891   1.526   5.498   3.468
  998SOL     OW 3892   6.647   0.568   6.817
  998SOL    HW1 3893   6.558   0.573   6.771
  998SOL    HW2 3894   6.657   0.646   6.879
  999SOL     OW 3895   4.856   3.949   2.366
  999SOL    HW1 3896   4.809   4.027   2.325
  999SOL    HW2 3897   4.872   3.879   2.297
 1000SOL     OW 3898   4.194   1.785   1.146
 1000SOL    HW1 3899   4.177   1.743   1.236
 1000SOL    HW2 3900   4.138   1.867   1.137
 1001SOL     OW 3901   3.281   6.243   2.410
 1001SOL    HW1 3902   3.267   6.164   2.351
 1001SOL    HW2 3903   3.205   6.308   2.398
 1002SOL     OW 3904   5.367   2.116   1.286
 1002SOL    HW1 3905   5.418   2.177   1.225
 1002SOL    HW2 3906   5.287   2.165   1.322
 1003SOL     OW 3907   0.277   0.311   3.249
 1003SOL    HW1 3908   0.184   0.290   3.220
 1003SOL    HW2 3909   0.331   0.339   3.170
 1004SOL     OW 3910   5.378   1.618   3.891
 1004SOL    HW1 3911   5.281   1.626   3.916
 1004SOL    HW2 3912   5.414   1.531   3.923
 1005SOL     OW 3913   1.226   4.106   2.740
 1005SOL    HW1 3914   1.155   4.160   2.695
 1005SOL    HW2 3915   1.298   4.167   2.773
 1006SOL     OW 3916   2.885   3.554   0.999
 1006SOL    HW1 3917   2.798   3.583   1.038
 1006SOL    HW2 3918   2.923   3.627   0.942
 1007SOL     OW 3919   4.955   0.985   6.970
 1007SOL    HW1 3920   4.995   0.893   6.976
 1007SOL    HW2 3921   5.015   1.044   6.917
 1008SOL     OW 3922   7.018   4.812   4.840
 1008SOL    HW1 3923   0.068   4.780   4.900
 1008SOL    HW2 3924   6.932   4.769   4.867
 1009SOL     OW 3925   6.755   5.776   6.588
 1009SOL    HW1 3926   6.670   5.750   6.634
 1009SOL    HW2 3927   6.734   5.824   6.503
 1010SOL     OW 3928   2.901   3.176   1.190
 1010SOL    HW1 3929   2.979   3.191   1.251
 1010SOL    HW2 3930   2.816   3.199   1.237
 1011SOL     OW 3931   6.357   5.222   2.025
 1011SOL    HW1 3932   6.367   5.185   2.118
 1011SOL    HW2 3933   6.337   5.320   2.031
 1012SOL     OW 3934   4.749   0.596   2.851
 1012SOL    HW1 3935   4.805   0.533   2.905
 1012SOL    HW2 3936   4.668   0.548   2.818
 1013SOL     OW 3937   6.725   0.101   6.699
 1013SOL    HW1 3938   6.813   0.056   6.714
 1013SOL    HW2 3939   6.667   0.089   6.779
 1014SOL     OW 3940   0.994   5.002   4.663
 1014SOL    HW1 3941   0.930   5.018   4.738
 1014SOL    HW2 3942   1.058   5.078   4.656
 1015SOL     OW 3943   3.272   6.385   6.851
 1015SOL    HW1 3944   3.305   6.295   6.822
 1015SOL    HW2 3945   3.181   6.400   6.813
 1016SOL     OW 3946   6.299   4.143   1.714
 1016SOL    HW1 3947   6.360   4.115   1.641
 1016SOL    HW2 3948   6.241   4.065   1.740
 1017SOL     OW 3949   2.116   1.845   2.414
 1017SOL    HW1 3950   2.208   1.871   2.383
 1017SOL    HW2 3951   2.121   1.759   2.465
 1018SOL     OW 3952   0.005   5.945   3.686
 1018SOL    HW1 3953   0.013   5.846   3.673
 1018SOL    HW2 3954   0.080   5.991   3.638
 1019SOL     OW 3955   6.522   4.599   0.879
 1019SOL    HW1 3956   6.614   4.613   0.841
 1019SOL    HW2 3957   6.479   4.687   0.897
 1020SOL     OW 3958   6.546   0.775   0.710
 1020SOL    HW1 3959   6.512   0.683   0.731
 1020SOL    HW2 3960   6.605   0.806   0.784
 1021SOL     OW 3961   6.733   5.966   1.287
 1021SOL    HW1 3962   6.713   5.895   1.354
 1021SOL    HW2 3963   6.828   5.996   1.296
 1022SOL     OW 3964   2.179   6.176   6.323
 1022SOL    HW1 3965   2.138   6.249   6.377
 1022SOL    HW2 3966   2.117   6.098   6.318
 1023SOL     OW 3967   0.678   1.614   3.218
 1023SOL    HW1 3968   0.772   1.621   3.185
 1023SOL    HW2 3969   0.678   1.581   3.312
 1024SOL     OW 3970   1.673   1.930   5.154
 1024SOL    HW1 3971   1.746   1.936   5.222
 1024SOL    HW2 3972   1.663   1.835   5.124
 1025SOL     OW 3973   4.608   3.512   0.381
 1025SOL    HW1 3974   4.515   3.512   0.343
 1025SOL    HW2 3975   4.637   3.418   0.397
 1026SOL     OW 3976   3.440   2.492   1.015
 1026SOL    HW1 3977   3.479   2.544   0.939
 1026SOL    HW2 3978   3.514   2.449   1.068
 1027SOL     OW 3979   0.443   6.630   0.910
 1027SOL    HW1 3980   0.420   6.572   0.988
 1027SOL    HW2 3981   0.367   6.631   0.845
 1028SOL     OW 3982   1.511   6.261   2.626
 1028SOL    HW1 3983   1.457   6.211   2.559
 1028SOL    HW2 3984   1.564   6.197   2.681
 1029SOL     OW 3985   0.918   1.042   6.360
 1029SOL    HW1 3986   0.962   1.105   6.297
 1029SOL    HW2 3987   0.819   1.056   6.358
 1030SOL     OW 3988   3.600   3.320   1.497
 1030SOL    HW1 3989   3.546   3.314   1.414
 1030SOL    HW2 3990   3.572   3.249   1.561
 1031SOL     OW 3991   3.446   3.738   1.295
 1031SOL    HW1 3992   3.436   3.814   1.359
 1031SOL    HW2 3993   3.426   3.769   1.202
 1032SOL     OW 3994   2.237   2.216   5.995
 1032SOL    HW1 3995   2.287   2.225   6.082
 1032SOL    HW2 3996   2.295   2.169   5.929
 1033SOL     OW 3997   1.023   6.495   1.865
 1033SOL    HW1 3998   0.973   6.531   1.786
 1033SOL    HW2 3999   1.045   6.399   1.850
 1034SOL     OW 4000   3.115   6.944   4.344
 1034SOL    HW1 4001   3.175   6.877   4.387
 1034SOL    HW2 4002   3.105   7.023   4.405
 1035SOL     OW 4003   1.332   2.177   5.901
 1035SOL    HW1 4004   1.320   2.271   5.933
 1035SOL    HW2 4005   1.415   2.139   5.941
 1036SOL     OW 4006   4.741   1.665   1.088
 1036SOL    HW1 4007   4.677   1.730   1.129
 1036SOL    HW2 4008   4.799   1.712   1.022
 1037SOL     OW 4009   1.562   2.889   2.534
 1037SOL    HW1 4010   1.545   2.900   2.632
 1037SOL    HW2 4011   1.508   2.813   2.499
 1038SOL     OW 4012   3.254   6.484   0.065
 1038SOL    HW1 4013   3.248   6.431   7.005
 1038SOL    HW2 4014   3.185   6.556   0.064
 1039SOL     OW 4015   3.394   2.865   3.540
 1039SOL    HW1 4016   3.339   2.798   3.491
 1039SOL    HW2 4017   3.411   2.944   3.481
 1040SOL     OW 4018   3.939   0.683   2.976
 1040SOL    HW1 4019   4.017   0.709   3.032
 1040SOL    HW2 4020   3.868   0.754   2.983
 1041SOL     OW 4021   0.053   5.978   6.387
 1041SOL    HW1 4022   7.016   6.015   6.458
 1041SOL    HW2 4023   0.147   5.983   6.419
 1042SOL     OW 4024   5.463   4.577   2.815
 1042SOL    HW1 4025   5.420   4.563   2.905
 1042SOL    HW2 4026   5.395   4.562   2.743
 1043SOL     OW 4027   3.031   2.161   3.868
 1043SOL    HW1 4028   3.098   2.181   3.797
 1043SOL    HW2 4029   3.078   2.140   3.954
 1044SOL     OW 4030   5.434   4.612   1.636
 1044SOL    HW1 4031   5.504   4.620   1.565
 1044SOL    HW2 4032   5.455   4.533   1.694
 1045SOL     OW 4033   2.306   0.503   3.674
 1045SOL    HW1 4034   2.266   0.522   3.584
 1045SOL    HW2 4035   2.278   0.572   3.739
 1046SOL     OW 4036   2.773   1.311   0.968
 1046SOL    HW1 4037   2.794   1.368   0.889
 1046SOL    HW2 4038   2.718   1.233   0.940
 1047SOL     OW 4039   3.608   6.681   3.086
 1047SOL    HW1 4040   3.512   6.658   3.105
 1047SOL    HW2 4041   3.622   6.779   3.104
 1048SOL     OW 4042   1.656   6.480   1.989
 1048SOL    HW1 4043   1.572   6.470   1.935
 1048SOL    HW2 4044   1.656   6.571   2.032
 1049SOL     OW 4045   4.175   5.945   5.435
 1049SOL    HW1 4046   4.264   5.963   5.395
 1049SOL    HW2 4047   4.115   5.902   5.367
 1050SOL     OW 4048   3.472   5.242   3.286
 1050SOL    HW1 4049   3.482   5.331   3.330
 1050SOL    HW2 4050   3.546   5.182   3.316
 1051SOL     OW 4051   0.602   0.107   0.045
 1051SOL    HW1 4052   0.693   0.146   0.054
 1051SOL    HW2 4053   0.538   0.157   0.103
 1052SOL     OW 4054   3.607   0.919   6.823
 1052SOL    HW1 4055   3.617   0.867   6.738
 1052SOL    HW2 4056   3.603   0.856   6.901
 1053SOL     OW 4057   5.690   2.720   2.976
 1053SOL    HW1 4058   5.629   2.755   2.905
 1053SOL    HW2 4059   5.750   2.650   2.936
 1054SOL     OW 4060   3.006   4.695   6.257
 1054SOL    HW1 4061   3.012   4.788   6.293
 1054SOL    HW2 4062   2.956   4.637   6.322
 1055SOL     OW 4063   4.955   6.282   6.611
 1055SOL    HW1 4064   5.049   6.318   6.615
 1055SOL    HW2 4065   4.947   6.205   6.675
 1056SOL     OW 4066   2.763   3.897   6.295
 1056SOL    HW1 4067   2.710   3.940   6.222
 1056SOL    HW2 4068   2.783   3.964   6.366
 1057SOL     OW 4069   2.676   1.818   1.054
 1057SOL    HW1 4070   2.679   1.736   1.111
 1057SOL    HW2 4071   2.769   1.845   1.030
 1058SOL     OW 4072   2.381   2.568   2.608
 1058SOL    HW1 4073   2.427   2.492   2.563
 1058SOL    HW2 4074   2.343   2.630   2.539
 1059SOL     OW 4075   2.921   6.194   1.747
 1059SOL    HW1 4076   2.945   6.128   1.676
 1059SOL    HW2 4077   2.978   6.275   1.738
 1060SOL     OW 4078   6.028   6.536   5.340
 1060SOL    HW1 4079   6.056   6.547   5.435
 1060SOL    HW2 4080   5.955   6.468   5.335
 1061SOL     OW 4081   6.756   4.066   6.936
 1061SOL    HW1 4082   6.685   4.084   7.005
 1061SOL    HW2 4083   6.817   4.146   6.930
 1062SOL     OW 4084   3.733   6.588   5.355
 1062SOL    HW1 4085   3.816   6.553   5.312
 1062SOL    HW2 4086   3.657   6.526   5.334
 1063SOL     OW 4087   2.612   5.882   6.108
 1063SOL    HW1 4088   2.662   5.905   6.192
 1063SOL    HW2 4089   2.675   5.841   6.042
 1064SOL     OW 4090   1.435   3.796   0.200
 1064SOL    HW1 4091   1.382   3.811   0.284
 1064SOL    HW2 4092   1.372   3.790   0.122
 1065SOL     OW 4093   4.367   0.739   4.073
 1065SOL    HW1 4094   4.460   0.703   4.078
 1065SOL    HW2 4095   4.362   0.826   4.123
 1066SOL     OW 4096   4.723   0.163   2.096
 1066SOL    HW1 4097   4.669   0.247   2.109
 1066SOL    HW2 4098   4.778   0.147   2.178
 1067SOL     OW 4099   2.234   0.897   0.219
 1067SOL    HW1 4100   2.251   0.946   0.305
 1067SOL    HW2 4101   2.166   0.946   0.166
 1068SOL     OW 4102   5.902   3.423   1.208
 1068SOL    HW1 4103   5.874   3.333   1.174
 1068SOL    HW2 4104   5.855   3.494   1.157
 1069SOL     OW 4105   6.704   4.019   1.684
 1069SOL    HW1 4106   6.647   4.062   1.754
 1069SOL    HW2 4107   6.669   3.928   1.663
 1070SOL     OW 4108   1.408   6.997   1.920
 1070SOL    HW1 4109   1.327   0.008   1.874
 1070SOL    HW2 4110   1.489   0.023   1.888
 1071SOL     OW 4111   6.863   3.336   5.777
 1071SOL    HW1 4112   6.880   3.329   5.679
 1071SOL    HW2 4113   6.854   3.244   5.816
 1072SOL     OW 4114   2.541   1.432   2.088
 1072SOL    HW1 4115   2.508   1.427   1.994
 1072SOL    HW2 4116   2.591   1.348   2.111
 1073SOL     OW 4117   4.956   1.804   3.302
 1073SOL    HW1 4118   4.968   1.875   3.371
 1073SOL    HW2 4119   5.012   1.824   3.222
 1074SOL     OW 4120   2.707   4.759   1.799
 1074SOL    HW1 4121   2.746   4.696   1.866
 1074SOL    HW2 4122   2.775   4.829   1.775
 1075SOL     OW 4123   5.693   3.691   5.174
 1075SOL    HW1 4124   5.664   3.676   5.080
 1075SOL    HW2 4125   5.709   3.603   5.218
 1076SOL     OW 4126   2.039   3.958   4.850
 1076SOL    HW1 4127   2.127   3.974   4.894
 1076SOL    HW2 4128   1.967   3.954   4.919
 1077SOL     OW 4129   0.405   0.077   0.289
 1077SOL    HW1 4130   0.342   0.001   0.302
 1077SOL    HW2 4131   0.353   0.163   0.290
 1078SOL     OW 4132   0.094   6.474   4.065
 1078SOL    HW1 4133   0.007   6.426   4.070
 1078SOL    HW2 4134   0.079   6.572   4.078
 1079SOL     OW 4135   1.102   6.535   2.641
 1079SOL    HW1 4136   1.082   6.452   2.693
 1079SOL    HW2 4137   1.164   6.593   2.694
 1080SOL     OW 4138   2.137   5.279   6.547
 1080SOL    HW1 4139   2.180   5.362   6.513
 1080SOL    HW2 4140   2.198   5.234   6.613
 1081SOL     OW 4141   6.586   5.649   4.227
 1081SOL    HW1 4142   6.615   5.729   4.280
 1081SOL    HW2 4143   6.659   5.581   4.227
 1082SOL     OW 4144   5.505   6.956   6.004
 1082SOL    HW1 4145   5.550   6.874   5.968
 1082SOL    HW2 4146   5.406   6.951   5.985
 1083SOL     OW 4147   5.171   4.295   0.987
 1083SOL    HW1 4148   5.088   4.341   0.954
 1083SOL    HW2 4149   5.155   4.258   1.078
 1084SOL     OW 4150   6.915   0.201   6.097
 1084SOL    HW1 4151   6.818   0.177   6.106
 1084SOL    HW2 4152   6.966   0.122   6.064
 1085SOL     OW 4153   1.446   3.894   4.515
 1085SOL    HW1 4154   1.537   3.891   4.474
 1085SOL    HW2 4155   1.418   3.802   4.542
 1086SOL     OW 4156   6.212   5.523   0.637
 1086SOL    HW1 4157   6.290   5.526   0.574
 1086SOL    HW2 4158   6.127   5.532   0.586
 1087SOL     OW 4159   2.869   0.048   5.382
 1087SOL    HW1 4160   2.837   0.135   5.345
 1087SOL    HW2 4161   2.929   0.064   5.460
 1088SOL     OW 4162   6.950   4.669   3.369
 1088SOL    HW1 4163   7.003   4.665   3.454
 1088SOL    HW2 4164   6.863   4.621   3.382
 1089SOL     OW 4165   6.353   4.409   4.191
 1089SOL    HW1 4166   6.389   4.412   4.284
 1089SOL    HW2 4167   6.395   4.333   4.142
 1090SOL     OW 4168   5.039   1.700   4.969
 1090SOL    HW1 4169   5.061   1.649   4.886
 1090SOL    HW2 4170   5.069   1.649   5.049
 1091SOL     OW 4171   2.532   2.510   3.312
 1091SOL    HW1 4172   2.559   2.502   3.216
 1091SOL    HW2 4173   2.601   2.465   3.369
 1092SOL     OW 4174   0.978   5.591   0.675
 1092SOL    HW1 4175   0.921   5.557   0.599
 1092SOL    HW2 4176   0.920   5.608   0.754
 1093SOL     OW 4177   2.026   6.935   1.995
 1093SOL    HW1 4178   2.102   6.880   1.959
 1093SOL    HW2 4179   2.054   0.007   2.001
 1094SOL     OW 4180   0.994   0.226   2.854
 1094SOL    HW1 4181   0.966   0.319   2.830
 1094SOL    HW2 4182   1.093   0.217   2.843
 1095SOL     OW 4183   6.319   3.391   0.154
 1095SOL    HW1 4184   6.275   3.349   0.075
 1095SOL    HW2 4185   6.298   3.338   0.236
 1096SOL     OW 4186   2.923   5.286   1.691
 1096SOL    HW1 4187   2.858   5.268   1.617
 1096SOL    HW2 4188   2.875   5.285   1.778
 1097SOL     OW 4189   3.456   5.208   4.656
 1097SOL    HW1 4190   3.401   5.161   4.725
 1097SOL    HW2 4191   3.495   5.292   4.697
 1098SOL     OW 4192   6.200   5.014   0.922
 1098SOL    HW1 4193   6.129   5.016   0.852
 1098SOL    HW2 4194   6.198   5.099   0.975
 1099SOL     OW 4195   4.803   0.445   6.022
 1099SOL    HW1 4196   4.775   0.467   5.929
 1099SOL    HW2 4197   4.755   0.505   6.087
 1100SOL     OW 4198   3.132   1.867   4.103
 1100SOL    HW1 4199   3.101   1.959   4.129
 1100SOL    HW2 4200   3.162   1.818   4.184
 1101SOL     OW 4201   6.628   3.222   6.062
 1101SOL    HW1 4202   6.570   3.166   6.003
 1101SOL    HW2 4203   6.604   3.318   6.051
 1102SOL     OW 4204   3.029   1.341   4.373
 1102SOL    HW1 4205   3.023   1.250   4.413
 1102SOL    HW2 4206   3.025   1.334   4.273
 1103SOL     OW 4207   2.954   6.479   6.591
 1103SOL    HW1 4208   2.988   6.409   6.654
 1103SOL    HW2 4209   2.960   6.569   6.635
 1104SOL     OW 4210   0.004   3.358   4.051
 1104SOL    HW1 4211   6.941   3.361   4.002
 1104SOL    HW2 4212   0.043   3.266   4.045
 1105SOL     OW 4213   5.416   0.749   5.471
 1105SOL    HW1 4214   5.506   0.783   5.443
 1105SOL    HW2 4215   5.346   0.789   5.411
 1106SOL     OW 4216   0.418   1.927   0.708
 1106SOL    HW1 4217   0.422   2.004   0.645
 1106SOL    HW2 4218   0.375   1.956   0.794
 1107SOL     OW 4219   1.248   0.774   0.751
 1107SOL    HW1 4220   1.152   0.797   0.739
 1107SOL    HW2 4221   1.269   0.689   0.703
 1108SOL     OW 4222   2.508   6.433   4.363
 1108SOL    HW1 4223   2.487   6.336   4.377
 1108SOL    HW2 4224   2.602   6.451   4.391
 1109SOL     OW 4225   5.032   1.596   4.481
 1109SOL    HW1 4226   5.087   1.639   4.409
 1109SOL    HW2 4227   5.067   1.623   4.571
 1110SOL     OW 4228   3.555   0.894   2.787
 1110SOL    HW1 4229   3.566   0.916   2.690
 1110SOL    HW2 4230   3.513   0.971   2.835
 1111SOL     OW 4231   5.135   3.890   6.719
 1111SOL    HW1 4232   5.058   3.829   6.697
 1111SOL    HW2 4233   5.202   3.886   6.645
 1112SOL     OW 4234   5.064   0.256   2.320
 1112SOL    HW1 4235   5.067   0.276   2.418
 1112SOL    HW2 4236   5.158   0.245   2.286
 1113SOL     OW 4237   5.376   4.313   2.346
 1113SOL    HW1 4238   5.396   4.248   2.420
 1113SOL    HW2 4239   5.339   4.397   2.386
 1114SOL     OW 4240   3.995   3.566   5.376
 1114SOL    HW1 4241   4.033   3.654   5.347
 1114SOL    HW2 4242   4.048   3.492   5.335
 1115SOL     OW 4243   2.913   4.416   5.851
 1115SOL    HW1 4244   2.824   4.404   5.808
 1115SOL    HW2 4245   2.917   4.506   5.894
 1116SOL     OW 4246   4.526   7.021   6.423
 1116SOL    HW1 4247   4.501   0.073   6.484
 1116SOL    HW2 4248   4.613   6.982   6.452
 1117SOL     OW 4249   1.480   3.266   2.006
 1117SOL    HW1 4250   1.555   3.325   1.974
 1117SOL    HW2 4251   1.507   3.170   1.996
 1118SOL     OW 4252   3.218   4.893   6.895
 1118SOL    HW1 4253   3.225   4.804   6.939
 1118SOL    HW2 4254   3.143   4.893   6.829
 1119SOL     OW 4255   3.791   4.905   4.026
 1119SOL    HW1 4256   3.699   4.887   4.059
 1119SOL    HW2 4257   3.817   4.999   4.050
 1120SOL     OW 4258   6.864   5.182   1.265
 1120SOL    HW1 4259   6.913   5.136   1.339
 1120SOL    HW2 4260   6.898   5.148   1.177
 1121SOL     OW 4261   6.576   5.240   4.798
 1121SOL    HW1 4262   6.508   5.313   4.788
 1121SOL    HW2 4263   6.558   5.169   4.731
 1122SOL     OW 4264   5.329   2.793   1.932
 1122SOL    HW1 4265   5.289   2.871   1.980
 1122SOL    HW2 4266   5.334   2.813   1.834
 1123SOL     OW 4267   4.432   1.739   3.518
 1123SOL    HW1 4268   4.486   1.659   3.545
 1123SOL    HW2 4269   4.487   1.822   3.529
 1124SOL     OW 4270   2.273   2.908   4.830
 1124SOL    HW1 4271   2.341   2.934   4.898
 1124SOL    HW2 4272   2.214   2.837   4.868
 1125SOL     OW 4273   0.972   3.915   3.469
 1125SOL    HW1 4274   0.899   3.890   3.533
 1125SOL    HW2 4275   1.024   3.833   3.444
 1126SOL     OW 4276   3.541   5.119   5.159
 1126SOL    HW1 4277   3.447   5.134   5.188
 1126SOL    HW2 4278   3.568   5.189   5.093
 1127SOL     OW 4279   5.862   6.643   3.026
 1127SOL    HW1 4280   5.797   6.676   3.094
 1127SOL    HW2 4281   5.812   6.605   2.948
 1128SOL     OW 4282   5.997   1.448   3.111
 1128SOL    HW1 4283   5.919   1.422   3.168
 1128SOL    HW2 4284   5.965   1.502   3.033
 1129SOL     OW 4285   1.735   0.363   0.898
 1129SOL    HW1 4286   1.721   0.271   0.933
 1129SOL    HW2 4287   1.770   0.422   0.971
 1130SOL     OW 4288   1.996   4.487   2.448
 1130SOL    HW1 4289   2.062   4.449   2.384
 1130SOL    HW2 4290   2.036   4.568   2.492
 1131SOL     OW 4291   1.416   5.849   3.679
 1131SOL    HW1 4292   1.426   5.874   3.776
 1131SOL    HW2 4293   1.496   5.796   3.650
 1132SOL     OW 4294   3.588   1.306   2.552
 1132SOL    HW1 4295   3.528   1.342   2.625
 1132SOL    HW2 4296   3.600   1.376   2.482
 1133SOL     OW 4297   1.604   6.853   4.986
 1133SOL    HW1 4298   1.507   6.858   5.010
 1133SOL    HW2 4299   1.615   6.869   4.888
 1134SOL     OW 4300   4.056   7.013   1.492
 1134SOL    HW1 4301   4.046   0.086   1.514
 1134SOL    HW2 4302   4.014   6.958   1.564
 1135SOL     OW 4303   2.023   5.716   3.848
 1135SOL    HW1 4304   1.977   5.645   3.797
 1135SOL    HW2 4305   2.118   5.689   3.865
 1136SOL     OW 4306   2.578   6.167   1.955
 1136SOL    HW1 4307   2.527   6.236   1.904
 1136SOL    HW2 4308   2.548   6.168   2.051
 1137SOL     OW 4309   0.397   5.552   5.576
 1137SOL    HW1 4310   0.327   5.549   5.505
 1137SOL    HW2 4311   0.370   5.616   5.647
 1138SOL     OW 4312   2.367   2.809   4.581
 1138SOL    HW1 4313   2.316   2.882   4.536
 1138SOL    HW2 4314   2.364   2.824   4.680
 1139SOL     OW 4315   2.786   5.391   4.334
 1139SOL    HW1 4316   2.821   5.452   4.405
 1139SOL    HW2 4317   2.689   5.409   4.319
 1140SOL     OW 4318   1.244   1.548   1.688
 1140SOL    HW1 4319   1.246   1.504   1.598
 1140SOL    HW2 4320   1.182   1.626   1.686
 1141SOL     OW 4321   6.162   4.507   6.489
 1141SOL    HW1 4322   6.090   4.576   6.491
 1141SOL    HW2 4323   6.202   4.503   6.397
 1142SOL     OW 4324   2.706   0.057   2.571
 1142SOL    HW1 4325   2.711   6.994   2.618
 1142SOL    HW2 4326   2.610   0.079   2.552
 1143SOL     OW 4327   1.107   3.907   2.048
 1143SOL    HW1 4328   1.159   3.969   1.990
 1143SOL    HW2 4329   1.094   3.819   2.001
 1144SOL     OW 4330   5.298   4.392   1.983
 1144SOL    HW1 4331   5.362   4.330   1.937
 1144SOL    HW2 4332   5.298   4.480   1.934
 1145SOL     OW 4333   0.044   1.547   0.935
 1145SOL    HW1 4334   0.002   1.470   0.886
 1145SOL    HW2 4335   0.047   1.525   1.033
 1146SOL     OW 4336   1.018   1.220   1.417
 1146SOL    HW1 4337   0.922   1.198   1.400
 1146SOL    HW2 4338   1.075   1.144   1.386
 1147SOL     OW 4339   3.144   6.530   1.049
 1147SOL    HW1 4340   3.072   6.580   1.096
 1147SOL    HW2 4341   3.113   6.504   0.958
 1148SOL     OW 4342   4.539   5.334   3.153
 1148SOL    HW1 4343   4.509   5.240   3.172
 1148SOL    HW2 4344   4.484   5.397   3.208
 1149SOL     OW 4345   4.782   2.767   1.657
 1149SOL    HW1 4346   4.800   2.809   1.568
 1149SOL    HW2 4347   4.820   2.824   1.729
 1150SOL     OW 4348   2.171   4.327   6.885
 1150SOL    HW1 4349   2.137   4.239   6.853
 1150SOL    HW2 4350   2.099   4.396   6.874
 1151SOL     OW 4351   6.302   5.636   4.149
 1151SOL    HW1 4352   6.394   5.616   4.184
 1151SOL    HW2 4353   6.296   5.606   4.054
 1152SOL     OW 4354   4.193   0.037   6.292
 1152SOL    HW1 4355   4.226   7.015   6.210
 1152SOL    HW2 4356   4.095   0.023   6.302
 1153SOL     OW 4357   6.103   0.594   1.036
 1153SOL    HW1 4358   6.005   0.584   1.024
 1153SOL    HW2 4359   6.125   0.593   1.134
 1154SOL     OW 4360   2.216   2.393   1.710
 1154SOL    HW1 4361   2.274   2.450   1.770
 1154SOL    HW2 4362   2.163   2.330   1.766
 1155SOL     OW 4363   3.031   6.016   4.923
 1155SOL    HW1 4364   3.034   6.088   4.993
 1155SOL    HW2 4365   2.966   6.042   4.852
 1156SOL     OW 4366   3.175   2.147   4.103
 1156SOL    HW1 4367   3.266   2.152   4.063
 1156SOL    HW2 4368   3.182   2.159   4.202
 1157SOL     OW 4369   3.571   1.136   5.809
 1157SOL    HW1 4370   3.495   1.073   5.790
 1157SOL    HW2 4371   3.561   1.219   5.754
 1158SOL     OW 4372   5.871   6.118   3.068
 1158SOL    HW1 4373   5.897   6.101   3.163
 1158SOL    HW2 4374   5.782   6.076   3.049
 1159SOL     OW 4375   6.526   6.334   2.169
 1159SOL    HW1 4376   6.434   6.349   2.203
 1159SOL    HW2 4377   6.554   6.239   2.185
 1160SOL     OW 4378   4.982   1.111   0.806
 1160SOL    HW1 4379   4.973   1.018   0.772
 1160SOL    HW2 4380   5.060   1.156   0.761
 1161SOL     OW 4381   0.338   5.587   6.745
 1161SOL    HW1 4382   0.398   5.635   6.810
 1161SOL    HW2 4383   0.269   5.535   6.795
 1162SOL     OW 4384   2.550   2.149   4.949
 1162SOL    HW1 4385   2.467   2.170   4.898
 1162SOL    HW2 4386   2.541   2.181   5.043
 1163SOL     OW 4387   6.383   3.813   1.679
 1163SOL    HW1 4388   6.479   3.786   1.671
 1163SOL    HW2 4389   6.340   3.764   1.755
 1164SOL     OW 4390   4.706   2.111   4.523
 1164SOL    HW1 4391   4.646   2.137   4.599
 1164SOL    HW2 4392   4.728   2.014   4.529
 1165SOL     OW 4393   4.118   6.362   2.988
 1165SOL    HW1 4394   4.064   6.278   2.999
 1165SOL    HW2 4395   4.073   6.420   2.920
 1166SOL     OW 4396   2.012   5.914   6.715
 1166SOL    HW1 4397   2.064   5.839   6.675
 1166SOL    HW2 4398   1.984   5.888   6.808
 1167SOL     OW 4399   5.534   4.657   2.449
 1167SOL    HW1 4400   5.576   4.576   2.409
 1167SOL    HW2 4401   5.441   4.636   2.480
 1168SOL     OW 4402   6.130   2.004   3.030
 1168SOL    HW1 4403   6.205   1.939   3.021
 1168SOL    HW2 4404   6.133   2.069   2.954
 1169SOL     OW 4405   5.606   0.550   5.325
 1169SOL    HW1 4406   5.554   0.636   5.323
 1169SOL    HW2 4407   5.565   0.488   5.392
 1170SOL     OW 4408   4.774   6.765   3.696
 1170SOL    HW1 4409   4.849   6.794   3.755
 1170SOL    HW2 4410   4.722   6.692   3.741
 1171SOL     OW 4411   1.001   0.132   1.181
 1171SOL    HW1 4412   1.069   0.078   1.231
 1171SOL    HW2 4413   1.031   0.228   1.177
 1172SOL     OW 4414   0.074   3.752   6.375
 1172SOL    HW1 4415   0.136   3.696   6.430
 1172SOL    HW2 4416   0.014   3.693   6.321
 1173SOL     OW 4417   2.878   1.530   0.793
 1173SOL    HW1 4418   2.883   1.626   0.767
 1173SOL    HW2 4419   2.923   1.474   0.724
 1174SOL     OW 4420   3.891   3.237   0.977
 1174SOL    HW1 4421   3.891   3.236   1.077
 1174SOL    HW2 4422   3.799   3.260   0.945
 1175SOL     OW 4423   3.569   3.183   4.727
 1175SOL    HW1 4424   3.469   3.182   4.729
 1175SOL    HW2 4425   3.603   3.089   4.738
 1176SOL     OW 4426   5.172   4.051   6.267
 1176SOL    HW1 4427   5.098   4.111   6.296
 1176SOL    HW2 4428   5.225   4.094   6.194
 1177SOL     OW 4429   6.429   2.428   4.839
 1177SOL    HW1 4430   6.529   2.439   4.836
 1177SOL    HW2 4431   6.389   2.468   4.757
 1178SOL     OW 4432   3.286   4.771   0.343
 1178SOL    HW1 4433   3.252   4.690   0.294
 1178SOL    HW2 4434   3.350   4.820   0.284
 1179SOL     OW 4435   2.283   5.250   0.700
 1179SOL    HW1 4436   2.212   5.265   0.769
 1179SOL    HW2 4437   2.358   5.197   0.740
 1180SOL     OW 4438   3.181   5.818   0.591
 1180SOL    HW1 4439   3.102   5.770   0.554
 1180SOL    HW2 4440   3.243   5.752   0.633
 1181SOL     OW 4441   0.629   5.628   0.181
 1181SOL    HW1 4442   0.724   5.659   0.178
 1181SOL    HW2 4443   0.592   5.642   0.273
 1182SOL     OW 4444   4.220   5.329   3.011
 1182SOL    HW1 4445   4.161   5.254   2.983
 1182SOL    HW2 4446   4.305   5.293   3.048
 1183SOL     OW 4447   2.136   3.807   6.194
 1183SOL    HW1 4448   2.180   3.800   6.104
 1183SOL    HW2 4449   2.048   3.852   6.185
 1184SOL     OW 4450   2.012   6.983   5.127
 1184SOL    HW1 4451   2.093   0.017   5.133
 1184SOL    HW2 4452   2.016   6.914   5.199
 1185SOL     OW 4453   7.010   1.146   6.813
 1185SOL    HW1 4454   0.008   1.050   6.798
 1185SOL    HW2 4455   6.986   1.161   6.909
 1186SOL     OW 4456   4.904   6.430   4.723
 1186SOL    HW1 4457   4.990   6.481   4.714
 1186SOL    HW2 4458   4.923   6.335   4.746
 1187SOL     OW 4459   6.486   0.301   5.764
 1187SOL    HW1 4460   6.395   0.303   5.723
 1187SOL    HW2 4461   6.543   0.234   5.717
 1188SOL     OW 4462   2.628   6.271   5.177
 1188SOL    HW1 4463   2.547   6.312   5.135
 1188SOL    HW2 4464   2.709   6.292   5.121
 1189SOL     OW 4465   6.160   3.403   3.465
 1189SOL    HW1 4466   6.189   3.480   3.409
 1189SOL    HW2 4467   6.222   3.394   3.544
 1190SOL     OW 4468   1.954   6.282   2.512
 1190SOL    HW1 4469   2.033   6.224   2.491
 1190SOL    HW2 4470   1.925   6.329   2.428
 1191SOL     OW 4471   4.789   5.042   2.688
 1191SOL    HW1 4472   4.772   5.038   2.786
 1191SOL    HW2 4473   4.736   5.116   2.647
 1192SOL     OW 4474   4.332   5.891   3.228
 1192SOL    HW1 4475   4.303   5.825   3.160
 1192SOL    HW2 4476   4.293   5.981   3.207
 1193SOL     OW 4477   6.176   4.997   3.672
 1193SOL    HW1 4478   6.214   4.960   3.757
 1193SOL    HW2 4479   6.092   5.048   3.692
 1194SOL     OW 4480   4.423   0.784   1.272
 1194SOL    HW1 4481   4.508   0.739   1.245
 1194SOL    HW2 4482   4.346   0.726   1.245
 1195SOL     OW 4483   6.186   3.050   2.231
 1195SOL    HW1 4484   6.211   3.092   2.143
 1195SOL    HW2 4485   6.094   3.078   2.256
 1196SOL     OW 4486   6.345   6.652   3.976
 1196SOL    HW1 4487   6.361   6.701   4.061
 1196SOL    HW2 4488   6.261   6.685   3.933
 1197SOL     OW 4489   3.607   7.020   0.588
 1197SOL    HW1 4490   3.647   0.076   0.543
 1197SOL    HW2 4491   3.677   6.949   0.597
 1198SOL     OW 4492   1.270   2.202   0.530
 1198SOL    HW1 4493   1.327   2.174   0.453
 1198SOL    HW2 4494   1.281   2.137   0.605
 1199SOL     OW 4495   4.921   5.090   1.963
 1199SOL    HW1 4496   4.962   5.035   1.890
 1199SOL    HW2 4497   4.987   5.159   1.994
 1200SOL     OW 4498   3.001   3.701   2.150
 1200SOL    HW1 4499   2.985   3.699   2.249
 1200SOL    HW2 4500   3.033   3.792   2.123
 1201SOL     OW 4501   1.527   2.197   4.626
 1201SOL    HW1 4502   1.457   2.139   4.585
 1201SOL    HW2 4503   1.599   2.140   4.665
 1202SOL     OW 4504   6.958   5.608   6.475
 1202SOL    HW1 4505   6.882   5.666   6.503
 1202SOL    HW2 4506   0.020   5.656   6.493
 1203SOL     OW 4507   4.881   5.889   5.588
 1203SOL    HW1 4508   4.791   5.856   5.618
 1203SOL    HW2 4509   4.871   5.937   5.501
 1204SOL     OW 4510   1.851   0.876   2.223
 1204SOL    HW1 4511   1.858   0.782   2.190
 1204SOL    HW2 4512   1.930   0.896   2.281
 1205SOL     OW 4513   5.012   4.021   1.577
 1205SOL    HW1 4514   5.050   4.084   1.645
 1205SOL    HW2 4515   4.921   4.051   1.551
 1206SOL     OW 4516   3.278   3.230   4.718
 1206SOL    HW1 4517   3.291   3.329   4.716
 1206SOL    HW2 4518   3.200   3.209   4.778
 1207SOL     OW 4519   2.186   6.085   1.909
 1207SOL    HW1 4520   2.282   6.101   1.930
 1207SOL    HW2 4521   2.145   6.170   1.874
 1208SOL     OW 4522   3.575   3.335   6.970
 1208SOL    HW1 4523   3.513   3.405   6.936
 1208SOL    HW2 4524   3.651   3.379   7.019
 1209SOL     OW 4525   3.643   0.040   5.496
 1209SOL    HW1 4526   3.695   6.980   5.506
 1209SOL    HW2 4527   3.696   0.106   5.443
 1210SOL     OW 4528   3.271   0.910   3.292
 1210SOL    HW1 4529   3.252   0.817   3.261
 1210SOL    HW2 4530   3.274   0.912   3.392
 1211SOL     OW 4531   0.628   4.091   0.951
 1211SOL    HW1 4532   0.728   4.095   0.951
 1211SOL    HW2 4533   0.593   4.159   0.887
 1212SOL     OW 4534   0.637   6.884   6.762
 1212SOL    HW1 4535   0.563   6.939   6.802
 1212SOL    HW2 4536   0.723   6.907   6.807
 1213SOL     OW 4537   5.787   2.720   0.622
 1213SOL    HW1 4538   5.779   2.642   0.561
 1213SOL    HW2 4539   5.705   2.777   0.616
 1214SOL     OW 4540   6.724   2.094   0.951
 1214SOL    HW1 4541   6.713   2.001   0.984
 1214SOL    HW2 4542   6.687   2.101   0.858
 1215SOL     OW 4543   0.867   4.871   4.446
 1215SOL    HW1 4544   0.912   4.931   4.513
 1215SOL    HW2 4545   0.774   4.851   4.478
 1216SOL     OW 4546   4.563   0.444   6.515
 1216SOL    HW1 4547   4.569   0.355   6.561
 1216SOL    HW2 4548   4.468   0.476   6.517
 1217SOL     OW 4549   2.453   4.480   0.666
 1217SOL    HW1 4550   2.476   4.401   0.722
 1217SOL    HW2 4551   2.453   4.455   0.569
 1218SOL     OW 4552   1.655   4.035   3.775
 1218SOL    HW1 4553   1.626   4.019   3.681
 1218SOL    HW2 4554   1.604   4.112   3.814
 1219SOL     OW 4555   3.941   6.096   2.290
 1219SOL    HW1 4556   4.029   6.060   2.321
 1219SOL    HW2 4557   3.937   6.194   2.309
 1220SOL     OW 4558   1.189   4.659   2.665
 1220SOL    HW1 4559   1.173   4.562   2.685
 1220SOL    HW2 4560   1.126   4.715   2.719
 1221SOL     OW 4561   5.857   3.477   5.950
 1221SOL    HW1 4562   5.843   3.476   5.851
 1221SOL    HW2 4563   5.768   3.478   5.996
 1222SOL     OW 4564   6.869   6.458   6.781
 1222SOL    HW1 4565   6.890   6.409   6.866
 1222SOL    HW2 4566   6.952   6.502   6.747
 1223SOL     OW 4567   3.110   6.239   0.162
 1223SOL    HW1 4568   3.130   6.334   0.140
 1223SOL    HW2 4569   3.012   6.229   0.179
 1224SOL     OW 4570   2.370   0.103   1.336
 1224SOL    HW1 4571   2.271   0.105   1.342
 1224SOL    HW2 4572   2.400   0.160   1.259
 1225SOL     OW 4573   3.455   4.117   6.470
 1225SOL    HW1 4574   3.500   4.082   6.388
 1225SOL    HW2 4575   3.359   4.089   6.469
 1226SOL     OW 4576   1.839   5.022   1.486
 1226SOL    HW1 4577   1.827   4.924   1.472
 1226SOL    HW2 4578   1.792   5.049   1.571
 1227SOL     OW 4579   6.994   3.991   6.493
 1227SOL    HW1 4580   0.014   3.915   6.447
 1227SOL    HW2 4581   6.929   3.956   6.560
 1228SOL     OW 4582   4.286   1.975   6.081
 1228SOL    HW1 4583   4.250   2.051   6.136
 1228SOL    HW2 4584   4.251   1.983   5.987
 1229SOL     OW 4585   3.588   4.564   6.629
 1229SOL    HW1 4586   3.585   4.660   6.601
 1229SOL    HW2 4587   3.683   4.532   6.626
 1230SOL     OW 4588   4.260   6.811   3.382
 1230SOL    HW1 4589   4.197   6.802   3.304
 1230SOL    HW2 4590   4.313   6.895   3.373
 1231SOL     OW 4591   1.950   3.068   5.042
 1231SOL    HW1 4592   1.925   3.122   4.962
 1231SOL    HW2 4593   1.901   3.103   5.122
 1232SOL     OW 4594   1.406   2.716   5.219
 1232SOL    HW1 4595   1.485   2.753   5.268
 1232SOL    HW2 4596   1.360   2.648   5.276
 1233SOL     OW 4597   0.941   3.490   5.465
 1233SOL    HW1 4598   0.876   3.448   5.528
 1233SOL    HW2 4599   0.977   3.421   5.402
 1234SOL     OW 4600   5.620   4.212   4.563
 1234SOL    HW1 4601   5.698   4.257   4.518
 1234SOL    HW2 4602   5.543   4.208   4.499
 1235SOL     OW 4603   6.255   5.395   3.358
 1235SOL    HW1 4604   6.160   5.418   3.342
 1235SOL    HW2 4605   6.312   5.476   3.348
 1236SOL     OW 4606   5.718   0.707   6.864
 1236SOL    HW1 4607   5.643   0.689   6.801
 1236SOL    HW2 4608   5.776   0.625   6.871
 1237SOL     OW 4609   3.074   4.873   6.653
 1237SOL    HW1 4610   3.037   4.781   6.663
 1237SOL    HW2 4611   3.022   4.922   6.582
 1238SOL     OW 4612   2.050   1.520   0.949
 1238SOL    HW1 4613   1.996   1.449   0.904
 1238SOL    HW2 4614   2.096   1.481   1.029
 1239SOL     OW 4615   6.856   6.032   6.622
 1239SOL    HW1 4616   6.840   6.045   6.720
 1239SOL    HW2 4617   6.838   5.937   6.598
 1240SOL     OW 4618   4.951   6.112   1.850
 1240SOL    HW1 4619   4.879   6.046   1.830
 1240SOL    HW2 4620   5.040   6.075   1.822
 1241SOL     OW 4621   6.626   3.741   4.417
 1241SOL    HW1 4622   6.617   3.771   4.322
 1241SOL    HW2 4623   6.656   3.818   4.473
 1242SOL     OW 4624   2.327   3.806   0.509
 1242SOL    HW1 4625   2.418   3.810   0.469
 1242SOL    HW2 4626   2.259   3.836   0.441
 1243SOL     OW 4627   1.980   5.141   5.133
 1243SOL    HW1 4628   1.951   5.211   5.198
 1243SOL    HW2 4629   2.072   5.109   5.157
 1244SOL     OW 4630   0.566   1.017   3.765
 1244SOL    HW1 4631   0.519   0.990   3.680
 1244SOL    HW2 4632   0.665   1.015   3.750
 1245SOL     OW 4633   3.556   3.694   0.217
 1245SOL    HW1 4634   3.512   3.623   0.272
 1245SOL    HW2 4635   3.577   3.773   0.275
 1246SOL     OW 4636   1.944   6.125   2.170
 1246SOL    HW1 4637   1.890   6.183   2.231
 1246SOL    HW2 4638   2.036   6.163   2.161
 1247SOL     OW 4639   1.962   6.383   5.943
 1247SOL    HW1 4640   2.032   6.352   5.879
 1247SOL    HW2 4641   1.928   6.305   5.996
 1248SOL     OW 4642   2.145   5.387   3.888
 1248SOL    HW1 4643   2.128   5.427   3.978
 1248SOL    HW2 4644   2.186   5.297   3.899
 1249SOL     OW 4645   5.731   2.781   3.403
 1249SOL    HW1 4646   5.668   2.855   3.428
 1249SOL    HW2 4647   5.786   2.756   3.482
 1250SOL     OW 4648   1.172   4.046   4.129
 1250SOL    HW1 4649   1.197   4.132   4.085
 1250SOL    HW2 4650   1.254   4.002   4.164
 1251SOL     OW 4651   4.081   0.297   4.750
 1251SOL    HW1 4652   4.086   0.292   4.650
 1251SOL    HW2 4653   4.082   0.393   4.778
 1252SOL     OW 4654   3.476   4.304   5.527
 1252SOL    HW1 4655   3.436   4.360   5.601
 1252SOL    HW2 4656   3.431   4.214   5.526
 1253SOL     OW 4657   4.031   5.131   2.965
 1253SOL    HW1 4658   3.962   5.103   3.032
 1253SOL    HW2 4659   4.033   5.066   2.890
 1254SOL     OW 4660   6.630   2.039   2.827
 1254SOL    HW1 4661   6.675   2.127   2.843
 1254SOL    HW2 4662   6.538   2.054   2.793
 1255SOL     OW 4663   6.979   6.876   6.600
 1255SOL    HW1 4664   6.949   6.946   6.665
 1255SOL    HW2 4665   6.907   6.806   6.592
 1256SOL     OW 4666   5.095   0.360   3.237
 1256SOL    HW1 4667   5.007   0.375   3.282
 1256SOL    HW2 4668   5.091   0.276   3.182
 1257SOL     OW 4669   6.639   1.082   3.705
 1257SOL    HW1 4670   6.622   1.172   3.745
 1257SOL    HW2 4671   6.571   1.063   3.634
 1258SOL     OW 4672   0.109   0.041   3.521
 1258SOL    HW1 4673   0.053   0.079   3.448
 1258SOL    HW2 4674   0.203   0.076   3.514
 1259SOL     OW 4675   3.880   2.118   4.834
 1259SOL    HW1 4676   3.884   2.148   4.739
 1259SOL    HW2 4677   3.788   2.134   4.870
 1260SOL     OW 4678   0.930   0.720   0.132
 1260SOL    HW1 4679   0.933   0.809   0.177
 1260SOL    HW2 4680   0.937   0.733   0.033
 1261SOL     OW 4681   6.603   5.231   0.456
 1261SOL    HW1 4682   6.663   5.169   0.404
 1261SOL    HW2 4683   6.604   5.205   0.552
 1262SOL     OW 4684   5.474   5.639   0.895
 1262SOL    HW1 4685   5.391   5.586   0.877
 1262SOL    HW2 4686   5.520   5.603   0.975
 1263SOL     OW 4687   1.315   2.277   3.705
 1263SOL    HW1 4688   1.231   2.223   3.709
 1263SOL    HW2 4689   1.336   2.312   3.797
 1264SOL     OW 4690   1.024   2.608   5.159
 1264SOL    HW1 4691   1.093   2.668   5.119
 1264SOL    HW2 4692   0.956   2.585   5.089
 1265SOL     OW 4693   5.970   6.796   4.714
 1265SOL    HW1 4694   5.962   6.727   4.785
 1265SOL    HW2 4695   5.963   6.753   4.624
 1266SOL     OW 4696   2.261   0.601   4.762
 1266SOL    HW1 4697   2.294   0.549   4.684
 1266SOL    HW2 4698   2.242   0.538   4.838
 1267SOL     OW 4699   4.431   0.209   2.470
 1267SOL    HW1 4700   4.518   0.259   2.466
 1267SOL    HW2 4701   4.362   0.265   2.516
 1268SOL     OW 4702   4.230   2.750   5.400
 1268SOL    HW1 4703   4.270   2.829   5.353
 1268SOL    HW2 4704   4.204   2.681   5.333
 1269SOL     OW 4705   6.076   2.677   4.620
 1269SOL    HW1 4706   6.171   2.646   4.617
 1269SOL    HW2 4707   6.016   2.599   4.602
 1270SOL     OW 4708   0.029   5.252   3.596
 1270SOL    HW1 4709   6.964   5.274   3.636
 1270SOL    HW2 4710   0.016   5.220   3.502
 1271SOL     OW 4711   1.514   1.426   1.400
 1271SOL    HW1 4712   1.543   1.459   1.310
 1271SOL    HW2 4713   1.415   1.438   1.409
 1272SOL     OW 4714   6.885   4.361   0.060
 1272SOL    HW1 4715   6.833   4.288   0.105
 1272SOL    HW2 4716   6.896   4.339   6.987
 1273SOL     OW 4717   1.175   4.721   5.078
 1273SOL    HW1 4718   1.165   4.647   5.011
 1273SOL    HW2 4719   1.229   4.795   5.039
 1274SOL     OW 4720   0.806   5.270   2.724
 1274SOL    HW1 4721   0.714   5.257   2.762
 1274SOL    HW2 4722   0.816   5.364   2.693
 1275SOL     OW 4723   2.965   1.073   2.601
 1275SOL    HW1 4724   2.887   1.048   2.544
 1275SOL    HW2 4725   2.933   1.110   2.688
 1276SOL     OW 4726   5.226   4.716   3.755
 1276SOL    HW1 4727   5.235   4.635   3.698
 1276SOL    HW2 4728   5.284   4.789   3.720
 1277SOL     OW 4729   0.431   6.263   0.565
 1277SOL    HW1 4730   0.528   6.245   0.552
 1277SOL    HW2 4731   0.414   6.291   0.659
 1278SOL     OW 4732   1.135   5.691   2.737
 1278SOL    HW1 4733   1.097   5.703   2.829
 1278SOL    HW2 4734   1.153   5.780   2.696
 1279SOL     OW 4735   1.972   2.426   0.309
 1279SOL    HW1 4736   1.901   2.358   0.285
 1279SOL    HW2 4737   2.043   2.381   0.363
 1280SOL     OW 4738   2.429   1.843   3.312
 1280SOL    HW1 4739   2.484   1.926   3.318
 1280SOL    HW2 4740   2.425   1.798   3.401
 1281SOL     OW 4741   4.462   5.890   4.148
 1281SOL    HW1 4742   4.397   5.869   4.075
 1281SOL    HW2 4743   4.497   5.983   4.136
 1282SOL     OW 4744   0.140   2.312   1.300
 1282SOL    HW1 4745   0.170   2.312   1.395
 1282SOL    HW2 4746   0.218   2.295   1.240
 1283SOL     OW 4747   6.632   3.518   5.050
 1283SOL    HW1 4748   6.587   3.521   5.139
 1283SOL    HW2 4749   6.682   3.604   5.035
 1284SOL     OW 4750   3.842   1.973   1.776
 1284SOL    HW1 4751   3.769   2.022   1.728
 1284SOL    HW2 4752   3.863   2.021   1.862
 1285SOL     OW 4753   3.863   1.094   5.487
 1285SOL    HW1 4754   3.781   1.083   5.431
 1285SOL    HW2 4755   3.867   1.188   5.521
 1286SOL     OW 4756   4.435   2.076   2.068
 1286SOL    HW1 4757   4.397   2.158   2.111
 1286SOL    HW2 4758   4.486   2.102   1.986
 1287SOL     OW 4759   6.680   4.680   4.634
 1287SOL    HW1 4760   6.648   4.755   4.577
 1287SOL    HW2 4761   6.682   4.595   4.580
 1288SOL     OW 4762   4.691   4.226   6.591
 1288SOL    HW1 4763   4.636   4.283   6.529
 1288SOL    HW2 4764   4.664   4.131   6.580
 1289SOL     OW 4765   0.184   0.440   1.850
 1289SOL    HW1 4766   0.086   0.418   1.856
 1289SOL    HW2 4767   0.218   0.414   1.760
 1290SOL     OW 4768   1.576   6.816   6.435
 1290SOL    HW1 4769   1.587   6.897   6.492
 1290SOL    HW2 4770   1.479   6.791   6.431
 1291SOL     OW 4771   6.893   5.348   3.118
 1291SOL    HW1 4772   6.902   5.413   3.042
 1291SOL    HW2 4773   6.868   5.398   3.201
 1292SOL     OW 4774   0.894   6.346   2.241
 1292SOL    HW1 4775   0.989   6.317   2.229
 1292SOL    HW2 4776   0.885   6.398   2.326
 1293SOL     OW 4777   3.126   1.112   7.015
 1293SOL    HW1 4778   3.063   1.060   0.049
 1293SOL    HW2 4779   3.158   1.053   6.941
 1294SOL     OW 4780   2.417   3.545   5.316
 1294SOL    HW1 4781   2.485   3.617   5.300
 1294SOL    HW2 4782   2.464   3.457   5.321
 1295SOL     OW 4783   6.278   4.633   0.713
 1295SOL    HW1 4784   6.355   4.588   0.758
 1295SOL    HW2 4785   6.216   4.671   0.782
 1296SOL     OW 4786   5.176   6.915   5.658
 1296SOL    HW1 4787   5.100   6.858   5.628
 1296SOL    HW2 4788   5.262   6.864   5.650
 1297SOL     OW 4789   0.282   0.132   2.125
 1297SOL    HW1 4790   0.284   0.186   2.041
 1297SOL    HW2 4791   0.320   0.184   2.200
 1298SOL     OW 4792   5.013   6.025   2.480
 1298SOL    HW1 4793   4.953   6.102   2.458
 1298SOL    HW2 4794   5.016   5.962   2.402
 1299SOL     OW 4795   1.497   3.400   4.912
 1299SOL    HW1 4796   1.509   3.346   4.995
 1299SOL    HW2 4797   1.437   3.478   4.932
 1300SOL     OW 4798   1.101   4.422   2.016
 1300SOL    HW1 4799   1.177   4.484   2.033
 1300SOL    HW2 4800   1.047   4.410   2.099
 1301SOL     OW 4801   0.436   0.517   1.396
 1301SOL    HW1 4802   0.495   0.512   1.315
 1301SOL    HW2 4803   0.492   0.532   1.477
 1302SOL     OW 4804   5.582   6.516   5.325
 1302SOL    HW1 4805   5.486   6.491   5.313
 1302SOL    HW2 4806   5.600   6.603   5.279
 1303SOL     OW 4807   4.221   6.347   1.420
 1303SOL    HW1 4808   4.297   6.300   1.376
 1303SOL    HW2 4809   4.240   6.356   1.518
 1304SOL     OW 4810   0.766   1.327   0.557
 1304SOL    HW1 4811   0.711   1.281   0.626
 1304SOL    HW2 4812   0.838   1.381   0.601
 1305SOL     OW 4813   5.427   3.988   6.318
 1305SOL    HW1 4814   5.447   4.078   6.356
 1305SOL    HW2 4815   5.333   3.985   6.285
 1306SOL     OW 4816   2.379   5.501   4.122
 1306SOL    HW1 4817   2.406   5.584   4.072
 1306SOL    HW2 4818   2.411   5.420   4.072
 1307SOL     OW 4819   2.840   2.201   3.668
 1307SOL    HW1 4820   2.802   2.284   3.710
 1307SOL    HW2 4821   2.907   2.159   3.730
 1308SOL     OW 4822   6.884   5.396   6.030
 1308SOL    HW1 4823   6.934   5.375   5.946
 1308SOL    HW2 4824   6.924   5.345   6.106
 1309SOL     OW 4825   5.258   4.240   6.596
 1309SOL    HW1 4826   5.177   4.296   6.615
 1309SOL    HW2 4827   5.282   4.186   6.676
 1310SOL     OW 4828   1.300   4.336   3.515
 1310SOL    HW1 4829   1.295   4.372   3.608
 1310SOL    HW2 4830   1.376   4.380   3.467
 1311SOL     OW 4831   0.022   6.136   0.466
 1311SOL    HW1 4832   0.050   6.054   0.517
 1311SOL    HW2 4833   7.020   6.208   0.531
 1312SOL     OW 4834   2.472   0.350   6.315
 1312SOL    HW1 4835   2.478   0.405   6.398
 1312SOL    HW2 4836   2.378   0.320   6.301
 1313SOL     OW 4837   6.474   5.760   2.737
 1313SOL    HW1 4838   6.376   5.774   2.728
 1313SOL    HW2 4839   6.499   5.674   2.692
 1314SOL     OW 4840   2.806   1.586   5.121
 1314SOL    HW1 4841   2.820   1.654   5.048
 1314SOL    HW2 4842   2.735   1.522   5.094
 1315SOL     OW 4843   6.285   1.343   3.716
 1315SOL    HW1 4844   6.343   1.317   3.794
 1315SOL    HW2 4845   6.193   1.304   3.729
 1316SOL     OW 4846   4.130   0.544   4.805
 1316SOL    HW1 4847   4.223   0.520   4.778
 1316SOL    HW2 4848   4.132   0.611   4.880
 1317SOL     OW 4849   2.779   3.483   5.800
 1317SOL    HW1 4850   2.802   3.508   5.894
 1317SOL    HW2 4851   2.820   3.550   5.737
 1318SOL     OW 4852   1.773   2.806   6.582
 1318SOL    HW1 4853   1.810   2.899   6.582
 1318SOL    HW2 4854   1.805   2.757   6.663
 1319SOL     OW 4855   0.142   6.619   0.871
 1319SOL    HW1 4856   0.103   6.689   0.931
 1319SOL    HW2 4857   0.155   6.535   0.923
 1320SOL     OW 4858   3.100   2.889   5.711
 1320SOL    HW1 4859   3.102   2.963   5.779
 1320SOL    HW2 4860   3.107   2.929   5.619
 1321SOL     OW 4861   5.653   2.537   6.900
 1321SOL    HW1 4862   5.663   2.634   6.922
 1321SOL    HW2 4863   5.640   2.528   6.801
 1322SOL     OW 4864   3.319   1.249   0.702
 1322SOL    HW1 4865   3.264   1.321   0.660
 1322SOL    HW2 4866   3.410   1.248   0.661
 1323SOL     OW 4867   4.086   0.058   0.253
 1323SOL    HW1 4868   4.114   0.090   0.343
 1323SOL    HW2 4869   3.986   0.061   0.247
 1324SOL     OW 4870   1.023   3.821   6.838
 1324SOL    HW1 4871   0.971   3.782   6.914
 1324SOL    HW2 4872   0.961   3.841   6.762
 1325SOL     OW 4873   2.753   4.965   6.234
 1325SOL    HW1 4874   2.769   5.064   6.240
 1325SOL    HW2 4875   2.681   4.948   6.166
 1326SOL     OW 4876   5.031   3.269   3.746
 1326SOL    HW1 4877   4.949   3.223   3.714
 1326SOL    HW2 4878   5.096   3.202   3.782
 1327SOL     OW 4879   6.354   5.874   1.425
 1327SOL    HW1 4880   6.276   5.937   1.426
 1327SOL    HW2 4881   6.408   5.889   1.342
 1328SOL     OW 4882   1.578   3.254   5.620
 1328SOL    HW1 4883   1.561   3.350   5.600
 1328SOL    HW2 4884   1.496   3.213   5.661
 1329SOL     OW 4885   0.817   3.021   2.971
 1329SOL    HW1 4886   0.816   3.117   3.000
 1329SOL    HW2 4887   0.745   2.971   3.018
 1330SOL     OW 4888   6.487   3.336   1.368
 1330SOL    HW1 4889   6.484   3.435   1.379
 1330SOL    HW2 4890   6.523   3.294   1.451
 1331SOL     OW 4891   4.812   1.690   3.039
 1331SOL    HW1 4892   4.845   1.656   3.127
 1331SOL    HW2 4893   4.715   1.716   3.048
 1332SOL     OW 4894   1.717   6.085   0.229
 1332SOL    HW1 4895   1.742   6.074   0.133
 1332SOL    HW2 4896   1.635   6.030   0.248
 1333SOL     OW 4897   3.528   4.137   3.296
 1333SOL    HW1 4898   3.437   4.115   3.262
 1333SOL    HW2 4899   3.586   4.055   3.290
 1334SOL     OW 4900   0.101   3.208   2.298
 1334SOL    HW1 4901   0.010   3.227   2.335
 1334SOL    HW2 4902   0.170   3.228   2.368
 1335SOL     OW 4903   1.165   3.651   2.265
 1335SOL    HW1 4904   1.255   3.607   2.269
 1335SOL    HW2 4905   1.167   3.738   2.314
 1336SOL     OW 4906   3.264   0.513   5.251
 1336SOL    HW1 4907   3.244   0.538   5.156
 1336SOL    HW2 4908   3.198   0.557   5.312
 1337SOL     OW 4909   6.809   1.432   3.646
 1337SOL    HW1 4910   6.764   1.520   3.660
 1337SOL    HW2 4911   6.743   1.368   3.605
 1338SOL     OW 4912   6.279   4.571   5.421
 1338SOL    HW1 4913   6.301   4.599   5.328
 1338SOL    HW2 4914   6.360   4.584   5.479
 1339SOL     OW 4915   0.058   0.768   6.484
 1339SOL    HW1 4916   0.019   0.681   6.453
 1339SOL    HW2 4917   0.030   0.785   6.579
 1340SOL     OW 4918   4.604   2.080   1.802
 1340SOL    HW1 4919   4.560   2.078   1.713
 1340SOL    HW2 4920   4.671   2.006   1.808
 1341SOL     OW 4921   4.627   7.016   6.788
 1341SOL    HW1 4922   4.634   6.999   6.886
 1341SOL    HW2 4923   4.705   6.974   6.741
 1342SOL     OW 4924   2.421   6.224   0.756
 1342SOL    HW1 4925   2.368   6.306   0.779
 1342SOL    HW2 4926   2.362   6.157   0.713
 1343SOL     OW 4927   5.629   5.991   3.096
 1343SOL    HW1 4928   5.574   5.913   3.125
 1343SOL    HW2 4929   5.603   6.072   3.149
 1344SOL     OW 4930   0.204   0.377   4.912
 1344SOL    HW1 4931   0.191   0.444   4.839
 1344SOL    HW2 4932   0.299   0.380   4.943
 1345SOL     OW 4933   0.265   5.962   1.373
 1345SOL    HW1 4934   0.317   6.048   1.369
 1345SOL    HW2 4935   0.174   5.980   1.409
 1346SOL     OW 4936   2.745   5.175   5.860
 1346SOL    HW1 4937   2.750   5.262   5.909
 1346SOL    HW2 4938   2.785   5.186   5.768
 1347SOL     OW 4939   1.340   0.024   6.683
 1347SOL    HW1 4940   1.338   7.009   6.775
 1347SOL    HW2 4941   1.432   0.012   6.644
 1348SOL     OW 4942   0.159   6.482   5.191
 1348SOL    HW1 4943   0.069   6.438   5.186
 1348SOL    HW2 4944   0.200   6.465   5.280
 1349SOL     OW 4945   4.882   3.390   4.052
 1349SOL    HW1 4946   4.848   3.418   4.142
 1349SOL    HW2 4947   4.901   3.471   3.996
 1350SOL     OW 4948   3.283   3.813   0.396
 1350SOL    HW1 4949   3.257   3.832   0.301
 1350SOL    HW2 4950   3.382   3.801   0.401
 1351SOL     OW 4951   6.735   2.522   5.550
 1351SOL    HW1 4952   6.672   2.502   5.475
 1351SOL    HW2 4953   6.746   2.441   5.607
 1352SOL     OW 4954   0.257   0.407   2.359
 1352SOL    HW1 4955   0.237   0.474   2.430
 1352SOL    HW2 4956   0.233   0.446   2.269
 1353SOL     OW 4957   0.568   1.094   0.889
 1353SOL    HW1 4958   0.638   1.046   0.943
 1353SOL    HW2 4959   0.586   1.192   0.892
 1354SOL     OW 4960   5.555   4.987   2.304
 1354SOL    HW1 4961   5.509   4.931   2.235
 1354SOL    HW2 4962   5.627   4.933   2.347
 1355SOL     OW 4963   6.200   3.634   5.224
 1355SOL    HW1 4964   6.156   3.637   5.314
 1355SOL    HW2 4965   6.131   3.615   5.154
 1356SOL     OW 4966   3.521   3.047   1.313
 1356SOL    HW1 4967   3.459   2.970   1.326
 1356SOL    HW2 4968   3.549   3.083   1.402
 1357SOL     OW 4969   6.821   3.623   5.496
 1357SOL    HW1 4970   6.828   3.708   5.444
 1357SOL    HW2 4971   6.858   3.638   5.588
 1358SOL     OW 4972   1.611   7.001   6.641
 1358SOL    HW1 4973   1.605   6.927   6.708
 1358SOL    HW2 4974   1.704   0.014   6.639
 1359SOL     OW 4975   6.502   4.161   1.891
 1359SOL    HW1 4976   6.559   4.243   1.895
 1359SOL    HW2 4977   6.421   4.179   1.835
 1360SOL     OW 4978   2.378   2.328   0.145
 1360SOL    HW1 4979   2.292   2.361   0.107
 1360SOL    HW2 4980   2.388   2.230   0.125
 1361SOL     OW 4981   6.473   5.066   4.628
 1361SOL    HW1 4982   6.492   4.993   4.562
 1361SOL    HW2 4983   6.472   5.154   4.580
 1362SOL     OW 4984   3.246   3.065   2.936
 1362SOL    HW1 4985   3.245   3.068   2.836
 1362SOL    HW2 4986   3.167   3.114   2.972
 1363SOL     OW 4987   0.659   6.376   5.360
 1363SOL    HW1 4988   0.705   6.288   5.370
 1363SOL    HW2 4989   0.563   6.361   5.335
 1364SOL     OW 4990   3.972   3.834   1.085
 1364SOL    HW1 4991   3.878   3.866   1.076
 1364SOL    HW2 4992   3.975   3.735   1.070
 1365SOL     OW 4993   0.169   3.607   6.891
 1365SOL    HW1 4994   0.185   3.515   6.856
 1365SOL    HW2 4995   0.078   3.613   6.931
 1366SOL     OW 4996   2.373   6.888   5.140
 1366SOL    HW1 4997   2.460   6.927   5.170
 1366SOL    HW2 4998   2.365   6.895   5.041
 1367SOL     OW 4999   1.898   1.086   2.546
 1367SOL    HW1 5000   1.859   1.069   2.637
 1367SOL    HW2 5001   1.997   1.077   2.550
 1368SOL     OW 5002   5.941   6.667   4.095
 1368SOL    HW1 5003   6.012   6.686   4.164
 1368SOL    HW2 5004   5.878   6.598   4.131
 1369SOL     OW 5005   0.772   0.421   3.062
 1369SOL    HW1 5006   0.680   0.435   3.101
 1369SOL    HW2 5007   0.766   0.356   2.987
 1370SOL     OW 5008   2.457   1.054   1.424
 1370SOL    HW1 5009   2.385   1.111   1.464
 1370SOL    HW2 5010   2.522   1.027   1.496
 1371SOL     OW 5011   4.267   1.065   6.333
 1371SOL    HW1 5012   4.226   0.981   6.298
 1371SOL    HW2 5013   4.350   1.086   6.282
 1372SOL     OW 5014   3.478   2.030   2.069
 1372SOL    HW1 5015   3.544   2.094   2.032
 1372SOL    HW2 5016   3.408   2.010   2.001
 1373SOL     OW 5017   1.107   5.834   1.242
 1373SOL    HW1 5018   1.140   5.799   1.330
 1373SOL    HW2 5019   1.075   5.758   1.185
 1374SOL     OW 5020   4.787   2.813   0.417
 1374SOL    HW1 5021   4.742   2.810   0.507
 1374SOL    HW2 5022   4.865   2.876   0.421
 1375SOL     OW 5023   0.617   4.157   5.567
 1375SOL    HW1 5024   0.524   4.124   5.584
 1375SOL    HW2 5025   0.623   4.194   5.475
 1376SOL     OW 5026   5.001   2.003   2.330
 1376SOL    HW1 5027   4.928   2.038   2.272
 1376SOL    HW2 5028   5.021   1.908   2.304
 1377SOL     OW 5029   0.613   5.519   4.908
 1377SOL    HW1 5030   0.600   5.422   4.889
 1377SOL    HW2 5031   0.679   5.531   4.982
 1378SOL     OW 5032   1.320   2.050   0.737
 1378SOL    HW1 5033   1.395   2.072   0.799
 1378SOL    HW2 5034   1.233   2.070   0.782
 1379SOL     OW 5035   3.944   6.258   1.904
 1379SOL    HW1 5036   3.873   6.269   1.973
 1379SOL    HW2 5037   3.961   6.347   1.860
 1380SOL     OW 5038   6.120   6.741   2.459
 1380SOL    HW1 5039   6.115   6.641   2.466
 1380SOL    HW2 5040   6.200   6.773   2.509
 1381SOL     OW 5041   6.006   1.196   1.613
 1381SOL    HW1 5042   6.016   1.159   1.705
 1381SOL    HW2 5043   6.086   1.252   1.592
 1382SOL     OW 5044   6.360   5.111   6.408
 1382SOL    HW1 5045   6.309   5.032   6.443
 1382SOL    HW2 5046   6.381   5.174   6.483
 1383SOL     OW 5047   2.569   6.874   0.698
 1383SOL    HW1 5048   2.472   6.882   0.672
 1383SOL    HW2 5049   2.610   6.966   0.702
 1384SOL     OW 5050   3.550   2.127   2.786
 1384SOL    HW1 5051   3.472   2.123   2.849
 1384SOL    HW2 5052   3.517   2.127   2.692
 1385SOL     OW 5053   5.670   2.995   2.617
 1385SOL    HW1 5054   5.756   2.944   2.615
 1385SOL    HW2 5055   5.602   2.946   2.671
 1386SOL     OW 5056   2.221   2.293   4.146
 1386SOL    HW1 5057   2.208   2.262   4.052
 1386SOL    HW2 5058   2.133   2.315   4.187
 1387SOL     OW 5059   2.434   0.597   5.232
 1387SOL    HW1 5060   2.382   0.643   5.304
 1387SOL    HW2 5061   2.417   0.643   5.145
 1388SOL     OW 5062   6.635   0.715   4.875
 1388SOL    HW1 5063   6.547   0.730   4.920
 1388SOL    HW2 5064   6.676   0.631   4.910
 1389SOL     OW 5065   6.880   0.709   5.061
 1389SOL    HW1 5066   6.828   0.632   5.024
 1389SOL    HW2 5067   6.914   0.686   5.152
 1390SOL     OW 5068   4.663   2.719   2.760
 1390SOL    HW1 5069   4.691   2.790   2.695
 1390SOL    HW2 5070   4.608   2.650   2.713
 1391SOL     OW 5071   5.989   1.299   4.588
 1391SOL    HW1 5072   5.966   1.395   4.568
 1391SOL    HW2 5073   5.905   1.247   4.603
 1392SOL     OW 5074   4.495   4.976   6.108
 1392SOL    HW1 5075   4.463   4.987   6.014
 1392SOL    HW2 5076   4.460   5.052   6.164
 1393SOL     OW 5077   6.024   0.522   6.510
 1393SOL    HW1 5078   6.014   0.590   6.438
 1393SOL    HW2 5079   6.024   0.430   6.469
 1394SOL     OW 5080   4.297   0.001   4.278
 1394SOL    HW1 5081   4.370   6.986   4.335
 1394SOL    HW2 5082   4.218   0.023   4.335
 1395SOL     OW 5083   0.981   5.550   2.357
 1395SOL    HW1 5084   0.928   5.604   2.421
 1395SOL    HW2 5085   1.035   5.482   2.406
 1396SOL     OW 5086   1.875   1.559   3.934
 1396SOL    HW1 5087   1.937   1.599   3.866
 1396SOL    HW2 5088   1.848   1.468   3.905
 1397SOL     OW 5089   0.655   5.649   4.505
 1397SOL    HW1 5090   0.678   5.664   4.408
 1397SOL    HW2 5091   0.566   5.691   4.525
 1398SOL     OW 5092   0.912   6.443   0.576
 1398SOL    HW1 5093   0.871   6.504   0.644
 1398SOL    HW2 5094   0.922   6.492   0.489
 1399SOL     OW 5095   4.042   0.336   0.181
 1399SOL    HW1 5096   4.036   0.265   0.111
 1399SOL    HW2 5097   4.134   0.337   0.220
 1400SOL     OW 5098   0.233   1.003   5.148
 1400SOL    HW1 5099   0.304   0.937   5.171
 1400SOL    HW2 5100   0.262   1.057   5.068
 1401SOL     OW 5101   5.589   0.231   2.418
 1401SOL    HW1 5102   5.626   0.138   2.417
 1401SOL    HW2 5103   5.546   0.249   2.507
 1402SOL     OW 5104   6.715   4.782   2.594
 1402SOL    HW1 5105   6.745   4.703   2.648
 1402SOL    HW2 5106   6.751   4.866   2.635
 1403SOL     OW 5107   3.329   3.451   6.767
 1403SOL    HW1 5108   3.259   3.463   6.697
 1403SOL    HW2 5109   3.300   3.381   6.832
 1404SOL     OW 5110   3.812   0.007   0.346
 1404SOL    HW1 5111   3.785   6.943   0.307
 1404SOL    HW2 5112   3.732   0.067   0.351
 1405SOL     OW 5113   0.688   3.900   1.503
 1405SOL    HW1 5114   0.761   3.958   1.468
 1405SOL    HW2 5115   0.642   3.855   1.427
 1406SOL     OW 5116   2.152   3.396   0.572
 1406SOL    HW1 5117   2.111   3.350   0.650
 1406SOL    HW2 5118   2.107   3.485   0.559
 1407SOL     OW 5119   0.055   2.981   1.250
 1407SOL    HW1 5120   6.999   2.931   1.284
 1407SOL    HW2 5121   0.126   2.982   1.321
 1408SOL     OW 5122   5.623   6.637   1.183
 1408SOL    HW1 5123   5.605   6.552   1.135
 1408SOL    HW2 5124   5.704   6.627   1.241
 1409SOL     OW 5125   6.628   0.872   5.775
 1409SOL    HW1 5126   6.618   0.774   5.789
 1409SOL    HW2 5127   6.664   0.889   5.683
 1410SOL     OW 5128   3.726   0.569   6.217
 1410SOL    HW1 5129   3.782   0.647   6.188
 1410SOL    HW2 5130   3.629   0.594   6.212
 1411SOL     OW 5131   3.544   5.165   7.004
 1411SOL    HW1 5132   3.508   5.082   0.024
 1411SOL    HW2 5133   3.482   5.192   6.930
 1412SOL     OW 5134   2.720   2.850   0.022
 1412SOL    HW1 5135   2.639   2.864   0.079
 1412SOL    HW2 5136   2.794   2.909   0.055
 1413SOL     OW 5137   1.493   1.694   4.912
 1413SOL    HW1 5138   1.575   1.683   4.967
 1413SOL    HW2 5139   1.515   1.743   4.828
 1414SOL     OW 5140   0.677   4.164   2.541
 1414SOL    HW1 5141   0.729   4.250   2.543
 1414SOL    HW2 5142   0.739   4.088   2.562
 1415SOL     OW 5143   2.582   1.487   4.975
 1415SOL    HW1 5144   2.629   1.505   4.889
 1415SOL    HW2 5145   2.586   1.389   4.994
 1416SOL     OW 5146   4.550   0.363   4.797
 1416SOL    HW1 5147   4.641   0.384   4.833
 1416SOL    HW2 5148   4.555   0.351   4.698
 1417SOL     OW 5149   3.556   3.376   5.840
 1417SOL    HW1 5150   3.653   3.352   5.849
 1417SOL    HW2 5151   3.516   3.387   5.931
 1418SOL     OW 5152   3.978   4.227   5.639
 1418SOL    HW1 5153   4.023   4.312   5.610
 1418SOL    HW2 5154   3.892   4.217   5.590
 1419SOL     OW 5155   1.319   5.953   2.263
 1419SOL    HW1 5156   1.300   5.855   2.254
 1419SOL    HW2 5157   1.390   5.979   2.197
 1420SOL     OW 5158   2.568   6.937   3.218
 1420SOL    HW1 5159   2.554   6.933   3.317
 1420SOL    HW2 5160   2.490   6.893   3.172
 1421SOL     OW 5161   1.299   4.798   5.843
 1421SOL    HW1 5162   1.370   4.791   5.913
 1421SOL    HW2 5163   1.266   4.707   5.819
 1422SOL     OW 5164   2.096   3.030   6.156
 1422SOL    HW1 5165   2.015   3.045   6.100
 1422SOL    HW2 5166   2.074   3.050   6.251
 1423SOL     OW 5167   4.213   0.893   4.306
 1423SOL    HW1 5168   4.268   0.825   4.354
 1423SOL    HW2 5169   4.124   0.902   4.350
 1424SOL     OW 5170   5.946   3.048   0.560
 1424SOL    HW1 5171   6.018   3.005   0.504
 1424SOL    HW2 5172   5.970   3.039   0.657
 1425SOL     OW 5173   5.345   0.017   3.551
 1425SOL    HW1 5174   5.416   0.019   3.620
 1425SOL    HW2 5175   5.357   0.093   3.487
 1426SOL     OW 5176   3.507   1.482   7.011
 1426SOL    HW1 5177   3.485   1.438   6.923
 1426SOL    HW2 5178   3.428   1.532   0.020
 1427SOL     OW 5179   1.806   0.488   3.668
 1427SOL    HW1 5180   1.897   0.463   3.703
 1427SOL    HW2 5181   1.757   0.406   3.640
 1428SOL     OW 5182   0.547   2.905   3.874
 1428SOL    HW1 5183   0.557   3.003   3.889
 1428SOL    HW2 5184   0.574   2.856   3.957
 1429SOL     OW 5185   6.419   1.184   1.763
 1429SOL    HW1 5186   6.375   1.150   1.680
 1429SOL    HW2 5187   6.494   1.122   1.788
 1430SOL     OW 5188   2.155   3.230   4.204
 1430SOL    HW1 5189   2.161   3.250   4.302
 1430SOL    HW2 5190   2.197   3.141   4.185
 1431SOL     OW 5191   2.670   1.026   6.869
 1431SOL    HW1 5192   2.741   1.092   6.844
 1431SOL    HW2 5193   2.684   0.997   6.964
 1432SOL     OW 5194   3.378   0.719   2.231
 1432SOL    HW1 5195   3.401   0.626   2.258
 1432SOL    HW2 5196   3.341   0.769   2.309
 1433SOL     OW 5197   2.602   0.358   4.205
 1433SOL    HW1 5198   2.672   0.430   4.198
 1433SOL    HW2 5199   2.572   0.333   4.113
 1434SOL     OW 5200   6.549   3.835   0.275
 1434SOL    HW1 5201   6.639   3.817   0.315
 1434SOL    HW2 5202   6.531   3.767   0.203
 1435SOL     OW 5203   1.780   0.324   4.021
 1435SOL    HW1 5204   1.792   0.322   4.120
 1435SOL    HW2 5205   1.716   0.397   3.996
 1436SOL     OW 5206   5.088   1.381   0.370
 1436SOL    HW1 5207   5.120   1.377   0.464
 1436SOL    HW2 5208   5.167   1.383   0.308
 1437SOL     OW 5209   4.087   0.548   6.738
 1437SOL    HW1 5210   4.053   0.588   6.823
 1437SOL    HW2 5211   4.101   0.619   6.670
 1438SOL     OW 5212   2.165   0.570   2.365
 1438SOL    HW1 5213   2.106   0.650   2.374
 1438SOL    HW2 5214   2.225   0.564   2.445
 1439SOL     OW 5215   0.315   4.658   6.962
 1439SOL    HW1 5216   0.300   4.720   6.885
 1439SOL    HW2 5217   0.248   4.584   6.959
 1440SOL     OW 5218   3.556   3.031   2.697
 1440SOL    HW1 5219   3.643   2.982   2.701
 1440SOL    HW2 5220   3.513   3.014   2.608
 1441SOL     OW 5221   6.424   3.102   4.269
 1441SOL    HW1 5222   6.490   3.026   4.262
 1441SOL    HW2 5223   6.450   3.162   4.344
 1442SOL     OW 5224   5.524   6.666   6.898
 1442SOL    HW1 5225   5.618   6.634   6.911
 1442SOL    HW2 5226   5.526   6.762   6.867
 1443SOL     OW 5227   1.048   2.366   3.234
 1443SOL    HW1 5228   0.978   2.421   3.278
 1443SOL    HW2 5229   1.132   2.370   3.288
 1444SOL     OW 5230   5.617   0.739   4.978
 1444SOL    HW1 5231   5.521   0.710   4.985
 1444SOL    HW2 5232   5.661   0.690   4.903
 1445SOL     OW 5233   6.116   2.272   0.901
 1445SOL    HW1 5234   6.113   2.368   0.872
 1445SOL    HW2 5235   6.045   2.221   0.854
 1446SOL     OW 5236   4.162   0.474   0.971
 1446SOL    HW1 5237   4.247   0.444   1.013
 1446SOL    HW2 5238   4.099   0.397   0.965
 1447SOL     OW 5239   5.206   1.445   5.213
 1447SOL    HW1 5240   5.253   1.531   5.196
 1447SOL    HW2 5241   5.264   1.385   5.268
 1448SOL     OW 5242   5.790   0.127   6.660
 1448SOL    HW1 5243   5.831   0.055   6.603
 1448SOL    HW2 5244   5.764   0.088   6.748
 1449SOL     OW 5245   4.621   5.515   0.682
 1449SOL    HW1 5246   4.598   5.426   0.722
 1449SOL    HW2 5247   4.545   5.578   0.696
 1450SOL     OW 5248   5.270   1.914   4.174
 1450SOL    HW1 5249   5.311   1.955   4.092
 1450SOL    HW2 5250   5.234   1.987   4.232
 1451SOL     OW 5251   1.719   7.016   2.635
 1451SOL    HW1 5252   1.645   6.982   2.578
 1451SOL    HW2 5253   1.804   6.967   2.613
 1452SOL     OW 5254   4.400   0.571   4.875
 1452SOL    HW1 5255   4.451   0.656   4.886
 1452SOL    HW2 5256   4.461   0.500   4.839
 1453SOL     OW 5257   4.962   4.344   4.698
 1453SOL    HW1 5258   4.907   4.420   4.733
 1453SOL    HW2 5259   4.952   4.266   4.759
 1454SOL     OW 5260   4.490   4.044   1.381
 1454SOL    HW1 5261   4.556   3.992   1.326
 1454SOL    HW2 5262   4.447   4.114   1.324
 1455SOL     OW 5263   2.383   2.290   1.497
 1455SOL    HW1 5264   2.327   2.340   1.562
 1455SOL    HW2 5265   2.477   2.325   1.500
 1456SOL     OW 5266   6.496   5.235   4.152
 1456SOL    HW1 5267   6.411   5.277   4.120
 1456SOL    HW2 5268   6.475   5.154   4.207
 1457SOL     OW 5269   1.766   0.690   3.481
 1457SOL    HW1 5270   1.846   0.731   3.525
 1457SOL    HW2 5271   1.745   0.603   3.526
 1458SOL     OW 5272   6.734   5.126   0.076
 1458SOL    HW1 5273   6.736   5.042   0.131
 1458SOL    HW2 5274   6.640   5.154   0.061
 1459SOL     OW 5275   2.371   6.843   1.034
 1459SOL    HW1 5276   2.301   6.823   0.966
 1459SOL    HW2 5277   2.440   6.904   0.994
 1460SOL     OW 5278   0.498   6.333   0.837
 1460SOL    HW1 5279   0.595   6.355   0.841
 1460SOL    HW2 5280   0.467   6.300   0.926
 1461SOL     OW 5281   4.314   4.718   1.450
 1461SOL    HW1 5282   4.363   4.756   1.371
 1461SOL    HW2 5283   4.323   4.780   1.528
 1462SOL     OW 5284   5.078   0.393   5.296
 1462SOL    HW1 5285   5.027   0.308   5.314
 1462SOL    HW2 5286   5.016   0.471   5.301
 1463SOL     OW 5287   0.396   1.325   5.171
 1463SOL    HW1 5288   0.388   1.242   5.116
 1463SOL    HW2 5289   0.482   1.324   5.222
 1464SOL     OW 5290   0.230   0.316   1.604
 1464SOL    HW1 5291   0.327   0.337   1.592
 1464SOL    HW2 5292   0.220   0.219   1.627
 1465SOL     OW 5293   0.553   6.983   4.917
 1465SOL    HW1 5294   0.472   6.931   4.943
 1465SOL    HW2 5295   0.587   6.952   4.828
 1466SOL     OW 5296   5.285   5.224   4.308
 1466SOL    HW1 5297   5.296   5.209   4.210
 1466SOL    HW2 5298   5.341   5.302   4.336
 1467SOL     OW 5299   6.178   3.638   2.746
 1467SOL    HW1 5300   6.190   3.737   2.740
 1467SOL    HW2 5301   6.091   3.613   2.704
 1468SOL     OW 5302   5.113   6.132   2.704
 1468SOL    HW1 5303   5.069   6.074   2.635
 1468SOL    HW2 5304   5.210   6.108   2.711
 1469SOL     OW 5305   0.471   1.029   2.940
 1469SOL    HW1 5306   0.557   0.987   2.967
 1469SOL    HW2 5307   0.488   1.106   2.878
 1470SOL     OW 5308   0.061   0.725   3.228
 1470SOL    HW1 5309   0.074   0.674   3.313
 1470SOL    HW2 5310   7.004   0.690   3.181
 1471SOL     OW 5311   6.173   0.679   0.351
 1471SOL    HW1 5312   6.152   0.777   0.353
 1471SOL    HW2 5313   6.251   0.662   0.292
 1472SOL     OW 5314   4.372   5.770   5.116
 1472SOL    HW1 5315   4.375   5.851   5.174
 1472SOL    HW2 5316   4.462   5.725   5.117
 1473SOL     OW 5317   5.894   4.312   3.473
 1473SOL    HW1 5318   5.834   4.242   3.434
 1473SOL    HW2 5319   5.895   4.303   3.573
 1474SOL     OW 5320   4.586   5.091   3.592
 1474SOL    HW1 5321   4.547   5.081   3.500
 1474SOL    HW2 5322   4.670   5.144   3.587
 1475SOL     OW 5323   6.865   0.546   3.252
 1475SOL    HW1 5324   6.860   0.511   3.346
 1475SOL    HW2 5325   6.843   0.643   3.252
 1476SOL     OW 5326   6.141   1.848   1.421
 1476SOL    HW1 5327   6.053   1.864   1.465
 1476SOL    HW2 5328   6.142   1.892   1.331
 1477SOL     OW 5329   3.158   6.483   3.106
 1477SOL    HW1 5330   3.212   6.503   3.188
 1477SOL    HW2 5331   3.062   6.470   3.133
 1478SOL     OW 5332   6.474   4.872   2.048
 1478SOL    HW1 5333   6.383   4.896   2.013
 1478SOL    HW2 5334   6.536   4.855   1.972
 1479SOL     OW 5335   1.473   5.328   0.753
 1479SOL    HW1 5336   1.396   5.384   0.784
 1479SOL    HW2 5337   1.554   5.386   0.746
 1480SOL     OW 5338   2.664   0.949   0.132
 1480SOL    HW1 5339   2.711   0.887   0.195
 1480SOL    HW2 5340   2.621   1.023   0.184
 1481SOL     OW 5341   0.163   2.570   5.702
 1481SOL    HW1 5342   0.241   2.515   5.731
 1481SOL    HW2 5343   0.194   2.663   5.680
 1482SOL     OW 5344   5.878   0.907   6.152
 1482SOL    HW1 5345   5.836   0.864   6.072
 1482SOL    HW2 5346   5.844   1.000   6.162
 1483SOL     OW 5347   6.174   2.768   6.570
 1483SOL    HW1 5348   6.108   2.805   6.635
 1483SOL    HW2 5349   6.250   2.727   6.619
 1484SOL     OW 5350   6.907   6.775   2.880
 1484SOL    HW1 5351   6.815   6.745   2.857
 1484SOL    HW2 5352   6.960   6.787   2.796
 1485SOL     OW 5353   5.739   2.989   4.404
 1485SOL    HW1 5354   5.749   2.987   4.305
 1485SOL    HW2 5355   5.708   2.900   4.437
 1486SOL     OW 5356   4.842   2.367   2.069
 1486SOL    HW1 5357   4.901   2.388   1.991
 1486SOL    HW2 5358   4.795   2.449   2.099
 1487SOL     OW 5359   6.667   1.320   5.357
 1487SOL    HW1 5360   6.702   1.229   5.380
 1487SOL    HW2 5361   6.568   1.321   5.368
 1488SOL     OW 5362   4.351   2.077   2.777
 1488SOL    HW1 5363   4.318   2.083   2.683
 1488SOL    HW2 5364   4.295   2.134   2.836
 1489SOL     OW 5365   4.004   4.904   4.688
 1489SOL    HW1 5366   4.058   4.822   4.705
 1489SOL    HW2 5367   4.059   4.971   4.639
 1490SOL     OW 5368   2.261   2.632   0.851
 1490SOL    HW1 5369   2.337   2.694   0.835
 1490SOL    HW2 5370   2.291   2.555   0.908
 1491SOL     OW 5371   6.994   2.547   5.465
 1491SOL    HW1 5372   0.035   2.566   5.538
 1491SOL    HW2 5373   6.901   2.548   5.503
 1492SOL     OW 5374   5.218   2.562   2.004
 1492SOL    HW1 5375   5.185   2.526   1.917
 1492SOL    HW2 5376   5.254   2.655   1.990
 1493SOL     OW 5377   5.373   0.603   5.003
 1493SOL    HW1 5378   5.317   0.651   4.935
 1493SOL    HW2 5379   5.332   0.612   5.093
 1494SOL     OW 5380   5.137   2.088   4.315
 1494SOL    HW1 5381   5.154   2.104   4.413
 1494SOL    HW2 5382   5.128   2.176   4.269
 1495SOL     OW 5383   2.092   2.460   2.351
 1495SOL    HW1 5384   2.008   2.484   2.399
 1495SOL    HW2 5385   2.122   2.538   2.296
 1496SOL     OW 5386   0.930   1.365   3.273
 1496SOL    HW1 5387   0.904   1.410   3.358
 1496SOL    HW2 5388   0.917   1.266   3.282
 1497SOL     OW 5389   4.993   4.566   5.774
 1497SOL    HW1 5390   5.053   4.505   5.826
 1497SOL    HW2 5391   4.941   4.624   5.837
 1498SOL     OW 5392   1.808   5.747   0.060
 1498SOL    HW1 5393   1.907   5.763   0.055
 1498SOL    HW2 5394   1.788   5.691   0.140
 1499SOL     OW 5395   0.438   4.776   4.728
 1499SOL    HW1 5396   0.496   4.782   4.647
 1499SOL    HW2 5397   0.410   4.868   4.755
 1500SOL     OW 5398   4.330   6.711   5.304
 1500SOL    HW1 5399   4.322   6.750   5.213
 1500SOL    HW2 5400   4.413   6.655   5.309
 1501SOL     OW 5401   4.304   0.445   6.475
 1501SOL    HW1 5402   4.244   0.525   6.480
 1501SOL    HW2 5403   4.253   0.364   6.505
 1502SOL     OW 5404   6.770   6.534   0.128
 1502SOL    HW1 5405   6.849   6.589   0.158
 1502SOL    HW2 5406   6.725   6.494   0.208
 1503SOL     OW 5407   3.312   3.637   5.263
 1503SOL    HW1 5408   3.227   3.590   5.238
 1503SOL    HW2 5409   3.304   3.734   5.240
 1504SOL     OW 5410   2.771   6.306   4.392
 1504SOL    HW1 5411   2.801   6.222   4.436
 1504SOL    HW2 5412   2.821   6.319   4.306
 1505SOL     OW 5413   4.910   4.868   1.587
 1505SOL    HW1 5414   4.933   4.773   1.567
 1505SOL    HW2 5415   4.866   4.909   1.507
 1506SOL     OW 5416   0.813   6.385   3.053
 1506SOL    HW1 5417   0.729   6.334   3.038
 1506SOL    HW2 5418   0.799   6.481   3.027
 1507SOL     OW 5419   1.909   0.796   6.268
 1507SOL    HW1 5420   1.942   0.780   6.175
 1507SOL    HW2 5421   1.959   0.872   6.309
 1508SOL     OW 5422   4.669   0.030   0.439
 1508SOL    HW1 5423   4.570   0.017   0.441
 1508SOL    HW2 5424   4.705   0.026   0.532
 1509SOL     OW 5425   5.308   1.845   0.624
 1509SOL    HW1 5426   5.238   1.834   0.553
 1509SOL    HW2 5427   5.287   1.926   0.679
 1510SOL     OW 5428   0.140   2.090   3.787
 1510SOL    HW1 5429   0.148   2.010   3.727
 1510SOL    HW2 5430   0.221   2.096   3.845
 1511SOL     OW 5431   1.435   2.660   0.589
 1511SOL    HW1 5432   1.502   2.717   0.540
 1511SOL    HW2 5433   1.403   2.708   0.670
 1512SOL     OW 5434   5.787   0.386   2.312
 1512SOL    HW1 5435   5.836   0.305   2.345
 1512SOL    HW2 5436   5.703   0.397   2.365
 1513SOL     OW 5437   3.887   1.309   2.948
 1513SOL    HW1 5438   3.880   1.304   2.849
 1513SOL    HW2 5439   3.876   1.404   2.978
 1514SOL     OW 5440   5.455   1.411   6.044
 1514SOL    HW1 5441   5.369   1.367   6.070
 1514SOL    HW2 5442   5.441   1.461   5.958
 1515SOL     OW 5443   6.508   5.269   5.091
 1515SOL    HW1 5444   6.525   5.227   5.002
 1515SOL    HW2 5445   6.595   5.282   5.139
 1516SOL     OW 5446   0.840   1.087   1.085
 1516SOL    HW1 5447   0.818   1.184   1.077
 1516SOL    HW2 5448   0.926   1.068   1.037
 1517SOL     OW 5449   3.662   5.066   3.375
 1517SOL    HW1 5450   3.711   5.059   3.462
 1517SOL    HW2 5451   3.584   5.004   3.377
 1518SOL     OW 5452   0.968   4.690   1.509
 1518SOL    HW1 5453   0.943   4.615   1.571
 1518SOL    HW2 5454   1.003   4.652   1.424
 1519SOL     OW 5455   7.014   5.034   1.058
 1519SOL    HW1 5456   0.003   5.120   1.009
 1519SOL    HW2 5457   0.071   4.977   1.048
 1520SOL     OW 5458   1.466   2.711   3.029
 1520SOL    HW1 5459   1.477   2.630   2.971
 1520SOL    HW2 5460   1.373   2.715   3.065
 1521SOL     OW 5461   2.669   4.354   5.737
 1521SOL    HW1 5462   2.647   4.388   5.646
 1521SOL    HW2 5463   2.602   4.388   5.803
 1522SOL     OW 5464   0.450   2.717   6.759
 1522SOL    HW1 5465   0.452   2.617   6.753
 1522SOL    HW2 5466   0.529   2.749   6.811
 1523SOL     OW 5467   6.744   1.247   0.896
 1523SOL    HW1 5468   6.655   1.292   0.909
 1523SOL    HW2 5469   6.809   1.285   0.961
 1524SOL     OW 5470   6.180   0.881   2.589
 1524SOL    HW1 5471   6.115   0.807   2.573
 1524SOL    HW2 5472   6.271   0.844   2.603
 1525SOL     OW 5473   4.450   1.734   6.057
 1525SOL    HW1 5474   4.380   1.806   6.053
 1525SOL    HW2 5475   4.499   1.732   5.970
 1526SOL     OW 5476   6.777   1.845   1.046
 1526SOL    HW1 5477   6.819   1.804   0.965
 1526SOL    HW2 5478   6.805   1.794   1.128
 1527SOL     OW 5479   3.039   2.191   5.703
 1527SOL    HW1 5480   3.083   2.117   5.651
 1527SOL    HW2 5481   2.977   2.242   5.643
 1528SOL     OW 5482   5.037   6.132   3.475
 1528SOL    HW1 5483   4.965   6.105   3.539
 1528SOL    HW2 5484   5.022   6.086   3.387
 1529SOL     OW 5485   3.181   0.805   5.417
 1529SOL    HW1 5486   3.158   0.896   5.452
 1529SOL    HW2 5487   3.136   0.736   5.474
 1530SOL     OW 5488   3.138   0.093   2.421
 1530SOL    HW1 5489   3.086   0.049   2.348
 1530SOL    HW2 5490   3.213   0.146   2.381
 1531SOL     OW 5491   6.710   0.160   5.630
 1531SOL    HW1 5492   6.749   0.252   5.627
 1531SOL    HW2 5493   6.679   0.134   5.538
 1532SOL     OW 5494   3.396   2.140   5.251
 1532SOL    HW1 5495   3.468   2.197   5.290
 1532SOL    HW2 5496   3.413   2.128   5.153
 1533SOL     OW 5497   5.427   3.108   6.719
 1533SOL    HW1 5498   5.487   3.180   6.754
 1533SOL    HW2 5499   5.336   3.146   6.700
 1534SOL     OW 5500   6.978   0.015   1.840
 1534SOL    HW1 5501   6.990   0.064   1.927
 1534SOL    HW2 5502   7.000   6.942   1.852
 1535SOL     OW 5503   4.667   5.270   3.900
 1535SOL    HW1 5504   4.678   5.308   3.992
 1535SOL    HW2 5505   4.690   5.173   3.902
 1536SOL     OW 5506   2.872   5.699   3.557
 1536SOL    HW1 5507   2.825   5.621   3.598
 1536SOL    HW2 5508   2.938   5.667   3.489
 1537SOL     OW 5509   2.750   5.246   4.063
 1537SOL    HW1 5510   2.772   5.200   4.149
 1537SOL    HW2 5511   2.652   5.265   4.060
 1538SOL     OW 5512   2.573   5.132   6.528
 1538SOL    HW1 5513   2.609   5.038   6.526
 1538SOL    HW2 5514   2.648   5.197   6.536
 1539SOL     OW 5515   3.363   4.840   1.799
 1539SOL    HW1 5516   3.447   4.785   1.790
 1539SOL    HW2 5517   3.366   4.915   1.733
 1540SOL     OW 5518   6.949   0.091   5.261
 1540SOL    HW1 5519   6.895   0.020   5.306
 1540SOL    HW2 5520   6.975   0.060   5.170
 1541SOL     OW 5521   4.950   2.274   0.811
 1541SOL    HW1 5522   4.992   2.341   0.750
 1541SOL    HW2 5523   4.851   2.273   0.796
 1542SOL     OW 5524   0.885   6.011   1.210
 1542SOL    HW1 5525   0.832   5.954   1.147
 1542SOL    HW2 5526   0.975   5.970   1.225
 1543SOL     OW 5527   3.290   4.071   4.215
 1543SOL    HW1 5528   3.219   4.075   4.284
 1543SOL    HW2 5529   3.273   3.994   4.154
 1544SOL     OW 5530   3.654   3.657   2.892
 1544SOL    HW1 5531   3.663   3.756   2.880
 1544SOL    HW2 5532   3.642   3.637   2.989
 1545SOL     OW 5533   6.599   0.950   4.522
 1545SOL    HW1 5534   6.625   0.854   4.534
 1545SOL    HW2 5535   6.529   0.975   4.590
 1546SOL     OW 5536   0.132   6.318   6.012
 1546SOL    HW1 5537   0.190   6.359   6.083
 1546SOL    HW2 5538   0.184   6.311   5.927
 1547SOL     OW 5539   3.530   6.149   6.738
 1547SOL    HW1 5540   3.602   6.089   6.701
 1547SOL    HW2 5541   3.547   6.164   6.836
 1548SOL     OW 5542   6.393   4.389   3.776
 1548SOL    HW1 5543   6.355   4.481   3.767
 1548SOL    HW2 5544   6.450   4.369   3.697
 1549SOL     OW 5545   6.286   1.631   1.463
 1549SOL    HW1 5546   6.232   1.714   1.451
 1549SOL    HW2 5547   6.383   1.655   1.469
 1550SOL     OW 5548   2.804   5.931   3.391
 1550SOL    HW1 5549   2.835   5.854   3.446
 1550SOL    HW2 5550   2.772   5.898   3.302
 1551SOL     OW 5551   0.999   3.020   1.203
 1551SOL    HW1 5552   0.951   3.107   1.210
 1551SOL    HW2 5553   1.013   2.982   1.295
 1552SOL     OW 5554   0.927   0.004   0.478
 1552SOL    HW1 5555   1.021   7.006   0.454
 1552SOL    HW2 5556   0.919   0.102   0.498
 1553SOL     OW 5557   5.894   1.741   6.373
 1553SOL    HW1 5558   5.796   1.755   6.359
 1553SOL    HW2 5559   5.927   1.672   6.308
 1554SOL     OW 5560   2.978   1.799   1.065
 1554SOL    HW1 5561   2.973   1.706   1.029
 1554SOL    HW2 5562   3.031   1.856   1.002
 1555SOL     OW 5563   4.494   1.133   6.198
 1555SOL    HW1 5564   4.558   1.175   6.262
 1555SOL    HW2 5565   4.500   1.179   6.109
 1556SOL     OW 5566   3.147   2.162   0.114
 1556SOL    HW1 5567   3.239   2.138   0.144
 1556SOL    HW2 5568   3.107   2.227   0.179
 1557SOL     OW 5569   1.909   3.102   0.413
 1557SOL    HW1 5570   2.003   3.130   0.431
 1557SOL    HW2 5571   1.910   3.010   0.372
 1558SOL     OW 5572   5.401   2.980   5.842
 1558SOL    HW1 5573   5.448   2.962   5.756
 1558SOL    HW2 5574   5.446   3.056   5.890
 1559SOL     OW 5575   2.561   5.009   3.719
 1559SOL    HW1 5576   2.490   4.941   3.699
 1559SOL    HW2 5577   2.641   4.991   3.662
 1560SOL     OW 5578   4.016   1.576   0.715
 1560SOL    HW1 5579   4.055   1.667   0.733
 1560SOL    HW2 5580   4.090   1.508   0.714
 1561SOL     OW 5581   6.166   6.083   1.205
 1561SOL    HW1 5582   6.197   6.064   1.298
 1561SOL    HW2 5583   6.229   6.147   1.162
 1562SOL     OW 5584   3.498   0.048   2.275
 1562SOL    HW1 5585   3.464   0.118   2.213
 1562SOL    HW2 5586   3.576   0.002   2.234
 1563SOL     OW 5587   2.792   2.296   3.942
 1563SOL    HW1 5588   2.786   2.325   4.038
 1563SOL    HW2 5589   2.885   2.265   3.922
 1564SOL     OW 5590   0.822   1.334   2.859
 1564SOL    HW1 5591   0.741   1.365   2.909
 1564SOL    HW2 5592   0.896   1.401   2.869
 1565SOL     OW 5593   4.136   1.093   5.044
 1565SOL    HW1 5594   4.234   1.075   5.036
 1565SOL    HW2 5595   4.100   1.117   4.954
 1566SOL     OW 5596   5.445   4.919   3.231
 1566SOL    HW1 5597   5.520   4.939   3.168
 1566SOL    HW2 5598   5.454   4.825   3.264
 1567SOL     OW 5599   5.404   0.955   4.604
 1567SOL    HW1 5600   5.359   1.043   4.589
 1567SOL    HW2 5601   5.457   0.930   4.523
 1568SOL     OW 5602   2.985   4.952   1.248
 1568SOL    HW1 5603   3.039   4.972   1.330
 1568SOL    HW2 5604   2.908   5.014   1.243
 1569SOL     OW 5605   3.107   1.005   3.089
 1569SOL    HW1 5606   3.139   1.095   3.119
 1569SOL    HW2 5607   3.133   0.936   3.156
 1570SOL     OW 5608   3.369   5.809   6.183
 1570SOL    HW1 5609   3.273   5.802   6.208
 1570SOL    HW2 5610   3.405   5.719   6.160
 1571SOL     OW 5611   0.230   2.777   3.940
 1571SOL    HW1 5612   0.299   2.707   3.919
 1571SOL    HW2 5613   0.221   2.786   4.039
 1572SOL     OW 5614   2.648   5.262   2.958
 1572SOL    HW1 5615   2.626   5.286   2.864
 1572SOL    HW2 5616   2.735   5.214   2.961
 1573SOL     OW 5617   5.930   6.066   0.234
 1573SOL    HW1 5618   6.021   6.101   0.215
 1573SOL    HW2 5619   5.868   6.142   0.255
 1574SOL     OW 5620   6.634   3.736   3.640
 1574SOL    HW1 5621   6.608   3.640   3.630
 1574SOL    HW2 5622   6.565   3.782   3.696
 1575SOL     OW 5623   7.024   2.051   0.005
 1575SOL    HW1 5624   0.093   2.047   0.039
 1575SOL    HW2 5625   6.969   1.978   0.048
 1576SOL     OW 5626   0.997   6.837   1.643
 1576SOL    HW1 5627   1.092   6.822   1.615
 1576SOL    HW2 5628   0.944   6.867   1.564
 1577SOL     OW 5629   3.779   5.910   5.552
 1577SOL    HW1 5630   3.721   5.967   5.611
 1577SOL    HW2 5631   3.808   5.829   5.603
 1578SOL     OW 5632   4.732   1.015   0.915
 1578SOL    HW1 5633   4.736   1.052   1.008
 1578SOL    HW2 5634   4.784   1.075   0.853
 1579SOL     OW 5635   1.742   2.600   1.586
 1579SOL    HW1 5636   1.751   2.505   1.555
 1579SOL    HW2 5637   1.782   2.661   1.518
 1580SOL     OW 5638   3.288   3.493   2.736
 1580SOL    HW1 5639   3.280   3.537   2.825
 1580SOL    HW2 5640   3.296   3.562   2.665
 1581SOL     OW 5641   6.155   4.720   5.827
 1581SOL    HW1 5642   6.169   4.772   5.743
 1581SOL    HW2 5643   6.134   4.625   5.804
 1582SOL     OW 5644   4.514   6.214   5.149
 1582SOL    HW1 5645   4.611   6.204   5.123
 1582SOL    HW2 5646   4.457   6.180   5.074
 1583SOL     OW 5647   1.169   5.146   4.847
 1583SOL    HW1 5648   1.216   5.064   4.881
 1583SOL    HW2 5649   1.206   5.171   4.757
 1584SOL     OW 5650   6.882   4.631   0.172
 1584SOL    HW1 5651   6.824   4.610   0.251
 1584SOL    HW2 5652   6.912   4.546   0.129
 1585SOL     OW 5653   4.140   6.437   3.724
 1585SOL    HW1 5654   4.166   6.480   3.638
 1585SOL    HW2 5655   4.219   6.432   3.785
 1586SOL     OW 5656   3.432   6.005   3.711
 1586SOL    HW1 5657   3.489   5.999   3.628
 1586SOL    HW2 5658   3.337   6.018   3.684
 1587SOL     OW 5659   2.962   5.993   6.607
 1587SOL    HW1 5660   3.044   6.028   6.652
 1587SOL    HW2 5661   2.956   6.030   6.514
 1588SOL     OW 5662   6.486   1.802   3.298
 1588SOL    HW1 5663   6.519   1.823   3.206
 1588SOL    HW2 5664   6.437   1.715   3.297
 1589SOL     OW 5665   6.241   4.665   4.181
 1589SOL    HW1 5666   6.285   4.735   4.124
 1589SOL    HW2 5667   6.293   4.580   4.176
 1590SOL     OW 5668   6.514   2.594   3.798
 1590SOL    HW1 5669   6.581   2.622   3.730
 1590SOL    HW2 5670   6.500   2.668   3.864
 1591SOL     OW 5671   1.464   6.456   1.529
 1591SOL    HW1 5672   1.473   6.531   1.463
 1591SOL    HW2 5673   1.433   6.374   1.482
 1592SOL     OW 5674   0.140   4.314   6.023
 1592SOL    HW1 5675   0.179   4.240   5.968
 1592SOL    HW2 5676   0.161   4.297   6.120
 1593SOL     OW 5677   3.329   0.316   7.005
 1593SOL    HW1 5678   3.262   0.285   0.050
 1593SOL    HW2 5679   3.303   0.407   6.972
 1594SOL     OW 5680   5.866   0.190   2.829
 1594SOL    HW1 5681   5.855   0.289   2.838
 1594SOL    HW2 5682   5.777   0.146   2.838
 1595SOL     OW 5683   7.010   3.779   0.529
 1595SOL    HW1 5684   0.004   3.867   0.573
 1595SOL    HW2 5685   0.042   3.771   0.447
 1596SOL     OW 5686   4.264   4.650   3.137
 1596SOL    HW1 5687   4.300   4.593   3.211
 1596SOL    HW2 5688   4.214   4.594   3.072
 1597SOL     OW 5689   3.729   5.953   6.741
 1597SOL    HW1 5690   3.779   5.923   6.822
 1597SOL    HW2 5691   3.757   5.897   6.663
 1598SOL     OW 5692   1.718   4.642   0.283
 1598SOL    HW1 5693   1.710   4.614   0.187
 1598SOL    HW2 5694   1.673   4.575   0.342
 1599SOL     OW 5695   4.620   6.134   3.002
 1599SOL    HW1 5696   4.548   6.169   2.943
 1599SOL    HW2 5697   4.608   6.171   3.094
 1600SOL     OW 5698   4.208   0.384   2.074
 1600SOL    HW1 5699   4.166   0.432   1.997
 1600SOL    HW2 5700   4.265   0.310   2.040
 1601SOL     OW 5701   6.619   0.421   5.230
 1601SOL    HW1 5702   6.695   0.387   5.285
 1601SOL    HW2 5703   6.533   0.386   5.268
 1602SOL     OW 5704   3.671   5.928   3.797
 1602SOL    HW1 5705   3.689   5.953   3.892
 1602SOL    HW2 5706   3.584   5.969   3.768
 1603SOL     OW 5707   3.468   5.518   3.270
 1603SOL    HW1 5708   3.476   5.481   3.177
 1603SOL    HW2 5709   3.560   5.540   3.305
 1604SOL     OW 5710   4.265   5.378   1.748
 1604SOL    HW1 5711   4.184   5.438   1.751
 1604SOL    HW2 5712   4.309   5.387   1.658
 1605SOL     OW 5713   4.559   5.300   0.857
 1605SOL    HW1 5714   4.625   5.243   0.906
 1605SOL    HW2 5715   4.557   5.391   0.897
 1606SOL     OW 5716   3.614   5.860   4.827
 1606SOL    HW1 5717   3.675   5.926   4.784
 1606SOL    HW2 5718   3.562   5.905   4.900
 1607SOL     OW 5719   4.623   5.672   2.822
 1607SOL    HW1 5720   4.630   5.578   2.788
 1607SOL    HW2 5721   4.579   5.671   2.912
 1608SOL     OW 5722   5.377   1.492   3.383
 1608SOL    HW1 5723   5.290   1.539   3.371
 1608SOL    HW2 5724   5.449   1.543   3.336
 1609SOL     OW 5725   2.328   6.718   1.290
 1609SOL    HW1 5726   2.338   6.781   1.213
 1609SOL    HW2 5727   2.353   6.625   1.261
 1610SOL     OW 5728   5.723   6.742   0.797
 1610SOL    HW1 5729   5.777   6.820   0.827
 1610SOL    HW2 5730   5.683   6.762   0.707
 1611SOL     OW 5731   1.273   4.485   0.938
 1611SOL    HW1 5732   1.360   4.532   0.922
 1611SOL    HW2 5733   1.285   4.415   1.009
 1612SOL     OW 5734   3.862   0.423   2.220
 1612SOL    HW1 5735   3.922   0.395   2.145
 1612SOL    HW2 5736   3.914   0.431   2.305
 1613SOL     OW 5737   6.720   5.812   2.454
 1613SOL    HW1 5738   6.772   5.779   2.376
 1613SOL    HW2 5739   6.676   5.735   2.500
 1614SOL     OW 5740   6.416   1.774   6.266
 1614SOL    HW1 5741   6.407   1.854   6.326
 1614SOL    HW2 5742   6.506   1.733   6.280
 1615SOL     OW 5743   0.848   4.010   6.271
 1615SOL    HW1 5744   0.866   3.915   6.297
 1615SOL    HW2 5745   0.836   4.017   6.172
 1616SOL     OW 5746   1.725   1.421   4.601
 1616SOL    HW1 5747   1.693   1.349   4.539
 1616SOL    HW2 5748   1.741   1.504   4.549
 1617SOL     OW 5749   6.448   6.455   3.187
 1617SOL    HW1 5750   6.396   6.517   3.128
 1617SOL    HW2 5751   6.542   6.487   3.195
 1618SOL     OW 5752   3.041   5.674   3.100
 1618SOL    HW1 5753   3.114   5.635   3.155
 1618SOL    HW2 5754   3.080   5.730   3.026
 1619SOL     OW 5755   1.329   4.139   0.215
 1619SOL    HW1 5756   1.353   4.196   0.136
 1619SOL    HW2 5757   1.268   4.066   0.186
 1620SOL     OW 5758   3.291   5.241   5.483
 1620SOL    HW1 5759   3.233   5.202   5.555
 1620SOL    HW2 5760   3.382   5.257   5.519
 1621SOL     OW 5761   5.313   5.903   0.718
 1621SOL    HW1 5762   5.277   5.881   0.809
 1621SOL    HW2 5763   5.412   5.910   0.723
 1622SOL     OW 5764   6.692   4.967   4.408
 1622SOL    HW1 5765   6.758   4.995   4.478
 1622SOL    HW2 5766   6.698   4.868   4.395
 1623SOL     OW 5767   0.103   2.211   3.486
 1623SOL    HW1 5768   0.005   2.211   3.467
 1623SOL    HW2 5769   0.121   2.160   3.570
 1624SOL     OW 5770   4.154   1.879   0.830
 1624SOL    HW1 5771   4.157   1.849   0.925
 1624SOL    HW2 5772   4.199   1.812   0.772
 1625SOL     OW 5773   0.633   5.687   1.303
 1625SOL    HW1 5774   0.628   5.597   1.260
 1625SOL    HW2 5775   0.557   5.743   1.271
 1626SOL     OW 5776   2.945   2.344   1.364
 1626SOL    HW1 5777   2.854   2.342   1.322
 1626SOL    HW2 5778   2.985   2.252   1.362
 1627SOL     OW 5779   4.169   1.634   5.319
 1627SOL    HW1 5780   4.174   1.583   5.405
 1627SOL    HW2 5781   4.209   1.725   5.332
 1628SOL     OW 5782   5.321   6.318   1.036
 1628SOL    HW1 5783   5.376   6.359   1.109
 1628SOL    HW2 5784   5.327   6.374   0.954
 1629SOL     OW 5785   2.133   0.663   3.807
 1629SOL    HW1 5786   2.078   0.693   3.728
 1629SOL    HW2 5787   2.162   0.743   3.858
 1630SOL     OW 5788   0.303   3.839   6.845
 1630SOL    HW1 5789   0.237   3.765   6.848
 1630SOL    HW2 5790   0.386   3.808   6.800
 1631SOL     OW 5791   6.544   4.008   0.062
 1631SOL    HW1 5792   6.535   3.960   0.150
 1631SOL    HW2 5793   6.466   4.069   0.049
 1632SOL     OW 5794   6.531   5.575   2.528
 1632SOL    HW1 5795   6.604   5.515   2.495
 1632SOL    HW2 5796   6.443   5.542   2.493
 1633SOL     OW 5797   5.502   3.932   4.106
 1633SOL    HW1 5798   5.580   3.991   4.124
 1633SOL    HW2 5799   5.487   3.871   4.184
 1634SOL     OW 5800   6.802   1.693   4.313
 1634SOL    HW1 5801   6.819   1.709   4.410
 1634SOL    HW2 5802   6.884   1.656   4.270
 1635SOL     OW 5803   3.888   6.457   2.816
 1635SOL    HW1 5804   3.875   6.553   2.791
 1635SOL    HW2 5805   3.861   6.399   2.739
 1636SOL     OW 5806   6.175   6.091   1.477
 1636SOL    HW1 5807   6.146   6.186   1.465
 1636SOL    HW2 5808   6.245   6.087   1.549
 1637SOL     OW 5809   0.809   0.029   1.816
 1637SOL    HW1 5810   0.877   6.984   1.793
 1637SOL    HW2 5811   0.741   0.036   1.743
 1638SOL     OW 5812   6.156   2.600   1.808
 1638SOL    HW1 5813   6.157   2.620   1.906
 1638SOL    HW2 5814   6.092   2.525   1.790
 1639SOL     OW 5815   5.570   2.272   2.737
 1639SOL    HW1 5816   5.557   2.173   2.734
 1639SOL    HW2 5817   5.575   2.301   2.833
 1640SOL     OW 5818   6.902   0.199   0.056
 1640SOL    HW1 5819   6.903   0.099   0.060
 1640SOL    HW2 5820   6.826   0.230   7.023
 1641SOL     OW 5821   6.447   2.369   2.912
 1641SOL    HW1 5822   6.388   2.359   2.832
 1641SOL    HW2 5823   6.402   2.428   2.979
 1642SOL     OW 5824   0.071   2.794   5.862
 1642SOL    HW1 5825   0.065   2.694   5.860
 1642SOL    HW2 5826   0.131   2.823   5.936
 1643SOL     OW 5827   2.456   6.011   3.845
 1643SOL    HW1 5828   2.545   6.043   3.811
 1643SOL    HW2 5829   2.393   6.000   3.767
 1644SOL     OW 5830   5.867   2.580   1.595
 1644SOL    HW1 5831   5.836   2.487   1.574
 1644SOL    HW2 5832   5.882   2.630   1.510
 1645SOL     OW 5833   2.248   0.739   5.910
 1645SOL    HW1 5834   2.233   0.837   5.912
 1645SOL    HW2 5835   2.223   0.703   5.820
 1646SOL     OW 5836   1.147   4.436   0.695
 1646SOL    HW1 5837   1.055   4.469   0.715
 1646SOL    HW2 5838   1.205   4.447   0.776
 1647SOL     OW 5839   5.521   2.516   4.125
 1647SOL    HW1 5840   5.525   2.506   4.026
 1647SOL    HW2 5841   5.575   2.444   4.169
 1648SOL     OW 5842   5.528   6.071   1.230
 1648SOL    HW1 5843   5.587   5.997   1.196
 1648SOL    HW2 5844   5.583   6.153   1.245
 1649SOL     OW 5845   3.730   0.496   3.493
 1649SOL    HW1 5846   3.663   0.422   3.503
 1649SOL    HW2 5847   3.740   0.544   3.580
 1650SOL     OW 5848   2.842   3.889   6.960
 1650SOL    HW1 5849   2.823   3.860   6.866
 1650SOL    HW2 5850   2.927   3.942   6.961
 1651SOL     OW 5851   1.017   2.815   3.308
 1651SOL    HW1 5852   1.050   2.744   3.370
 1651SOL    HW2 5853   1.051   2.796   3.216
 1652SOL     OW 5854   0.099   3.403   1.217
 1652SOL    HW1 5855   0.148   3.390   1.304
 1652SOL    HW2 5856   0.072   3.315   1.180
 1653SOL     OW 5857   0.214   4.448   3.174
 1653SOL    HW1 5858   0.246   4.448   3.079
 1653SOL    HW2 5859   0.131   4.503   3.180
 1654SOL     OW 5860   6.918   2.901   2.595
 1654SOL    HW1 5861   6.895   2.819   2.542
 1654SOL    HW2 5862   6.849   2.915   2.666
 1655SOL     OW 5863   6.889   0.281   4.843
 1655SOL    HW1 5864   6.949   0.288   4.763
 1655SOL    HW2 5865   6.807   0.229   4.819
 1656SOL     OW 5866   1.996   4.134   3.167
 1656SOL    HW1 5867   1.936   4.090   3.100
 1656SOL    HW2 5868   2.082   4.082   3.174
 1657SOL     OW 5869   1.158   6.930   5.657
 1657SOL    HW1 5870   1.199   6.982   5.731
 1657SOL    HW2 5871   1.184   6.834   5.665
 1658SOL     OW 5872   6.330   6.804   6.792
 1658SOL    HW1 5873   6.384   6.792   6.709
 1658SOL    HW2 5874   6.266   6.728   6.801
 1659SOL     OW 5875   4.248   6.733   6.556
 1659SOL    HW1 5876   4.281   6.761   6.466
 1659SOL    HW2 5877   4.323   6.737   6.622
 1660SOL     OW 5878   2.583   0.777   2.400
 1660SOL    HW1 5879   2.671   0.772   2.354
 1660SOL    HW2 5880   2.511   0.750   2.335
 1661SOL     OW 5881   4.438   4.640   2.796
 1661SOL    HW1 5882   4.494   4.671   2.719
 1661SOL    HW2 5883   4.347   4.683   2.791
 1662SOL     OW 5884   0.359   1.554   4.564
 1662SOL    HW1 5885   0.319   1.462   4.563
 1662SOL    HW2 5886   0.430   1.560   4.493
 1663SOL     OW 5887   4.710   4.929   0.055
 1663SOL    HW1 5888   4.632   4.866   0.062
 1663SOL    HW2 5889   4.727   4.950   6.983
 1664SOL     OW 5890   1.501   7.020   5.746
 1664SOL    HW1 5891   1.419   0.034   5.789
 1664SOL    HW2 5892   1.476   6.972   5.662
 1665SOL     OW 5893   2.617   4.326   0.022
 1665SOL    HW1 5894   2.523   4.309   7.019
 1665SOL    HW2 5895   2.623   4.327   0.122
 1666SOL     OW 5896   5.787   6.587   6.271
 1666SOL    HW1 5897   5.761   6.558   6.363
 1666SOL    HW2 5898   5.705   6.618   6.222
 1667SOL     OW 5899   0.191   6.276   1.228
 1667SOL    HW1 5900   0.159   6.368   1.250
 1667SOL    HW2 5901   0.237   6.236   1.307
 1668SOL     OW 5902   5.601   4.318   2.965
 1668SOL    HW1 5903   5.696   4.286   2.964
 1668SOL    HW2 5904   5.595   4.404   2.914
 1669SOL     OW 5905   6.127   3.641   5.481
 1669SOL    HW1 5906   6.207   3.637   5.541
 1669SOL    HW2 5907   6.093   3.735   5.476
 1670SOL     OW 5908   2.122   4.615   6.667
 1670SOL    HW1 5909   2.062   4.639   6.591
 1670SOL    HW2 5910   2.207   4.575   6.631
 1671SOL     OW 5911   5.799   2.309   1.082
 1671SOL    HW1 5912   5.847   2.230   1.045
 1671SOL    HW2 5913   5.784   2.377   1.010
 1672SOL     OW 5914   0.325   3.618   0.210
 1672SOL    HW1 5915   0.305   3.589   0.116
 1672SOL    HW2 5916   0.413   3.580   0.238
 1673SOL     OW 5917   1.747   0.922   4.647
 1673SOL    HW1 5918   1.674   0.935   4.580
 1673SOL    HW2 5919   1.795   0.837   4.627
 1674SOL     OW 5920   4.589   2.130   2.400
 1674SOL    HW1 5921   4.534   2.211   2.380
 1674SOL    HW2 5922   4.530   2.049   2.399
 1675SOL     OW 5923   5.448   0.709   1.094
 1675SOL    HW1 5924   5.445   0.787   1.158
 1675SOL    HW2 5925   5.441   0.743   1.001
 1676SOL     OW 5926   1.127   2.255   2.358
 1676SOL    HW1 5927   1.034   2.222   2.372
 1676SOL    HW2 5928   1.186   2.223   2.432
 1677SOL     OW 5929   4.022   3.208   3.424
 1677SOL    HW1 5930   4.112   3.177   3.454
 1677SOL    HW2 5931   3.953   3.140   3.449
 1678SOL     OW 5932   0.771   6.784   1.182
 1678SOL    HW1 5933   0.754   6.870   1.229
 1678SOL    HW2 5934   0.778   6.800   1.083
 1679SOL     OW 5935   0.664   2.120   6.295
 1679SOL    HW1 5936   0.639   2.034   6.251
 1679SOL    HW2 5937   0.720   2.101   6.375
 1680SOL     OW 5938   5.423   2.833   3.894
 1680SOL    HW1 5939   5.428   2.734   3.877
 1680SOL    HW2 5940   5.393   2.850   3.988
 1681SOL     OW 5941   2.443   6.101   4.325
 1681SOL    HW1 5942   2.477   6.147   4.407
 1681SOL    HW2 5943   2.397   6.016   4.351
 1682SOL     OW 5944   3.061   0.272   4.452
 1682SOL    HW1 5945   3.092   0.282   4.357
 1682SOL    HW2 5946   3.138   0.240   4.508
 1683SOL     OW 5947   6.148   4.977   2.999
 1683SOL    HW1 5948   6.205   4.896   2.986
 1683SOL    HW2 5949   6.126   4.987   3.097
 1684SOL     OW 5950   2.477   4.475   2.048
 1684SOL    HW1 5951   2.463   4.432   2.137
 1684SOL    HW2 5952   2.551   4.542   2.054
 1685SOL     OW 5953   0.043   1.525   5.318
 1685SOL    HW1 5954   0.062   1.618   5.289
 1685SOL    HW2 5955   6.970   1.504   5.302
 1686SOL     OW 5956   4.380   5.939   2.727
 1686SOL    HW1 5957   4.356   5.849   2.691
 1686SOL    HW2 5958   4.308   5.972   2.787
 1687SOL     OW 5959   5.632   4.236   2.176
 1687SOL    HW1 5960   5.541   4.232   2.219
 1687SOL    HW2 5961   5.650   4.150   2.129
 1688SOL     OW 5962   1.115   0.813   2.750
 1688SOL    HW1 5963   1.068   0.870   2.683
 1688SOL    HW2 5964   1.155   0.871   2.821
 1689SOL     OW 5965   4.412   0.812   0.947
 1689SOL    HW1 5966   4.390   0.767   1.033
 1689SOL    HW2 5967   4.506   0.792   0.921
 1690SOL     OW 5968   0.627   4.200   3.525
 1690SOL    HW1 5969   0.630   4.174   3.622
 1690SOL    HW2 5970   0.712   4.244   3.499
 1691SOL     OW 5971   4.589   2.838   5.235
 1691SOL    HW1 5972   4.535   2.911   5.276
 1691SOL    HW2 5973   4.529   2.762   5.210
 1692SOL     OW 5974   5.085   5.100   1.388
 1692SOL    HW1 5975   5.023   5.104   1.310
 1692SOL    HW2 5976   5.111   5.005   1.406
 1693SOL     OW 5977   5.610   6.904   4.978
 1693SOL    HW1 5978   5.683   6.972   4.973
 1693SOL    HW2 5979   5.532   6.943   5.026
 1694SOL     OW 5980   4.978   1.668   5.800
 1694SOL    HW1 5981   5.016   1.614   5.726
 1694SOL    HW2 5982   5.011   1.763   5.793
 1695SOL     OW 5983   4.321   0.860   6.726
 1695SOL    HW1 5984   4.259   0.925   6.771
 1695SOL    HW2 5985   4.415   0.879   6.754
 1696SOL     OW 5986   5.241   6.438   0.492
 1696SOL    HW1 5987   5.336   6.445   0.519
 1696SOL    HW2 5988   5.213   6.342   0.491
 1697SOL     OW 5989   5.228   2.002   2.470
 1697SOL    HW1 5990   5.279   2.080   2.506
 1697SOL    HW2 5991   5.146   2.034   2.423
 1698SOL     OW 5992   4.185   0.707   1.516
 1698SOL    HW1 5993   4.156   0.786   1.462
 1698SOL    HW2 5994   4.201   0.630   1.454
 1699SOL     OW 5995   2.592   6.570   0.006
 1699SOL    HW1 5996   2.574   6.485   0.054
 1699SOL    HW2 5997   2.509   6.601   6.983
 1700SOL     OW 5998   6.412   2.364   2.630
 1700SOL    HW1 5999   6.388   2.455   2.664
 1700SOL    HW2 6000   6.343   2.333   2.565
 1701SOL     OW 6001   0.203   5.842   4.745
 1701SOL    HW1 6002   0.264   5.878   4.816
 1701SOL    HW2 6003   0.152   5.918   4.703
 1702SOL     OW 6004   2.033   2.325   6.121
 1702SOL    HW1 6005   2.108   2.278   6.074
 1702SOL    HW2 6006   2.022   2.417   6.082
 1703SOL     OW 6007   2.314   1.866   1.134
 1703SOL    HW1 6008   2.244   1.832   1.197
 1703SOL    HW2 6009   2.401   1.875   1.182
 1704SOL     OW 6010   3.135   2.229   0.753
 1704SOL    HW1 6011   3.159   2.275   0.838
 1704SOL    HW2 6012   3.209   2.242   0.686
 1705SOL     OW 6013   4.121   2.060   0.493
 1705SOL    HW1 6014   4.103   2.148   0.536
 1705SOL    HW2 6015   4.137   1.991   0.563
 1706SOL     OW 6016   5.041   2.353   6.783
 1706SOL    HW1 6017   5.097   2.420   6.831
 1706SOL    HW2 6018   5.051   2.263   6.827
 1707SOL     OW 6019   4.663   2.099   2.731
 1707SOL    HW1 6020   4.610   2.017   2.756
 1707SOL    HW2 6021   4.730   2.075   2.661
 1708SOL     OW 6022   3.339   4.981   2.026
 1708SOL    HW1 6023   3.370   4.913   1.961
 1708SOL    HW2 6024   3.404   4.988   2.102
 1709SOL     OW 6025   4.693   5.082   0.996
 1709SOL    HW1 6026   4.724   5.016   1.065
 1709SOL    HW2 6027   4.771   5.110   0.940
 1710SOL     OW 6028   5.152   5.191   3.064
 1710SOL    HW1 6029   5.157   5.130   2.986
 1710SOL    HW2 6030   5.199   5.277   3.043
 1711SOL     OW 6031   4.154   4.578   6.760
 1711SOL    HW1 6032   4.251   4.557   6.769
 1711SOL    HW2 6033   4.116   4.601   6.849
 1712SOL     OW 6034   0.570   1.128   2.498
 1712SOL    HW1 6035   0.520   1.089   2.421
 1712SOL    HW2 6036   0.565   1.228   2.495
 1713SOL     OW 6037   4.265   0.589   3.327
 1713SOL    HW1 6038   4.310   0.623   3.244
 1713SOL    HW2 6039   4.294   0.643   3.406
 1714SOL     OW 6040   3.780   3.502   0.365
 1714SOL    HW1 6041   3.687   3.488   0.399
 1714SOL    HW2 6042   3.839   3.530   0.440
 1715SOL     OW 6043   1.994   6.894   2.566
 1715SOL    HW1 6044   1.982   6.857   2.658
 1715SOL    HW2 6045   2.089   6.918   2.551
 1716SOL     OW 6046   4.967   1.425   3.960
 1716SOL    HW1 6047   4.983   1.346   3.901
 1716SOL    HW2 6048   4.870   1.450   3.957
 1717SOL     OW 6049   3.282   6.524   5.154
 1717SOL    HW1 6050   3.342   6.448   5.131
 1717SOL    HW2 6051   3.224   6.499   5.232
 1718SOL     OW 6052   1.292   2.802   1.078
 1718SOL    HW1 6053   1.359   2.875   1.093
 1718SOL    HW2 6054   1.245   2.782   1.164
 1719SOL     OW 6055   1.320   5.511   2.661
 1719SOL    HW1 6056   1.264   5.593   2.670
 1719SOL    HW2 6057   1.310   5.454   2.743
 1720SOL     OW 6058   0.950   3.035   6.015
 1720SOL    HW1 6059   0.935   2.965   6.085
 1720SOL    HW2 6060   0.891   3.113   6.034
 1721SOL     OW 6061   1.201   1.729   0.614
 1721SOL    HW1 6062   1.118   1.721   0.559
 1721SOL    HW2 6063   1.196   1.813   0.669
 1722SOL     OW 6064   2.340   2.643   3.450
 1722SOL    HW1 6065   2.376   2.663   3.541
 1722SOL    HW2 6066   2.405   2.587   3.400
 1723SOL     OW 6067   5.591   3.634   0.577
 1723SOL    HW1 6068   5.517   3.582   0.619
 1723SOL    HW2 6069   5.660   3.655   0.646
 1724SOL     OW 6070   5.769   2.049   1.323
 1724SOL    HW1 6071   5.819   2.042   1.409
 1724SOL    HW2 6072   5.715   2.133   1.323
 1725SOL     OW 6073   1.385   6.058   6.721
 1725SOL    HW1 6074   1.305   6.063   6.662
 1725SOL    HW2 6075   1.377   6.127   6.793
 1726SOL     OW 6076   5.306   4.098   3.319
 1726SOL    HW1 6077   5.218   4.143   3.333
 1726SOL    HW2 6078   5.294   4.015   3.266
 1727SOL     OW 6079   2.968   3.843   3.251
 1727SOL    HW1 6080   2.986   3.941   3.242
 1727SOL    HW2 6081   2.986   3.798   3.164
 1728SOL     OW 6082   5.143   2.326   4.151
 1728SOL    HW1 6083   5.159   2.376   4.066
 1728SOL    HW2 6084   5.196   2.368   4.225
 1729SOL     OW 6085   1.495   2.898   2.796
 1729SOL    HW1 6086   1.492   2.843   2.879
 1729SOL    HW2 6087   1.510   2.994   2.820
 1730SOL     OW 6088   2.558   5.222   4.652
 1730SOL    HW1 6089   2.612   5.173   4.721
 1730SOL    HW2 6090   2.563   5.320   4.669
 1731SOL     OW 6091   6.255   4.712   3.619
 1731SOL    HW1 6092   6.345   4.702   3.576
 1731SOL    HW2 6093   6.227   4.808   3.614
 1732SOL     OW 6094   2.486   3.457   5.727
 1732SOL    HW1 6095   2.575   3.473   5.686
 1732SOL    HW2 6096   2.441   3.381   5.680
 1733SOL     OW 6097   2.288   3.700   6.384
 1733SOL    HW1 6098   2.237   3.657   6.459
 1733SOL    HW2 6099   2.225   3.750   6.325
 1734SOL     OW 6100   6.811   3.157   1.431
 1734SOL    HW1 6101   6.735   3.110   1.475
 1734SOL    HW2 6102   6.885   3.171   1.498
 1735SOL     OW 6103   4.075   4.782   6.185
 1735SOL    HW1 6104   4.072   4.787   6.085
 1735SOL    HW2 6105   4.022   4.702   6.215
 1736SOL     OW 6106   5.323   3.257   0.569
 1736SOL    HW1 6107   5.338   3.193   0.493
 1736SOL    HW2 6108   5.256   3.219   0.632
 1737SOL     OW 6109   4.593   1.957   5.423
 1737SOL    HW1 6110   4.676   1.931   5.472
 1737SOL    HW2 6111   4.618   1.989   5.332
 1738SOL     OW 6112   1.652   3.127   3.632
 1738SOL    HW1 6113   1.578   3.157   3.571
 1738SOL    HW2 6114   1.662   3.028   3.625
 1739SOL     OW 6115   5.674   0.507   3.528
 1739SOL    HW1 6116   5.659   0.409   3.541
 1739SOL    HW2 6117   5.646   0.556   3.611
 1740SOL     OW 6118   6.176   3.012   4.864
 1740SOL    HW1 6119   6.257   3.071   4.852
 1740SOL    HW2 6120   6.205   2.917   4.872
 1741SOL     OW 6121   0.367   1.844   4.514
 1741SOL    HW1 6122   0.349   1.747   4.530
 1741SOL    HW2 6123   0.401   1.886   4.599
 1742SOL     OW 6124   6.146   5.887   6.131
 1742SOL    HW1 6125   6.122   5.984   6.119
 1742SOL    HW2 6126   6.141   5.840   6.043
 1743SOL     OW 6127   1.703   1.283   2.475
 1743SOL    HW1 6128   1.680   1.340   2.553
 1743SOL    HW2 6129   1.776   1.220   2.500
 1744SOL     OW 6130   3.600   2.125   4.906
 1744SOL    HW1 6131   3.602   2.104   4.809
 1744SOL    HW2 6132   3.508   2.106   4.942
 1745SOL     OW 6133   6.099   6.379   0.986
 1745SOL    HW1 6134   6.106   6.297   0.930
 1745SOL    HW2 6135   6.030   6.441   0.948
 1746SOL     OW 6136   2.466   4.394   3.697
 1746SOL    HW1 6137   2.510   4.305   3.709
 1746SOL    HW2 6138   2.369   4.381   3.675
 1747SOL     OW 6139   4.598   0.005   2.606
 1747SOL    HW1 6140   4.585   6.931   2.593
 1747SOL    HW2 6141   4.536   0.056   2.546
 1748SOL     OW 6142   6.837   3.134   5.132
 1748SOL    HW1 6143   6.926   3.179   5.128
 1748SOL    HW2 6144   6.849   3.039   5.160
 1749SOL     OW 6145   0.823   4.744   1.056
 1749SOL    HW1 6146   0.752   4.795   1.106
 1749SOL    HW2 6147   0.913   4.781   1.080
 1750SOL     OW 6148   4.185   0.231   5.809
 1750SOL    HW1 6149   4.240   0.150   5.829
 1750SOL    HW2 6150   4.117   0.209   5.739
 1751SOL     OW 6151   5.967   3.372   5.134
 1751SOL    HW1 6152   5.981   3.285   5.087
 1751SOL    HW2 6153   5.993   3.447   5.073
 1752SOL     OW 6154   6.988   0.446   2.429
 1752SOL    HW1 6155   6.944   0.357   2.419
 1752SOL    HW2 6156   0.029   0.443   2.505
 1753SOL     OW 6157   6.322   1.260   2.038
 1753SOL    HW1 6158   6.334   1.212   1.951
 1753SOL    HW2 6159   6.245   1.220   2.088
 1754SOL     OW 6160   2.930   5.612   4.211
 1754SOL    HW1 6161   2.934   5.530   4.267
 1754SOL    HW2 6162   2.891   5.590   4.122
 1755SOL     OW 6163   6.171   7.009   4.693
 1755SOL    HW1 6164   6.111   6.929   4.690
 1755SOL    HW2 6165   6.250   6.990   4.751
 1756SOL     OW 6166   4.830   6.489   0.069
 1756SOL    HW1 6167   4.839   6.581   0.032
 1756SOL    HW2 6168   4.784   6.493   0.158
 1757SOL     OW 6169   2.219   5.403   5.175
 1757SOL    HW1 6170   2.257   5.319   5.214
 1757SOL    HW2 6171   2.280   5.437   5.104
 1758SOL     OW 6172   2.066   6.085   4.512
 1758SOL    HW1 6173   1.974   6.089   4.471
 1758SOL    HW2 6174   2.127   6.146   4.462
 1759SOL     OW 6175   1.589   6.573   0.314
 1759SOL    HW1 6176   1.521   6.510   0.352
 1759SOL    HW2 6177   1.650   6.522   0.253
 1760SOL     OW 6178   6.994   1.128   4.837
 1760SOL    HW1 6179   0.033   1.061   4.797
 1760SOL    HW2 6180   6.901   1.093   4.831
 1761SOL     OW 6181   5.719   1.518   2.673
 1761SOL    HW1 6182   5.759   1.447   2.615
 1761SOL    HW2 6183   5.625   1.535   2.645
 1762SOL     OW 6184   0.499   1.353   5.759
 1762SOL    HW1 6185   0.494   1.299   5.675
 1762SOL    HW2 6186   0.440   1.433   5.750
 1763SOL     OW 6187   0.378   4.001   3.776
 1763SOL    HW1 6188   0.381   4.000   3.676
 1763SOL    HW2 6189   0.388   4.096   3.808
 1764SOL     OW 6190   1.043   5.703   3.004
 1764SOL    HW1 6191   1.024   5.607   2.986
 1764SOL    HW2 6192   0.959   5.749   3.034
 1765SOL     OW 6193   5.572   3.346   2.127
 1765SOL    HW1 6194   5.622   3.429   2.151
 1765SOL    HW2 6195   5.621   3.297   2.054
 1766SOL     OW 6196   4.324   4.602   3.860
 1766SOL    HW1 6197   4.224   4.603   3.858
 1766SOL    HW2 6198   4.356   4.579   3.952
 1767SOL     OW 6199   0.229   4.703   2.489
 1767SOL    HW1 6200   0.284   4.621   2.498
 1767SOL    HW2 6201   0.287   4.784   2.502
 1768SOL     OW 6202   5.089   5.846   2.305
 1768SOL    HW1 6203   5.176   5.799   2.293
 1768SOL    HW2 6204   5.049   5.865   2.215
 1769SOL     OW 6205   6.188   0.445   0.490
 1769SOL    HW1 6206   6.187   0.520   0.423
 1769SOL    HW2 6207   6.096   0.410   0.503
 1770SOL     OW 6208   1.722   5.001   0.415
 1770SOL    HW1 6209   1.739   5.098   0.432
 1770SOL    HW2 6210   1.672   4.990   0.329
 1771SOL     OW 6211   1.869   3.012   6.000
 1771SOL    HW1 6212   1.818   3.034   5.917
 1771SOL    HW2 6213   1.819   2.943   6.053
 1772SOL     OW 6214   2.128   3.996   2.595
 1772SOL    HW1 6215   2.091   4.005   2.688
 1772SOL    HW2 6216   2.223   4.028   2.594
 1773SOL     OW 6217   1.801   6.304   6.395
 1773SOL    HW1 6218   1.736   6.375   6.368
 1773SOL    HW2 6219   1.800   6.293   6.494
 1774SOL     OW 6220   5.407   5.308   0.629
 1774SOL    HW1 6221   5.404   5.299   0.728
 1774SOL    HW2 6222   5.442   5.399   0.604
 1775SOL     OW 6223   1.846   5.584   6.648
 1775SOL    HW1 6224   1.807   5.639   6.575
 1775SOL    HW2 6225   1.785   5.584   6.727
 1776SOL     OW 6226   4.581   2.531   5.500
 1776SOL    HW1 6227   4.603   2.479   5.582
 1776SOL    HW2 6228   4.565   2.627   5.524
 1777SOL     OW 6229   5.120   6.687   6.773
 1777SOL    HW1 6230   5.201   6.692   6.715
 1777SOL    HW2 6231   5.126   6.606   6.832
 1778SOL     OW 6232   5.855   0.054   4.184
 1778SOL    HW1 6233   5.869   0.116   4.107
 1778SOL    HW2 6234   5.937   0.052   4.241
 1779SOL     OW 6235   5.429   6.987   4.217
 1779SOL    HW1 6236   5.340   6.942   4.210
 1779SOL    HW2 6237   5.416   0.059   4.241
 1780SOL     OW 6238   1.864   5.144   4.657
 1780SOL    HW1 6239   1.949   5.092   4.656
 1780SOL    HW2 6240   1.789   5.086   4.690
 1781SOL     OW 6241   4.141   0.851   4.684
 1781SOL    HW1 6242   4.044   0.878   4.685
 1781SOL    HW2 6243   4.172   0.836   4.778
 1782SOL     OW 6244   6.854   1.529   2.347
 1782SOL    HW1 6245   6.888   1.437   2.367
 1782SOL    HW2 6246   6.890   1.594   2.413
 1783SOL     OW 6247   1.886   3.958   6.213
 1783SOL    HW1 6248   1.844   3.904   6.140
 1783SOL    HW2 6249   1.844   3.933   6.301
 1784SOL     OW 6250   2.864   6.570   1.582
 1784SOL    HW1 6251   2.774   6.552   1.543
 1784SOL    HW2 6252   2.894   6.662   1.555
 1785SOL     OW 6253   1.846   6.495   4.840
 1785SOL    HW1 6254   1.755   6.535   4.854
 1785SOL    HW2 6255   1.837   6.411   4.785
 1786SOL     OW 6256   1.087   6.354   1.038
 1786SOL    HW1 6257   1.121   6.433   0.988
 1786SOL    HW2 6258   1.091   6.372   1.137
 1787SOL     OW 6259   2.788   3.070   6.457
 1787SOL    HW1 6260   2.829   3.090   6.546
 1787SOL    HW2 6261   2.705   3.126   6.445
 1788SOL     OW 6262   4.699   3.963   1.221
 1788SOL    HW1 6263   4.703   3.863   1.224
 1788SOL    HW2 6264   4.687   3.993   1.126
 1789SOL     OW 6265   6.257   3.685   1.875
 1789SOL    HW1 6266   6.298   3.614   1.933
 1789SOL    HW2 6267   6.213   3.641   1.796
 1790SOL     OW 6268   2.180   1.853   4.621
 1790SOL    HW1 6269   2.229   1.901   4.693
 1790SOL    HW2 6270   2.150   1.918   4.552
 1791SOL     OW 6271   5.037   6.940   3.523
 1791SOL    HW1 6272   5.131   6.938   3.557
 1791SOL    HW2 6273   4.979   6.882   3.581
 1792SOL     OW 6274   0.298   2.062   5.758
 1792SOL    HW1 6275   0.339   2.099   5.841
 1792SOL    HW2 6276   0.241   1.983   5.781
 1793SOL     OW 6277   0.374   0.708   5.932
 1793SOL    HW1 6278   0.325   0.741   5.852
 1793SOL    HW2 6279   0.313   0.711   6.012
 1794SOL     OW 6280   1.322   0.318   6.078
 1794SOL    HW1 6281   1.343   0.221   6.083
 1794SOL    HW2 6282   1.405   0.369   6.055
 1795SOL     OW 6283   5.745   4.603   1.170
 1795SOL    HW1 6284   5.828   4.657   1.181
 1795SOL    HW2 6285   5.766   4.506   1.178
 1796SOL     OW 6286   0.548   0.509   6.534
 1796SOL    HW1 6287   0.572   0.428   6.480
 1796SOL    HW2 6288   0.629   0.566   6.547
 1797SOL     OW 6289   1.840   5.109   5.472
 1797SOL    HW1 6290   1.841   5.192   5.528
 1797SOL    HW2 6291   1.933   5.075   5.461
 1798SOL     OW 6292   2.550   3.803   5.320
 1798SOL    HW1 6293   2.498   3.872   5.271
 1798SOL    HW2 6294   2.545   3.822   5.419
 1799SOL     OW 6295   3.261   1.381   0.959
 1799SOL    HW1 6296   3.275   1.329   0.875
 1799SOL    HW2 6297   3.334   1.449   0.968
 1800SOL     OW 6298   5.707   3.450   5.291
 1800SOL    HW1 6299   5.797   3.407   5.289
 1800SOL    HW2 6300   5.641   3.390   5.246
 1801SOL     OW 6301   0.955   0.576   3.195
 1801SOL    HW1 6302   0.901   0.526   3.128
 1801SOL    HW2 6303   0.975   0.517   3.273
 1802SOL     OW 6304   7.005   5.088   3.990
 1802SOL    HW1 6305   0.037   5.127   4.063
 1802SOL    HW2 6306   6.915   5.062   4.027
 1803SOL     OW 6307   0.420   0.084   3.583
 1803SOL    HW1 6308   0.417   0.040   3.673
 1803SOL    HW2 6309   0.467   0.172   3.590
 1804SOL     OW 6310   2.403   3.335   6.018
 1804SOL    HW1 6311   2.414   3.361   6.113
 1804SOL    HW2 6312   2.492   3.320   5.976
 1805SOL     OW 6313   6.700   5.605   0.737
 1805SOL    HW1 6314   6.668   5.525   0.788
 1805SOL    HW2 6315   6.627   5.673   0.732
 1806SOL     OW 6316   0.248   1.583   1.497
 1806SOL    HW1 6317   0.157   1.571   1.538
 1806SOL    HW2 6318   0.315   1.601   1.569
 1807SOL     OW 6319   0.092   2.369   2.839
 1807SOL    HW1 6320   0.083   2.460   2.797
 1807SOL    HW2 6321   0.082   2.377   2.938
 1808SOL     OW 6322   5.186   1.870   6.214
 1808SOL    HW1 6323   5.152   1.933   6.283
 1808SOL    HW2 6324   5.276   1.901   6.182
 1809SOL     OW 6325   4.804   0.245   5.010
 1809SOL    HW1 6326   4.777   0.178   4.941
 1809SOL    HW2 6327   4.723   0.277   5.059
 1810SOL     OW 6328   1.138   0.873   4.568
 1810SOL    HW1 6329   1.074   0.814   4.520
 1810SOL    HW2 6330   1.177   0.824   4.646
 1811SOL     OW 6331   3.743   5.539   1.771
 1811SOL    HW1 6332   3.765   5.635   1.791
 1811SOL    HW2 6333   3.685   5.502   1.844
 1812SOL     OW 6334   4.702   6.673   6.453
 1812SOL    HW1 6335   4.712   6.582   6.494
 1812SOL    HW2 6336   4.773   6.734   6.489
 1813SOL     OW 6337   4.768   4.739   2.159
 1813SOL    HW1 6338   4.751   4.692   2.073
 1813SOL    HW2 6339   4.852   4.704   2.201
 1814SOL     OW 6340   6.722   6.154   0.282
 1814SOL    HW1 6341   6.626   6.154   0.255
 1814SOL    HW2 6342   6.776   6.106   0.212
 1815SOL     OW 6343   5.090   6.367   1.180
 1815SOL    HW1 6344   5.143   6.363   1.095
 1815SOL    HW2 6345   4.995   6.343   1.161
 1816SOL     OW 6346   3.911   4.914   5.328
 1816SOL    HW1 6347   3.842   4.895   5.258
 1816SOL    HW2 6348   3.871   4.970   5.400
 1817SOL     OW 6349   0.073   2.173   4.202
 1817SOL    HW1 6350   0.126   2.215   4.276
 1817SOL    HW2 6351   0.082   2.228   4.119
 1818SOL     OW 6352   2.441   0.909   0.487
 1818SOL    HW1 6353   2.492   0.981   0.440
 1818SOL    HW2 6354   2.505   0.845   0.530
 1819SOL     OW 6355   1.492   4.506   2.488
 1819SOL    HW1 6356   1.514   4.416   2.525
 1819SOL    HW2 6357   1.435   4.496   2.407
 1820SOL     OW 6358   3.013   0.268   5.053
 1820SOL    HW1 6359   3.077   0.211   5.105
 1820SOL    HW2 6360   2.942   0.210   5.012
 1821SOL     OW 6361   3.621   1.939   2.490
 1821SOL    HW1 6362   3.536   1.985   2.516
 1821SOL    HW2 6363   3.648   1.968   2.398
 1822SOL     OW 6364   6.778   3.161   3.102
 1822SOL    HW1 6365   6.752   3.150   3.198
 1822SOL    HW2 6366   6.877   3.160   3.094
 1823SOL     OW 6367   4.275   6.505   1.744
 1823SOL    HW1 6368   4.324   6.431   1.790
 1823SOL    HW2 6369   4.318   6.593   1.766
 1824SOL     OW 6370   4.236   3.069   1.696
 1824SOL    HW1 6371   4.333   3.050   1.683
 1824SOL    HW2 6372   4.221   3.168   1.692
 1825SOL     OW 6373   1.280   2.221   5.197
 1825SOL    HW1 6374   1.347   2.162   5.153
 1825SOL    HW2 6375   1.217   2.258   5.129
 1826SOL     OW 6376   3.600   2.082   1.718
 1826SOL    HW1 6377   3.536   2.118   1.650
 1826SOL    HW2 6378   3.621   2.153   1.785
 1827SOL     OW 6379   5.581   5.913   0.970
 1827SOL    HW1 6380   5.654   5.923   1.038
 1827SOL    HW2 6381   5.543   5.820   0.976
 1828SOL     OW 6382   1.591   3.587   5.180
 1828SOL    HW1 6383   1.511   3.611   5.124
 1828SOL    HW2 6384   1.669   3.643   5.152
 1829SOL     OW 6385   3.689   0.597   2.405
 1829SOL    HW1 6386   3.626   0.542   2.458
 1829SOL    HW2 6387   3.779   0.552   2.401
 1830SOL     OW 6388   5.339   0.730   5.726
 1830SOL    HW1 6389   5.399   0.674   5.783
 1830SOL    HW2 6390   5.377   0.738   5.634
 1831SOL     OW 6391   3.334   4.956   0.534
 1831SOL    HW1 6392   3.261   4.980   0.599
 1831SOL    HW2 6393   3.302   4.883   0.474
 1832SOL     OW 6394   2.611   2.663   0.376
 1832SOL    HW1 6395   2.548   2.722   0.425
 1832SOL    HW2 6396   2.699   2.709   0.366
 1833SOL     OW 6397   5.792   1.668   6.789
 1833SOL    HW1 6398   5.785   1.707   6.881
 1833SOL    HW2 6399   5.798   1.569   6.795
 1834SOL     OW 6400   0.586   2.697   5.442
 1834SOL    HW1 6401   0.606   2.615   5.495
 1834SOL    HW2 6402   0.613   2.683   5.347
 1835SOL     OW 6403   6.896   6.648   1.613
 1835SOL    HW1 6404   6.814   6.614   1.660
 1835SOL    HW2 6405   6.976   6.598   1.646
 1836SOL     OW 6406   5.172   2.655   2.528
 1836SOL    HW1 6407   5.189   2.635   2.431
 1836SOL    HW2 6408   5.081   2.621   2.553
 1837SOL     OW 6409   2.623   2.017   6.252
 1837SOL    HW1 6410   2.635   2.094   6.315
 1837SOL    HW2 6411   2.525   2.003   6.235
 1838SOL     OW 6412   5.383   1.044   0.888
 1838SOL    HW1 6413   5.304   1.036   0.950
 1838SOL    HW2 6414   5.413   1.139   0.884
 1839SOL     OW 6415   0.338   0.569   0.575
 1839SOL    HW1 6416   0.410   0.615   0.523
 1839SOL    HW2 6417   0.349   0.470   0.568
 1840SOL     OW 6418   4.285   6.273   3.422
 1840SOL    HW1 6419   4.251   6.365   3.442
 1840SOL    HW2 6420   4.379   6.264   3.455
 1841SOL     OW 6421   1.406   1.188   2.043
 1841SOL    HW1 6422   1.498   1.151   2.052
 1841SOL    HW2 6423   1.340   1.120   2.076
 1842SOL     OW 6424   1.160   5.454   1.083
 1842SOL    HW1 6425   1.091   5.519   1.114
 1842SOL    HW2 6426   1.194   5.481   0.993
 1843SOL     OW 6427   2.512   0.731   5.948
 1843SOL    HW1 6428   2.532   0.785   6.030
 1843SOL    HW2 6429   2.413   0.717   5.940
 1844SOL     OW 6430   6.035   2.762   6.228
 1844SOL    HW1 6431   6.089   2.813   6.160
 1844SOL    HW2 6432   6.019   2.669   6.194
 1845SOL     OW 6433   1.037   2.206   2.768
 1845SOL    HW1 6434   1.067   2.296   2.737
 1845SOL    HW2 6435   1.047   2.200   2.867
 1846SOL     OW 6436   3.099   1.143   1.551
 1846SOL    HW1 6437   3.096   1.234   1.511
 1846SOL    HW2 6438   3.124   1.076   1.481
 1847SOL     OW 6439   1.802   5.791   5.504
 1847SOL    HW1 6440   1.854   5.770   5.421
 1847SOL    HW2 6441   1.716   5.836   5.479
 1848SOL     OW 6442   3.682   6.635   3.349
 1848SOL    HW1 6443   3.701   6.545   3.390
 1848SOL    HW2 6444   3.669   6.625   3.251
 1849SOL     OW 6445   4.689   2.713   2.412
 1849SOL    HW1 6446   4.724   2.756   2.495
 1849SOL    HW2 6447   4.700   2.775   2.334
 1850SOL     OW 6448   4.299   1.717   0.665
 1850SOL    HW1 6449   4.291   1.698   0.567
 1850SOL    HW2 6450   4.364   1.654   0.706
 1851SOL     OW 6451   0.184   4.476   4.937
 1851SOL    HW1 6452   0.225   4.541   5.002
 1851SOL    HW2 6453   0.256   4.437   4.879
 1852SOL     OW 6454   0.578   0.151   2.745
 1852SOL    HW1 6455   0.618   0.225   2.692
 1852SOL    HW2 6456   0.565   0.071   2.686
 1853SOL     OW 6457   0.356   2.393   5.770
 1853SOL    HW1 6458   0.331   2.385   5.867
 1853SOL    HW2 6459   0.433   2.333   5.750
 1854SOL     OW 6460   0.767   6.680   3.704
 1854SOL    HW1 6461   0.718   6.595   3.688
 1854SOL    HW2 6462   0.865   6.664   3.696
 1855SOL     OW 6463   5.487   3.194   4.583
 1855SOL    HW1 6464   5.400   3.200   4.534
 1855SOL    HW2 6465   5.542   3.275   4.562
 1856SOL     OW 6466   3.901   2.955   0.330
 1856SOL    HW1 6467   3.961   2.987   0.404
 1856SOL    HW2 6468   3.810   2.934   0.367
 1857SOL     OW 6469   3.645   1.168   6.693
 1857SOL    HW1 6470   3.637   1.078   6.736
 1857SOL    HW2 6471   3.730   1.172   6.641
 1858SOL     OW 6472   4.918   2.557   4.226
 1858SOL    HW1 6473   4.818   2.563   4.227
 1858SOL    HW2 6474   4.950   2.530   4.317
 1859SOL     OW 6475   6.635   1.696   4.119
 1859SOL    HW1 6476   6.674   1.739   4.037
 1859SOL    HW2 6477   6.693   1.715   4.198
 1860SOL     OW 6478   2.108   0.944   6.064
 1860SOL    HW1 6479   2.068   0.977   5.978
 1860SOL    HW2 6480   2.150   1.020   6.113
 1861SOL     OW 6481   6.781   6.685   4.032
 1861SOL    HW1 6482   6.872   6.686   3.991
 1861SOL    HW2 6483   6.789   6.686   4.131
 1862SOL     OW 6484   2.983   5.599   5.436
 1862SOL    HW1 6485   2.972   5.689   5.394
 1862SOL    HW2 6486   2.894   5.552   5.438
 1863SOL     OW 6487   0.021   2.716   0.843
 1863SOL    HW1 6488   0.079   2.653   0.792
 1863SOL    HW2 6489   7.023   2.795   0.786
 1864SOL     OW 6490   4.009   5.402   2.286
 1864SOL    HW1 6491   3.958   5.377   2.204
 1864SOL    HW2 6492   3.975   5.348   2.364
 1865SOL     OW 6493   6.131   2.116   5.650
 1865SOL    HW1 6494   6.093   2.123   5.558
 1865SOL    HW2 6495   6.111   2.200   5.701
 1866SOL     OW 6496   0.300   5.173   3.402
 1866SOL    HW1 6497   0.206   5.162   3.370
 1866SOL    HW2 6498   0.357   5.100   3.364
 1867SOL     OW 6499   0.708   2.600   1.252
 1867SOL    HW1 6500   0.724   2.698   1.244
 1867SOL    HW2 6501   0.616   2.584   1.287
 1868SOL     OW 6502   5.605   3.328   6.779
 1868SOL    HW1 6503   5.605   3.394   6.704
 1868SOL    HW2 6504   5.690   3.337   6.831
 1869SOL     OW 6505   4.766   1.124   4.396
 1869SOL    HW1 6506   4.669   1.126   4.370
 1869SOL    HW2 6507   4.819   1.181   4.334
 1870SOL     OW 6508   6.264   6.570   5.213
 1870SOL    HW1 6509   6.304   6.488   5.173
 1870SOL    HW2 6510   6.169   6.551   5.239
 1871SOL     OW 6511   0.150   6.638   0.079
 1871SOL    HW1 6512   0.065   6.613   0.125
 1871SOL    HW2 6513   0.209   6.557   0.072
 1872SOL     OW 6514   2.990   2.816   1.694
 1872SOL    HW1 6515   3.056   2.789   1.763
 1872SOL    HW2 6516   2.981   2.916   1.693
 1873SOL     OW 6517   6.604   1.150   0.585
 1873SOL    HW1 6518   6.621   1.112   0.676
 1873SOL    HW2 6519   6.527   1.214   0.590
 1874SOL     OW 6520   0.531   5.456   0.821
 1874SOL    HW1 6521   0.512   5.362   0.850
 1874SOL    HW2 6522   0.575   5.454   0.731
 1875SOL     OW 6523   6.963   5.459   1.842
 1875SOL    HW1 6524   6.942   5.361   1.839
 1875SOL    HW2 6525   0.017   5.477   1.782
 1876SOL     OW 6526   0.471   5.438   1.292
 1876SOL    HW1 6527   0.389   5.483   1.329
 1876SOL    HW2 6528   0.505   5.372   1.359
 1877SOL     OW 6529   0.972   1.515   2.379
 1877SOL    HW1 6530   0.919   1.472   2.306
 1877SOL    HW2 6531   0.935   1.485   2.468
 1878SOL     OW 6532   5.451   4.176   3.995
 1878SOL    HW1 6533   5.496   4.160   3.907
 1878SOL    HW2 6534   5.445   4.090   4.045
 1879SOL     OW 6535   4.438   6.072   4.513
 1879SOL    HW1 6536   4.371   6.009   4.554
 1879SOL    HW2 6537   4.428   6.070   4.413
 1880SOL     OW 6538   0.099   1.536   4.045
 1880SOL    HW1 6539   0.080   1.584   4.131
 1880SOL    HW2 6540   0.198   1.527   4.033
 1881SOL     OW 6541   2.024   1.713   4.123
 1881SOL    HW1 6542   1.948   1.714   4.188
 1881SOL    HW2 6543   1.998   1.660   4.042
 1882SOL     OW 6544   1.393   5.356   0.226
 1882SOL    HW1 6545   1.358   5.276   0.177
 1882SOL    HW2 6546   1.476   5.332   0.276
 1883SOL     OW 6547   1.719   2.364   3.067
 1883SOL    HW1 6548   1.665   2.286   3.098
 1883SOL    HW2 6549   1.660   2.443   3.054
 1884SOL     OW 6550   4.057   1.006   0.133
 1884SOL    HW1 6551   3.988   0.944   0.096
 1884SOL    HW2 6552   4.102   1.055   0.058
 1885SOL     OW 6553   0.044   1.690   0.597
 1885SOL    HW1 6554   0.019   1.621   0.528
 1885SOL    HW2 6555   0.125   1.739   0.567
 1886SOL     OW 6556   3.318   2.304   6.338
 1886SOL    HW1 6557   3.275   2.238   6.400
 1886SOL    HW2 6558   3.331   2.261   6.248
 1887SOL     OW 6559   0.820   6.751   5.037
 1887SOL    HW1 6560   0.744   6.720   4.980
 1887SOL    HW2 6561   0.837   6.684   5.109
 1888SOL     OW 6562   1.710   2.167   5.364
 1888SOL    HW1 6563   1.653   2.090   5.333
 1888SOL    HW2 6564   1.721   2.163   5.463
 1889SOL     OW 6565   3.331   2.830   6.934
 1889SOL    HW1 6566   3.231   2.831   6.926
 1889SOL    HW2 6567   3.365   2.923   6.924
 1890SOL     OW 6568   6.537   5.868   6.987
 1890SOL    HW1 6569   6.486   5.807   6.927
 1890SOL    HW2 6570   6.587   5.814   0.031
 1891SOL     OW 6571   5.392   3.881   6.590
 1891SOL    HW1 6572   5.380   3.926   6.501
 1891SOL    HW2 6573   5.474   3.917   6.635
 1892SOL     OW 6574   4.007   0.230   1.808
 1892SOL    HW1 6575   4.013   0.325   1.840
 1892SOL    HW2 6576   3.967   0.173   1.881
 1893SOL     OW 6577   3.079   1.717   5.187
 1893SOL    HW1 6578   3.016   1.793   5.171
 1893SOL    HW2 6579   3.028   1.637   5.216
 1894SOL     OW 6580   4.624   3.525   0.743
 1894SOL    HW1 6581   4.556   3.586   0.783
 1894SOL    HW2 6582   4.662   3.568   0.661
 1895SOL     OW 6583   4.262   0.276   3.813
 1895SOL    HW1 6584   4.359   0.283   3.835
 1895SOL    HW2 6585   4.233   0.360   3.767
 1896SOL     OW 6586   6.153   2.139   6.157
 1896SOL    HW1 6587   6.114   2.204   6.222
 1896SOL    HW2 6588   6.081   2.078   6.124
 1897SOL     OW 6589   5.432   5.368   3.422
 1897SOL    HW1 6590   5.483   5.296   3.374
 1897SOL    HW2 6591   5.334   5.348   3.417
 1898SOL     OW 6592   5.772   6.847   6.929
 1898SOL    HW1 6593   5.688   6.848   6.876
 1898SOL    HW2 6594   5.797   6.752   6.950
 1899SOL     OW 6595   1.333   2.105   2.844
 1899SOL    HW1 6596   1.412   2.075   2.898
 1899SOL    HW2 6597   1.257   2.125   2.906
 1900SOL     OW 6598   2.521   5.954   1.377
 1900SOL    HW1 6599   2.608   5.960   1.328
 1900SOL    HW2 6600   2.533   5.986   1.470
 1901SOL     OW 6601   1.340   1.503   6.328
 1901SOL    HW1 6602   1.293   1.544   6.250
 1901SOL    HW2 6603   1.359   1.573   6.396
 1902SOL     OW 6604   2.069   2.426   5.240
 1902SOL    HW1 6605   2.048   2.329   5.253
 1902SOL    HW2 6606   2.144   2.435   5.175
 1903SOL     OW 6607   6.531   4.321   3.990
 1903SOL    HW1 6608   6.617   4.372   3.984
 1903SOL    HW2 6609   6.460   4.369   3.938
 1904SOL     OW 6610   0.693   0.704   4.502
 1904SOL    HW1 6611   0.728   0.669   4.416
 1904SOL    HW2 6612   0.747   0.783   4.530
 1905SOL     OW 6613   6.314   3.424   4.476
 1905SOL    HW1 6614   6.316   3.514   4.520
 1905SOL    HW2 6615   6.407   3.396   4.453
 1906SOL     OW 6616   2.760   6.231   7.015
 1906SOL    HW1 6617   2.717   6.154   0.039
 1906SOL    HW2 6618   2.791   6.299   0.057
 1907SOL     OW 6619   3.857   6.346   3.309
 1907SOL    HW1 6620   3.944   6.299   3.291
 1907SOL    HW2 6621   3.810   6.364   3.223
 1908SOL     OW 6622   4.936   0.407   6.729
 1908SOL    HW1 6623   4.874   0.337   6.693
 1908SOL    HW2 6624   4.882   0.482   6.768
 1909SOL     OW 6625   4.133   5.045   4.450
 1909SOL    HW1 6626   4.221   5.091   4.459
 1909SOL    HW2 6627   4.062   5.113   4.429
 1910SOL     OW 6628   5.127   2.749   4.833
 1910SOL    HW1 6629   5.207   2.736   4.776
 1910SOL    HW2 6630   5.056   2.684   4.806
 1911SOL     OW 6631   6.956   3.668   6.146
 1911SOL    HW1 6632   6.977   3.762   6.122
 1911SOL    HW2 6633   6.995   3.606   6.077
 1912SOL     OW 6634   2.603   6.316   3.184
 1912SOL    HW1 6635   2.669   6.268   3.126
 1912SOL    HW2 6636   2.649   6.349   3.267
 1913SOL     OW 6637   1.510   4.314   5.404
 1913SOL    HW1 6638   1.476   4.390   5.348
 1913SOL    HW2 6639   1.496   4.337   5.501
 1914SOL     OW 6640   4.635   1.221   5.362
 1914SOL    HW1 6641   4.686   1.200   5.446
 1914SOL    HW2 6642   4.590   1.310   5.372
 1915SOL     OW 6643   3.513   0.468   5.347
 1915SOL    HW1 6644   3.566   0.516   5.278
 1915SOL    HW2 6645   3.416   0.491   5.337
 1916SOL     OW 6646   3.957   6.403   1.483
 1916SOL    HW1 6647   3.928   6.480   1.426
 1916SOL    HW2 6648   4.049   6.375   1.457
 1917SOL     OW 6649   3.473   2.957   4.063
 1917SOL    HW1 6650   3.396   2.919   4.012
 1917SOL    HW2 6651   3.549   2.974   4.000
 1918SOL     OW 6652   5.855   6.300   4.605
 1918SOL    HW1 6653   5.899   6.257   4.526
 1918SOL    HW2 6654   5.762   6.329   4.580
 1919SOL     OW 6655   6.641   6.897   2.141
 1919SOL    HW1 6656   6.730   6.913   2.182
 1919SOL    HW2 6657   6.617   6.973   2.081
 1920SOL     OW 6658   6.922   6.104   4.282
 1920SOL    HW1 6659   6.956   6.154   4.203
 1920SOL    HW2 6660   6.829   6.071   4.263
 1921SOL     OW 6661   0.854   0.054   6.244
 1921SOL    HW1 6662   0.859   0.137   6.190
 1921SOL    HW2 6663   0.785   7.017   6.206
 1922SOL     OW 6664   3.538   4.425   1.288
 1922SOL    HW1 6665   3.450   4.448   1.329
 1922SOL    HW2 6666   3.523   4.379   1.201
 1923SOL     OW 6667   2.047   2.784   0.930
 1923SOL    HW1 6668   2.126   2.724   0.921
 1923SOL    HW2 6669   1.973   2.751   0.873
 1924SOL     OW 6670   1.066   3.637   2.007
 1924SOL    HW1 6671   0.996   3.569   1.988
 1924SOL    HW2 6672   1.092   3.631   2.104
 1925SOL     OW 6673   3.389   4.287   0.313
 1925SOL    HW1 6674   3.411   4.227   0.390
 1925SOL    HW2 6675   3.376   4.232   0.231
 1926SOL     OW 6676   1.107   0.567   3.645
 1926SOL    HW1 6677   1.167   0.617   3.582
 1926SOL    HW2 6678   1.157   0.492   3.687
 1927SOL     OW 6679   3.850   3.788   0.319
 1927SOL    HW1 6680   3.812   3.697   0.307
 1927SOL    HW2 6681   3.884   3.798   0.412
 1928SOL     OW 6682   6.818   5.119   5.271
 1928SOL    HW1 6683   6.857   5.027   5.277
 1928SOL    HW2 6684   6.743   5.128   5.336
 1929SOL     OW 6685   1.523   6.970   3.407
 1929SOL    HW1 6686   1.619   6.984   3.384
 1929SOL    HW2 6687   1.478   6.920   3.333
 1930SOL     OW 6688   6.458   4.997   6.805
 1930SOL    HW1 6689   6.516   4.968   6.881
 1930SOL    HW2 6690   6.509   4.991   6.720
 1931SOL     OW 6691   0.723   2.268   5.047
 1931SOL    HW1 6692   0.661   2.318   4.987
 1931SOL    HW2 6693   0.804   2.240   4.996
 1932SOL     OW 6694   5.305   3.105   2.669
 1932SOL    HW1 6695   5.335   3.157   2.749
 1932SOL    HW2 6696   5.384   3.067   2.622
 1933SOL     OW 6697   2.771   4.566   1.240
 1933SOL    HW1 6698   2.691   4.616   1.272
 1933SOL    HW2 6699   2.781   4.482   1.293
 1934SOL     OW 6700   0.291   6.303   4.510
 1934SOL    HW1 6701   0.364   6.253   4.464
 1934SOL    HW2 6702   0.298   6.288   4.608
 1935SOL     OW 6703   2.529   0.841   4.273
 1935SOL    HW1 6704   2.456   0.870   4.212
 1935SOL    HW2 6705   2.615   0.837   4.223
 1936SOL     OW 6706   6.392   5.791   5.707
 1936SOL    HW1 6707   6.425   5.721   5.644
 1936SOL    HW2 6708   6.420   5.768   5.800
 1937SOL     OW 6709   4.276   6.965   2.592
 1937SOL    HW1 6710   4.185   6.956   2.633
 1937SOL    HW2 6711   4.295   0.037   2.573
 1938SOL     OW 6712   5.347   0.312   3.739
 1938SOL    HW1 6713   5.417   0.308   3.667
 1938SOL    HW2 6714   5.281   0.383   3.717
 1939SOL     OW 6715   2.239   0.350   3.255
 1939SOL    HW1 6716   2.177   0.288   3.303
 1939SOL    HW2 6717   2.326   0.305   3.238
 1940SOL     OW 6718   6.812   5.403   0.376
 1940SOL    HW1 6719   6.878   5.401   0.451
 1940SOL    HW2 6720   6.740   5.336   0.394
 1941SOL     OW 6721   5.091   5.047   3.279
 1941SOL    HW1 6722   5.157   5.063   3.352
 1941SOL    HW2 6723   5.118   5.098   3.197
 1942SOL     OW 6724   6.419   5.589   3.154
 1942SOL    HW1 6725   6.358   5.619   3.227
 1942SOL    HW2 6726   6.456   5.670   3.107
 1943SOL     OW 6727   3.488   5.267   2.852
 1943SOL    HW1 6728   3.528   5.254   2.761
 1943SOL    HW2 6729   3.423   5.193   2.871
 1944SOL     OW 6730   6.835   1.226   2.120
 1944SOL    HW1 6731   6.827   1.126   2.115
 1944SOL    HW2 6732   6.744   1.267   2.112
 1945SOL     OW 6733   3.010   4.982   3.960
 1945SOL    HW1 6734   2.990   5.072   4.000
 1945SOL    HW2 6735   2.925   4.935   3.938
 1946SOL     OW 6736   1.782   0.184   0.200
 1946SOL    HW1 6737   1.854   0.129   0.242
 1946SOL    HW2 6738   1.822   0.262   0.153
 1947SOL     OW 6739   5.435   6.636   4.266
 1947SOL    HW1 6740   5.472   6.548   4.298
 1947SOL    HW2 6741   5.493   6.710   4.300
 1948SOL     OW 6742   6.279   3.891   5.673
 1948SOL    HW1 6743   6.232   3.862   5.756
 1948SOL    HW2 6744   6.214   3.936   5.611
 1949SOL     OW 6745   5.550   4.101   6.703
 1949SOL    HW1 6746   5.622   4.091   6.772
 1949SOL    HW2 6747   5.461   4.096   6.748
 1950SOL     OW 6748   2.938   3.765   0.833
 1950SOL    HW1 6749   2.990   3.801   0.910
 1950SOL    HW2 6750   2.983   3.790   0.747
 1951SOL     OW 6751   0.029   2.245   6.828
 1951SOL    HW1 6752   6.991   2.235   6.750
 1951SOL    HW2 6753   0.022   2.163   6.886
 1952SOL     OW 6754   4.187   2.005   5.340
 1952SOL    HW1 6755   4.178   2.090   5.288
 1952SOL    HW2 6756   4.124   2.008   5.418
 1953SOL     OW 6757   0.395   3.394   5.607
 1953SOL    HW1 6758   0.453   3.436   5.678
 1953SOL    HW2 6759   0.448   3.324   5.558
 1954SOL     OW 6760   2.543   2.095   3.403
 1954SOL    HW1 6761   2.608   2.122   3.332
 1954SOL    HW2 6762   2.592   2.055   3.480
 1955SOL     OW 6763   6.350   5.827   2.405
 1955SOL    HW1 6764   6.384   5.760   2.471
 1955SOL    HW2 6765   6.379   5.919   2.433
 1956SOL     OW 6766   5.742   6.548   2.225
 1956SOL    HW1 6767   5.688   6.472   2.261
 1956SOL    HW2 6768   5.834   6.546   2.265
 1957SOL     OW 6769   0.631   6.928   5.286
 1957SOL    HW1 6770   0.600   7.021   5.269
 1957SOL    HW2 6771   0.630   6.877   5.199
 1958SOL     OW 6772   4.867   3.236   5.854
 1958SOL    HW1 6773   4.841   3.303   5.924
 1958SOL    HW2 6774   4.935   3.276   5.793
 1959SOL     OW 6775   1.362   2.162   6.644
 1959SOL    HW1 6776   1.284   2.154   6.582
 1959SOL    HW2 6777   1.422   2.235   6.613
 1960SOL     OW 6778   5.070   6.384   1.662
 1960SOL    HW1 6779   5.095   6.474   1.626
 1960SOL    HW2 6780   5.037   6.394   1.756
 1961SOL     OW 6781   6.090   5.328   3.816
 1961SOL    HW1 6782   6.070   5.233   3.792
 1961SOL    HW2 6783   6.009   5.384   3.798
 1962SOL     OW 6784   0.362   6.591   3.235
 1962SOL    HW1 6785   0.399   6.596   3.328
 1962SOL    HW2 6786   0.275   6.640   3.232
 1963SOL     OW 6787   1.625   0.040   2.889
 1963SOL    HW1 6788   1.701   0.026   2.953
 1963SOL    HW2 6789   1.653   0.013   2.797
 1964SOL     OW 6790   5.600   3.616   2.875
 1964SOL    HW1 6791   5.538   3.607   2.954
 1964SOL    HW2 6792   5.579   3.544   2.808
 1965SOL     OW 6793   2.186   5.227   3.411
 1965SOL    HW1 6794   2.231   5.169   3.479
 1965SOL    HW2 6795   2.196   5.323   3.437
 1966SOL     OW 6796   6.235   5.576   5.359
 1966SOL    HW1 6797   6.190   5.495   5.322
 1966SOL    HW2 6798   6.332   5.556   5.375
 1967SOL     OW 6799   4.540   2.220   4.708
 1967SOL    HW1 6800   4.574   2.308   4.674
 1967SOL    HW2 6801   4.455   2.236   4.758
 1968SOL     OW 6802   3.172   5.212   5.885
 1968SOL    HW1 6803   3.136   5.134   5.934
 1968SOL    HW2 6804   3.122   5.294   5.910
 1969SOL     OW 6805   6.214   2.567   1.399
 1969SOL    HW1 6806   6.257   2.588   1.311
 1969SOL    HW2 6807   6.126   2.522   1.382
 1970SOL     OW 6808   1.950   6.873   3.554
 1970SOL    HW1 6809   2.024   6.895   3.617
 1970SOL    HW2 6810   1.922   6.778   3.567
 1971SOL     OW 6811   0.571   6.345   6.394
 1971SOL    HW1 6812   0.656   6.361   6.443
 1971SOL    HW2 6813   0.589   6.341   6.296
 1972SOL     OW 6814   0.819   4.819   3.919
 1972SOL    HW1 6815   0.887   4.746   3.923
 1972SOL    HW2 6816   0.857   4.896   3.866
 1973SOL     OW 6817   2.670   3.356   0.446
 1973SOL    HW1 6818   2.593   3.413   0.476
 1973SOL    HW2 6819   2.649   3.315   0.357
 1974SOL     OW 6820   5.724   0.876   4.349
 1974SOL    HW1 6821   5.719   0.970   4.314
 1974SOL    HW2 6822   5.673   0.815   4.289
 1975SOL     OW 6823   3.323   0.851   3.539
 1975SOL    HW1 6824   3.343   0.920   3.609
 1975SOL    HW2 6825   3.345   0.760   3.574
 1976SOL     OW 6826   6.755   4.860   0.162
 1976SOL    HW1 6827   6.810   4.776   0.159
 1976SOL    HW2 6828   6.669   4.845   0.113
 1977SOL     OW 6829   2.048   2.792   5.002
 1977SOL    HW1 6830   2.059   2.746   5.090
 1977SOL    HW2 6831   2.009   2.883   5.017
 1978SOL     OW 6832   6.836   1.547   4.759
 1978SOL    HW1 6833   6.813   1.450   4.750
 1978SOL    HW2 6834   6.850   1.569   4.856
 1979SOL     OW 6835   5.937   5.382   3.366
 1979SOL    HW1 6836   5.923   5.292   3.407
 1979SOL    HW2 6837   5.850   5.431   3.362
 1980SOL     OW 6838   3.999   0.409   1.374
 1980SOL    HW1 6839   3.979   0.344   1.301
 1980SOL    HW2 6840   3.935   0.486   1.369
 1981SOL     OW 6841   4.716   3.188   1.675
 1981SOL    HW1 6842   4.655   3.121   1.715
 1981SOL    HW2 6843   4.672   3.278   1.674
 1982SOL     OW 6844   5.491   6.707   4.720
 1982SOL    HW1 6845   5.432   6.782   4.750
 1982SOL    HW2 6846   5.569   6.698   4.782
 1983SOL     OW 6847   0.859   3.517   3.226
 1983SOL    HW1 6848   0.813   3.598   3.192
 1983SOL    HW2 6849   0.958   3.531   3.223
 1984SOL     OW 6850   4.264   0.321   6.224
 1984SOL    HW1 6851   4.346   0.379   6.227
 1984SOL    HW2 6852   4.279   0.240   6.280
 1985SOL     OW 6853   1.286   0.321   1.400
 1985SOL    HW1 6854   1.292   0.352   1.495
 1985SOL    HW2 6855   1.206   0.364   1.357
 1986SOL     OW 6856   1.240   1.730   6.120
 1986SOL    HW1 6857   1.204   1.731   6.026
 1986SOL    HW2 6858   1.335   1.762   6.120
 1987SOL     OW 6859   2.953   3.185   6.672
 1987SOL    HW1 6860   3.021   3.185   6.598
 1987SOL    HW2 6861   2.983   3.123   6.744
 1988SOL     OW 6862   4.739   3.000   0.941
 1988SOL    HW1 6863   4.662   2.940   0.961
 1988SOL    HW2 6864   4.734   3.081   0.999
 1989SOL     OW 6865   2.880   0.432   4.252
 1989SOL    HW1 6866   2.862   0.372   4.330
 1989SOL    HW2 6867   2.946   0.502   4.278
 1990SOL     OW 6868   2.646   1.188   2.187
 1990SOL    HW1 6869   2.581   1.157   2.257
 1990SOL    HW2 6870   2.667   1.113   2.125
 1991SOL     OW 6871   3.827   5.446   4.641
 1991SOL    HW1 6872   3.778   5.456   4.554
 1991SOL    HW2 6873   3.896   5.518   4.649
 1992SOL     OW 6874   2.319   6.467   5.389
 1992SOL    HW1 6875   2.337   6.565   5.389
 1992SOL    HW2 6876   2.321   6.433   5.295
 1993SOL     OW 6877   3.819   3.523   5.158
 1993SOL    HW1 6878   3.887   3.521   5.232
 1993SOL    HW2 6879   3.864   3.500   5.071
 1994SOL     OW 6880   5.886   2.418   1.985
 1994SOL    HW1 6881   5.937   2.378   1.909
 1994SOL    HW2 6882   5.804   2.363   2.003
 1995SOL     OW 6883   5.259   2.527   1.507
 1995SOL    HW1 6884   5.359   2.535   1.500
 1995SOL    HW2 6885   5.235   2.487   1.596
 1996SOL     OW 6886   3.025   4.427   6.945
 1996SOL    HW1 6887   3.110   4.479   6.939
 1996SOL    HW2 6888   2.952   4.487   6.978
 1997SOL     OW 6889   5.388   0.757   3.888
 1997SOL    HW1 6890   5.364   0.846   3.927
 1997SOL    HW2 6891   5.342   0.746   3.800
 1998SOL     OW 6892   2.904   4.917   5.075
 1998SOL    HW1 6893   2.928   4.939   5.169
 1998SOL    HW2 6894   2.897   4.818   5.064
 1999SOL     OW 6895   1.661   1.072   2.062
 1999SOL    HW1 6896   1.740   1.133   2.071
 1999SOL    HW2 6897   1.686   0.982   2.099
 2000SOL     OW 6898   3.835   1.911   5.042
 2000SOL    HW1 6899   3.842   1.994   4.988
 2000SOL    HW2 6900   3.821   1.935   5.138
 2001SOL     OW 6901   3.203   2.647   0.760
 2001SOL    HW1 6902   3.155   2.652   0.672
 2001SOL    HW2 6903   3.159   2.579   0.818
 2002SOL     OW 6904   1.794   4.750   4.703
 2002SOL    HW1 6905   1.835   4.661   4.683
 2002SOL    HW2 6906   1.785   4.803   4.619
 2003SOL     OW 6907   6.554   5.973   4.024
 2003SOL    HW1 6908   6.590   5.881   4.010
 2003SOL    HW2 6909   6.531   6.014   3.936
 2004SOL     OW 6910   3.006   0.829   5.911
 2004SOL    HW1 6911   3.103   0.834   5.890
 2004SOL    HW2 6912   2.986   0.884   5.992
 2005SOL     OW 6913   2.895   6.070   5.919
 2005SOL    HW1 6914   2.960   6.046   5.990
 2005SOL    HW2 6915   2.910   6.013   5.838
 2006SOL     OW 6916   4.029   4.806   3.958
 2006SOL    HW1 6917   4.105   4.802   4.023
 2006SOL    HW2 6918   3.946   4.834   4.006
 2007SOL     OW 6919   5.726   5.583   0.392
 2007SOL    HW1 6920   5.778   5.656   0.349
 2007SOL    HW2 6921   5.746   5.496   0.347
 2008SOL     OW 6922   0.506   5.873   4.202
 2008SOL    HW1 6923   0.483   5.844   4.296
 2008SOL    HW2 6924   0.572   5.809   4.163
 2009SOL     OW 6925   0.494   0.227   1.899
 2009SOL    HW1 6926   0.530   0.133   1.899
 2009SOL    HW2 6927   0.450   0.246   1.812
 2010SOL     OW 6928   1.573   6.984   0.782
 2010SOL    HW1 6929   1.673   6.989   0.782
 2010SOL    HW2 6930   1.535   0.052   0.790
 2011SOL     OW 6931   0.005   2.309   5.282
 2011SOL    HW1 6932   6.949   2.249   5.287
 2011SOL    HW2 6933   0.012   2.362   5.366
 2012SOL     OW 6934   1.062   3.674   1.050
 2012SOL    HW1 6935   1.104   3.663   1.140
 2012SOL    HW2 6936   1.124   3.639   0.979
 2013SOL     OW 6937   4.517   1.600   2.255
 2013SOL    HW1 6938   4.439   1.651   2.218
 2013SOL    HW2 6939   4.549   1.534   2.187
 2014SOL     OW 6940   2.371   5.772   3.307
 2014SOL    HW1 6941   2.376   5.858   3.256
 2014SOL    HW2 6942   2.276   5.751   3.329
 2015SOL     OW 6943   3.453   7.021   6.480
 2015SOL    HW1 6944   3.502   6.988   6.560
 2015SOL    HW2 6945   3.360   6.985   6.480
 2016SOL     OW 6946   6.767   5.114   4.184
 2016SOL    HW1 6947   6.705   5.190   4.162
 2016SOL    HW2 6948   6.737   5.070   4.269
 2017SOL     OW 6949   2.740   5.866   2.376
 2017SOL    HW1 6950   2.830   5.910   2.382
 2017SOL    HW2 6951   2.717   5.826   2.464
 2018SOL     OW 6952   0.817   5.345   5.672
 2018SOL    HW1 6953   0.722   5.320   5.653
 2018SOL    HW2 6954   0.819   5.423   5.735
 2019SOL     OW 6955   6.267   1.481   2.194
 2019SOL    HW1 6956   6.287   1.577   2.172
 2019SOL    HW2 6957   6.299   1.423   2.120
 2020SOL     OW 6958   2.471   6.055   3.167
 2020SOL    HW1 6959   2.494   6.152   3.159
 2020SOL    HW2 6960   2.386   6.037   3.118
 2021SOL     OW 6961   1.013   0.159   2.040
 2021SOL    HW1 6962   1.036   0.062   2.027
 2021SOL    HW2 6963   0.917   0.174   2.016
 2022SOL     OW 6964   1.829   3.835   1.917
 2022SOL    HW1 6965   1.900   3.873   1.976
 2022SOL    HW2 6966   1.833   3.735   1.920
 2023SOL     OW 6967   6.707   0.683   5.510
 2023SOL    HW1 6968   6.774   0.680   5.436
 2023SOL    HW2 6969   6.628   0.738   5.482
 2024SOL     OW 6970   5.961   1.414   3.667
 2024SOL    HW1 6971   6.049   1.454   3.640
 2024SOL    HW2 6972   5.976   1.344   3.737
 2025SOL     OW 6973   6.777   1.208   1.620
 2025SOL    HW1 6974   6.832   1.246   1.695
 2025SOL    HW2 6975   6.779   1.108   1.625
 2026SOL     OW 6976   1.954   1.604   5.706
 2026SOL    HW1 6977   1.974   1.585   5.610
 2026SOL    HW2 6978   1.978   1.525   5.762
 2027SOL     OW 6979   0.629   1.474   2.998
 2027SOL    HW1 6980   0.654   1.522   3.082
 2027SOL    HW2 6981   0.532   1.448   3.001
 2028SOL     OW 6982   4.200   2.808   0.056
 2028SOL    HW1 6983   4.212   2.732   7.017
 2028SOL    HW2 6984   4.110   2.850   0.042
 2029SOL     OW 6985   1.348   0.573   0.363
 2029SOL    HW1 6986   1.272   0.541   0.307
 2029SOL    HW2 6987   1.429   0.587   0.305
 2030SOL     OW 6988   1.735   0.852   3.055
 2030SOL    HW1 6989   1.761   0.939   3.098
 2030SOL    HW2 6990   1.785   0.777   3.099
 2031SOL     OW 6991   5.202   6.892   2.269
 2031SOL    HW1 6992   5.299   6.892   2.246
 2031SOL    HW2 6993   5.156   6.965   2.218
 2032SOL     OW 6994   5.222   6.640   1.325
 2032SOL    HW1 6995   5.172   6.560   1.292
 2032SOL    HW2 6996   5.260   6.690   1.247
 2033SOL     OW 6997   5.894   5.174   0.043
 2033SOL    HW1 6998   5.875   5.111   6.992
 2033SOL    HW2 6999   5.925   5.123   0.123
 2034SOL     OW 7000   2.066   0.183   2.867
 2034SOL    HW1 7001   1.992   0.169   2.801
 2034SOL    HW2 7002   2.063   0.111   2.936
 2035SOL     OW 7003   1.422   2.757   2.324
 2035SOL    HW1 7004   1.402   2.680   2.264
 2035SOL    HW2 7005   1.373   2.838   2.292
 2036SOL     OW 7006   1.934   4.578   0.622
 2036SOL    HW1 7007   1.859   4.621   0.672
 2036SOL    HW2 7008   1.944   4.483   0.651
 2037SOL     OW 7009   0.219   1.213   6.369
 2037SOL    HW1 7010   0.309   1.169   6.367
 2037SOL    HW2 7011   0.207   1.261   6.456
 2038SOL     OW 7012   0.765   1.043   4.855
 2038SOL    HW1 7013   0.699   1.113   4.828
 2038SOL    HW2 7014   0.781   0.982   4.778
 2039SOL     OW 7015   0.795   5.705   2.465
 2039SOL    HW1 7016   0.851   5.777   2.506
 2039SOL    HW2 7017   0.710   5.744   2.431
 2040SOL     OW 7018   4.142   3.593   4.780
 2040SOL    HW1 7019   4.195   3.589   4.695
 2040SOL    HW2 7020   4.049   3.625   4.760
 2041SOL     OW 7021   6.196   4.183   6.048
 2041SOL    HW1 7022   6.268   4.115   6.033
 2041SOL    HW2 7023   6.111   4.151   6.005
 2042SOL     OW 7024   4.255   5.145   6.797
 2042SOL    HW1 7025   4.323   5.218   6.810
 2042SOL    HW2 7026   4.295   5.057   6.822
 2043SOL     OW 7027   5.424   4.807   2.127
 2043SOL    HW1 7028   5.372   4.819   2.042
 2043SOL    HW2 7029   5.361   4.805   2.205
 2044SOL     OW 7030   6.557   0.519   1.763
 2044SOL    HW1 7031   6.650   0.483   1.769
 2044SOL    HW2 7032   6.557   0.608   1.718
 2045SOL     OW 7033   1.754   5.161   6.152
 2045SOL    HW1 7034   1.712   5.239   6.105
 2045SOL    HW2 7035   1.839   5.136   6.106
 2046SOL     OW 7036   6.031   0.278   5.149
 2046SOL    HW1 7037   5.988   0.356   5.195
 2046SOL    HW2 7038   5.992   0.268   5.058
 2047SOL     OW 7039   5.593   2.725   0.236
 2047SOL    HW1 7040   5.587   2.649   0.302
 2047SOL    HW2 7041   5.673   2.780   0.257
 2048SOL     OW 7042   4.593   0.015   5.550
 2048SOL    HW1 7043   4.499   0.009   5.517
 2048SOL    HW2 7044   4.594   0.057   5.641
 2049SOL     OW 7045   4.965   0.135   0.393
 2049SOL    HW1 7046   4.881   0.084   0.410
 2049SOL    HW2 7047   5.020   0.088   0.324
 2050SOL     OW 7048   5.747   2.357   4.220
 2050SOL    HW1 7049   5.769   2.335   4.125
 2050SOL    HW2 7050   5.769   2.453   4.238
 2051SOL     OW 7051   1.936   5.238   0.192
 2051SOL    HW1 7052   2.014   5.177   0.210
 2051SOL    HW2 7053   1.907   5.227   0.097
 2052SOL     OW 7054   1.044   3.376   0.648
 2052SOL    HW1 7055   1.030   3.423   0.735
 2052SOL    HW2 7056   0.978   3.301   0.640
 2053SOL     OW 7057   5.774   0.923   0.365
 2053SOL    HW1 7058   5.708   0.973   0.309
 2053SOL    HW2 7059   5.817   0.851   0.310
 2054SOL     OW 7060   6.063   2.592   1.042
 2054SOL    HW1 7061   6.074   2.504   1.088
 2054SOL    HW2 7062   6.020   2.657   1.104
 2055SOL     OW 7063   5.664   3.006   4.142
 2055SOL    HW1 7064   5.584   3.065   4.152
 2055SOL    HW2 7065   5.638   2.911   4.161
 2056SOL     OW 7066   1.536   0.816   3.267
 2056SOL    HW1 7067   1.593   0.814   3.185
 2056SOL    HW2 7068   1.447   0.855   3.245
 2057SOL     OW 7069   0.075   3.073   4.121
 2057SOL    HW1 7070   0.157   3.064   4.065
 2057SOL    HW2 7071   0.088   3.025   4.208
 2058SOL     OW 7072   6.693   2.188   2.063
 2058SOL    HW1 7073   6.635   2.112   2.033
 2058SOL    HW2 7074   6.718   2.174   2.159
 2059SOL     OW 7075   1.553   1.632   6.927
 2059SOL    HW1 7076   1.459   1.667   6.927
 2059SOL    HW2 7077   1.606   1.679   6.998
 2060SOL     OW 7078   1.071   5.213   2.680
 2060SOL    HW1 7079   0.971   5.223   2.684
 2060SOL    HW2 7080   1.094   5.120   2.651
 2061SOL     OW 7081   6.341   1.894   1.724
 2061SOL    HW1 7082   6.397   1.819   1.759
 2061SOL    HW2 7083   6.253   1.896   1.772
 2062SOL     OW 7084   4.662   0.644   3.267
 2062SOL    HW1 7085   4.619   0.671   3.353
 2062SOL    HW2 7086   4.740   0.703   3.248
 2063SOL     OW 7087   2.010   2.629   6.732
 2063SOL    HW1 7088   2.013   2.532   6.707
 2063SOL    HW2 7089   2.048   2.683   6.657
 2064SOL     OW 7090   0.851   2.522   0.216
 2064SOL    HW1 7091   0.864   2.545   0.120
 2064SOL    HW2 7092   0.775   2.457   0.226
 2065SOL     OW 7093   6.357   3.425   1.728
 2065SOL    HW1 7094   6.400   3.450   1.815
 2065SOL    HW2 7095   6.257   3.431   1.738
 2066SOL     OW 7096   1.484   6.701   4.517
 2066SOL    HW1 7097   1.496   6.778   4.580
 2066SOL    HW2 7098   1.567   6.688   4.464
 2067SOL     OW 7099   6.350   0.247   1.203
 2067SOL    HW1 7100   6.353   0.147   1.196
 2067SOL    HW2 7101   6.426   0.286   1.151
 2068SOL     OW 7102   1.765   1.619   5.392
 2068SOL    HW1 7103   1.735   1.661   5.306
 2068SOL    HW2 7104   1.751   1.684   5.467
 2069SOL     OW 7105   0.472   2.495   1.858
 2069SOL    HW1 7106   0.566   2.465   1.874
 2069SOL    HW2 7107   0.470   2.557   1.779
 2070SOL     OW 7108   0.852   0.677   2.708
 2070SOL    HW1 7109   0.793   0.747   2.671
 2070SOL    HW2 7110   0.937   0.719   2.742
 2071SOL     OW 7111   1.722   6.652   4.400
 2071SOL    HW1 7112   1.764   6.567   4.366
 2071SOL    HW2 7113   1.791   6.707   4.446
 2072SOL     OW 7114   5.032   5.314   1.570
 2072SOL    HW1 7115   5.039   5.398   1.516
 2072SOL    HW2 7116   5.027   5.235   1.509
 2073SOL     OW 7117   2.694   6.498   5.977
 2073SOL    HW1 7118   2.638   6.421   6.008
 2073SOL    HW2 7119   2.680   6.576   6.038
 2074SOL     OW 7120   5.607   1.276   2.095
 2074SOL    HW1 7121   5.568   1.257   2.185
 2074SOL    HW2 7122   5.567   1.360   2.059
 2075SOL     OW 7123   4.631   3.348   0.068
 2075SOL    HW1 7124   4.726   3.315   0.065
 2075SOL    HW2 7125   4.602   3.374   7.001
 2076SOL     OW 7126   4.822   0.276   1.208
 2076SOL    HW1 7127   4.748   0.232   1.158
 2076SOL    HW2 7128   4.901   0.288   1.148
 2077SOL     OW 7129   5.743   0.796   2.775
 2077SOL    HW1 7130   5.727   0.702   2.747
 2077SOL    HW2 7131   5.738   0.803   2.875
 2078SOL     OW 7132   3.081   5.132   5.645
 2078SOL    HW1 7133   3.098   5.036   5.620
 2078SOL    HW2 7134   3.121   5.151   5.734
 2079SOL     OW 7135   5.678   1.097   3.960
 2079SOL    HW1 7136   5.737   1.168   3.999
 2079SOL    HW2 7137   5.659   1.118   3.865
 2080SOL     OW 7138   2.717   2.383   4.203
 2080SOL    HW1 7139   2.772   2.414   4.279
 2080SOL    HW2 7140   2.620   2.401   4.222
 2081SOL     OW 7141   0.414   6.675   5.202
 2081SOL    HW1 7142   0.452   6.728   5.277
 2081SOL    HW2 7143   0.314   6.681   5.204
 2082SOL     OW 7144   5.546   0.730   1.482
 2082SOL    HW1 7145   5.540   0.785   1.566
 2082SOL    HW2 7146   5.545   0.791   1.403
 2083SOL     OW 7147   3.427   5.571   5.761
 2083SOL    HW1 7148   3.410   5.518   5.678
 2083SOL    HW2 7149   3.525   5.594   5.766
 2084SOL     OW 7150   0.197   2.904   3.533
 2084SOL    HW1 7151   0.193   2.992   3.580
 2084SOL    HW2 7152   0.198   2.830   3.600
 2085SOL     OW 7153   5.645   0.161   5.968
 2085SOL    HW1 7154   5.570   0.103   6.000
 2085SOL    HW2 7155   5.666   0.229   6.038
 2086SOL     OW 7156   2.902   5.222   0.758
 2086SOL    HW1 7157   2.943   5.247   0.845
 2086SOL    HW2 7158   2.957   5.258   0.683
 2087SOL     OW 7159   5.385   6.854   3.889
 2087SOL    HW1 7160   5.484   6.867   3.883
 2087SOL    HW2 7161   5.341   6.939   3.920
 2088SOL     OW 7162   3.395   0.116   0.716
 2088SOL    HW1 7163   3.327   0.147   0.650
 2088SOL    HW2 7164   3.463   0.060   0.669
 2089SOL     OW 7165   4.018   0.265   6.735
 2089SOL    HW1 7166   4.056   0.208   6.662
 2089SOL    HW2 7167   4.047   0.360   6.721
 2090SOL     OW 7168   3.657   3.452   4.633
 2090SOL    HW1 7169   3.617   3.472   4.543
 2090SOL    HW2 7170   3.624   3.362   4.664
 2091SOL     OW 7171   2.086   4.588   1.353
 2091SOL    HW1 7172   2.018   4.652   1.316
 2091SOL    HW2 7173   2.116   4.526   1.282
 2092SOL     OW 7174   6.404   6.555   0.693
 2092SOL    HW1 7175   6.363   6.473   0.653
 2092SOL    HW2 7176   6.384   6.634   0.635
 2093SOL     OW 7177   1.248   2.911   1.792
 2093SOL    HW1 7178   1.219   2.979   1.725
 2093SOL    HW2 7179   1.170   2.854   1.817
 2094SOL     OW 7180   5.896   0.154   2.423
 2094SOL    HW1 7181   5.987   0.179   2.455
 2094SOL    HW2 7182   5.853   0.093   2.490
 2095SOL     OW 7183   6.019   5.036   5.253
 2095SOL    HW1 7184   6.096   5.063   5.195
 2095SOL    HW2 7185   6.039   4.947   5.295
 2096SOL     OW 7186   4.835   4.137   2.558
 2096SOL    HW1 7187   4.771   4.069   2.591
 2096SOL    HW2 7188   4.889   4.098   2.483
 2097SOL     OW 7189   0.204   2.564   0.095
 2097SOL    HW1 7190   0.193   2.619   0.012
 2097SOL    HW2 7191   0.285   2.506   0.087
 2098SOL     OW 7192   4.914   0.416   4.224
 2098SOL    HW1 7193   4.830   0.370   4.254
 2098SOL    HW2 7194   4.896   0.513   4.210
 2099SOL     OW 7195   3.245   1.648   4.539
 2099SOL    HW1 7196   3.240   1.697   4.625
 2099SOL    HW2 7197   3.152   1.624   4.509
 2100SOL     OW 7198   4.651   3.955   6.510
 2100SOL    HW1 7199   4.583   3.910   6.453
 2100SOL    HW2 7200   4.743   3.937   6.473
 2101SOL     OW 7201   6.969   6.961   4.029
 2101SOL    HW1 7202   7.017   0.012   3.982
 2101SOL    HW2 7203   6.966   6.981   4.127
 2102SOL     OW 7204   7.011   4.848   2.521
 2102SOL    HW1 7205   6.981   4.836   2.616
 2102SOL    HW2 7206   0.065   4.789   2.503
 2103SOL     OW 7207   3.430   3.728   6.445
 2103SOL    HW1 7208   3.510   3.784   6.465
 2103SOL    HW2 7209   3.421   3.716   6.346
 2104SOL     OW 7210   1.562   3.502   5.466
 2104SOL    HW1 7211   1.556   3.529   5.370
 2104SOL    HW2 7212   1.628   3.560   5.514
 2105SOL     OW 7213   5.828   5.701   1.655
 2105SOL    HW1 7214   5.828   5.738   1.748
 2105SOL    HW2 7215   5.923   5.690   1.623
 2106SOL     OW 7216   4.693   5.636   6.721
 2106SOL    HW1 7217   4.779   5.642   6.670
 2106SOL    HW2 7218   4.711   5.655   6.818
 2107SOL     OW 7219   3.934   4.066   6.121
 2107SOL    HW1 7220   3.993   4.081   6.042
 2107SOL    HW2 7221   3.914   3.968   6.129
 2108SOL     OW 7222   5.878   5.171   6.085
 2108SOL    HW1 7223   5.958   5.230   6.075
 2108SOL    HW2 7224   5.904   5.077   6.064
 2109SOL     OW 7225   6.085   6.660   2.850
 2109SOL    HW1 7226   6.005   6.668   2.910
 2109SOL    HW2 7227   6.081   6.573   2.801
 2110SOL     OW 7228   2.663   4.309   6.407
 2110SOL    HW1 7229   2.622   4.323   6.317
 2110SOL    HW2 7230   2.718   4.389   6.432
 2111SOL     OW 7231   1.360   2.901   0.330
 2111SOL    HW1 7232   1.428   2.895   0.403
 2111SOL    HW2 7233   1.305   2.983   0.342
 2112SOL     OW 7234   4.736   3.001   1.470
 2112SOL    HW1 7235   4.800   3.015   1.395
 2112SOL    HW2 7236   4.756   3.066   1.544
 2113SOL     OW 7237   0.198   0.576   2.552
 2113SOL    HW1 7238   0.131   0.634   2.598
 2113SOL    HW2 7239   0.290   0.611   2.570
 2114SOL     OW 7240   2.056   3.862   6.945
 2114SOL    HW1 7241   1.986   3.859   7.017
 2114SOL    HW2 7242   2.146   3.847   6.985
 2115SOL     OW 7243   2.420   4.530   2.364
 2115SOL    HW1 7244   2.500   4.573   2.322
 2115SOL    HW2 7245   2.337   4.576   2.332
 2116SOL     OW 7246   0.278   3.977   3.241
 2116SOL    HW1 7247   0.202   4.040   3.227
 2116SOL    HW2 7248   0.243   3.888   3.269
 2117SOL     OW 7249   0.477   4.912   0.849
 2117SOL    HW1 7250   0.446   4.868   0.765
 2117SOL    HW2 7251   0.420   4.882   0.925
 2118SOL     OW 7252   0.030   3.835   2.190
 2118SOL    HW1 7253   0.024   3.792   2.100
 2118SOL    HW2 7254   0.125   3.830   2.223
 2119SOL     OW 7255   2.650   6.049   1.609
 2119SOL    HW1 7256   2.727   6.085   1.661
 2119SOL    HW2 7257   2.601   5.981   1.663
 2120SOL     OW 7258   6.632   5.101   2.183
 2120SOL    HW1 7259   6.558   5.038   2.160
 2120SOL    HW2 7260   6.692   5.059   2.251
 2121SOL     OW 7261   0.173   5.325   4.815
 2121SOL    HW1 7262   0.097   5.388   4.801
 2121SOL    HW2 7263   0.247   5.373   4.863
 2122SOL     OW 7264   4.689   4.262   4.798
 2122SOL    HW1 7265   4.742   4.266   4.883
 2122SOL    HW2 7266   4.633   4.179   4.798
 2123SOL     OW 7267   5.958   4.723   3.333
 2123SOL    HW1 7268   5.974   4.628   3.304
 2123SOL    HW2 7269   6.038   4.778   3.312
 2124SOL     OW 7270   1.763   2.431   0.839
 2124SOL    HW1 7271   1.711   2.369   0.780
 2124SOL    HW2 7272   1.861   2.418   0.823
 2125SOL     OW 7273   3.071   0.022   0.712
 2125SOL    HW1 7274   3.128   0.070   0.644
 2125SOL    HW2 7275   3.007   6.986   0.666
 2126SOL     OW 7276   2.760   0.671   0.297
 2126SOL    HW1 7277   2.678   0.616   0.315
 2126SOL    HW2 7278   2.837   0.635   0.350
 2127SOL     OW 7279   5.646   3.386   4.962
 2127SOL    HW1 7280   5.715   3.458   4.965
 2127SOL    HW2 7281   5.684   3.305   4.919
 2128SOL     OW 7282   0.514   5.007   4.259
 2128SOL    HW1 7283   0.604   4.977   4.228
 2128SOL    HW2 7284   0.465   5.050   4.183
 2129SOL     OW 7285   3.918   1.726   5.603
 2129SOL    HW1 7286   3.861   1.669   5.544
 2129SOL    HW2 7287   3.971   1.668   5.665
 2130SOL     OW 7288   4.271   6.008   2.210
 2130SOL    HW1 7289   4.342   6.007   2.280
 2130SOL    HW2 7290   4.295   5.944   2.137
 2131SOL     OW 7291   6.755   1.548   0.542
 2131SOL    HW1 7292   6.706   1.529   0.457
 2131SOL    HW2 7293   6.745   1.645   0.565
 2132SOL     OW 7294   2.172   3.153   0.441
 2132SOL    HW1 7295   2.210   3.146   0.348
 2132SOL    HW2 7296   2.198   3.241   0.481
 2133SOL     OW 7297   2.876   2.717   6.098
 2133SOL    HW1 7298   2.839   2.702   6.006
 2133SOL    HW2 7299   2.976   2.724   6.093
 2134SOL     OW 7300   1.071   0.367   0.322
 2134SOL    HW1 7301   1.088   0.452   0.273
 2134SOL    HW2 7302   1.154   0.312   0.324
 2135SOL     OW 7303   0.333   3.863   4.024
 2135SOL    HW1 7304   0.354   3.912   3.939
 2135SOL    HW2 7305   0.393   3.784   4.032
 2136SOL     OW 7306   2.265   5.765   1.930
 2136SOL    HW1 7307   2.196   5.835   1.949
 2136SOL    HW2 7308   2.293   5.772   1.835
 2137SOL     OW 7309   2.312   5.690   3.876
 2137SOL    HW1 7310   2.354   5.668   3.788
 2137SOL    HW2 7311   2.366   5.760   3.922
 2138SOL     OW 7312   5.124   1.761   2.417
 2138SOL    HW1 7313   5.196   1.695   2.436
 2138SOL    HW2 7314   5.153   1.852   2.449
 2139SOL     OW 7315   2.592   1.082   5.599
 2139SOL    HW1 7316   2.576   1.076   5.500
 2139SOL    HW2 7317   2.552   1.002   5.644
 2140SOL     OW 7318   2.360   1.457   5.629
 2140SOL    HW1 7319   2.333   1.553   5.636
 2140SOL    HW2 7320   2.442   1.449   5.574
 2141SOL     OW 7321   6.391   4.567   2.631
 2141SOL    HW1 7322   6.448   4.578   2.713
 2141SOL    HW2 7323   6.299   4.601   2.650
 2142SOL     OW 7324   1.933   1.229   2.849
 2142SOL    HW1 7325   1.850   1.206   2.797
 2142SOL    HW2 7326   1.910   1.237   2.946
 2143SOL     OW 7327   1.466   4.719   0.510
 2143SOL    HW1 7328   1.517   4.735   0.595
 2143SOL    HW2 7329   1.476   4.799   0.450
 2144SOL     OW 7330   6.203   6.011   4.108
 2144SOL    HW1 7331   6.135   5.946   4.141
 2144SOL    HW2 7332   6.200   6.014   4.008
 2145SOL     OW 7333   4.303   0.092   3.619
 2145SOL    HW1 7334   4.397   0.104   3.587
 2145SOL    HW2 7335   4.287   0.154   3.697
 2146SOL     OW 7336   1.907   3.212   0.821
 2146SOL    HW1 7337   1.970   3.143   0.857
 2146SOL    HW2 7338   1.949   3.302   0.827
 2147SOL     OW 7339   5.935   1.200   4.911
 2147SOL    HW1 7340   5.888   1.123   4.953
 2147SOL    HW2 7341   5.880   1.236   4.836
 2148SOL     OW 7342   0.476   3.311   6.768
 2148SOL    HW1 7343   0.410   3.315   6.693
 2148SOL    HW2 7344   0.565   3.347   6.737
 2149SOL     OW 7345   0.510   0.361   6.798
 2149SOL    HW1 7346   0.416   0.332   6.780
 2149SOL    HW2 7347   0.545   0.411   6.719
 2150SOL     OW 7348   2.450   3.316   1.187
 2150SOL    HW1 7349   2.484   3.403   1.221
 2150SOL    HW2 7350   2.353   3.307   1.210
 2151SOL     OW 7351   1.158   5.737   0.243
 2151SOL    HW1 7352   1.196   5.652   0.279
 2151SOL    HW2 7353   1.211   5.766   0.163
 2152SOL     OW 7354   4.117   5.986   3.833
 2152SOL    HW1 7355   4.033   6.032   3.804
 2152SOL    HW2 7356   4.154   5.933   3.757
 2153SOL     OW 7357   4.696   1.488   3.950
 2153SOL    HW1 7358   4.646   1.542   4.018
 2153SOL    HW2 7359   4.647   1.492   3.862
 2154SOL     OW 7360   3.006   6.983   3.327
 2154SOL    HW1 7361   2.971   7.009   3.237
 2154SOL    HW2 7362   3.030   6.886   3.327
 2155SOL     OW 7363   5.013   6.837   1.198
 2155SOL    HW1 7364   4.944   6.908   1.208
 2155SOL    HW2 7365   5.058   6.820   1.286
 2156SOL     OW 7366   5.815   1.696   4.048
 2156SOL    HW1 7367   5.715   1.689   4.057
 2156SOL    HW2 7368   5.845   1.785   4.083
 2157SOL     OW 7369   3.660   5.648   3.999
 2157SOL    HW1 7370   3.567   5.628   4.031
 2157SOL    HW2 7371   3.665   5.635   3.900
 2158SOL     OW 7372   3.405   0.617   0.143
 2158SOL    HW1 7373   3.462   0.609   0.225
 2158SOL    HW2 7374   3.464   0.629   0.063
 2159SOL     OW 7375   1.585   0.357   5.682
 2159SOL    HW1 7376   1.609   0.300   5.760
 2159SOL    HW2 7377   1.522   0.308   5.622
 2160SOL     OW 7378   5.778   6.285   0.272
 2160SOL    HW1 7379   5.858   6.294   0.331
 2160SOL    HW2 7380   5.722   6.367   0.278
 2161SOL     OW 7381   1.370   2.497   2.552
 2161SOL    HW1 7382   1.346   2.583   2.508
 2161SOL    HW2 7383   1.463   2.502   2.587
 2162SOL     OW 7384   1.047   6.857   2.331
 2162SOL    HW1 7385   1.132   6.824   2.288
 2162SOL    HW2 7386   1.069   6.931   2.394
 2163SOL     OW 7387   1.495   3.146   2.399
 2163SOL    HW1 7388   1.527   3.065   2.448
 2163SOL    HW2 7389   1.569   3.186   2.346
 2164SOL     OW 7390   1.643   2.590   2.542
 2164SOL    HW1 7391   1.674   2.651   2.469
 2164SOL    HW2 7392   1.680   2.621   2.629
 2165SOL     OW 7393   0.022   1.425   3.775
 2165SOL    HW1 7394   0.022   1.483   3.856
 2165SOL    HW2 7395   6.954   1.420   3.737
 2166SOL     OW 7396   6.655   4.051   2.896
 2166SOL    HW1 7397   6.753   4.034   2.895
 2166SOL    HW2 7398   6.606   3.964   2.884
 2167SOL     OW 7399   2.609   1.774   3.780
 2167SOL    HW1 7400   2.549   1.851   3.806
 2167SOL    HW2 7401   2.658   1.742   3.860
 2168SOL     OW 7402   1.923   1.274   3.129
 2168SOL    HW1 7403   2.017   1.253   3.153
 2168SOL    HW2 7404   1.866   1.194   3.146
 2169SOL     OW 7405   0.291   0.758   1.907
 2169SOL    HW1 7406   0.239   0.680   1.871
 2169SOL    HW2 7407   0.248   0.790   1.991
 2170SOL     OW 7408   0.862   4.018   5.432
 2170SOL    HW1 7409   0.862   3.918   5.427
 2170SOL    HW2 7410   0.776   4.049   5.471
 2171SOL     OW 7411   0.556   5.129   1.481
 2171SOL    HW1 7412   0.522   5.138   1.575
 2171SOL    HW2 7413   0.492   5.074   1.427
 2172SOL     OW 7414   1.113   1.596   4.701
 2172SOL    HW1 7415   1.146   1.647   4.622
 2172SOL    HW2 7416   1.182   1.599   4.774
 2173SOL     OW 7417   5.593   0.449   5.052
 2173SOL    HW1 7418   5.507   0.496   5.031
 2173SOL    HW2 7419   5.632   0.489   5.135
 2174SOL     OW 7420   6.859   6.516   5.424
 2174SOL    HW1 7421   6.869   6.513   5.325
 2174SOL    HW2 7422   6.946   6.495   5.468
 2175SOL     OW 7423   3.016   4.117   5.140
 2175SOL    HW1 7424   3.008   4.190   5.072
 2175SOL    HW2 7425   3.003   4.154   5.232
 2176SOL     OW 7426   5.464   2.033   1.538
 2176SOL    HW1 7427   5.506   1.943   1.536
 2176SOL    HW2 7428   5.421   2.052   1.450
 2177SOL     OW 7429   0.603   0.395   3.866
 2177SOL    HW1 7430   0.598   0.435   3.774
 2177SOL    HW2 7431   0.512   0.396   3.907
 2178SOL     OW 7432   0.917   2.115   2.491
 2178SOL    HW1 7433   0.961   2.138   2.578
 2178SOL    HW2 7434   0.832   2.167   2.482
 2179SOL     OW 7435   1.873   4.272   6.128
 2179SOL    HW1 7436   1.915   4.331   6.058
 2179SOL    HW2 7437   1.922   4.185   6.132
 2180SOL     OW 7438   0.773   6.121   2.280
 2180SOL    HW1 7439   0.819   6.209   2.284
 2180SOL    HW2 7440   0.837   6.049   2.306
 2181SOL     OW 7441   4.224   4.730   4.754
 2181SOL    HW1 7442   4.265   4.643   4.725
 2181SOL    HW2 7443   4.257   4.753   4.846
 2182SOL     OW 7444   7.018   5.127   2.483
 2182SOL    HW1 7445   0.043   5.156   2.566
 2182SOL    HW2 7446   6.997   5.030   2.489
 2183SOL     OW 7447   3.614   2.613   7.008
 2183SOL    HW1 7448   3.515   2.609   7.013
 2183SOL    HW2 7449   3.644   2.708   7.019
 2184SOL     OW 7450   6.308   1.096   6.645
 2184SOL    HW1 7451   6.350   1.106   6.735
 2184SOL    HW2 7452   6.213   1.068   6.655
 2185SOL     OW 7453   0.770   0.691   6.891
 2185SOL    HW1 7454   0.780   0.649   6.801
 2185SOL    HW2 7455   0.703   0.641   6.945
 2186SOL     OW 7456   0.156   5.143   5.432
 2186SOL    HW1 7457   0.065   5.183   5.426
 2186SOL    HW2 7458   0.150   5.054   5.478
 2187SOL     OW 7459   0.581   5.389   3.199
 2187SOL    HW1 7460   0.645   5.419   3.129
 2187SOL    HW2 7461   0.555   5.294   3.183
 2188SOL     OW 7462   2.157   0.397   1.073
 2188SOL    HW1 7463   2.062   0.396   1.042
 2188SOL    HW2 7464   2.159   0.394   1.173
 2189SOL     OW 7465   2.654   1.553   1.467
 2189SOL    HW1 7466   2.689   1.486   1.532
 2189SOL    HW2 7467   2.693   1.643   1.487
 2190SOL     OW 7468   6.213   4.173   2.443
 2190SOL    HW1 7469   6.183   4.249   2.386
 2190SOL    HW2 7470   6.161   4.091   2.419
 2191SOL     OW 7471   2.656   0.070   0.469
 2191SOL    HW1 7472   2.682   0.106   0.379
 2191SOL    HW2 7473   2.618   7.002   0.458
 2192SOL     OW 7474   4.249   1.290   1.099
 2192SOL    HW1 7475   4.260   1.386   1.074
 2192SOL    HW2 7476   4.321   1.236   1.055
 2193SOL     OW 7477   1.134   6.588   6.470
 2193SOL    HW1 7478   1.171   6.552   6.556
 2193SOL    HW2 7479   1.034   6.589   6.475
 2194SOL     OW 7480   0.615   3.750   6.094
 2194SOL    HW1 7481   0.624   3.849   6.084
 2194SOL    HW2 7482   0.531   3.719   6.049
 2195SOL     OW 7483   0.727   4.247   6.374
 2195SOL    HW1 7484   0.632   4.221   6.361
 2195SOL    HW2 7485   0.786   4.178   6.332
 2196SOL     OW 7486   2.972   6.286   5.467
 2196SOL    HW1 7487   3.053   6.233   5.492
 2196SOL    HW2 7488   2.921   6.310   5.550
 2197SOL     OW 7489   2.764   5.443   5.417
 2197SOL    HW1 7490   2.673   5.441   5.377
 2197SOL    HW2 7491   2.781   5.358   5.467
 2198SOL     OW 7492   0.590   0.789   6.428
 2198SOL    HW1 7493   0.513   0.743   6.473
 2198SOL    HW2 7494   0.629   0.856   6.490
 2199SOL     OW 7495   4.273   6.487   4.502
 2199SOL    HW1 7496   4.230   6.453   4.419
 2199SOL    HW2 7497   4.205   6.534   4.558
 2200SOL     OW 7498   2.673   1.545   4.469
 2200SOL    HW1 7499   2.678   1.475   4.397
 2200SOL    HW2 7500   2.617   1.622   4.437
 2201SOL     OW 7501   6.062   4.022   3.823
 2201SOL    HW1 7502   6.037   3.935   3.866
 2201SOL    HW2 7503   6.134   4.066   3.876
 2202SOL     OW 7504   3.911   5.901   2.098
 2202SOL    HW1 7505   3.924   5.996   2.126
 2202SOL    HW2 7506   3.993   5.848   2.121
 2203SOL     OW 7507   2.152   3.319   1.191
 2203SOL    HW1 7508   2.128   3.223   1.201
 2203SOL    HW2 7509   2.102   3.358   1.113
 2204SOL     OW 7510   5.020   3.158   1.070
 2204SOL    HW1 7511   5.012   3.220   1.147
 2204SOL    HW2 7512   4.978   3.070   1.093
 2205SOL     OW 7513   0.592   4.969   0.504
 2205SOL    HW1 7514   0.635   5.035   0.566
 2205SOL    HW2 7515   0.498   4.998   0.485
 2206SOL     OW 7516   2.455   2.673   6.234
 2206SOL    HW1 7517   2.476   2.658   6.330
 2206SOL    HW2 7518   2.482   2.766   6.207
 2207SOL     OW 7519   4.592   6.121   0.633
 2207SOL    HW1 7520   4.504   6.136   0.587
 2207SOL    HW2 7521   4.642   6.208   0.638
 2208SOL     OW 7522   0.861   6.290   4.196
 2208SOL    HW1 7523   0.898   6.351   4.126
 2208SOL    HW2 7524   0.770   6.260   4.168
 2209SOL     OW 7525   3.257   5.542   4.494
 2209SOL    HW1 7526   3.311   5.535   4.578
 2209SOL    HW2 7527   3.287   5.473   4.429
 2210SOL     OW 7528   4.649   6.460   1.199
 2210SOL    HW1 7529   4.658   6.541   1.142
 2210SOL    HW2 7530   4.572   6.405   1.168
 2211SOL     OW 7531   6.687   1.383   1.250
 2211SOL    HW1 7532   6.646   1.376   1.341
 2211SOL    HW2 7533   6.626   1.434   1.190
 2212SOL     OW 7534   2.728   5.847   6.570
 2212SOL    HW1 7535   2.648   5.901   6.596
 2212SOL    HW2 7536   2.806   5.908   6.554
 2213SOL     OW 7537   3.206   2.164   4.379
 2213SOL    HW1 7538   3.109   2.147   4.394
 2213SOL    HW2 7539   3.254   2.167   4.467
 2214SOL     OW 7540   3.973   3.267   6.344
 2214SOL    HW1 7541   3.921   3.188   6.375
 2214SOL    HW2 7542   4.002   3.254   6.249
 2215SOL     OW 7543   4.270   0.076   6.988
 2215SOL    HW1 7544   4.308   0.142   0.029
 2215SOL    HW2 7545   4.170   0.074   6.998
 2216SOL     OW 7546   0.635   6.985   6.140
 2216SOL    HW1 7547   0.644   6.922   6.063
 2216SOL    HW2 7548   0.561   0.025   6.121
 2217SOL     OW 7549   4.164   0.268   2.947
 2217SOL    HW1 7550   4.117   0.194   2.899
 2217SOL    HW2 7551   4.096   0.329   2.988
 2218SOL     OW 7552   0.314   5.275   5.935
 2218SOL    HW1 7553   0.294   5.182   5.965
 2218SOL    HW2 7554   0.313   5.279   5.835
 2219SOL     OW 7555   5.384   1.218   0.563
 2219SOL    HW1 7556   5.457   1.223   0.632
 2219SOL    HW2 7557   5.347   1.309   0.546
 2220SOL     OW 7558   0.578   6.059   5.794
 2220SOL    HW1 7559   0.571   6.151   5.755
 2220SOL    HW2 7560   0.531   6.056   5.882
 2221SOL     OW 7561   6.538   1.535   3.689
 2221SOL    HW1 7562   6.537   1.530   3.589
 2221SOL    HW2 7563   6.510   1.626   3.718
 2222SOL     OW 7564   4.570   6.058   1.420
 2222SOL    HW1 7565   4.530   5.975   1.461
 2222SOL    HW2 7566   4.646   6.032   1.361
 2223SOL     OW 7567   6.669   6.613   5.562
 2223SOL    HW1 7568   6.750   6.592   5.507
 2223SOL    HW2 7569   6.588   6.570   5.521
 2224SOL     OW 7570   5.720   3.941   0.600
 2224SOL    HW1 7571   5.788   4.015   0.598
 2224SOL    HW2 7572   5.745   3.871   0.534
 2225SOL     OW 7573   0.418   0.020   3.244
 2225SOL    HW1 7574   0.419   0.041   3.146
 2225SOL    HW2 7575   0.425   0.105   3.296
 2226SOL     OW 7576   2.272   4.968   0.982
 2226SOL    HW1 7577   2.279   4.973   1.082
 2226SOL    HW2 7578   2.335   5.033   0.940
 2227SOL     OW 7579   4.083   2.260   1.991
 2227SOL    HW1 7580   4.139   2.264   2.074
 2227SOL    HW2 7581   4.058   2.353   1.964
 2228SOL     OW 7582   4.902   5.249   0.149
 2228SOL    HW1 7583   4.876   5.256   0.052
 2228SOL    HW2 7584   5.000   5.266   0.158
 2229SOL     OW 7585   3.607   3.273   4.276
 2229SOL    HW1 7586   3.633   3.248   4.183
 2229SOL    HW2 7587   3.509   3.297   4.278
 2230SOL     OW 7588   5.342   6.484   0.822
 2230SOL    HW1 7589   5.345   6.442   0.732
 2230SOL    HW2 7590   5.400   6.566   0.823
 2231SOL     OW 7591   1.057   0.331   7.023
 2231SOL    HW1 7592   1.102   0.403   0.052
 2231SOL    HW2 7593   1.066   0.351   6.926
 2232SOL     OW 7594   1.464   0.173   5.516
 2232SOL    HW1 7595   1.492   0.084   5.553
 2232SOL    HW2 7596   1.459   0.167   5.416
 2233SOL     OW 7597   3.119   3.341   0.652
 2233SOL    HW1 7598   3.125   3.438   0.630
 2233SOL    HW2 7599   3.071   3.329   0.739
 2234SOL     OW 7600   4.254   1.398   0.687
 2234SOL    HW1 7601   4.325   1.396   0.757
 2234SOL    HW2 7602   4.296   1.400   0.597
 2235SOL     OW 7603   2.626   1.034   2.558
 2235SOL    HW1 7604   2.572   1.104   2.511
 2235SOL    HW2 7605   2.640   0.956   2.497
 2236SOL     OW 7606   2.270   4.220   5.503
 2236SOL    HW1 7607   2.274   4.272   5.418
 2236SOL    HW2 7608   2.348   4.244   5.561
 2237SOL     OW 7609   6.404   4.909   5.039
 2237SOL    HW1 7610   6.500   4.933   5.049
 2237SOL    HW2 7611   6.363   4.966   4.968
 2238SOL     OW 7612   5.436   4.016   2.338
 2238SOL    HW1 7613   5.444   3.918   2.318
 2238SOL    HW2 7614   5.347   4.049   2.307
 2239SOL     OW 7615   3.981   6.762   3.786
 2239SOL    HW1 7616   4.004   6.762   3.883
 2239SOL    HW2 7617   4.056   6.804   3.734
 2240SOL     OW 7618   4.816   5.367   3.072
 2240SOL    HW1 7619   4.720   5.384   3.097
 2240SOL    HW2 7620   4.844   5.431   3.001
 2241SOL     OW 7621   0.422   6.646   1.899
 2241SOL    HW1 7622   0.335   6.689   1.876
 2241SOL    HW2 7623   0.423   6.622   1.996
 2242SOL     OW 7624   4.831   3.131   3.130
 2242SOL    HW1 7625   4.825   3.168   3.223
 2242SOL    HW2 7626   4.772   3.051   3.123
 2243SOL     OW 7627   1.632   6.767   0.575
 2243SOL    HW1 7628   1.638   6.802   0.668
 2243SOL    HW2 7629   1.552   6.707   0.567
 2244SOL     OW 7630   2.479   0.082   0.961
 2244SOL    HW1 7631   2.460   0.156   1.025
 2244SOL    HW2 7632   2.559   0.104   0.906
 2245SOL     OW 7633   0.346   0.746   0.200
 2245SOL    HW1 7634   0.253   0.765   0.230
 2245SOL    HW2 7635   0.344   0.694   0.115
 2246SOL     OW 7636   2.152   1.048   5.365
 2246SOL    HW1 7637   2.131   0.973   5.427
 2246SOL    HW2 7638   2.111   1.030   5.276
 2247SOL     OW 7639   3.069   3.967   2.412
 2247SOL    HW1 7640   3.104   3.949   2.320
 2247SOL    HW2 7641   3.140   4.011   2.467
 2248SOL     OW 7642   5.754   4.127   5.428
 2248SOL    HW1 7643   5.703   4.056   5.380
 2248SOL    HW2 7644   5.812   4.177   5.362
 2249SOL     OW 7645   2.238   6.862   4.060
 2249SOL    HW1 7646   2.299   6.789   4.028
 2249SOL    HW2 7647   2.290   6.948   4.066
 2250SOL     OW 7648   4.118   4.402   6.394
 2250SOL    HW1 7649   4.071   4.434   6.312
 2250SOL    HW2 7650   4.064   4.425   6.475
 2251SOL     OW 7651   5.240   6.946   5.972
 2251SOL    HW1 7652   5.232   6.989   5.882
 2251SOL    HW2 7653   5.159   6.889   5.989
 2252SOL     OW 7654   4.639   1.827   2.714
 2252SOL    HW1 7655   4.594   1.772   2.784
 2252SOL    HW2 7656   4.721   1.780   2.682
 2253SOL     OW 7657   0.637   3.743   0.533
 2253SOL    HW1 7658   0.698   3.665   0.523
 2253SOL    HW2 7659   0.650   3.785   0.624
 2254SOL     OW 7660   3.882   3.735   3.231
 2254SOL    HW1 7661   3.942   3.766   3.305
 2254SOL    HW2 7662   3.865   3.637   3.241
 2255SOL     OW 7663   2.984   4.011   5.561
 2255SOL    HW1 7664   2.911   4.005   5.493
 2255SOL    HW2 7665   3.069   4.039   5.517
 2256SOL     OW 7666   5.140   6.605   1.897
 2256SOL    HW1 7667   5.075   6.530   1.912
 2256SOL    HW2 7668   5.103   6.689   1.936
 2257SOL     OW 7669   7.005   1.522   4.496
 2257SOL    HW1 7670   6.964   1.600   4.543
 2257SOL    HW2 7671   0.060   1.489   4.547
 2258SOL     OW 7672   2.109   6.401   4.384
 2258SOL    HW1 7673   2.014   6.403   4.413
 2258SOL    HW2 7674   2.119   6.337   4.307
 2259SOL     OW 7675   6.793   2.683   4.783
 2259SOL    HW1 7676   6.819   2.589   4.807
 2259SOL    HW2 7677   6.875   2.738   4.770
 2260SOL     OW 7678   1.033   4.063   1.708
 2260SOL    HW1 7679   0.997   4.094   1.620
 2260SOL    HW2 7680   1.100   3.991   1.694
 2261SOL     OW 7681   5.699   3.678   0.097
 2261SOL    HW1 7682   5.685   3.765   0.145
 2261SOL    HW2 7683   5.645   3.607   0.142
 2262SOL     OW 7684   6.270   0.627   4.392
 2262SOL    HW1 7685   6.248   0.709   4.444
 2262SOL    HW2 7686   6.365   0.631   4.360
 2263SOL     OW 7687   1.366   4.274   0.449
 2263SOL    HW1 7688   1.310   4.354   0.429
 2263SOL    HW2 7689   1.374   4.217   0.367
 2264SOL     OW 7690   2.003   6.723   6.355
 2264SOL    HW1 7691   2.012   6.666   6.273
 2264SOL    HW2 7692   1.913   6.708   6.396
 2265SOL     OW 7693   0.867   6.420   3.844
 2265SOL    HW1 7694   0.929   6.401   3.768
 2265SOL    HW2 7695   0.918   6.462   3.919
 2266SOL     OW 7696   4.869   1.367   6.816
 2266SOL    HW1 7697   4.944   1.432   6.831
 2266SOL    HW2 7698   4.899   1.297   6.750
 2267SOL     OW 7699   4.745   2.978   4.639
 2267SOL    HW1 7700   4.772   3.013   4.729
 2267SOL    HW2 7701   4.687   3.046   4.594
 2268SOL     OW 7702   6.818   4.455   6.039
 2268SOL    HW1 7703   6.769   4.367   6.043
 2268SOL    HW2 7704   6.809   4.493   5.947
 2269SOL     OW 7705   1.815   2.832   5.307
 2269SOL    HW1 7706   1.808   2.929   5.282
 2269SOL    HW2 7707   1.730   2.803   5.351
 2270SOL     OW 7708   4.793   2.242   6.374
 2270SOL    HW1 7709   4.854   2.194   6.311
 2270SOL    HW2 7710   4.735   2.175   6.420
 2271SOL     OW 7711   5.877   4.552   6.178
 2271SOL    HW1 7712   5.952   4.601   6.133
 2271SOL    HW2 7713   5.853   4.472   6.124
 2272SOL     OW 7714   6.225   1.205   5.983
 2272SOL    HW1 7715   6.277   1.255   6.052
 2272SOL    HW2 7716   6.207   1.112   6.017
 2273SOL     OW 7717   2.241   2.143   2.104
 2273SOL    HW1 7718   2.180   2.132   2.183
 2273SOL    HW2 7719   2.220   2.073   2.036
 2274SOL     OW 7720   0.966   0.957   0.253
 2274SOL    HW1 7721   0.946   0.984   0.347
 2274SOL    HW2 7722   0.926   1.024   0.190
 2275SOL     OW 7723   5.847   4.931   2.674
 2275SOL    HW1 7724   5.819   4.996   2.744
 2275SOL    HW2 7725   5.879   4.847   2.717
 2276SOL     OW 7726   1.691   1.419   1.601
 2276SOL    HW1 7727   1.668   1.352   1.672
 2276SOL    HW2 7728   1.621   1.418   1.530
 2277SOL     OW 7729   3.092   4.067   3.132
 2277SOL    HW1 7730   3.024   4.138   3.114
 2277SOL    HW2 7731   3.176   4.086   3.081
 2278SOL     OW 7732   0.976   2.231   3.475
 2278SOL    HW1 7733   0.899   2.282   3.514
 2278SOL    HW2 7734   1.011   2.280   3.395
 2279SOL     OW 7735   0.335   5.860   5.967
 2279SOL    HW1 7736   0.422   5.812   5.977
 2279SOL    HW2 7737   0.312   5.906   6.053
 2280SOL     OW 7738   4.949   1.531   5.223
 2280SOL    HW1 7739   4.901   1.457   5.176
 2280SOL    HW2 7740   5.036   1.497   5.259
 2281SOL     OW 7741   4.785   6.513   2.417
 2281SOL    HW1 7742   4.775   6.503   2.516
 2281SOL    HW2 7743   4.696   6.537   2.377
 2282SOL     OW 7744   4.143   5.402   5.788
 2282SOL    HW1 7745   4.060   5.429   5.740
 2282SOL    HW2 7746   4.151   5.455   5.873
 2283SOL     OW 7747   1.336   0.595   3.466
 2283SOL    HW1 7748   1.417   0.654   3.473
 2283SOL    HW2 7749   1.266   0.641   3.412
 2284SOL     OW 7750   1.649   3.130   6.189
 2284SOL    HW1 7751   1.727   3.068   6.177
 2284SOL    HW2 7752   1.600   3.107   6.273
 2285SOL     OW 7753   1.133   3.944   0.135
 2285SOL    HW1 7754   1.076   3.993   0.201
 2285SOL    HW2 7755   1.142   3.999   0.052
 2286SOL     OW 7756   4.778   6.502   3.543
 2286SOL    HW1 7757   4.874   6.531   3.538
 2286SOL    HW2 7758   4.767   6.435   3.617
 2287SOL     OW 7759   2.085   0.781   3.329
 2287SOL    HW1 7760   2.006   0.749   3.278
 2287SOL    HW2 7761   2.133   0.851   3.276
 2288SOL     OW 7762   0.328   5.484   3.285
 2288SOL    HW1 7763   0.308   5.395   3.326
 2288SOL    HW2 7764   0.427   5.495   3.276
 2289SOL     OW 7765   1.002   5.994   2.214
 2289SOL    HW1 7766   1.092   5.954   2.232
 2289SOL    HW2 7767   1.013   6.078   2.161
 2290SOL     OW 7768   0.822   4.994   1.485
 2290SOL    HW1 7769   0.795   4.898   1.482
 2290SOL    HW2 7770   0.743   5.052   1.467
 2291SOL     OW 7771   3.071   1.797   5.690
 2291SOL    HW1 7772   3.007   1.821   5.616
 2291SOL    HW2 7773   3.045   1.846   5.773
 2292SOL     OW 7774   1.135   1.030   4.927
 2292SOL    HW1 7775   1.062   0.963   4.924
 2292SOL    HW2 7776   1.114   1.106   4.866
 2293SOL     OW 7777   5.414   5.625   1.890
 2293SOL    HW1 7778   5.433   5.590   1.982
 2293SOL    HW2 7779   5.476   5.701   1.870
 2294SOL     OW 7780   4.074   6.592   0.003
 2294SOL    HW1 7781   4.066   6.588   6.928
 2294SOL    HW2 7782   4.057   6.685   0.034
 2295SOL     OW 7783   0.377   2.025   1.239
 2295SOL    HW1 7784   0.447   1.960   1.269
 2295SOL    HW2 7785   0.311   1.978   1.180
 2296SOL     OW 7786   3.235   0.199   0.524
 2296SOL    HW1 7787   3.225   0.293   0.492
 2296SOL    HW2 7788   3.263   0.141   0.447
 2297SOL     OW 7789   4.310   4.401   5.675
 2297SOL    HW1 7790   4.359   4.449   5.602
 2297SOL    HW2 7791   4.376   4.356   5.735
 2298SOL     OW 7792   3.574   2.018   1.433
 2298SOL    HW1 7793   3.640   1.970   1.375
 2298SOL    HW2 7794   3.620   2.051   1.515
 2299SOL     OW 7795   5.235   6.255   6.894
 2299SOL    HW1 7796   5.210   6.163   6.924
 2299SOL    HW2 7797   5.181   6.322   6.944
 2300SOL     OW 7798   1.596   5.280   1.711
 2300SOL    HW1 7799   1.545   5.234   1.639
 2300SOL    HW2 7800   1.532   5.316   1.779
 2301SOL     OW 7801   3.782   3.311   2.727
 2301SOL    HW1 7802   3.761   3.243   2.796
 2301SOL    HW2 7803   3.767   3.272   2.636
 2302SOL     OW 7804   3.105   5.836   2.902
 2302SOL    HW1 7805   3.101   5.822   2.803
 2302SOL    HW2 7806   3.191   5.882   2.925
 2303SOL     OW 7807   1.158   3.202   4.363
 2303SOL    HW1 7808   1.215   3.282   4.379
 2303SOL    HW2 7809   1.077   3.207   4.422
 2304SOL     OW 7810   2.404   0.911   3.397
 2304SOL    HW1 7811   2.482   0.973   3.410
 2304SOL    HW2 7812   2.334   0.957   3.341
 2305SOL     OW 7813   3.570   5.471   2.258
 2305SOL    HW1 7814   3.556   5.373   2.245
 2305SOL    HW2 7815   3.652   5.500   2.208
 2306SOL     OW 7816   2.235   4.253   1.925
 2306SOL    HW1 7817   2.326   4.284   1.899
 2306SOL    HW2 7818   2.177   4.250   1.843
 2307SOL     OW 7819   0.847   2.463   3.000
 2307SOL    HW1 7820   0.750   2.476   3.023
 2307SOL    HW2 7821   0.866   2.365   2.992
 2308SOL     OW 7822   0.796   0.625   6.614
 2308SOL    HW1 7823   0.850   0.703   6.584
 2308SOL    HW2 7824   0.826   0.543   6.565
 2309SOL     OW 7825   3.321   5.018   0.102
 2309SOL    HW1 7826   3.280   4.972   0.023
 2309SOL    HW2 7827   3.249   5.058   0.159
 2310SOL     OW 7828   6.056   0.758   1.637
 2310SOL    HW1 7829   5.957   0.758   1.649
 2310SOL    HW2 7830   6.089   0.663   1.634
 2311SOL     OW 7831   2.775   0.195   2.255
 2311SOL    HW1 7832   2.745   0.202   2.351
 2311SOL    HW2 7833   2.756   0.103   2.221
 2312SOL     OW 7834   4.275   0.382   2.622
 2312SOL    HW1 7835   4.366   0.412   2.650
 2312SOL    HW2 7836   4.207   0.425   2.680
 2313SOL     OW 7837   4.724   4.154   2.229
 2313SOL    HW1 7838   4.649   4.209   2.268
 2313SOL    HW2 7839   4.716   4.154   2.130
 2314SOL     OW 7840   5.982   0.961   3.770
 2314SOL    HW1 7841   5.949   0.895   3.837
 2314SOL    HW2 7842   5.908   0.982   3.706
 2315SOL     OW 7843   4.638   4.195   5.918
 2315SOL    HW1 7844   4.581   4.165   5.994
 2315SOL    HW2 7845   4.667   4.290   5.933
 2316SOL     OW 7846   2.775   1.214   6.465
 2316SOL    HW1 7847   2.843   1.262   6.409
 2316SOL    HW2 7848   2.714   1.281   6.507
 2317SOL     OW 7849   6.327   6.345   3.916
 2317SOL    HW1 7850   6.341   6.443   3.929
 2317SOL    HW2 7851   6.300   6.328   3.821
 2318SOL     OW 7852   2.120   4.100   4.439
 2318SOL    HW1 7853   2.063   4.024   4.471
 2318SOL    HW2 7854   2.185   4.125   4.511
 2319SOL     OW 7855   2.319   5.515   4.528
 2319SOL    HW1 7856   2.286   5.508   4.622
 2319SOL    HW2 7857   2.248   5.555   4.470
 2320SOL     OW 7858   1.272   3.408   5.506
 2320SOL    HW1 7859   1.353   3.427   5.451
 2320SOL    HW2 7860   1.197   3.381   5.446
 2321SOL     OW 7861   2.523   4.887   6.045
 2321SOL    HW1 7862   2.459   4.871   5.970
 2321SOL    HW2 7863   2.593   4.816   6.045
 2322SOL     OW 7864   1.824   3.665   2.179
 2322SOL    HW1 7865   1.820   3.740   2.245
 2322SOL    HW2 7866   1.916   3.659   2.141
 2323SOL     OW 7867   2.917   4.895   1.666
 2323SOL    HW1 7868   2.953   4.961   1.599
 2323SOL    HW2 7869   2.992   4.835   1.696
 2324SOL     OW 7870   6.881   5.766   2.229
 2324SOL    HW1 7871   6.935   5.688   2.197
 2324SOL    HW2 7872   6.879   5.836   2.158
 2325SOL     OW 7873   6.624   4.695   1.573
 2325SOL    HW1 7874   6.613   4.778   1.518
 2325SOL    HW2 7875   6.685   4.632   1.527
 2326SOL     OW 7876   1.346   6.513   6.799
 2326SOL    HW1 7877   1.345   6.435   6.862
 2326SOL    HW2 7878   1.301   6.591   6.843
 2327SOL     OW 7879   6.787   0.034   2.901
 2327SOL    HW1 7880   6.691   0.007   2.897
 2327SOL    HW2 7881   6.845   6.978   2.883
 2328SOL     OW 7882   1.385   2.069   2.056
 2328SOL    HW1 7883   1.343   1.980   2.034
 2328SOL    HW2 7884   1.483   2.057   2.066
 2329SOL     OW 7885   0.974   3.896   3.860
 2329SOL    HW1 7886   1.020   3.927   3.944
 2329SOL    HW2 7887   0.875   3.890   3.877
 2330SOL     OW 7888   6.986   2.915   0.335
 2330SOL    HW1 7889   6.896   2.926   0.376
 2330SOL    HW2 7890   7.009   2.997   0.283
 2331SOL     OW 7891   3.925   5.656   0.284
 2331SOL    HW1 7892   3.867   5.620   0.357
 2331SOL    HW2 7893   4.017   5.673   0.319
 2332SOL     OW 7894   6.485   6.788   5.726
 2332SOL    HW1 7895   6.547   6.862   5.753
 2332SOL    HW2 7896   6.530   6.728   5.661
 2333SOL     OW 7897   6.991   4.607   3.119
 2333SOL    HW1 7898   6.922   4.536   3.102
 2333SOL    HW2 7899   6.977   4.646   3.210
 2334SOL     OW 7900   1.257   0.935   6.101
 2334SOL    HW1 7901   1.351   0.903   6.090
 2334SOL    HW2 7902   1.224   0.911   6.192
 2335SOL     OW 7903   6.606   1.379   3.875
 2335SOL    HW1 7904   6.587   1.451   3.808
 2335SOL    HW2 7905   6.629   1.420   3.963
 2336SOL     OW 7906   2.831   1.588   3.700
 2336SOL    HW1 7907   2.874   1.642   3.772
 2336SOL    HW2 7908   2.765   1.646   3.651
 2337SOL     OW 7909   4.087   1.359   1.471
 2337SOL    HW1 7910   4.055   1.310   1.552
 2337SOL    HW2 7911   4.184   1.341   1.457
 2338SOL     OW 7912   0.967   3.434   3.810
 2338SOL    HW1 7913   0.988   3.427   3.908
 2338SOL    HW2 7914   0.901   3.363   3.785
 2339SOL     OW 7915   3.487   3.671   3.151
 2339SOL    HW1 7916   3.502   3.627   3.239
 2339SOL    HW2 7917   3.402   3.638   3.111
 2340SOL     OW 7918   0.709   5.225   6.555
 2340SOL    HW1 7919   0.618   5.185   6.562
 2340SOL    HW2 7920   0.706   5.320   6.587
 2341SOL     OW 7921   2.468   4.900   2.992
 2341SOL    HW1 7922   2.515   4.814   2.969
 2341SOL    HW2 7923   2.534   4.966   3.028
 2342SOL     OW 7924   2.743   6.784   4.345
 2342SOL    HW1 7925   2.742   6.691   4.310
 2342SOL    HW2 7926   2.718   6.848   4.272
 2343SOL     OW 7927   2.107   6.694   2.987
 2343SOL    HW1 7928   2.168   6.638   3.042
 2343SOL    HW2 7929   2.025   6.642   2.963
 2344SOL     OW 7930   6.884   5.420   0.653
 2344SOL    HW1 7931   6.869   5.501   0.710
 2344SOL    HW2 7932   6.834   5.343   0.692
 2345SOL     OW 7933   2.596   5.749   4.348
 2345SOL    HW1 7934   2.630   5.656   4.334
 2345SOL    HW2 7935   2.663   5.801   4.401
 2346SOL     OW 7936   4.199   3.210   5.840
 2346SOL    HW1 7937   4.217   3.299   5.880
 2346SOL    HW2 7938   4.283   3.155   5.841
 2347SOL     OW 7939   1.553   2.155   1.601
 2347SOL    HW1 7940   1.569   2.061   1.571
 2347SOL    HW2 7941   1.493   2.155   1.681
 2348SOL     OW 7942   1.923   5.864   3.594
 2348SOL    HW1 7943   1.981   5.831   3.668
 2348SOL    HW2 7944   1.902   5.961   3.609
 2349SOL     OW 7945   0.794   4.495   6.236
 2349SOL    HW1 7946   0.880   4.446   6.252
 2349SOL    HW2 7947   0.720   4.449   6.284
 2350SOL     OW 7948   5.964   3.803   5.787
 2350SOL    HW1 7949   5.887   3.800   5.724
 2350SOL    HW2 7950   5.981   3.710   5.822
 2351SOL     OW 7951   3.454   4.895   3.392
 2351SOL    HW1 7952   3.430   4.821   3.455
 2351SOL    HW2 7953   3.372   4.946   3.368
 2352SOL     OW 7954   6.672   2.785   3.621
 2352SOL    HW1 7955   6.721   2.786   3.534
 2352SOL    HW2 7956   6.591   2.844   3.614
 2353SOL     OW 7957   4.118   5.165   5.361
 2353SOL    HW1 7958   4.155   5.122   5.279
 2353SOL    HW2 7959   4.038   5.220   5.337
 2354SOL     OW 7960   2.585   2.230   4.435
 2354SOL    HW1 7961   2.555   2.255   4.527
 2354SOL    HW2 7962   2.509   2.186   4.386
 2355SOL     OW 7963   2.229   6.091   5.085
 2355SOL    HW1 7964   2.174   6.172   5.104
 2355SOL    HW2 7965   2.168   6.014   5.064
 2356SOL     OW 7966   1.083   2.903   0.102
 2356SOL    HW1 7967   1.045   2.868   0.188
 2356SOL    HW2 7968   1.129   2.990   0.118
 2357SOL     OW 7969   3.554   1.472   1.808
 2357SOL    HW1 7970   3.568   1.571   1.808
 2357SOL    HW2 7971   3.607   1.431   1.733
 2358SOL     OW 7972   2.489   5.173   5.514
 2358SOL    HW1 7973   2.553   5.111   5.469
 2358SOL    HW2 7974   2.524   5.266   5.510
 2359SOL     OW 7975   0.359   0.454   5.303
 2359SOL    HW1 7976   0.447   0.490   5.334
 2359SOL    HW2 7977   0.298   0.443   5.382
 2360SOL     OW 7978   6.198   4.061   0.746
 2360SOL    HW1 7979   6.182   3.968   0.712
 2360SOL    HW2 7980   6.134   4.123   0.700
 2361SOL     OW 7981   2.995   1.417   6.439
 2361SOL    HW1 7982   3.065   1.345   6.438
 2361SOL    HW2 7983   3.001   1.470   6.355
 2362SOL     OW 7984   2.971   5.866   3.766
 2362SOL    HW1 7985   2.905   5.862   3.691
 2362SOL    HW2 7986   3.001   5.774   3.790
 2363SOL     OW 7987   4.010   1.795   3.792
 2363SOL    HW1 7988   4.007   1.759   3.885
 2363SOL    HW2 7989   3.921   1.833   3.767
 2364SOL     OW 7990   1.333   2.579   2.125
 2364SOL    HW1 7991   1.256   2.551   2.068
 2364SOL    HW2 7992   1.386   2.649   2.076
 2365SOL     OW 7993   6.729   2.080   6.761
 2365SOL    HW1 7994   6.722   2.176   6.787
 2365SOL    HW2 7995   6.715   2.072   6.662
 2366SOL     OW 7996   3.150   4.977   0.726
 2366SOL    HW1 7997   3.092   5.029   0.789
 2366SOL    HW2 7998   3.148   4.880   0.751
 2367SOL     OW 7999   2.050   3.617   0.171
 2367SOL    HW1 8000   1.966   3.648   0.128
 2367SOL    HW2 8001   2.063   3.519   0.153
 2368SOL     OW 8002   5.609   6.842   4.396
 2368SOL    HW1 8003   5.589   6.916   4.332
 2368SOL    HW2 8004   5.651   6.880   4.478
 2369SOL     OW 8005   1.958   6.811   4.441
 2369SOL    HW1 8006   1.945   6.775   4.349
 2369SOL    HW2 8007   2.050   6.850   4.448
 2370SOL     OW 8008   5.866   3.342   6.900
 2370SOL    HW1 8009   5.934   3.306   6.836
 2370SOL    HW2 8010   5.908   3.411   6.958
 2371SOL     OW 8011   2.483   6.455   2.283
 2371SOL    HW1 8012   2.555   6.387   2.268
 2371SOL    HW2 8013   2.475   6.513   2.202
 2372SOL     OW 8014   6.968   2.767   1.954
 2372SOL    HW1 8015   6.900   2.770   1.880
 2372SOL    HW2 8016   0.034   2.786   1.916
 2373SOL     OW 8017   1.807   3.565   5.663
 2373SOL    HW1 8018   1.872   3.548   5.590
 2373SOL    HW2 8019   1.828   3.508   5.742
 2374SOL     OW 8020   6.651   2.423   5.064
 2374SOL    HW1 8021   6.636   2.354   5.135
 2374SOL    HW2 8022   6.625   2.513   5.099
 2375SOL     OW 8023   3.394   5.561   6.050
 2375SOL    HW1 8024   3.316   5.510   6.087
 2375SOL    HW2 8025   3.413   5.530   5.957
 2376SOL     OW 8026   5.622   3.337   3.860
 2376SOL    HW1 8027   5.603   3.336   3.958
 2376SOL    HW2 8028   5.537   3.352   3.810
 2377SOL     OW 8029   3.300   3.780   3.679
 2377SOL    HW1 8030   3.354   3.797   3.597
 2377SOL    HW2 8031   3.282   3.867   3.726
 2378SOL     OW 8032   5.032   2.358   0.129
 2378SOL    HW1 8033   4.943   2.339   0.089
 2378SOL    HW2 8034   5.090   2.405   0.062
 2379SOL     OW 8035   6.757   1.016   0.189
 2379SOL    HW1 8036   6.678   1.065   0.227
 2379SOL    HW2 8037   6.758   0.923   0.224
 2380SOL     OW 8038   0.414   2.834   0.220
 2380SOL    HW1 8039   0.330   2.828   0.274
 2380SOL    HW2 8040   0.448   2.742   0.200
 2381SOL     OW 8041   2.193   6.030   3.147
 2381SOL    HW1 8042   2.138   6.080   3.214
 2381SOL    HW2 8043   2.164   5.934   3.145
 2382SOL     OW 8044   1.885   3.395   4.362
 2382SOL    HW1 8045   1.910   3.312   4.411
 2382SOL    HW2 8046   1.958   3.419   4.298
 2383SOL     OW 8047   6.465   6.963   1.360
 2383SOL    HW1 8048   6.497   6.887   1.304
 2383SOL    HW2 8049   6.385   7.005   1.318
 2384SOL     OW 8050   4.826   2.085   2.517
 2384SOL    HW1 8051   4.731   2.097   2.491
 2384SOL    HW2 8052   4.884   2.083   2.436
 2385SOL     OW 8053   0.044   0.547   6.966
 2385SOL    HW1 8054   7.005   0.624   6.974
 2385SOL    HW2 8055   0.027   0.481   0.015
 2386SOL     OW 8056   5.211   5.944   4.355
 2386SOL    HW1 8057   5.223   5.900   4.444
 2386SOL    HW2 8058   5.162   5.881   4.294
 2387SOL     OW 8059   1.977   1.121   4.307
 2387SOL    HW1 8060   2.023   1.146   4.391
 2387SOL    HW2 8061   1.879   1.112   4.324
 2388SOL     OW 8062   6.798   2.710   4.076
 2388SOL    HW1 8063   6.731   2.667   4.137
 2388SOL    HW2 8064   6.799   2.809   4.092
 2389SOL     OW 8065   4.393   4.693   3.585
 2389SOL    HW1 8066   4.309   4.726   3.542
 2389SOL    HW2 8067   4.375   4.671   3.681
 2390SOL     OW 8068   3.965   3.019   2.596
 2390SOL    HW1 8069   4.027   3.097   2.584
 2390SOL    HW2 8070   3.884   3.032   2.539
 2391SOL     OW 8071   5.373   4.866   6.326
 2391SOL    HW1 8072   5.418   4.888   6.239
 2391SOL    HW2 8073   5.304   4.796   6.310
 2392SOL     OW 8074   2.698   6.943   6.506
 2392SOL    HW1 8075   2.676   6.863   6.561
 2392SOL    HW2 8076   2.614   6.977   6.462
 2393SOL     OW 8077   4.695   4.450   5.992
 2393SOL    HW1 8078   4.607   4.496   6.007
 2393SOL    HW2 8079   4.752   4.459   6.074
 2394SOL     OW 8080   0.216   3.885   4.777
 2394SOL    HW1 8081   0.156   3.806   4.776
 2394SOL    HW2 8082   0.249   3.903   4.684
 2395SOL     OW 8083   4.880   0.034   5.662
 2395SOL    HW1 8084   4.798   0.081   5.630
 2395SOL    HW2 8085   4.870   0.011   5.759
 2396SOL     OW 8086   3.982   5.135   0.754
 2396SOL    HW1 8087   3.951   5.074   0.681
 2396SOL    HW2 8088   3.952   5.228   0.734
 2397SOL     OW 8089   0.325   4.201   4.330
 2397SOL    HW1 8090   0.275   4.257   4.396
 2397SOL    HW2 8091   0.412   4.173   4.369
 2398SOL     OW 8092   5.046   3.933   6.966
 2398SOL    HW1 8093   4.948   3.913   6.976
 2398SOL    HW2 8094   5.069   3.932   6.869
 2399SOL     OW 8095   4.030   0.909   1.008
 2399SOL    HW1 8096   4.019   0.995   1.058
 2399SOL    HW2 8097   4.057   0.928   0.914
 2400SOL     OW 8098   2.690   3.656   0.771
 2400SOL    HW1 8099   2.711   3.559   0.780
 2400SOL    HW2 8100   2.771   3.711   0.793
 2401SOL     OW 8101   5.704   6.065   6.996
 2401SOL    HW1 8102   5.803   6.079   7.002
 2401SOL    HW2 8103   5.666   6.056   0.064
 2402SOL     OW 8104   0.580   0.142   4.521
 2402SOL    HW1 8105   0.651   0.177   4.461
 2402SOL    HW2 8106   0.609   0.055   4.562
 2403SOL     OW 8107   0.871   2.546   5.827
 2403SOL    HW1 8108   0.912   2.473   5.881
 2403SOL    HW2 8109   0.904   2.635   5.860
 2404SOL     OW 8110   2.396   1.509   1.437
 2404SOL    HW1 8111   2.367   1.417   1.463
 2404SOL    HW2 8112   2.496   1.516   1.441
 2405SOL     OW 8113   3.280   4.099   2.496
 2405SOL    HW1 8114   3.340   4.096   2.416
 2405SOL    HW2 8115   3.332   4.132   2.575
 2406SOL     OW 8116   3.521   1.387   1.445
 2406SOL    HW1 8117   3.605   1.394   1.499
 2406SOL    HW2 8118   3.462   1.317   1.485
 2407SOL     OW 8119   5.678   1.914   3.802
 2407SOL    HW1 8120   5.654   1.996   3.751
 2407SOL    HW2 8121   5.777   1.899   3.797
 2408SOL     OW 8122   4.521   4.507   2.032
 2408SOL    HW1 8123   4.597   4.567   2.007
 2408SOL    HW2 8124   4.539   4.415   1.998
 2409SOL     OW 8125   2.212   3.977   1.924
 2409SOL    HW1 8126   2.282   4.048   1.918
 2409SOL    HW2 8127   2.138   4.009   1.984
 2410SOL     OW 8128   4.074   3.220   4.349
 2410SOL    HW1 8129   3.984   3.262   4.361
 2410SOL    HW2 8130   4.099   3.221   4.252
 2411SOL     OW 8131   5.314   6.387   5.298
 2411SOL    HW1 8132   5.351   6.295   5.309
 2411SOL    HW2 8133   5.254   6.389   5.218
 2412SOL     OW 8134   5.665   4.188   1.780
 2412SOL    HW1 8135   5.571   4.160   1.766
 2412SOL    HW2 8136   5.667   4.279   1.822
 2413SOL     OW 8137   5.553   0.463   1.473
 2413SOL    HW1 8138   5.543   0.558   1.499
 2413SOL    HW2 8139   5.605   0.457   1.387
 2414SOL     OW 8140   4.766   4.282   3.641
 2414SOL    HW1 8141   4.767   4.381   3.638
 2414SOL    HW2 8142   4.738   4.251   3.732
 2415SOL     OW 8143   5.893   1.013   2.239
 2415SOL    HW1 8144   5.928   1.070   2.314
 2415SOL    HW2 8145   5.829   0.946   2.275
 2416SOL     OW 8146   5.490   2.009   5.827
 2416SOL    HW1 8147   5.585   2.039   5.839
 2416SOL    HW2 8148   5.428   2.084   5.850
 2417SOL     OW 8149   2.929   3.307   4.751
 2417SOL    HW1 8150   2.937   3.286   4.654
 2417SOL    HW2 8151   2.921   3.406   4.763
 2418SOL     OW 8152   3.325   3.189   4.012
 2418SOL    HW1 8153   3.344   3.266   4.074
 2418SOL    HW2 8154   3.393   3.118   4.026
 2419SOL     OW 8155   0.419   6.584   3.503
 2419SOL    HW1 8156   0.464   6.547   3.584
 2419SOL    HW2 8157   0.423   6.684   3.506
 2420SOL     OW 8158   3.159   0.405   1.854
 2420SOL    HW1 8159   3.217   0.327   1.879
 2420SOL    HW2 8160   3.175   0.480   1.918
 2421SOL     OW 8161   2.010   2.749   4.506
 2421SOL    HW1 8162   2.091   2.807   4.493
 2421SOL    HW2 8163   1.953   2.788   4.578
 2422SOL     OW 8164   4.961   1.762   0.940
 2422SOL    HW1 8165   5.038   1.826   0.939
 2422SOL    HW2 8166   4.996   1.669   0.948
 2423SOL     OW 8167   2.703   6.318   2.463
 2423SOL    HW1 8168   2.636   6.371   2.516
 2423SOL    HW2 8169   2.771   6.279   2.525
 2424SOL     OW 8170   5.726   1.272   0.313
 2424SOL    HW1 8171   5.673   1.354   0.333
 2424SOL    HW2 8172   5.678   1.218   0.243
 2425SOL     OW 8173   6.082   0.592   4.186
 2425SOL    HW1 8174   6.137   0.589   4.269
 2425SOL    HW2 8175   6.137   0.560   4.109
 2426SOL     OW 8176   2.270   4.980   4.937
 2426SOL    HW1 8177   2.349   4.982   4.998
 2426SOL    HW2 8178   2.267   4.893   4.888
 2427SOL     OW 8179   5.926   6.263   5.023
 2427SOL    HW1 8180   5.869   6.345   5.028
 2427SOL    HW2 8181   5.959   6.240   5.115
 2428SOL     OW 8182   0.503   0.703   1.758
 2428SOL    HW1 8183   0.442   0.747   1.824
 2428SOL    HW2 8184   0.528   0.768   1.687
 2429SOL     OW 8185   5.337   5.696   1.227
 2429SOL    HW1 8186   5.427   5.683   1.187
 2429SOL    HW2 8187   5.314   5.617   1.284
 2430SOL     OW 8188   6.016   0.468   2.537
 2430SOL    HW1 8189   5.930   0.518   2.525
 2430SOL    HW2 8190   6.046   0.475   2.631
 2431SOL     OW 8191   4.297   1.073   2.314
 2431SOL    HW1 8192   4.328   0.978   2.324
 2431SOL    HW2 8193   4.292   1.116   2.404
 2432SOL     OW 8194   4.659   6.231   1.879
 2432SOL    HW1 8195   4.712   6.303   1.924
 2432SOL    HW2 8196   4.718   6.152   1.861
 2433SOL     OW 8197   4.318   0.375   6.797
 2433SOL    HW1 8198   4.274   0.286   6.805
 2433SOL    HW2 8199   4.252   0.443   6.766
 2434SOL     OW 8200   3.753   1.061   6.039
 2434SOL    HW1 8201   3.813   1.140   6.050
 2434SOL    HW2 8202   3.717   1.059   5.946
 2435SOL     OW 8203   5.829   5.943   5.267
 2435SOL    HW1 8204   5.774   5.960   5.349
 2435SOL    HW2 8205   5.771   5.953   5.186
 2436SOL     OW 8206   2.376   5.852   0.452
 2436SOL    HW1 8207   2.363   5.843   0.551
 2436SOL    HW2 8208   2.432   5.933   0.433
 2437SOL     OW 8209   6.586   6.297   5.365
 2437SOL    HW1 8210   6.588   6.253   5.455
 2437SOL    HW2 8211   6.537   6.384   5.372
 2438SOL     OW 8212   2.731   2.375   0.753
 2438SOL    HW1 8213   2.645   2.367   0.702
 2438SOL    HW2 8214   2.763   2.284   0.779
 2439SOL     OW 8215   6.144   4.049   5.497
 2439SOL    HW1 8216   6.053   4.009   5.483
 2439SOL    HW2 8217   6.202   4.027   5.418
 2440SOL     OW 8218   5.430   5.429   5.724
 2440SOL    HW1 8219   5.376   5.489   5.665
 2440SOL    HW2 8220   5.381   5.414   5.810
 2441SOL     OW 8221   5.696   2.054   0.483
 2441SOL    HW1 8222   5.673   2.097   0.570
 2441SOL    HW2 8223   5.630   2.082   0.413
 2442SOL     OW 8224   0.700   3.768   4.636
 2442SOL    HW1 8225   0.772   3.712   4.678
 2442SOL    HW2 8226   0.689   3.742   4.540
 2443SOL     OW 8227   2.822   4.080   6.471
 2443SOL    HW1 8228   2.768   4.159   6.444
 2443SOL    HW2 8229   2.914   4.086   6.431
 2444SOL     OW 8230   2.571   3.841   5.745
 2444SOL    HW1 8231   2.539   3.788   5.823
 2444SOL    HW2 8232   2.665   3.816   5.723
 2445SOL     OW 8233   0.370   0.953   0.798
 2445SOL    HW1 8234   0.403   0.864   0.830
 2445SOL    HW2 8235   0.439   1.022   0.816
 2446SOL     OW 8236   6.334   4.675   5.173
 2446SOL    HW1 8237   6.366   4.767   5.150
 2446SOL    HW2 8238   6.263   4.647   5.109
 2447SOL     OW 8239   0.966   1.312   0.308
 2447SOL    HW1 8240   1.045   1.370   0.287
 2447SOL    HW2 8241   0.935   1.332   0.401
 2448SOL     OW 8242   1.124   0.463   4.645
 2448SOL    HW1 8243   1.062   0.444   4.721
 2448SOL    HW2 8244   1.159   0.377   4.609
 2449SOL     OW 8245   0.353   3.850   5.552
 2449SOL    HW1 8246   0.399   3.768   5.517
 2449SOL    HW2 8247   0.260   3.827   5.579
 2450SOL     OW 8248   2.091   3.741   3.052
 2450SOL    HW1 8249   2.109   3.642   3.051
 2450SOL    HW2 8250   2.137   3.782   3.131
 2451SOL     OW 8251   2.222   5.987   3.718
 2451SOL    HW1 8252   2.149   6.038   3.764
 2451SOL    HW2 8253   2.191   5.959   3.627
 2452SOL     OW 8254   1.102   2.737   4.186
 2452SOL    HW1 8255   1.160   2.809   4.148
 2452SOL    HW2 8256   1.155   2.680   4.249
 2453SOL     OW 8257   6.682   4.310   1.287
 2453SOL    HW1 8258   6.696   4.213   1.307
 2453SOL    HW2 8259   6.606   4.345   1.341
 2454SOL     OW 8260   3.277   0.912   2.445
 2454SOL    HW1 8261   3.358   0.897   2.502
 2454SOL    HW2 8262   3.249   1.008   2.451
 2455SOL     OW 8263   5.905   5.898   0.553
 2455SOL    HW1 8264   5.870   5.972   0.611
 2455SOL    HW2 8265   5.932   5.935   0.464
 2456SOL     OW 8266   4.525   6.733   1.538
 2456SOL    HW1 8267   4.488   6.728   1.631
 2456SOL    HW2 8268   4.549   6.641   1.507
 2457SOL     OW 8269   5.723   6.480   1.595
 2457SOL    HW1 8270   5.774   6.408   1.643
 2457SOL    HW2 8271   5.631   6.448   1.576
 2458SOL     OW 8272   0.675   5.456   3.434
 2458SOL    HW1 8273   0.718   5.545   3.420
 2458SOL    HW2 8274   0.619   5.432   3.355
 2459SOL     OW 8275   2.233   0.057   0.870
 2459SOL    HW1 8276   2.203   0.141   0.825
 2459SOL    HW2 8277   2.325   0.070   0.907
 2460SOL     OW 8278   3.322   5.576   1.897
 2460SOL    HW1 8279   3.278   5.661   1.868
 2460SOL    HW2 8280   3.280   5.544   1.982
 2461SOL     OW 8281   5.588   0.781   2.223
 2461SOL    HW1 8282   5.520   0.713   2.198
 2461SOL    HW2 8283   5.542   0.863   2.258
 2462SOL     OW 8284   2.147   4.973   6.431
 2462SOL    HW1 8285   2.065   4.978   6.373
 2462SOL    HW2 8286   2.209   4.904   6.393
 2463SOL     OW 8287   6.543   1.825   4.423
 2463SOL    HW1 8288   6.553   1.924   4.409
 2463SOL    HW2 8289   6.613   1.776   4.372
 2464SOL     OW 8290   1.562   3.339   1.010
 2464SOL    HW1 8291   1.471   3.368   1.042
 2464SOL    HW2 8292   1.555   3.247   0.971
 2465SOL     OW 8293   6.334   5.682   3.642
 2465SOL    HW1 8294   6.267   5.693   3.715
 2465SOL    HW2 8295   6.426   5.676   3.682
 2466SOL     OW 8296   4.099   1.800   2.715
 2466SOL    HW1 8297   4.066   1.832   2.626
 2466SOL    HW2 8298   4.038   1.728   2.748
 2467SOL     OW 8299   6.809   0.834   6.040
 2467SOL    HW1 8300   6.734   0.893   6.073
 2467SOL    HW2 8301   6.796   0.817   5.942
 2468SOL     OW 8302   0.074   4.733   0.992
 2468SOL    HW1 8303   0.045   4.670   0.919
 2468SOL    HW2 8304   0.000   4.741   1.059
 2469SOL     OW 8305   2.739   3.010   5.706
 2469SOL    HW1 8306   2.803   3.082   5.733
 2469SOL    HW2 8307   2.736   3.002   5.607
 2470SOL     OW 8308   5.698   3.228   0.348
 2470SOL    HW1 8309   5.669   3.255   0.440
 2470SOL    HW2 8310   5.639   3.154   0.315
 2471SOL     OW 8311   1.404   0.320   3.442
 2471SOL    HW1 8312   1.376   0.416   3.443
 2471SOL    HW2 8313   1.347   0.270   3.376
 2472SOL     OW 8314   6.210   1.600   3.132
 2472SOL    HW1 8315   6.117   1.566   3.117
 2472SOL    HW2 8316   6.275   1.529   3.105
 2473SOL     OW 8317   1.067   6.756   4.901
 2473SOL    HW1 8318   1.070   6.782   4.805
 2473SOL    HW2 8319   0.981   6.786   4.942
 2474SOL     OW 8320   6.250   5.413   4.588
 2474SOL    HW1 8321   6.155   5.401   4.619
 2474SOL    HW2 8322   6.261   5.369   4.499
 2475SOL     OW 8323   4.116   1.902   0.281
 2475SOL    HW1 8324   4.199   1.924   0.230
 2475SOL    HW2 8325   4.114   1.954   0.366
 2476SOL     OW 8326   0.419   2.168   4.212
 2476SOL    HW1 8327   0.509   2.126   4.225
 2476SOL    HW2 8328   0.358   2.141   4.287
 2477SOL     OW 8329   4.150   5.036   1.324
 2477SOL    HW1 8330   4.100   4.961   1.280
 2477SOL    HW2 8331   4.248   5.028   1.302
 2478SOL     OW 8332   6.780   6.755   3.293
 2478SOL    HW1 8333   6.851   6.762   3.223
 2478SOL    HW2 8334   6.761   6.846   3.331
 2479SOL     OW 8335   0.560   3.517   0.277
 2479SOL    HW1 8336   0.658   3.534   0.268
 2479SOL    HW2 8337   0.540   3.482   0.368
 2480SOL     OW 8338   0.370   3.731   1.018
 2480SOL    HW1 8339   0.295   3.678   0.978
 2480SOL    HW2 8340   0.369   3.722   1.118
 2481SOL     OW 8341   4.374   5.420   2.502
 2481SOL    HW1 8342   4.397   5.365   2.421
 2481SOL    HW2 8343   4.301   5.373   2.553
 2482SOL     OW 8344   4.451   2.461   4.314
 2482SOL    HW1 8345   4.446   2.372   4.270
 2482SOL    HW2 8346   4.358   2.498   4.324
 2483SOL     OW 8347   0.693   2.017   6.657
 2483SOL    HW1 8348   0.634   1.945   6.620
 2483SOL    HW2 8349   0.665   2.038   6.751
 2484SOL     OW 8350   2.944   2.161   6.501
 2484SOL    HW1 8351   2.902   2.140   6.590
 2484SOL    HW2 8352   2.946   2.260   6.487
 2485SOL     OW 8353   0.332   5.885   2.482
 2485SOL    HW1 8354   0.333   5.943   2.563
 2485SOL    HW2 8355   0.239   5.878   2.446
 2486SOL     OW 8356   0.850   5.154   3.279
 2486SOL    HW1 8357   0.917   5.221   3.311
 2486SOL    HW2 8358   0.835   5.167   3.181
 2487SOL     OW 8359   3.149   0.796   0.844
 2487SOL    HW1 8360   3.247   0.794   0.862
 2487SOL    HW2 8361   3.100   0.791   0.931
 2488SOL     OW 8362   3.375   6.091   6.525
 2488SOL    HW1 8363   3.426   6.097   6.611
 2488SOL    HW2 8364   3.405   6.165   6.464
 2489SOL     OW 8365   6.980   5.824   4.339
 2489SOL    HW1 8366   0.041   5.787   4.376
 2489SOL    HW2 8367   6.986   5.924   4.335
 2490SOL     OW 8368   4.899   3.679   1.506
 2490SOL    HW1 8369   4.987   3.720   1.481
 2490SOL    HW2 8370   4.898   3.657   1.603
 2491SOL     OW 8371   1.140   4.300   2.375
 2491SOL    HW1 8372   1.113   4.213   2.331
 2491SOL    HW2 8373   1.111   4.299   2.470
 2492SOL     OW 8374   4.004   2.866   5.895
 2492SOL    HW1 8375   4.008   2.854   5.995
 2492SOL    HW2 8376   3.977   2.960   5.874
 2493SOL     OW 8377   6.608   2.075   4.323
 2493SOL    HW1 8378   6.597   2.055   4.226
 2493SOL    HW2 8379   6.616   2.174   4.337
 2494SOL     OW 8380   4.783   3.711   1.234
 2494SOL    HW1 8381   4.833   3.701   1.320
 2494SOL    HW2 8382   4.801   3.631   1.176
 2495SOL     OW 8383   6.105   1.660   4.064
 2495SOL    HW1 8384   6.011   1.628   4.074
 2495SOL    HW2 8385   6.168   1.583   4.081
 2496SOL     OW 8386   0.623   6.041   0.128
 2496SOL    HW1 8387   0.608   6.004   0.036
 2496SOL    HW2 8388   0.610   5.969   0.196
 2497SOL     OW 8389   5.412   2.034   6.163
 2497SOL    HW1 8390   5.504   2.067   6.140
 2497SOL    HW2 8391   5.363   2.106   6.212
 2498SOL     OW 8392   1.030   3.926   4.693
 2498SOL    HW1 8393   0.982   3.933   4.606
 2498SOL    HW2 8394   1.109   3.866   4.683
 2499SOL     OW 8395   5.755   0.378   5.712
 2499SOL    HW1 8396   5.737   0.305   5.777
 2499SOL    HW2 8397   5.687   0.376   5.639
 2500SOL     OW 8398   4.633   2.848   6.173
 2500SOL    HW1 8399   4.646   2.878   6.267
 2500SOL    HW2 8400   4.538   2.817   6.161
 2501SOL     OW 8401   6.379   4.503   0.334
 2501SOL    HW1 8402   6.477   4.490   0.352
 2501SOL    HW2 8403   6.326   4.454   0.402
 2502SOL     OW 8404   1.969   6.828   3.275
 2502SOL    HW1 8405   1.898   6.764   3.247
 2502SOL    HW2 8406   1.959   6.848   3.373
 2503SOL     OW 8407   4.595   5.990   4.780
 2503SOL    HW1 8408   4.553   6.031   4.699
 2503SOL    HW2 8409   4.690   5.965   4.760
 2504SOL     OW 8410   2.012   4.208   3.428
 2504SOL    HW1 8411   2.071   4.288   3.415
 2504SOL    HW2 8412   1.993   4.166   3.339
 2505SOL     OW 8413   4.352   5.353   3.770
 2505SOL    HW1 8414   4.417   5.285   3.736
 2505SOL    HW2 8415   4.361   5.363   3.869
 2506SOL     OW 8416   0.003   1.452   0.484
 2506SOL    HW1 8417   6.978   1.381   0.434
 2506SOL    HW2 8418   6.999   1.451   0.580
 2507SOL     OW 8419   6.787   5.642   1.073
 2507SOL    HW1 8420   6.695   5.680   1.084
 2507SOL    HW2 8421   6.854   5.714   1.090
 2508SOL     OW 8422   2.515   2.512   2.226
 2508SOL    HW1 8423   2.512   2.606   2.261
 2508SOL    HW2 8424   2.498   2.448   2.301
 2509SOL     OW 8425   5.183   2.083   3.949
 2509SOL    HW1 8426   5.165   2.040   3.860
 2509SOL    HW2 8427   5.096   2.110   3.990
 2510SOL     OW 8428   3.585   5.621   1.050
 2510SOL    HW1 8429   3.587   5.719   1.070
 2510SOL    HW2 8430   3.576   5.570   1.135
 2511SOL     OW 8431   1.279   6.875   4.458
 2511SOL    HW1 8432   1.367   6.829   4.474
 2511SOL    HW2 8433   1.213   6.844   4.526
 2512SOL     OW 8434   4.774   2.813   4.401
 2512SOL    HW1 8435   4.739   2.841   4.491
 2512SOL    HW2 8436   4.708   2.754   4.356
 2513SOL     OW 8437   0.436   4.585   1.180
 2513SOL    HW1 8438   0.528   4.553   1.159
 2513SOL    HW2 8439   0.410   4.553   1.272
 2514SOL     OW 8440   1.123   1.696   4.250
 2514SOL    HW1 8441   1.031   1.671   4.219
 2514SOL    HW2 8442   1.175   1.733   4.173
 2515SOL     OW 8443   0.610   4.713   0.395
 2515SOL    HW1 8444   0.530   4.653   0.388
 2515SOL    HW2 8445   0.580   4.804   0.425
 2516SOL     OW 8446   4.732   6.345   3.768
 2516SOL    HW1 8447   4.670   6.419   3.793
 2516SOL    HW2 8448   4.812   6.346   3.828
 2517SOL     OW 8449   2.471   4.929   0.393
 2517SOL    HW1 8450   2.477   4.857   0.462
 2517SOL    HW2 8451   2.404   4.904   0.324
 2518SOL     OW 8452   2.527   2.411   6.143
 2518SOL    HW1 8453   2.512   2.509   6.136
 2518SOL    HW2 8454   2.466   2.372   6.212
 2519SOL     OW 8455   5.281   4.549   4.918
 2519SOL    HW1 8456   5.307   4.453   4.918
 2519SOL    HW2 8457   5.208   4.564   4.851
 2520SOL     OW 8458   2.329   4.915   2.229
 2520SOL    HW1 8459   2.351   4.842   2.164
 2520SOL    HW2 8460   2.235   4.947   2.213
 2521SOL     OW 8461   6.223   6.798   5.614
 2521SOL    HW1 8462   6.230   6.805   5.515
 2521SOL    HW2 8463   6.313   6.811   5.655
 2522SOL     OW 8464   1.294   3.193   5.145
 2522SOL    HW1 8465   1.375   3.250   5.159
 2522SOL    HW2 8466   1.291   3.122   5.216
 2523SOL     OW 8467   6.774   3.206   6.800
 2523SOL    HW1 8468   6.861   3.164   6.776
 2523SOL    HW2 8469   6.788   3.302   6.823
 2524SOL     OW 8470   0.873   7.014   5.030
 2524SOL    HW1 8471   0.891   0.022   4.937
 2524SOL    HW2 8472   0.847   6.918   5.028
 2525SOL     OW 8473   2.002   4.425   3.110
 2525SOL    HW1 8474   2.022   4.328   3.096
 2525SOL    HW2 8475   1.923   4.450   3.054
 2526SOL     OW 8476   0.510   2.016   5.610
 2526SOL    HW1 8477   0.421   2.049   5.639
 2526SOL    HW2 8478   0.566   2.093   5.579
 2527SOL     OW 8479   5.792   6.640   3.843
 2527SOL    HW1 8480   5.849   6.677   3.917
 2527SOL    HW2 8481   5.845   6.573   3.791
 2528SOL     OW 8482   5.814   5.330   0.259
 2528SOL    HW1 8483   5.847   5.286   0.176
 2528SOL    HW2 8484   5.752   5.267   0.308
 2529SOL     OW 8485   5.296   3.941   4.922
 2529SOL    HW1 8486   5.323   3.900   5.009
 2529SOL    HW2 8487   5.377   3.951   4.863
 2530SOL     OW 8488   1.240   6.715   3.925
 2530SOL    HW1 8489   1.283   6.803   3.945
 2530SOL    HW2 8490   1.141   6.727   3.919
 2531SOL     OW 8491   4.964   1.541   0.159
 2531SOL    HW1 8492   4.869   1.509   0.164
 2531SOL    HW2 8493   5.016   1.501   0.235
 2532SOL     OW 8494   1.565   4.497   5.854
 2532SOL    HW1 8495   1.562   4.465   5.949
 2532SOL    HW2 8496   1.534   4.423   5.793
 2533SOL     OW 8497   5.995   6.733   5.137
 2533SOL    HW1 8498   6.047   6.812   5.103
 2533SOL    HW2 8499   6.057   6.669   5.181
 2534SOL     OW 8500   6.917   1.864   3.559
 2534SOL    HW1 8501   6.820   1.841   3.553
 2534SOL    HW2 8502   6.953   1.833   3.647
 2535SOL     OW 8503   2.409   1.092   2.715
 2535SOL    HW1 8504   2.420   1.106   2.813
 2535SOL    HW2 8505   2.498   1.072   2.674
 2536SOL     OW 8506   6.260   0.959   3.758
 2536SOL    HW1 8507   6.291   0.893   3.827
 2536SOL    HW2 8508   6.160   0.958   3.754
 2537SOL     OW 8509   4.248   5.235   1.499
 2537SOL    HW1 8510   4.224   5.170   1.427
 2537SOL    HW2 8511   4.254   5.327   1.462
 2538SOL     OW 8512   1.806   4.776   4.978
 2538SOL    HW1 8513   1.811   4.874   4.999
 2538SOL    HW2 8514   1.810   4.764   4.879
 2539SOL     OW 8515   2.696   0.333   5.935
 2539SOL    HW1 8516   2.773   0.295   5.987
 2539SOL    HW2 8517   2.730   0.378   5.853
 2540SOL     OW 8518   5.712   1.790   2.334
 2540SOL    HW1 8519   5.769   1.778   2.415
 2540SOL    HW2 8520   5.764   1.762   2.253
 2541SOL     OW 8521   0.692   6.930   5.554
 2541SOL    HW1 8522   0.648   6.842   5.573
 2541SOL    HW2 8523   0.703   6.941   5.455
 2542SOL     OW 8524   3.672   1.723   4.142
 2542SOL    HW1 8525   3.591   1.669   4.120
 2542SOL    HW2 8526   3.645   1.811   4.181
 2543SOL     OW 8527   0.309   2.413   4.721
 2543SOL    HW1 8528   0.210   2.400   4.729
 2543SOL    HW2 8529   0.334   2.418   4.625
 2544SOL     OW 8530   6.199   5.751   2.731
 2544SOL    HW1 8531   6.142   5.673   2.707
 2544SOL    HW2 8532   6.143   5.821   2.776
 2545SOL     OW 8533   6.361   1.950   0.519
 2545SOL    HW1 8534   6.397   1.922   0.430
 2545SOL    HW2 8535   6.331   2.046   0.513
 2546SOL     OW 8536   6.293   4.185   2.707
 2546SOL    HW1 8537   6.385   4.207   2.738
 2546SOL    HW2 8538   6.285   4.204   2.609
 2547SOL     OW 8539   5.799   3.700   0.776
 2547SOL    HW1 8540   5.853   3.740   0.851
 2547SOL    HW2 8541   5.855   3.632   0.728
 2548SOL     OW 8542   0.210   6.378   5.468
 2548SOL    HW1 8543   0.283   6.427   5.515
 2548SOL    HW2 8544   0.205   6.284   5.503
 2549SOL     OW 8545   3.112   2.985   0.271
 2549SOL    HW1 8546   3.082   2.902   0.223
 2549SOL    HW2 8547   3.083   2.980   0.367
 2550SOL     OW 8548   4.047   5.844   6.295
 2550SOL    HW1 8549   4.065   5.931   6.249
 2550SOL    HW2 8550   3.988   5.787   6.237
 2551SOL     OW 8551   3.641   5.202   0.732
 2551SOL    HW1 8552   3.716   5.267   0.738
 2551SOL    HW2 8553   3.555   5.247   0.758
 2552SOL     OW 8554   2.119   5.533   1.682
 2552SOL    HW1 8555   2.162   5.622   1.668
 2552SOL    HW2 8556   2.020   5.542   1.675
 2553SOL     OW 8557   4.370   0.901   0.037
 2553SOL    HW1 8558   4.337   0.835   0.105
 2553SOL    HW2 8559   4.300   0.916   6.992
 2554SOL     OW 8560   1.286   5.710   1.447
 2554SOL    HW1 8561   1.304   5.798   1.491
 2554SOL    HW2 8562   1.367   5.681   1.396
 2555SOL     OW 8563   5.821   6.981   4.539
 2555SOL    HW1 8564   5.846   6.942   4.628
 2555SOL    HW2 8565   5.758   0.034   4.553
 2556SOL     OW 8566   3.785   0.359   0.273
 2556SOL    HW1 8567   3.880   0.362   0.240
 2556SOL    HW2 8568   3.726   0.318   0.204
 2557SOL     OW 8569   2.864   0.753   7.016
 2557SOL    HW1 8570   2.859   0.852   0.010
 2557SOL    HW2 8571   2.776   0.711   0.011
 2558SOL     OW 8572   5.192   3.235   0.867
 2558SOL    HW1 8573   5.121   3.212   0.933
 2558SOL    HW2 8574   5.175   3.325   0.828
 2559SOL     OW 8575   0.790   4.132   4.036
 2559SOL    HW1 8576   0.700   4.091   4.023
 2559SOL    HW2 8577   0.843   4.076   4.100
 2560SOL     OW 8578   4.774   2.345   3.836
 2560SOL    HW1 8579   4.734   2.383   3.752
 2560SOL    HW2 8580   4.873   2.340   3.826
 2561SOL     OW 8581   3.969   0.009   4.781
 2561SOL    HW1 8582   3.899   0.010   4.710
 2561SOL    HW2 8583   3.993   0.103   4.805
 2562SOL     OW 8584   2.292   6.267   3.890
 2562SOL    HW1 8585   2.349   6.306   3.962
 2562SOL    HW2 8586   2.321   6.174   3.871
 2563SOL     OW 8587   3.554   2.210   6.032
 2563SOL    HW1 8588   3.457   2.233   6.028
 2563SOL    HW2 8589   3.607   2.280   5.985
 2564SOL     OW 8590   1.531   1.924   0.018
 2564SOL    HW1 8591   1.502   1.999   6.983
 2564SOL    HW2 8592   1.615   1.883   7.006
 2565SOL     OW 8593   1.004   1.466   0.656
 2565SOL    HW1 8594   1.034   1.384   0.703
 2565SOL    HW2 8595   1.082   1.527   0.640
 2566SOL     OW 8596   2.578   0.693   1.045
 2566SOL    HW1 8597   2.487   0.663   1.074
 2566SOL    HW2 8598   2.606   0.773   1.098
 2567SOL     OW 8599   2.252   1.270   0.345
 2567SOL    HW1 8600   2.219   1.213   0.420
 2567SOL    HW2 8601   2.176   1.321   0.306
 2568SOL     OW 8602   3.488   6.378   0.140
 2568SOL    HW1 8603   3.409   6.438   0.149
 2568SOL    HW2 8604   3.553   6.398   0.214
 2569SOL     OW 8605   1.727   0.119   1.028
 2569SOL    HW1 8606   1.758   0.104   1.122
 2569SOL    HW2 8607   1.630   0.143   1.029
 2570SOL     OW 8608   0.169   6.139   5.033
 2570SOL    HW1 8609   0.228   6.110   5.108
 2570SOL    HW2 8610   0.082   6.090   5.038
 2571SOL     OW 8611   3.187   3.515   3.994
 2571SOL    HW1 8612   3.216   3.477   4.082
 2571SOL    HW2 8613   3.268   3.541   3.942
 2572SOL     OW 8614   1.887   5.310   2.146
 2572SOL    HW1 8615   1.820   5.367   2.194
 2572SOL    HW2 8616   1.842   5.229   2.110
 2573SOL     OW 8617   6.822   2.051   4.481
 2573SOL    HW1 8618   6.807   1.960   4.520
 2573SOL    HW2 8619   6.773   2.059   4.394
 2574SOL     OW 8620   0.730   3.577   2.138
 2574SOL    HW1 8621   0.715   3.582   2.039
 2574SOL    HW2 8622   0.802   3.510   2.157
 2575SOL     OW 8623   5.659   3.697   6.818
 2575SOL    HW1 8624   5.698   3.786   6.795
 2575SOL    HW2 8625   5.685   3.672   6.911
 2576SOL     OW 8626   2.082   6.920   3.798
 2576SOL    HW1 8627   2.127   6.912   3.887
 2576SOL    HW2 8628   1.983   6.912   3.811
 2577SOL     OW 8629   2.607   5.929   1.876
 2577SOL    HW1 8630   2.648   5.872   1.947
 2577SOL    HW2 8631   2.601   6.023   1.908
 2578SOL     OW 8632   4.631   1.746   4.110
 2578SOL    HW1 8633   4.559   1.812   4.087
 2578SOL    HW2 8634   4.713   1.767   4.057
 2579SOL     OW 8635   6.935   1.630   6.293
 2579SOL    HW1 8636   6.916   1.578   6.376
 2579SOL    HW2 8637   7.007   1.585   6.241
 2580SOL     OW 8638   1.389   2.410   6.042
 2580SOL    HW1 8639   1.456   2.404   6.117
 2580SOL    HW2 8640   1.316   2.473   6.067
 2581SOL     OW 8641   6.478   6.918   4.220
 2581SOL    HW1 8642   6.542   6.878   4.286
 2581SOL    HW2 8643   6.526   6.987   4.166
 2582SOL     OW 8644   0.534   5.233   2.830
 2582SOL    HW1 8645   0.503   5.180   2.909
 2582SOL    HW2 8646   0.488   5.321   2.830
 2583SOL     OW 8647   2.093   1.256   6.987
 2583SOL    HW1 8648   2.016   1.274   6.927
 2583SOL    HW2 8649   2.076   1.174   0.017
 2584SOL     OW 8650   5.128   0.017   2.038
 2584SOL    HW1 8651   5.220   7.011   2.015
 2584SOL    HW2 8652   5.105   0.097   1.983
 2585SOL     OW 8653   3.847   1.189   1.360
 2585SOL    HW1 8654   3.876   1.188   1.455
 2585SOL    HW2 8655   3.918   1.231   1.303
 2586SOL     OW 8656   6.642   2.402   4.527
 2586SOL    HW1 8657   6.734   2.414   4.488
 2586SOL    HW2 8658   6.650   2.381   4.625
 2587SOL     OW 8659   6.558   6.447   2.656
 2587SOL    HW1 8660   6.566   6.439   2.557
 2587SOL    HW2 8661   6.617   6.379   2.700
 2588SOL     OW 8662   5.152   0.737   1.610
 2588SOL    HW1 8663   5.101   0.657   1.577
 2588SOL    HW2 8664   5.169   0.800   1.535
 2589SOL     OW 8665   5.958   6.540   0.578
 2589SOL    HW1 8666   5.913   6.521   0.665
 2589SOL    HW2 8667   5.911   6.616   0.532
 2590SOL     OW 8668   3.894   6.136   2.727
 2590SOL    HW1 8669   3.967   6.083   2.683
 2590SOL    HW2 8670   3.856   6.202   2.662
 2591SOL     OW 8671   5.332   0.397   1.598
 2591SOL    HW1 8672   5.258   0.460   1.578
 2591SOL    HW2 8673   5.417   0.431   1.557
 2592SOL     OW 8674   3.095   5.398   1.467
 2592SOL    HW1 8675   3.054   5.472   1.413
 2592SOL    HW2 8676   3.029   5.367   1.535
 2593SOL     OW 8677   3.050   6.785   2.594
 2593SOL    HW1 8678   3.076   6.738   2.510
 2593SOL    HW2 8679   3.096   6.874   2.598
 2594SOL     OW 8680   1.070   6.088   6.415
 2594SOL    HW1 8681   1.090   6.158   6.484
 2594SOL    HW2 8682   0.972   6.088   6.395
 2595SOL     OW 8683   6.178   3.187   4.016
 2595SOL    HW1 8684   6.118   3.119   4.060
 2595SOL    HW2 8685   6.257   3.204   4.075
 2596SOL     OW 8686   4.135   1.789   1.987
 2596SOL    HW1 8687   4.175   1.711   1.938
 2596SOL    HW2 8688   4.072   1.837   1.926
 2597SOL     OW 8689   2.074   2.701   6.971
 2597SOL    HW1 8690   2.076   2.642   6.890
 2597SOL    HW2 8691   2.008   2.775   6.957
 2598SOL     OW 8692   6.055   2.519   2.697
 2598SOL    HW1 8693   6.104   2.461   2.631
 2598SOL    HW2 8694   5.965   2.479   2.715
 2599SOL     OW 8695   4.405   4.460   6.785
 2599SOL    HW1 8696   4.368   4.368   6.800
 2599SOL    HW2 8697   4.503   4.460   6.803
 2600SOL     OW 8698   6.560   3.487   3.530
 2600SOL    HW1 8699   6.548   3.498   3.432
 2600SOL    HW2 8700   6.625   3.413   3.548
 2601SOL     OW 8701   3.704   3.183   5.539
 2601SOL    HW1 8702   3.800   3.187   5.567
 2601SOL    HW2 8703   3.697   3.199   5.441
 2602SOL     OW 8704   6.086   5.688   4.925
 2602SOL    HW1 8705   6.033   5.688   4.840
 2602SOL    HW2 8706   6.028   5.721   5.000
 2603SOL     OW 8707   2.852   2.797   0.403
 2603SOL    HW1 8708   2.806   2.854   0.471
 2603SOL    HW2 8709   2.925   2.745   0.447
 2604SOL     OW 8710   6.096   0.971   1.802
 2604SOL    HW1 8711   6.087   0.894   1.739
 2604SOL    HW2 8712   6.012   0.982   1.854
 2605SOL     OW 8713   4.609   4.439   4.046
 2605SOL    HW1 8714   4.561   4.433   3.958
 2605SOL    HW2 8715   4.573   4.515   4.099
 2606SOL     OW 8716   6.797   4.525   2.009
 2606SOL    HW1 8717   6.784   4.446   2.069
 2606SOL    HW2 8718   6.780   4.498   1.914
 2607SOL     OW 8719   0.691   1.694   4.619
 2607SOL    HW1 8720   0.624   1.665   4.687
 2607SOL    HW2 8721   0.736   1.778   4.650
 2608SOL     OW 8722   4.929   0.310   0.781
 2608SOL    HW1 8723   5.027   0.310   0.765
 2608SOL    HW2 8724   4.903   0.394   0.829
 2609SOL     OW 8725   0.299   2.128   4.478
 2609SOL    HW1 8726   0.331   2.068   4.552
 2609SOL    HW2 8727   0.204   2.155   4.495
 2610SOL     OW 8728   5.827   5.969   4.317
 2610SOL    HW1 8729   5.873   5.885   4.347
 2610SOL    HW2 8730   5.878   6.049   4.350
 2611SOL     OW 8731   3.465   6.175   1.603
 2611SOL    HW1 8732   3.459   6.217   1.513
 2611SOL    HW2 8733   3.557   6.187   1.639
 2612SOL     OW 8734   6.178   6.738   4.282
 2612SOL    HW1 8735   6.265   6.690   4.280
 2612SOL    HW2 8736   6.127   6.712   4.363
 2613SOL     OW 8737   4.264   0.513   1.360
 2613SOL    HW1 8738   4.339   0.459   1.321
 2613SOL    HW2 8739   4.177   0.478   1.327
 2614SOL     OW 8740   6.943   6.523   6.345
 2614SOL    HW1 8741   6.889   6.582   6.406
 2614SOL    HW2 8742   6.974   6.442   6.395
 2615SOL     OW 8743   5.651   5.231   2.225
 2615SOL    HW1 8744   5.637   5.150   2.282
 2615SOL    HW2 8745   5.583   5.234   2.152
 2616SOL     OW 8746   4.152   3.256   2.591
 2616SOL    HW1 8747   4.241   3.216   2.614
 2616SOL    HW2 8748   4.152   3.353   2.613
 2617SOL     OW 8749   3.553   0.365   1.611
 2617SOL    HW1 8750   3.590   0.272   1.624
 2617SOL    HW2 8751   3.454   0.362   1.617
 2618SOL     OW 8752   0.970   0.539   0.872
 2618SOL    HW1 8753   0.936   0.445   0.868
 2618SOL    HW2 8754   0.895   0.602   0.889
 2619SOL     OW 8755   5.077   1.642   1.623
 2619SOL    HW1 8756   5.010   1.708   1.589
 2619SOL    HW2 8757   5.166   1.686   1.631
 2620SOL     OW 8758   1.483   4.190   4.215
 2620SOL    HW1 8759   1.577   4.196   4.183
 2620SOL    HW2 8760   1.450   4.282   4.237
 2621SOL     OW 8761   0.898   4.392   4.233
 2621SOL    HW1 8762   0.933   4.430   4.147
 2621SOL    HW2 8763   0.905   4.292   4.231
 2622SOL     OW 8764   3.217   3.432   6.159
 2622SOL    HW1 8765   3.202   3.499   6.087
 2622SOL    HW2 8766   3.173   3.463   6.243
 2623SOL     OW 8767   2.877   1.074   5.740
 2623SOL    HW1 8768   2.790   1.090   5.694
 2623SOL    HW2 8769   2.895   0.976   5.747
 2624SOL     OW 8770   6.502   2.344   3.909
 2624SOL    HW1 8771   6.484   2.430   3.860
 2624SOL    HW2 8772   6.538   2.276   3.845
 2625SOL     OW 8773   4.392   0.839   5.637
 2625SOL    HW1 8774   4.485   0.831   5.600
 2625SOL    HW2 8775   4.325   0.815   5.567
 2626SOL     OW 8776   2.390   6.401   2.545
 2626SOL    HW1 8777   2.421   6.452   2.465
 2626SOL    HW2 8778   2.348   6.464   2.610
 2627SOL     OW 8779   0.010   0.328   4.635
 2627SOL    HW1 8780   0.094   0.279   4.616
 2627SOL    HW2 8781   0.018   0.423   4.605
 2628SOL     OW 8782   3.783   5.678   5.739
 2628SOL    HW1 8783   3.882   5.664   5.752
 2628SOL    HW2 8784   3.742   5.703   5.827
 2629SOL     OW 8785   3.521   4.295   1.554
 2629SOL    HW1 8786   3.590   4.223   1.556
 2629SOL    HW2 8787   3.520   4.338   1.464
 2630SOL     OW 8788   2.933   2.232   2.318
 2630SOL    HW1 8789   2.935   2.240   2.219
 2630SOL    HW2 8790   3.000   2.295   2.358
 2631SOL     OW 8791   4.728   6.378   4.375
 2631SOL    HW1 8792   4.643   6.401   4.328
 2631SOL    HW2 8793   4.711   6.372   4.474
 2632SOL     OW 8794   5.117   1.815   0.422
 2632SOL    HW1 8795   5.098   1.723   0.454
 2632SOL    HW2 8796   5.032   1.864   0.405
 2633SOL     OW 8797   6.508   2.420   6.576
 2633SOL    HW1 8798   6.579   2.418   6.647
 2633SOL    HW2 8799   6.520   2.343   6.514
 2634SOL     OW 8800   2.286   5.495   1.446
 2634SOL    HW1 8801   2.275   5.585   1.402
 2634SOL    HW2 8802   2.222   5.488   1.523
 2635SOL     OW 8803   4.934   4.757   3.567
 2635SOL    HW1 8804   4.840   4.791   3.558
 2635SOL    HW2 8805   4.945   4.710   3.654
 2636SOL     OW 8806   6.076   0.889   5.177
 2636SOL    HW1 8807   6.132   0.809   5.156
 2636SOL    HW2 8808   5.988   0.859   5.214
 2637SOL     OW 8809   4.929   6.300   2.339
 2637SOL    HW1 8810   4.883   6.388   2.353
 2637SOL    HW2 8811   5.018   6.315   2.297
 2638SOL     OW 8812   5.848   5.676   1.072
 2638SOL    HW1 8813   5.791   5.732   1.131
 2638SOL    HW2 8814   5.800   5.656   0.987
 2639SOL     OW 8815   6.743   6.342   0.549
 2639SOL    HW1 8816   6.839   6.353   0.573
 2639SOL    HW2 8817   6.734   6.275   0.475
 2640SOL     OW 8818   6.813   6.794   6.028
 2640SOL    HW1 8819   6.825   6.841   6.115
 2640SOL    HW2 8820   6.846   6.853   5.954
 2641SOL     OW 8821   5.906   4.968   0.234
 2641SOL    HW1 8822   5.939   4.926   0.319
 2641SOL    HW2 8823   5.894   4.897   0.164
 2642SOL     OW 8824   6.136   6.981   3.842
 2642SOL    HW1 8825   6.188   6.984   3.927
 2642SOL    HW2 8826   6.200   6.972   3.765
 2643SOL     OW 8827   0.948   0.423   2.635
 2643SOL    HW1 8828   0.925   0.519   2.652
 2643SOL    HW2 8829   0.863   0.370   2.630
 2644SOL     OW 8830   0.273   4.856   6.243
 2644SOL    HW1 8831   0.368   4.866   6.272
 2644SOL    HW2 8832   0.228   4.787   6.300
 2645SOL     OW 8833   5.550   5.659   5.469
 2645SOL    HW1 8834   5.533   5.575   5.418
 2645SOL    HW2 8835   5.641   5.654   5.512
 2646SOL     OW 8836   6.354   6.459   6.868
 2646SOL    HW1 8837   6.422   6.401   6.914
 2646SOL    HW2 8838   6.314   6.521   6.936
 2647SOL     OW 8839   3.614   1.715   0.759
 2647SOL    HW1 8840   3.631   1.813   0.771
 2647SOL    HW2 8841   3.603   1.694   0.662
 2648SOL     OW 8842   4.045   0.839   2.336
 2648SOL    HW1 8843   4.067   0.909   2.268
 2648SOL    HW2 8844   4.125   0.781   2.352
 2649SOL     OW 8845   3.893   2.209   5.544
 2649SOL    HW1 8846   3.839   2.212   5.628
 2649SOL    HW2 8847   3.951   2.127   5.545
 2650SOL     OW 8848   0.272   6.218   1.974
 2650SOL    HW1 8849   0.303   6.146   1.912
 2650SOL    HW2 8850   0.339   6.232   2.047
 2651SOL     OW 8851   0.538   0.557   3.352
 2651SOL    HW1 8852   0.452   0.589   3.392
 2651SOL    HW2 8853   0.589   0.635   3.315
 2652SOL     OW 8854   3.116   3.255   2.389
 2652SOL    HW1 8855   3.071   3.343   2.407
 2652SOL    HW2 8856   3.182   3.266   2.315
 2653SOL     OW 8857   6.405   6.074   6.480
 2653SOL    HW1 8858   6.397   5.990   6.426
 2653SOL    HW2 8859   6.488   6.122   6.453
 2654SOL     OW 8860   5.739   2.826   6.251
 2654SOL    HW1 8861   5.683   2.744   6.237
 2654SOL    HW2 8862   5.835   2.799   6.260
 2655SOL     OW 8863   5.146   6.369   5.053
 2655SOL    HW1 8864   5.230   6.347   5.004
 2655SOL    HW2 8865   5.102   6.449   5.011
 2656SOL     OW 8866   5.793   3.081   3.923
 2656SOL    HW1 8867   5.767   3.176   3.906
 2656SOL    HW2 8868   5.745   3.047   4.003
 2657SOL     OW 8869   2.035   2.574   6.018
 2657SOL    HW1 8870   2.078   2.634   6.085
 2657SOL    HW2 8871   2.023   2.623   5.931
 2658SOL     OW 8872   5.775   4.443   5.816
 2658SOL    HW1 8873   5.680   4.463   5.791
 2658SOL    HW2 8874   5.780   4.423   5.914
 2659SOL     OW 8875   6.788   2.966   4.061
 2659SOL    HW1 8876   6.797   2.947   3.963
 2659SOL    HW2 8877   6.857   3.034   4.088
 2660SOL     OW 8878   6.862   2.256   3.038
 2660SOL    HW1 8879   6.831   2.309   2.959
 2660SOL    HW2 8880   6.933   2.307   3.087
 2661SOL     OW 8881   4.492   5.726   0.842
 2661SOL    HW1 8882   4.448   5.725   0.752
 2661SOL    HW2 8883   4.589   5.751   0.831
 2662SOL     OW 8884   2.959   6.601   3.902
 2662SOL    HW1 8885   2.946   6.627   3.998
 2662SOL    HW2 8886   3.027   6.528   3.896
 2663SOL     OW 8887   1.037   4.263   2.640
 2663SOL    HW1 8888   0.956   4.208   2.662
 2663SOL    HW2 8889   1.039   4.344   2.697
 2664SOL     OW 8890   4.084   3.647   1.940
 2664SOL    HW1 8891   4.050   3.629   2.032
 2664SOL    HW2 8892   4.163   3.708   1.945
 2665SOL     OW 8893   3.843   0.902   4.873
 2665SOL    HW1 8894   3.751   0.867   4.887
 2665SOL    HW2 8895   3.840   1.001   4.859
 2666SOL     OW 8896   5.469   5.863   1.583
 2666SOL    HW1 8897   5.399   5.820   1.640
 2666SOL    HW2 8898   5.437   5.952   1.551
 2667SOL     OW 8899   1.367   4.960   3.914
 2667SOL    HW1 8900   1.462   4.977   3.891
 2667SOL    HW2 8901   1.308   5.023   3.863
 2668SOL     OW 8902   0.189   2.949   5.627
 2668SOL    HW1 8903   0.199   3.039   5.671
 2668SOL    HW2 8904   0.221   2.878   5.689
 2669SOL     OW 8905   4.314   4.737   5.298
 2669SOL    HW1 8906   4.299   4.690   5.211
 2669SOL    HW2 8907   4.232   4.729   5.355
 2670SOL     OW 8908   1.638   0.791   6.807
 2670SOL    HW1 8909   1.546   0.825   6.788
 2670SOL    HW2 8910   1.682   0.763   6.721
 2671SOL     OW 8911   2.832   3.507   6.058
 2671SOL    HW1 8912   2.870   3.590   6.100
 2671SOL    HW2 8913   2.849   3.429   6.119
 2672SOL     OW 8914   0.933   4.916   0.581
 2672SOL    HW1 8915   1.002   4.956   0.641
 2672SOL    HW2 8916   0.866   4.866   0.636
 2673SOL     OW 8917   4.139   2.037   3.268
 2673SOL    HW1 8918   4.053   2.082   3.242
 2673SOL    HW2 8919   4.195   2.025   3.186
 2674SOL     OW 8920   5.220   5.365   5.339
 2674SOL    HW1 8921   5.234   5.461   5.316
 2674SOL    HW2 8922   5.124   5.351   5.365
 2675SOL     OW 8923   0.338   4.382   5.800
 2675SOL    HW1 8924   0.343   4.288   5.766
 2675SOL    HW2 8925   0.389   4.443   5.739
 2676SOL     OW 8926   4.259   0.844   1.936
 2676SOL    HW1 8927   4.323   0.879   2.004
 2676SOL    HW2 8928   4.305   0.777   1.877
 2677SOL     OW 8929   2.505   5.126   2.285
 2677SOL    HW1 8930   2.470   5.217   2.261
 2677SOL    HW2 8931   2.442   5.057   2.250
 2678SOL     OW 8932   0.700   5.096   5.797
 2678SOL    HW1 8933   0.768   5.165   5.771
 2678SOL    HW2 8934   0.651   5.127   5.879
 2679SOL     OW 8935   2.901   4.236   1.364
 2679SOL    HW1 8936   2.911   4.137   1.379
 2679SOL    HW2 8937   2.826   4.271   1.419
 2680SOL     OW 8938   1.026   2.403   1.741
 2680SOL    HW1 8939   1.058   2.315   1.704
 2680SOL    HW2 8940   1.030   2.473   1.669
 2681SOL     OW 8941   1.494   1.789   2.527
 2681SOL    HW1 8942   1.485   1.876   2.478
 2681SOL    HW2 8943   1.417   1.778   2.589
 2682SOL     OW 8944   5.907   1.823   3.554
 2682SOL    HW1 8945   5.923   1.895   3.488
 2682SOL    HW2 8946   5.963   1.839   3.636
 2683SOL     OW 8947   0.818   6.682   1.799
 2683SOL    HW1 8948   0.895   6.740   1.774
 2683SOL    HW2 8949   0.811   6.676   1.899
 2684SOL     OW 8950   2.558   6.690   2.877
 2684SOL    HW1 8951   2.533   6.730   2.789
 2684SOL    HW2 8952   2.492   6.720   2.946
 2685SOL     OW 8953   5.798   5.622   5.224
 2685SOL    HW1 8954   5.752   5.681   5.157
 2685SOL    HW2 8955   5.837   5.679   5.297
 2686SOL     OW 8956   2.033   2.657   4.219
 2686SOL    HW1 8957   1.945   2.670   4.174
 2686SOL    HW2 8958   2.027   2.686   4.314
 2687SOL     OW 8959   4.425   5.679   2.596
 2687SOL    HW1 8960   4.497   5.673   2.665
 2687SOL    HW2 8961   4.408   5.588   2.558
 2688SOL     OW 8962   3.715   4.651   6.290
 2688SOL    HW1 8963   3.650   4.727   6.288
 2688SOL    HW2 8964   3.742   4.627   6.197
 2689SOL     OW 8965   6.852   3.630   4.093
 2689SOL    HW1 8966   6.950   3.635   4.112
 2689SOL    HW2 8967   6.838   3.606   3.996
 2690SOL     OW 8968   3.496   3.496   3.541
 2690SOL    HW1 8969   3.582   3.445   3.538
 2690SOL    HW2 8970   3.419   3.432   3.539
 2691SOL     OW 8971   1.503   6.014   2.062
 2691SOL    HW1 8972   1.488   6.113   2.055
 2691SOL    HW2 8973   1.441   5.967   2.000
 2692SOL     OW 8974   0.239   6.824   3.701
 2692SOL    HW1 8975   0.284   6.841   3.614
 2692SOL    HW2 8976   0.158   6.768   3.686
 2693SOL     OW 8977   1.641   4.017   2.813
 2693SOL    HW1 8978   1.554   3.967   2.819
 2693SOL    HW2 8979   1.691   4.007   2.898
 2694SOL     OW 8980   2.064   0.201   3.393
 2694SOL    HW1 8981   2.072   0.147   3.477
 2694SOL    HW2 8982   1.968   0.225   3.377
 2695SOL     OW 8983   4.139   2.101   3.543
 2695SOL    HW1 8984   4.176   2.036   3.609
 2695SOL    HW2 8985   4.146   2.063   3.451
 2696SOL     OW 8986   3.614   3.897   5.440
 2696SOL    HW1 8987   3.680   3.860   5.505
 2696SOL    HW2 8988   3.641   3.872   5.347
 2697SOL     OW 8989   2.515   1.803   4.689
 2697SOL    HW1 8990   2.600   1.818   4.638
 2697SOL    HW2 8991   2.477   1.714   4.665
 2698SOL     OW 8992   2.527   3.385   0.196
 2698SOL    HW1 8993   2.539   3.451   0.122
 2698SOL    HW2 8994   2.446   3.410   0.250
 2699SOL     OW 8995   3.731   5.761   1.947
 2699SOL    HW1 8996   3.790   5.810   2.011
 2699SOL    HW2 8997   3.729   5.809   1.859
 2700SOL     OW 8998   2.115   3.492   2.998
 2700SOL    HW1 8999   2.136   3.394   3.007
 2700SOL    HW2 9000   2.073   3.508   2.909
 2701SOL     OW 9001   3.894   6.813   6.290
 2701SOL    HW1 9002   3.925   6.786   6.382
 2701SOL    HW2 9003   3.795   6.827   6.291
 2702SOL     OW 9004   0.024   0.445   3.491
 2702SOL    HW1 9005   7.021   0.353   3.464
 2702SOL    HW2 9006   6.985   0.479   3.561
 2703SOL     OW 9007   2.036   1.343   2.296
 2703SOL    HW1 9008   2.016   1.424   2.241
 2703SOL    HW2 9009   2.018   1.363   2.393
 2704SOL     OW 9010   2.283   4.988   1.246
 2704SOL    HW1 9011   2.310   4.904   1.291
 2704SOL    HW2 9012   2.218   5.038   1.303
 2705SOL     OW 9013   6.809   4.921   3.040
 2705SOL    HW1 9014   6.876   4.872   2.985
 2705SOL    HW2 9015   6.785   5.007   2.994
 2706SOL     OW 9016   0.007   1.579   2.130
 2706SOL    HW1 9017   0.041   1.666   2.166
 2706SOL    HW2 9018   6.984   1.529   2.203
 2707SOL     OW 9019   2.442   1.347   6.030
 2707SOL    HW1 9020   2.456   1.267   5.972
 2707SOL    HW2 9021   2.377   1.325   6.103
 2708SOL     OW 9022   1.938   2.799   1.203
 2708SOL    HW1 9023   1.986   2.797   1.115
 2708SOL    HW2 9024   1.913   2.706   1.230
 2709SOL     OW 9025   4.503   6.419   0.463
 2709SOL    HW1 9026   4.457   6.507   0.479
 2709SOL    HW2 9027   4.564   6.400   0.540
 2710SOL     OW 9028   5.814   3.757   2.968
 2710SOL    HW1 9029   5.768   3.687   2.914
 2710SOL    HW2 9030   5.843   3.832   2.909
 2711SOL     OW 9031   1.238   0.291   2.047
 2711SOL    HW1 9032   1.141   0.266   2.050
 2711SOL    HW2 9033   1.276   0.266   1.958
 2712SOL     OW 9034   2.631   4.231   0.297
 2712SOL    HW1 9035   2.717   4.179   0.304
 2712SOL    HW2 9036   2.554   4.167   0.297
 2713SOL     OW 9037   2.190   3.073   5.205
 2713SOL    HW1 9038   2.274   3.042   5.160
 2713SOL    HW2 9039   2.112   3.057   5.145
 2714SOL     OW 9040   5.386   6.820   5.307
 2714SOL    HW1 9041   5.468   6.773   5.274
 2714SOL    HW2 9042   5.343   6.764   5.378
 2715SOL     OW 9043   6.398   1.302   6.463
 2715SOL    HW1 9044   6.368   1.222   6.516
 2715SOL    HW2 9045   6.478   1.343   6.508
 2716SOL     OW 9046   0.419   0.205   2.408
 2716SOL    HW1 9047   0.370   0.290   2.390
 2716SOL    HW2 9048   0.473   0.181   2.327
 2717SOL     OW 9049   0.913   1.105   3.039
 2717SOL    HW1 9050   1.011   1.119   3.055
 2717SOL    HW2 9051   0.873   1.188   3.000
 2718SOL     OW 9052   1.604   4.908   3.754
 2718SOL    HW1 9053   1.685   4.881   3.806
 2718SOL    HW2 9054   1.560   4.827   3.716
 2719SOL     OW 9055   3.961   5.355   1.608
 2719SOL    HW1 9056   3.955   5.427   1.677
 2719SOL    HW2 9057   3.948   5.395   1.517
 2720SOL     OW 9058   1.485   5.673   3.446
 2720SOL    HW1 9059   1.565   5.693   3.502
 2720SOL    HW2 9060   1.464   5.751   3.388
 2721SOL     OW 9061   3.943   6.976   4.342
 2721SOL    HW1 9062   3.886   0.000   4.408
 2721SOL    HW2 9063   4.023   6.937   4.388
 2722SOL     OW 9064   1.578   5.959   1.725
 2722SOL    HW1 9065   1.509   5.923   1.788
 2722SOL    HW2 9066   1.648   6.009   1.776
 2723SOL     OW 9067   1.460   1.328   5.761
 2723SOL    HW1 9068   1.433   1.378   5.843
 2723SOL    HW2 9069   1.532   1.379   5.713
 2724SOL     OW 9070   3.661   5.110   6.069
 2724SOL    HW1 9071   3.609   5.167   6.132
 2724SOL    HW2 9072   3.748   5.154   6.048
 2725SOL     OW 9073   3.273   4.935   3.748
 2725SOL    HW1 9074   3.276   4.906   3.844
 2725SOL    HW2 9075   3.334   5.013   3.735
 2726SOL     OW 9076   4.843   5.654   1.638
 2726SOL    HW1 9077   4.924   5.639   1.582
 2726SOL    HW2 9078   4.850   5.601   1.723
 2727SOL     OW 9079   2.154   5.452   3.148
 2727SOL    HW1 9080   2.204   5.481   3.066
 2727SOL    HW2 9081   2.191   5.364   3.179
 2728SOL     OW 9082   3.760   0.181   5.715
 2728SOL    HW1 9083   3.765   0.272   5.757
 2728SOL    HW2 9084   3.678   0.175   5.659
 2729SOL     OW 9085   5.832   5.127   2.870
 2729SOL    HW1 9086   5.794   5.207   2.824
 2729SOL    HW2 9087   5.866   5.153   2.961
 2730SOL     OW 9088   1.767   5.613   1.442
 2730SOL    HW1 9089   1.791   5.527   1.486
 2730SOL    HW2 9090   1.828   5.686   1.473
 2731SOL     OW 9091   3.066   3.700   1.486
 2731SOL    HW1 9092   3.071   3.621   1.548
 2731SOL    HW2 9093   3.157   3.739   1.475
 2732SOL     OW 9094   6.342   2.034   2.698
 2732SOL    HW1 9095   6.271   2.094   2.736
 2732SOL    HW2 9096   6.308   1.940   2.694
 2733SOL     OW 9097   1.673   0.181   5.851
 2733SOL    HW1 9098   1.661   0.178   5.950
 2733SOL    HW2 9099   1.611   0.115   5.808
 2734SOL     OW 9100   1.893   5.453   3.780
 2734SOL    HW1 9101   1.892   5.422   3.685
 2734SOL    HW2 9102   1.980   5.427   3.822
 2735SOL     OW 9103   1.694   4.831   2.496
 2735SOL    HW1 9104   1.733   4.764   2.432
 2735SOL    HW2 9105   1.596   4.816   2.505
 2736SOL     OW 9106   4.408   0.344   5.585
 2736SOL    HW1 9107   4.433   0.318   5.678
 2736SOL    HW2 9108   4.336   0.413   5.587
 2737SOL     OW 9109   4.441   3.348   6.182
 2737SOL    HW1 9110   4.407   3.385   6.095
 2737SOL    HW2 9111   4.537   3.323   6.172
 2738SOL     OW 9112   5.586   4.971   3.987
 2738SOL    HW1 9113   5.578   4.872   3.976
 2738SOL    HW2 9114   5.526   5.017   3.921
 2739SOL     OW 9115   6.279   2.736   0.810
 2739SOL    HW1 9116   6.283   2.801   0.886
 2739SOL    HW2 9117   6.184   2.709   0.796
 2740SOL     OW 9118   6.456   2.182   3.124
 2740SOL    HW1 9119   6.467   2.240   3.043
 2740SOL    HW2 9120   6.367   2.202   3.166
 2741SOL     OW 9121   0.662   2.488   5.664
 2741SOL    HW1 9122   0.753   2.517   5.694
 2741SOL    HW2 9123   0.599   2.491   5.742
 2742SOL     OW 9124   2.139   6.445   6.480
 2742SOL    HW1 9125   2.209   6.505   6.441
 2742SOL    HW2 9126   2.054   6.496   6.494
 2743SOL     OW 9127   5.074   4.725   0.775
 2743SOL    HW1 9128   5.170   4.711   0.749
 2743SOL    HW2 9129   5.016   4.661   0.723
 2744SOL     OW 9130   3.809   1.559   6.450
 2744SOL    HW1 9131   3.768   1.617   6.380
 2744SOL    HW2 9132   3.747   1.552   6.528
 2745SOL     OW 9133   2.300   5.736   0.714
 2745SOL    HW1 9134   2.201   5.720   0.718
 2745SOL    HW2 9135   2.345   5.691   0.792
 2746SOL     OW 9136   1.612   2.033   6.211
 2746SOL    HW1 9137   1.535   2.095   6.226
 2746SOL    HW2 9138   1.578   1.938   6.208
 2747SOL     OW 9139   4.296   5.806   3.942
 2747SOL    HW1 9140   4.269   5.717   3.905
 2747SOL    HW2 9141   4.222   5.871   3.931
 2748SOL     OW 9142   3.669   1.246   4.148
 2748SOL    HW1 9143   3.691   1.150   4.133
 2748SOL    HW2 9144   3.569   1.257   4.157
 2749SOL     OW 9145   4.762   5.535   4.361
 2749SOL    HW1 9146   4.753   5.481   4.278
 2749SOL    HW2 9147   4.728   5.628   4.345
 2750SOL     OW 9148   0.568   5.804   2.345
 2750SOL    HW1 9149   0.550   5.709   2.317
 2750SOL    HW2 9150   0.490   5.838   2.397
 2751SOL     OW 9151   1.254   0.230   6.491
 2751SOL    HW1 9152   1.317   0.307   6.484
 2751SOL    HW2 9153   1.235   0.210   6.587
 2752SOL     OW 9154   5.881   6.191   5.578
 2752SOL    HW1 9155   5.938   6.160   5.654
 2752SOL    HW2 9156   5.799   6.237   5.613
 2753SOL     OW 9157   2.730   5.641   5.603
 2753SOL    HW1 9158   2.743   5.563   5.542
 2753SOL    HW2 9159   2.638   5.639   5.642
 2754SOL     OW 9160   1.221   6.300   3.989
 2754SOL    HW1 9161   1.264   6.304   4.079
 2754SOL    HW2 9162   1.167   6.216   3.981
 2755SOL     OW 9163   3.797   5.957   2.494
 2755SOL    HW1 9164   3.878   5.976   2.439
 2755SOL    HW2 9165   3.824   5.911   2.579
 2756SOL     OW 9166   0.911   2.789   5.606
 2756SOL    HW1 9167   0.955   2.787   5.696
 2756SOL    HW2 9168   0.813   2.806   5.616
 2757SOL     OW 9169   4.210   3.372   6.986
 2757SOL    HW1 9170   4.233   3.468   6.972
 2757SOL    HW2 9171   4.166   3.361   0.051
 2758SOL     OW 9172   6.498   6.509   1.964
 2758SOL    HW1 9173   6.421   6.574   1.964
 2758SOL    HW2 9174   6.472   6.426   2.014
 2759SOL     OW 9175   3.265   3.954   6.080
 2759SOL    HW1 9176   3.184   4.005   6.051
 2759SOL    HW2 9177   3.308   3.999   6.158
 2760SOL     OW 9178   5.447   6.358   2.907
 2760SOL    HW1 9179   5.546   6.373   2.915
 2760SOL    HW2 9180   5.430   6.281   2.846
 2761SOL     OW 9181   1.188   2.556   3.855
 2761SOL    HW1 9182   1.209   2.635   3.797
 2761SOL    HW2 9183   1.258   2.545   3.924
 2762SOL     OW 9184   2.508   2.297   0.572
 2762SOL    HW1 9185   2.525   2.198   0.565
 2762SOL    HW2 9186   2.540   2.342   0.489
 2763SOL     OW 9187   6.220   1.950   4.631
 2763SOL    HW1 9188   6.319   1.939   4.643
 2763SOL    HW2 9189   6.173   1.920   4.714
 2764SOL     OW 9190   0.803   3.226   2.116
 2764SOL    HW1 9191   0.851   3.143   2.145
 2764SOL    HW2 9192   0.742   3.257   2.188
 2765SOL     OW 9193   6.485   6.830   0.055
 2765SOL    HW1 9194   6.403   6.782   0.025
 2765SOL    HW2 9195   6.565   6.790   0.010
 2766SOL     OW 9196   4.701   0.652   0.125
 2766SOL    HW1 9197   4.772   0.586   0.150
 2766SOL    HW2 9198   4.657   0.624   0.039
 2767SOL     OW 9199   6.934   5.385   6.312
 2767SOL    HW1 9200   6.960   5.461   6.371
 2767SOL    HW2 9201   6.841   5.399   6.278
 2768SOL     OW 9202   3.888   0.234   1.567
 2768SOL    HW1 9203   3.907   0.235   1.665
 2768SOL    HW2 9204   3.931   0.314   1.524
 2769SOL     OW 9205   0.671   4.496   5.883
 2769SOL    HW1 9206   0.587   4.533   5.844
 2769SOL    HW2 9207   0.736   4.570   5.899
 2770SOL     OW 9208   2.955   6.189   0.531
 2770SOL    HW1 9209   2.996   6.280   0.536
 2770SOL    HW2 9210   2.894   6.176   0.609
 2771SOL     OW 9211   4.571   6.829   5.010
 2771SOL    HW1 9212   4.549   6.761   5.080
 2771SOL    HW2 9213   4.519   6.810   4.927
 2772SOL     OW 9214   4.872   0.370   3.400
 2772SOL    HW1 9215   4.864   0.291   3.461
 2772SOL    HW2 9216   4.801   0.364   3.329
 2773SOL     OW 9217   5.679   2.839   5.361
 2773SOL    HW1 9218   5.671   2.760   5.302
 2773SOL    HW2 9219   5.601   2.842   5.424
 2774SOL     OW 9220   6.270   2.035   4.250
 2774SOL    HW1 9221   6.297   2.089   4.170
 2774SOL    HW2 9222   6.302   1.941   4.239
 2775SOL     OW 9223   0.495   3.349   4.307
 2775SOL    HW1 9224   0.474   3.407   4.385
 2775SOL    HW2 9225   0.564   3.394   4.250
 2776SOL     OW 9226   4.974   5.025   6.290
 2776SOL    HW1 9227   4.874   5.020   6.286
 2776SOL    HW2 9228   5.013   4.966   6.219
 2777SOL     OW 9229   2.627   2.373   6.655
 2777SOL    HW1 9230   2.594   2.342   6.744
 2777SOL    HW2 9231   2.709   2.429   6.667
 2778SOL     OW 9232   2.833   0.042   6.288
 2778SOL    HW1 9233   2.836   7.003   6.365
 2778SOL    HW2 9234   2.742   0.081   6.281
 2779SOL     OW 9235   4.528   1.025   1.355
 2779SOL    HW1 9236   4.481   0.940   1.334
 2779SOL    HW2 9237   4.590   1.049   1.280
 2780SOL     OW 9238   0.239   1.718   4.798
 2780SOL    HW1 9239   0.251   1.686   4.892
 2780SOL    HW2 9240   0.302   1.670   4.738
 2781SOL     OW 9241   5.817   1.331   3.288
 2781SOL    HW1 9242   5.832   1.417   3.335
 2781SOL    HW2 9243   5.861   1.257   3.339
 2782SOL     OW 9244   5.205   0.370   5.852
 2782SOL    HW1 9245   5.211   0.274   5.827
 2782SOL    HW2 9246   5.297   0.410   5.851
 2783SOL     OW 9247   6.049   3.897   1.776
 2783SOL    HW1 9248   6.122   3.869   1.838
 2783SOL    HW2 9249   6.049   3.837   1.696
 2784SOL     OW 9250   0.868   2.202   1.073
 2784SOL    HW1 9251   0.881   2.160   1.163
 2784SOL    HW2 9252   0.783   2.254   1.072
 2785SOL     OW 9253   5.832   3.152   1.330
 2785SOL    HW1 9254   5.885   3.084   1.382
 2785SOL    HW2 9255   5.735   3.136   1.345
 2786SOL     OW 9256   0.311   5.939   6.542
 2786SOL    HW1 9257   0.295   5.940   6.641
 2786SOL    HW2 9258   0.403   5.906   6.524
 2787SOL     OW 9259   7.011   5.763   0.256
 2787SOL    HW1 9260   0.065   5.738   0.313
 2787SOL    HW2 9261   6.939   5.694   0.265
 2788SOL     OW 9262   3.151   6.692   6.019
 2788SOL    HW1 9263   3.091   6.749   6.076
 2788SOL    HW2 9264   3.100   6.659   5.940
 2789SOL     OW 9265   1.317   1.847   5.156
 2789SOL    HW1 9266   1.375   1.772   5.188
 2789SOL    HW2 9267   1.372   1.931   5.150
 2790SOL     OW 9268   1.190   5.666   2.267
 2790SOL    HW1 9269   1.110   5.622   2.306
 2790SOL    HW2 9270   1.192   5.652   2.168
 2791SOL     OW 9271   0.355   3.352   3.147
 2791SOL    HW1 9272   0.368   3.452   3.150
 2791SOL    HW2 9273   0.265   3.330   3.185
 2792SOL     OW 9274   3.432   0.923   6.083
 2792SOL    HW1 9275   3.374   0.976   6.146
 2792SOL    HW2 9276   3.512   0.977   6.058
 2793SOL     OW 9277   3.555   3.936   0.337
 2793SOL    HW1 9278   3.530   3.989   0.418
 2793SOL    HW2 9279   3.598   3.995   0.270
 2794SOL     OW 9280   0.845   2.603   6.885
 2794SOL    HW1 9281   0.769   2.652   6.927
 2794SOL    HW2 9282   0.930   2.653   6.901
 2795SOL     OW 9283   0.877   5.936   1.604
 2795SOL    HW1 9284   0.834   5.872   1.541
 2795SOL    HW2 9285   0.936   5.999   1.553
 2796SOL     OW 9286   1.923   5.609   6.070
 2796SOL    HW1 9287   1.991   5.594   5.999
 2796SOL    HW2 9288   1.831   5.610   6.030
 2797SOL     OW 9289   4.935   5.625   3.420
 2797SOL    HW1 9290   4.993   5.590   3.347
 2797SOL    HW2 9291   4.843   5.643   3.384
 2798SOL     OW 9292   4.617   0.805   1.607
 2798SOL    HW1 9293   4.677   0.770   1.679
 2798SOL    HW2 9294   4.630   0.904   1.598
 2799SOL     OW 9295   3.451   6.261   4.943
 2799SOL    HW1 9296   3.551   6.251   4.949
 2799SOL    HW2 9297   3.428   6.357   4.931
 2800SOL     OW 9298   5.917   0.021   5.879
 2800SOL    HW1 9299   5.979   6.999   5.942
 2800SOL    HW2 9300   5.872   0.097   5.926
 2801SOL     OW 9301   0.131   4.399   4.466
 2801SOL    HW1 9302   0.094   4.415   4.375
 2801SOL    HW2 9303   0.179   4.481   4.497
 2802SOL     OW 9304   1.727   5.032   5.047
 2802SOL    HW1 9305   1.651   5.079   5.093
 2802SOL    HW2 9306   1.813   5.055   5.093
 2803SOL     OW 9307   3.679   2.127   5.773
 2803SOL    HW1 9308   3.648   2.040   5.734
 2803SOL    HW2 9309   3.677   2.121   5.873
 2804SOL     OW 9310   0.063   2.300   3.902
 2804SOL    HW1 9311   6.995   2.337   3.911
 2804SOL    HW2 9312   0.063   2.225   3.836
 2805SOL     OW 9313   3.583   3.029   1.029
 2805SOL    HW1 9314   3.572   3.028   1.128
 2805SOL    HW2 9315   3.622   2.942   0.998
 2806SOL     OW 9316   0.393   3.655   5.948
 2806SOL    HW1 9317   0.342   3.698   6.023
 2806SOL    HW2 9318   0.338   3.657   5.865
 2807SOL     OW 9319   4.096   0.708   3.655
 2807SOL    HW1 9320   4.027   0.733   3.723
 2807SOL    HW2 9321   4.187   0.730   3.690
 2808SOL     OW 9322   0.489   4.516   5.605
 2808SOL    HW1 9323   0.454   4.607   5.582
 2808SOL    HW2 9324   0.540   4.479   5.527
 2809SOL     OW 9325   0.089   5.807   2.371
 2809SOL    HW1 9326   0.156   5.741   2.339
 2809SOL    HW2 9327   7.021   5.776   2.344
 2810SOL     OW 9328   2.339   6.969   2.826
 2810SOL    HW1 9329   2.243   6.995   2.823
 2810SOL    HW2 9330   2.395   0.028   2.821
 2811SOL     OW 9331   0.932   0.826   1.384
 2811SOL    HW1 9332   0.924   0.864   1.476
 2811SOL    HW2 9333   0.857   0.862   1.327
 2812SOL     OW 9334   1.124   1.276   1.113
 2812SOL    HW1 9335   1.130   1.200   1.178
 2812SOL    HW2 9336   1.029   1.309   1.111
 2813SOL     OW 9337   0.998   3.061   1.704
 2813SOL    HW1 9338   1.008   3.151   1.661
 2813SOL    HW2 9339   0.920   3.063   1.767
 2814SOL     OW 9340   2.463   3.965   0.266
 2814SOL    HW1 9341   2.498   3.941   0.176
 2814SOL    HW2 9342   2.502   3.903   0.334
 2815SOL     OW 9343   0.244   4.635   4.549
 2815SOL    HW1 9344   0.266   4.704   4.480
 2815SOL    HW2 9345   0.276   4.666   4.638
 2816SOL     OW 9346   0.535   5.864   5.598
 2816SOL    HW1 9347   0.450   5.819   5.629
 2816SOL    HW2 9348   0.561   5.933   5.665
 2817SOL     OW 9349   3.761   0.881   2.413
 2817SOL    HW1 9350   3.856   0.886   2.442
 2817SOL    HW2 9351   3.728   0.787   2.422
 2818SOL     OW 9352   1.928   0.149   0.506
 2818SOL    HW1 9353   1.976   0.130   0.420
 2818SOL    HW2 9354   1.989   0.200   0.568
 2819SOL     OW 9355   0.466   0.070   6.839
 2819SOL    HW1 9356   0.506   0.049   6.928
 2819SOL    HW2 9357   0.521   0.139   6.792
 2820SOL     OW 9358   1.733   2.837   0.100
 2820SOL    HW1 9359   1.682   2.920   0.121
 2820SOL    HW2 9360   1.689   2.759   0.145
 2821SOL     OW 9361   3.473   3.356   6.101
 2821SOL    HW1 9362   3.525   3.405   6.171
 2821SOL    HW2 9363   3.380   3.392   6.098
 2822SOL     OW 9364   4.643   2.671   0.232
 2822SOL    HW1 9365   4.732   2.712   0.254
 2822SOL    HW2 9366   4.576   2.744   0.217
 2823SOL     OW 9367   4.986   2.716   1.209
 2823SOL    HW1 9368   4.998   2.665   1.124
 2823SOL    HW2 9369   4.939   2.658   1.276
 2824SOL     OW 9370   1.142   3.703   4.397
 2824SOL    HW1 9371   1.203   3.774   4.361
 2824SOL    HW2 9372   1.170   3.614   4.361
 2825SOL     OW 9373   5.591   1.824   6.370
 2825SOL    HW1 9374   5.552   1.884   6.300
 2825SOL    HW2 9375   5.572   1.862   6.460
 2826SOL     OW 9376   2.523   2.612   6.506
 2826SOL    HW1 9377   2.540   2.522   6.547
 2826SOL    HW2 9378   2.609   2.663   6.500
 2827SOL     OW 9379   6.115   1.025   6.340
 2827SOL    HW1 9380   6.091   1.120   6.320
 2827SOL    HW2 9381   6.031   0.975   6.363
 2828SOL     OW 9382   1.771   3.840   0.886
 2828SOL    HW1 9383   1.818   3.770   0.831
 2828SOL    HW2 9384   1.797   3.831   0.982
 2829SOL     OW 9385   3.290   3.688   2.207
 2829SOL    HW1 9386   3.246   3.776   2.192
 2829SOL    HW2 9387   3.224   3.615   2.193
 2830SOL     OW 9388   3.254   5.943   5.196
 2830SOL    HW1 9389   3.180   6.005   5.224
 2830SOL    HW2 9390   3.220   5.849   5.198
 2831SOL     OW 9391   5.469   1.863   2.034
 2831SOL    HW1 9392   5.564   1.839   2.017
 2831SOL    HW2 9393   5.416   1.780   2.052
 2832SOL     OW 9394   0.842   3.892   1.954
 2832SOL    HW1 9395   0.836   3.860   1.859
 2832SOL    HW2 9396   0.936   3.917   1.975
 2833SOL     OW 9397   1.512   2.373   2.111
 2833SOL    HW1 9398   1.471   2.286   2.137
 2833SOL    HW2 9399   1.449   2.447   2.132
 2834SOL     OW 9400   3.736   6.472   4.778
 2834SOL    HW1 9401   3.747   6.410   4.856
 2834SOL    HW2 9402   3.696   6.558   4.810
 2835SOL     OW 9403   6.666   1.061   6.948
 2835SOL    HW1 9404   6.702   0.988   6.890
 2835SOL    HW2 9405   6.685   1.040   0.020
 2836SOL     OW 9406   3.052   5.761   2.648
 2836SOL    HW1 9407   2.966   5.810   2.659
 2836SOL    HW2 9408   3.098   5.793   2.565
 2837SOL     OW 9409   5.120   4.167   1.782
 2837SOL    HW1 9410   5.053   4.241   1.779
 2837SOL    HW2 9411   5.122   4.128   1.875
 2838SOL     OW 9412   6.446   4.639   6.393
 2838SOL    HW1 9413   6.383   4.630   6.471
 2838SOL    HW2 9414   6.460   4.550   6.351
 2839SOL     OW 9415   6.137   3.450   4.817
 2839SOL    HW1 9416   6.233   3.425   4.814
 2839SOL    HW2 9417   6.081   3.374   4.783
 2840SOL     OW 9418   0.130   6.737   4.225
 2840SOL    HW1 9419   0.155   6.664   4.288
 2840SOL    HW2 9420   0.163   6.825   4.260
 2841SOL     OW 9421   5.949   3.659   2.616
 2841SOL    HW1 9422   5.885   3.636   2.542
 2841SOL    HW2 9423   5.926   3.750   2.652
 2842SOL     OW 9424   1.375   0.529   3.829
 2842SOL    HW1 9425   1.302   0.482   3.878
 2842SOL    HW2 9426   1.371   0.506   3.732
 2843SOL     OW 9427   2.138   2.364   3.857
 2843SOL    HW1 9428   2.043   2.333   3.849
 2843SOL    HW2 9429   2.140   2.456   3.896
 2844SOL     OW 9430   5.089   3.883   0.216
 2844SOL    HW1 9431   5.091   3.866   0.117
 2844SOL    HW2 9432   5.030   3.815   0.260
 2845SOL     OW 9433   3.257   1.810   2.552
 2845SOL    HW1 9434   3.217   1.720   2.535
 2845SOL    HW2 9435   3.293   1.847   2.466
 2846SOL     OW 9436   6.715   0.316   6.934
 2846SOL    HW1 9437   6.662   0.237   6.903
 2846SOL    HW2 9438   6.696   0.394   6.874
 2847SOL     OW 9439   4.474   4.515   1.099
 2847SOL    HW1 9440   4.469   4.513   1.198
 2847SOL    HW2 9441   4.381   4.510   1.060
 2848SOL     OW 9442   1.031   4.180   5.225
 2848SOL    HW1 9443   0.941   4.148   5.255
 2848SOL    HW2 9444   1.032   4.186   5.126
 2849SOL     OW 9445   4.959   0.221   1.614
 2849SOL    HW1 9446   4.888   0.180   1.670
 2849SOL    HW2 9447   4.936   0.317   1.594
 2850SOL     OW 9448   1.777   0.598   2.182
 2850SOL    HW1 9449   1.816   0.533   2.247
 2850SOL    HW2 9450   1.688   0.629   2.215
 2851SOL     OW 9451   3.497   3.073   1.591
 2851SOL    HW1 9452   3.517   3.030   1.679
 2851SOL    HW2 9453   3.401   3.056   1.567
 2852SOL     OW 9454   6.551   4.742   5.988
 2852SOL    HW1 9455   6.533   4.715   5.893
 2852SOL    HW2 9456   6.531   4.666   6.049
 2853SOL     OW 9457   0.052   4.182   5.616
 2853SOL    HW1 9458   0.022   4.266   5.660
 2853SOL    HW2 9459   7.021   4.105   5.650
 2854SOL     OW 9460   4.270   0.565   5.880
 2854SOL    HW1 9461   4.351   0.624   5.873
 2854SOL    HW2 9462   4.232   0.551   5.788
 2855SOL     OW 9463   2.257   1.763   5.130
 2855SOL    HW1 9464   2.335   1.713   5.167
 2855SOL    HW2 9465   2.263   1.859   5.158
 2856SOL     OW 9466   1.119   5.449   3.912
 2856SOL    HW1 9467   1.198   5.464   3.853
 2856SOL    HW2 9468   1.054   5.389   3.865
 2857SOL     OW 9469   6.899   4.776   1.169
 2857SOL    HW1 9470   6.870   4.737   1.256
 2857SOL    HW2 9471   6.893   4.876   1.172
 2858SOL     OW 9472   4.511   4.880   2.186
 2858SOL    HW1 9473   4.437   4.836   2.135
 2858SOL    HW2 9474   4.574   4.810   2.220
 2859SOL     OW 9475   5.329   4.596   1.020
 2859SOL    HW1 9476   5.379   4.512   0.996
 2859SOL    HW2 9477   5.248   4.572   1.073
 2860SOL     OW 9478   1.197   0.043   2.469
 2860SOL    HW1 9479   1.183   0.139   2.447
 2860SOL    HW2 9480   1.294   0.028   2.491
 2861SOL     OW 9481   4.856   4.738   6.018
 2861SOL    HW1 9482   4.830   4.832   5.996
 2861SOL    HW2 9483   4.787   4.698   6.078
 2862SOL     OW 9484   4.330   3.147   6.875
 2862SOL    HW1 9485   4.301   3.230   6.923
 2862SOL    HW2 9486   4.397   3.098   6.931
 2863SOL     OW 9487   5.957   1.189   5.323
 2863SOL    HW1 9488   5.876   1.161   5.375
 2863SOL    HW2 9489   6.002   1.109   5.286
 2864SOL     OW 9490   3.757   4.172   0.448
 2864SOL    HW1 9491   3.739   4.257   0.497
 2864SOL    HW2 9492   3.842   4.131   0.482
 2865SOL     OW 9493   6.000   5.339   4.672
 2865SOL    HW1 9494   5.973   5.288   4.754
 2865SOL    HW2 9495   5.918   5.366   4.622
 2866SOL     OW 9496   4.025   4.084   0.471
 2866SOL    HW1 9497   4.022   4.039   0.382
 2866SOL    HW2 9498   4.117   4.074   0.510
 2867SOL     OW 9499   5.326   6.052   2.404
 2867SOL    HW1 9500   5.233   6.029   2.378
 2867SOL    HW2 9501   5.338   6.151   2.401
 2868SOL     OW 9502   1.094   0.205   5.559
 2868SOL    HW1 9503   1.145   0.131   5.515
 2868SOL    HW2 9504   1.088   0.283   5.497
 2869SOL     OW 9505   6.065   5.555   4.214
 2869SOL    HW1 9506   6.157   5.584   4.188
 2869SOL    HW2 9507   6.045   5.467   4.173
 2870SOL     OW 9508   6.642   2.443   2.180
 2870SOL    HW1 9509   6.720   2.504   2.172
 2870SOL    HW2 9510   6.670   2.349   2.160
 2871SOL     OW 9511   4.709   1.576   2.427
 2871SOL    HW1 9512   4.713   1.477   2.410
 2871SOL    HW2 9513   4.636   1.616   2.372
 2872SOL     OW 9514   2.725   2.128   2.462
 2872SOL    HW1 9515   2.790   2.175   2.403
 2872SOL    HW2 9516   2.669   2.066   2.408
 2873SOL     OW 9517   0.478   6.799   1.133
 2873SOL    HW1 9518   0.451   6.752   1.048
 2873SOL    HW2 9519   0.574   6.778   1.153
 2874SOL     OW 9520   2.471   1.343   2.972
 2874SOL    HW1 9521   2.558   1.298   2.949
 2874SOL    HW2 9522   2.425   1.372   2.888
 2875SOL     OW 9523   2.072   0.002   3.050
 2875SOL    HW1 9524   2.106   6.946   3.100
 2875SOL    HW2 9525   1.994   0.041   3.098
 2876SOL     OW 9526   1.709   0.325   1.917
 2876SOL    HW1 9527   1.734   0.421   1.924
 2876SOL    HW2 9528   1.646   0.312   1.841
 2877SOL     OW 9529   1.162   2.527   6.745
 2877SOL    HW1 9530   1.148   2.619   6.781
 2877SOL    HW2 9531   1.256   2.517   6.714
 2878SOL     OW 9532   3.694   3.032   3.914
 2878SOL    HW1 9533   3.693   3.117   3.861
 2878SOL    HW2 9534   3.752   3.044   3.994
 2879SOL     OW 9535   5.006   4.224   6.903
 2879SOL    HW1 9536   5.035   4.132   6.928
 2879SOL    HW2 9537   5.063   4.291   6.952
 2880SOL     OW 9538   2.204   1.011   3.212
 2880SOL    HW1 9539   2.140   1.045   3.281
 2880SOL    HW2 9540   2.157   1.003   3.124
 2881SOL     OW 9541   5.179   6.011   6.981
 2881SOL    HW1 9542   5.195   5.971   0.047
 2881SOL    HW2 9543   5.224   5.955   6.912
 2882SOL     OW 9544   4.455   6.176   0.344
 2882SOL    HW1 9545   4.435   6.260   0.393
 2882SOL    HW2 9546   4.465   6.195   0.246
 2883SOL     OW 9547   6.161   6.266   4.222
 2883SOL    HW1 9548   6.174   6.175   4.183
 2883SOL    HW2 9549   6.065   6.292   4.213
 2884SOL     OW 9550   5.923   5.295   4.068
 2884SOL    HW1 9551   5.834   5.280   4.026
 2884SOL    HW2 9552   5.995   5.282   4.001
 2885SOL     OW 9553   1.113   2.638   3.490
 2885SOL    HW1 9554   1.082   2.652   3.584
 2885SOL    HW2 9555   1.177   2.560   3.488
 2886SOL     OW 9556   2.223   4.381   5.275
 2886SOL    HW1 9557   2.197   4.295   5.230
 2886SOL    HW2 9558   2.176   4.457   5.230
 2887SOL     OW 9559   0.416   6.240   3.331
 2887SOL    HW1 9560   0.506   6.260   3.369
 2887SOL    HW2 9561   0.345   6.264   3.398
 2888SOL     OW 9562   6.282   0.044   6.850
 2888SOL    HW1 9563   6.311   0.066   6.757
 2888SOL    HW2 9564   6.311   6.975   6.872
 2889SOL     OW 9565   3.649   6.082   2.810
 2889SOL    HW1 9566   3.603   6.047   2.728
 2889SOL    HW2 9567   3.744   6.104   2.788
 2890SOL     OW 9568   1.172   1.611   1.208
 2890SOL    HW1 9569   1.241   1.681   1.189
 2890SOL    HW2 9570   1.081   1.648   1.188
 2891SOL     OW 9571   6.798   2.398   4.845
 2891SOL    HW1 9572   6.762   2.327   4.785
 2891SOL    HW2 9573   6.755   2.392   4.935
 2892SOL     OW 9574   5.827   3.470   2.425
 2892SOL    HW1 9575   5.773   3.429   2.498
 2892SOL    HW2 9576   5.768   3.488   2.346
 2893SOL     OW 9577   6.847   5.244   4.664
 2893SOL    HW1 9578   6.758   5.227   4.706
 2893SOL    HW2 9579   6.835   5.300   4.582
 2894SOL     OW 9580   2.263   5.409   2.538
 2894SOL    HW1 9581   2.291   5.396   2.443
 2894SOL    HW2 9582   2.211   5.328   2.569
 2895SOL     OW 9583   4.534   6.869   5.941
 2895SOL    HW1 9584   4.499   6.796   5.883
 2895SOL    HW2 9585   4.495   6.860   6.033
 2896SOL     OW 9586   5.156   6.952   4.594
 2896SOL    HW1 9587   5.247   6.910   4.599
 2896SOL    HW2 9588   5.165   0.026   4.576
 2897SOL     OW 9589   4.428   5.124   2.994
 2897SOL    HW1 9590   4.407   5.056   3.065
 2897SOL    HW2 9591   4.521   5.110   2.961
 2898SOL     OW 9592   5.389   2.666   2.657
 2898SOL    HW1 9593   5.369   2.585   2.712
 2898SOL    HW2 9594   5.310   2.690   2.601
 2899SOL     OW 9595   6.861   4.086   0.984
 2899SOL    HW1 9596   6.945   4.031   0.980
 2899SOL    HW2 9597   6.874   4.162   1.047
 2900SOL     OW 9598   2.644   3.301   5.940
 2900SOL    HW1 9599   2.688   3.358   5.870
 2900SOL    HW2 9600   2.708   3.230   5.970
 2901SOL     OW 9601   0.542   3.790   3.414
 2901SOL    HW1 9602   0.537   3.823   3.319
 2901SOL    HW2 9603   0.463   3.731   3.432
 2902SOL     OW 9604   6.937   6.236   4.054
 2902SOL    HW1 9605   6.995   6.177   3.997
 2902SOL    HW2 9606   6.843   6.232   4.021
 2903SOL     OW 9607   4.942   5.084   0.450
 2903SOL    HW1 9608   4.932   5.024   0.530
 2903SOL    HW2 9609   4.996   5.164   0.475
 2904SOL     OW 9610   2.160   4.006   5.318
 2904SOL    HW1 9611   2.191   4.078   5.381
 2904SOL    HW2 9612   2.234   3.981   5.257
 2905SOL     OW 9613   1.348   5.917   1.578
 2905SOL    HW1 9614   1.432   5.950   1.621
 2905SOL    HW2 9615   1.300   5.994   1.534
 2906SOL     OW 9616   6.442   6.359   4.197
 2906SOL    HW1 9617   6.450   6.336   4.100
 2906SOL    HW2 9618   6.353   6.329   4.231
 2907SOL     OW 9619   0.843   1.319   4.348
 2907SOL    HW1 9620   0.935   1.342   4.318
 2907SOL    HW2 9621   0.826   1.357   4.439
 2908SOL     OW 9622   4.413   6.620   2.830
 2908SOL    HW1 9623   4.461   6.536   2.853
 2908SOL    HW2 9624   4.355   6.648   2.907
 2909SOL     OW 9625   0.095   6.432   1.752
 2909SOL    HW1 9626   0.101   6.347   1.700
 2909SOL    HW2 9627   0.069   6.413   1.847
 2910SOL     OW 9628   0.365   0.877   3.914
 2910SOL    HW1 9629   0.413   0.933   3.846
 2910SOL    HW2 9630   0.406   0.892   4.004
 2911SOL     OW 9631   6.711   4.548   5.363
 2911SOL    HW1 9632   6.727   4.476   5.430
 2911SOL    HW2 9633   6.749   4.521   5.275
 2912SOL     OW 9634   0.993   1.421   1.843
 2912SOL    HW1 9635   0.948   1.420   1.754
 2912SOL    HW2 9636   1.076   1.366   1.839
 2913SOL     OW 9637   3.322   6.984   2.048
 2913SOL    HW1 9638   3.239   6.937   2.018
 2913SOL    HW2 9639   3.321   0.054   2.015
 2914SOL     OW 9640   4.140   5.401   0.879
 2914SOL    HW1 9641   4.205   5.342   0.833
 2914SOL    HW2 9642   4.182   5.491   0.894
 2915SOL     OW 9643   2.349   0.525   2.540
 2915SOL    HW1 9644   2.331   0.462   2.616
 2915SOL    HW2 9645   2.445   0.517   2.513
 2916SOL     OW 9646   1.408   6.256   6.926
 2916SOL    HW1 9647   1.392   6.177   6.986
 2916SOL    HW2 9648   1.492   6.302   6.954
 2917SOL     OW 9649   2.879   6.413   3.683
 2917SOL    HW1 9650   2.911   6.506   3.669
 2917SOL    HW2 9651   2.852   6.401   3.779
 2918SOL     OW 9652   4.748   2.609   1.956
 2918SOL    HW1 9653   4.673   2.666   1.922
 2918SOL    HW2 9654   4.806   2.582   1.879
 2919SOL     OW 9655   0.599   5.988   5.222
 2919SOL    HW1 9656   0.643   6.014   5.136
 2919SOL    HW2 9657   0.650   6.024   5.299
 2920SOL     OW 9658   1.791   2.047   2.882
 2920SOL    HW1 9659   1.846   2.024   2.962
 2920SOL    HW2 9660   1.829   2.003   2.801
 2921SOL     OW 9661   1.080   6.221   3.565
 2921SOL    HW1 9662   1.106   6.211   3.662
 2921SOL    HW2 9663   0.996   6.170   3.548
 2922SOL     OW 9664   3.636   6.248   4.110
 2922SOL    HW1 9665   3.547   6.231   4.067
 2922SOL    HW2 9666   3.623   6.265   4.208
 2923SOL     OW 9667   6.486   5.543   5.007
 2923SOL    HW1 9668   6.477   5.449   5.041
 2923SOL    HW2 9669   6.479   5.543   4.908
 2924SOL     OW 9670   6.219   2.022   5.306
 2924SOL    HW1 9671   6.198   1.949   5.241
 2924SOL    HW2 9672   6.305   2.002   5.351
 2925SOL     OW 9673   5.230   6.420   5.657
 2925SOL    HW1 9674   5.191   6.471   5.734
 2925SOL    HW2 9675   5.157   6.379   5.603
 2926SOL     OW 9676   6.563   3.274   4.480
 2926SOL    HW1 9677   6.643   3.328   4.455
 2926SOL    HW2 9678   6.591   3.198   4.539
 2927SOL     OW 9679   1.132   1.615   2.043
 2927SOL    HW1 9680   1.122   1.528   1.994
 2927SOL    HW2 9681   1.145   1.597   2.141
 2928SOL     OW 9682   6.258   3.076   0.184
 2928SOL    HW1 9683   6.303   2.996   0.146
 2928SOL    HW2 9684   6.197   3.116   0.115
 2929SOL     OW 9685   2.366   2.108   4.313
 2929SOL    HW1 9686   2.299   2.068   4.376
 2929SOL    HW2 9687   2.320   2.170   4.250
 2930SOL     OW 9688   0.532   4.058   4.088
 2930SOL    HW1 9689   0.468   4.130   4.062
 2930SOL    HW2 9690   0.481   3.973   4.106
 2931SOL     OW 9691   4.726   3.941   5.837
 2931SOL    HW1 9692   4.721   4.041   5.844
 2931SOL    HW2 9693   4.731   3.914   5.741
 2932SOL     OW 9694   6.041   5.483   0.846
 2932SOL    HW1 9695   6.116   5.466   0.783
 2932SOL    HW2 9696   6.077   5.486   0.940
 2933SOL     OW 9697   1.083   6.900   6.704
 2933SOL    HW1 9698   1.024   6.916   6.625
 2933SOL    HW2 9699   1.167   6.953   6.694
 2934SOL     OW 9700   3.729   4.431   0.535
 2934SOL    HW1 9701   3.686   4.520   0.517
 2934SOL    HW2 9702   3.812   4.423   0.480
 2935SOL     OW 9703   0.419   2.640   6.284
 2935SOL    HW1 9704   0.451   2.681   6.198
 2935SOL    HW2 9705   0.478   2.563   6.307
 2936SOL     OW 9706   4.773   6.017   1.249
 2936SOL    HW1 9707   4.782   5.939   1.188
 2936SOL    HW2 9708   4.826   6.094   1.213
 2937SOL     OW 9709   4.946   4.630   2.373
 2937SOL    HW1 9710   5.046   4.622   2.367
 2937SOL    HW2 9711   4.905   4.540   2.365
 2938SOL     OW 9712   0.023   5.141   6.370
 2938SOL    HW1 9713   7.011   5.234   6.380
 2938SOL    HW2 9714   0.114   5.136   6.410
 2939SOL     OW 9715   0.074   6.737   1.936
 2939SOL    HW1 9716   0.125   6.738   2.022
 2939SOL    HW2 9717   7.015   6.683   1.947
 2940SOL     OW 9718   4.210   6.661   4.125
 2940SOL    HW1 9719   4.114   6.642   4.140
 2940SOL    HW2 9720   4.220   6.750   4.080
 2941SOL     OW 9721   1.807   4.629   3.113
 2941SOL    HW1 9722   1.896   4.673   3.106
 2941SOL    HW2 9723   1.778   4.595   3.023
 2942SOL     OW 9724   3.004   1.518   1.037
 2942SOL    HW1 9725   3.089   1.466   1.026
 2942SOL    HW2 9726   2.930   1.473   0.988
 2943SOL     OW 9727   6.144   4.001   3.074
 2943SOL    HW1 9728   6.175   3.908   3.096
 2943SOL    HW2 9729   6.222   4.063   3.072
 2944SOL     OW 9730   1.980   5.876   2.327
 2944SOL    HW1 9731   1.963   5.955   2.269
 2944SOL    HW2 9732   1.939   5.892   2.417
 2945SOL     OW 9733   4.703   4.354   0.961
 2945SOL    HW1 9734   4.620   4.402   0.990
 2945SOL    HW2 9735   4.783   4.397   1.002
 2946SOL     OW 9736   3.766   3.845   5.222
 2946SOL    HW1 9737   3.735   3.923   5.168
 2946SOL    HW2 9738   3.851   3.868   5.269
 2947SOL     OW 9739   6.496   6.112   1.004
 2947SOL    HW1 9740   6.418   6.137   0.947
 2947SOL    HW2 9741   6.560   6.055   0.952
 2948SOL     OW 9742   6.818   3.267   2.254
 2948SOL    HW1 9743   6.841   3.200   2.183
 2948SOL    HW2 9744   6.731   3.310   2.231
 2949SOL     OW 9745   1.448   6.392   0.491
 2949SOL    HW1 9746   1.369   6.358   0.440
 2949SOL    HW2 9747   1.514   6.318   0.503
 2950SOL     OW 9748   6.065   5.311   3.027
 2950SOL    HW1 9749   6.133   5.384   3.030
 2950SOL    HW2 9750   6.052   5.280   2.933
 2951SOL     OW 9751   7.002   1.537   1.603
 2951SOL    HW1 9752   6.963   1.625   1.579
 2951SOL    HW2 9753   6.976   1.513   1.697
 2952SOL     OW 9754   6.839   1.930   5.205
 2952SOL    HW1 9755   6.765   1.959   5.266
 2952SOL    HW2 9756   6.913   1.891   5.259
 2953SOL     OW 9757   1.297   5.106   3.493
 2953SOL    HW1 9758   1.287   5.133   3.589
 2953SOL    HW2 9759   1.285   5.007   3.484
 2954SOL     OW 9760   0.167   4.572   6.092
 2954SOL    HW1 9761   0.085   4.610   6.136
 2954SOL    HW2 9762   0.139   4.515   6.015
 2955SOL     OW 9763   2.414   4.175   5.767
 2955SOL    HW1 9764   2.399   4.113   5.690
 2955SOL    HW2 9765   2.409   4.125   5.853
 2956SOL     OW 9766   5.171   4.765   4.018
 2956SOL    HW1 9767   5.180   4.752   3.919
 2956SOL    HW2 9768   5.261   4.771   4.059
 2957SOL     OW 9769   2.140   5.112   1.449
 2957SOL    HW1 9770   2.204   5.113   1.527
 2957SOL    HW2 9771   2.046   5.107   1.484
 2958SOL     OW 9772   2.087   4.791   2.339
 2958SOL    HW1 9773   2.059   4.874   2.387
 2958SOL    HW2 9774   2.183   4.798   2.312
 2959SOL     OW 9775   7.008   3.722   2.948
 2959SOL    HW1 9776   6.929   3.672   2.984
 2959SOL    HW2 9777   7.023   3.697   2.852
 2960SOL     OW 9778   5.440   6.727   0.883
 2960SOL    HW1 9779   5.416   6.749   0.978
 2960SOL    HW2 9780   5.539   6.732   0.872
 2961SOL     OW 9781   5.316   3.444   1.842
 2961SOL    HW1 9782   5.287   3.487   1.928
 2961SOL    HW2 9783   5.294   3.505   1.766
 2962SOL     OW 9784   6.596   0.270   3.433
 2962SOL    HW1 9785   6.691   0.257   3.404
 2962SOL    HW2 9786   6.549   0.328   3.367
 2963SOL     OW 9787   1.751   0.899   5.096
 2963SOL    HW1 9788   1.690   0.908   5.017
 2963SOL    HW2 9789   1.795   0.809   5.093
 2964SOL     OW 9790   1.241   1.006   6.410
 2964SOL    HW1 9791   1.194   1.087   6.445
 2964SOL    HW2 9792   1.253   0.940   6.484
 2965SOL     OW 9793   0.126   6.855   5.357
 2965SOL    HW1 9794   0.144   6.950   5.333
 2965SOL    HW2 9795   0.064   6.851   5.436
 2966SOL     OW 9796   3.030   5.914   2.375
 2966SOL    HW1 9797   3.065   5.986   2.315
 2966SOL    HW2 9798   3.069   5.826   2.349
 2967SOL     OW 9799   5.271   0.752   4.778
 2967SOL    HW1 9800   5.246   0.845   4.802
 2967SOL    HW2 9801   5.329   0.753   4.697
 2968SOL     OW 9802   1.402   3.780   1.286
 2968SOL    HW1 9803   1.398   3.689   1.244
 2968SOL    HW2 9804   1.494   3.818   1.277
 2969SOL     OW 9805   4.796   3.533   5.542
 2969SOL    HW1 9806   4.717   3.474   5.526
 2969SOL    HW2 9807   4.848   3.541   5.457
 2970SOL     OW 9808   2.841   1.764   4.722
 2970SOL    HW1 9809   2.922   1.815   4.693
 2970SOL    HW2 9810   2.812   1.798   4.812
 2971SOL     OW 9811   5.310   3.342   6.050
 2971SOL    HW1 9812   5.378   3.283   6.006
 2971SOL    HW2 9813   5.232   3.286   6.080
 2972SOL     OW 9814   6.504   5.559   6.561
 2972SOL    HW1 9815   6.595   5.522   6.544
 2972SOL    HW2 9816   6.440   5.483   6.574
 2973SOL     OW 9817   4.537   1.056   3.675
 2973SOL    HW1 9818   4.563   0.964   3.704
 2973SOL    HW2 9819   4.456   1.086   3.726
 2974SOL     OW 9820   4.590   6.946   2.052
 2974SOL    HW1 9821   4.660   7.012   2.078
 2974SOL    HW2 9822   4.634   6.863   2.019
 2975SOL     OW 9823   4.880   4.099   4.128
 2975SOL    HW1 9824   4.900   4.024   4.065
 2975SOL    HW2 9825   4.878   4.065   4.222
 2976SOL     OW 9826   4.043   1.217   2.520
 2976SOL    HW1 9827   4.041   1.280   2.442
 2976SOL    HW2 9828   4.138   1.205   2.551
 2977SOL     OW 9829   1.033   0.503   1.692
 2977SOL    HW1 9830   0.951   0.445   1.698
 2977SOL    HW2 9831   1.012   0.594   1.726
 2978SOL     OW 9832   4.602   5.236   6.489
 2978SOL    HW1 9833   4.580   5.328   6.522
 2978SOL    HW2 9834   4.583   5.169   6.561
 2979SOL     OW 9835   3.035   0.937   4.195
 2979SOL    HW1 9836   3.035   0.839   4.215
 2979SOL    HW2 9837   2.943   0.974   4.211
 2980SOL     OW 9838   3.341   3.489   4.771
 2980SOL    HW1 9839   3.397   3.526   4.697
 2980SOL    HW2 9840   3.295   3.564   4.819
 2981SOL     OW 9841   2.102   0.894   1.518
 2981SOL    HW1 9842   2.147   0.882   1.430
 2981SOL    HW2 9843   2.018   0.947   1.506
 2982SOL     OW 9844   1.845   6.980   0.775
 2982SOL    HW1 9845   1.915   0.027   0.766
 2982SOL    HW2 9846   1.889   6.894   0.802
 2983SOL     OW 9847   6.359   2.890   5.610
 2983SOL    HW1 9848   6.333   2.939   5.527
 2983SOL    HW2 9849   6.459   2.885   5.616
 2984SOL     OW 9850   0.270   5.225   1.729
 2984SOL    HW1 9851   0.363   5.191   1.745
 2984SOL    HW2 9852   0.206   5.173   1.785
 2985SOL     OW 9853   0.277   0.126   5.742
 2985SOL    HW1 9854   0.188   0.157   5.707
 2985SOL    HW2 9855   0.348   0.190   5.713
 2986SOL     OW 9856   3.680   3.504   2.263
 2986SOL    HW1 9857   3.639   3.416   2.238
 2986SOL    HW2 9858   3.742   3.534   2.190
 2987SOL     OW 9859   1.819   6.401   5.389
 2987SOL    HW1 9860   1.840   6.497   5.408
 2987SOL    HW2 9861   1.723   6.383   5.408
 2988SOL     OW 9862   0.250   1.461   6.486
 2988SOL    HW1 9863   0.333   1.487   6.534
 2988SOL    HW2 9864   0.182   1.430   6.552
 2989SOL     OW 9865   5.092   3.099   4.718
 2989SOL    HW1 9866   5.156   3.173   4.740
 2989SOL    HW2 9867   5.109   3.021   4.777
 2990SOL     OW 9868   5.502   1.741   4.276
 2990SOL    HW1 9869   5.517   1.763   4.179
 2990SOL    HW2 9870   5.556   1.803   4.333
 2991SOL     OW 9871   0.310   3.603   0.734
 2991SOL    HW1 9872   0.310   3.609   0.634
 2991SOL    HW2 9873   0.400   3.632   0.768
 2992SOL     OW 9874   0.223   3.651   5.238
 2992SOL    HW1 9875   0.297   3.717   5.224
 2992SOL    HW2 9876   0.215   3.631   5.335
 2993SOL     OW 9877   2.569   3.620   1.023
 2993SOL    HW1 9878   2.582   3.638   0.925
 2993SOL    HW2 9879   2.479   3.579   1.038
 2994SOL     OW 9880   3.858   5.354   6.016
 2994SOL    HW1 9881   3.828   5.426   6.079
 2994SOL    HW2 9882   3.935   5.304   6.056
 2995SOL     OW 9883   4.508   0.448   0.807
 2995SOL    HW1 9884   4.509   0.539   0.766
 2995SOL    HW2 9885   4.461   0.451   0.896
 2996SOL     OW 9886   6.657   0.674   4.229
 2996SOL    HW1 9887   6.744   0.703   4.189
 2996SOL    HW2 9888   6.593   0.750   4.227
 2997SOL     OW 9889   4.918   6.577   4.318
 2997SOL    HW1 9890   4.921   6.591   4.219
 2997SOL    HW2 9891   4.856   6.501   4.339
 2998SOL     OW 9892   2.997   1.449   1.992
 2998SOL    HW1 9893   3.090   1.459   2.028
 2998SOL    HW2 9894   2.936   1.424   2.067
 2999SOL     OW 9895   2.995   4.290   0.961
 2999SOL    HW1 9896   2.947   4.335   0.885
 2999SOL    HW2 9897   2.928   4.248   1.022
 3000SOL     OW 9898   2.793   4.019   5.395
 3000SOL    HW1 9899   2.775   4.117   5.402
 3000SOL    HW2 9900   2.714   3.974   5.352
 3001SOL     OW 9901   5.455   0.533   5.907
 3001SOL    HW1 9902   5.420   0.607   5.965
 3001SOL    HW2 9903   5.555   0.528   5.917
 3002SOL     OW 9904   1.663   2.034   2.053
 3002SOL    HW1 9905   1.691   2.091   1.976
 3002SOL    HW2 9906   1.723   2.052   2.131
 3003SOL     OW 9907   1.798   6.413   0.225
 3003SOL    HW1 9908   1.781   6.346   0.153
 3003SOL    HW2 9909   1.891   6.450   0.214
 3004SOL     OW 9910   2.388   6.694   3.949
 3004SOL    HW1 9911   2.478   6.737   3.952
 3004SOL    HW2 9912   2.392   6.612   3.892
 3005SOL     OW 9913   0.952   2.164   0.242
 3005SOL    HW1 9914   1.029   2.139   0.183
 3005SOL    HW2 9915   0.981   2.235   0.307
 3006SOL     OW 9916   5.264   1.866   5.790
 3006SOL    HW1 9917   5.199   1.886   5.864
 3006SOL    HW2 9918   5.340   1.930   5.796
 3007SOL     OW 9919   5.830   5.826   0.246
 3007SOL    HW1 9920   5.828   5.800   0.149
 3007SOL    HW2 9921   5.859   5.921   0.254
 3008SOL     OW 9922   4.632   3.467   5.800
 3008SOL    HW1 9923   4.728   3.495   5.800
 3008SOL    HW2 9924   4.619   3.392   5.736
 3009SOL     OW 9925   0.038   3.620   1.647
 3009SOL    HW1 9926   7.000   3.640   1.571
 3009SOL    HW2 9927   7.019   3.555   1.709
 3010SOL     OW 9928   4.232   5.635   0.951
 3010SOL    HW1 9929   4.306   5.687   0.908
 3010SOL    HW2 9930   4.199   5.684   1.031
 3011SOL     OW 9931   6.384   0.595   0.890
 3011SOL    HW1 9932   6.358   0.573   0.796
 3011SOL    HW2 9933   6.306   0.636   0.938
 3012SOL     OW 9934   2.371   2.258   5.161
 3012SOL    HW1 9935   2.337   2.331   5.102
 3012SOL    HW2 9936   2.340   2.274   5.255
 3013SOL     OW 9937   0.350   4.797   4.347
 3013SOL    HW1 9938   0.397   4.879   4.317
 3013SOL    HW2 9939   0.283   4.769   4.278
 3014SOL     OW 9940   5.714   0.293   6.247
 3014SOL    HW1 9941   5.778   0.295   6.324
 3014SOL    HW2 9942   5.633   0.348   6.268
 3015SOL     OW 9943   1.366   0.764   6.570
 3015SOL    HW1 9944   1.387   0.679   6.521
 3015SOL    HW2 9945   1.430   0.835   6.541
 3016SOL     OW 9946   2.097   5.848   4.094
 3016SOL    HW1 9947   2.110   5.835   3.996
 3016SOL    HW2 9948   2.180   5.886   4.134
 3017SOL     OW 9949   0.954   5.434   0.281
 3017SOL    HW1 9950   1.054   5.437   0.270
 3017SOL    HW2 9951   0.928   5.346   0.321
 3018SOL     OW 9952   3.543   0.670   1.405
 3018SOL    HW1 9953   3.479   0.608   1.358
 3018SOL    HW2 9954   3.507   0.763   1.403
 3019SOL     OW 9955   1.892   0.512   5.959
 3019SOL    HW1 9956   1.987   0.514   5.992
 3019SOL    HW2 9957   1.884   0.576   5.882
 3020SOL     OW 9958   6.257   4.340   6.837
 3020SOL    HW1 9959   6.174   4.329   6.782
 3020SOL    HW2 9960   6.265   4.435   6.868
 3021SOL     OW 9961   3.931   0.617   5.128
 3021SOL    HW1 9962   4.009   0.554   5.136
 3021SOL    HW2 9963   3.953   0.689   5.063
 3022SOL     OW 9964   4.017   5.936   3.277
 3022SOL    HW1 9965   3.920   5.955   3.266
 3022SOL    HW2 9966   4.066   5.968   3.195
 3023SOL     OW 9967   5.436   5.456   4.409
 3023SOL    HW1 9968   5.384   5.528   4.455
 3023SOL    HW2 9969   5.510   5.498   4.356
 3024SOL     OW 9970   0.322   0.624   6.992
 3024SOL    HW1 9971   0.328   0.686   6.914
 3024SOL    HW2 9972   0.230   0.584   6.996
 3025SOL     OW 9973   4.261   5.833   0.192
 3025SOL    HW1 9974   4.202   5.901   0.149
 3025SOL    HW2 9975   4.354   5.841   0.154
 3026SOL     OW 9976   0.085   0.803   2.153
 3026SOL    HW1 9977   0.034   0.855   2.221
 3026SOL    HW2 9978   0.040   0.810   2.064
 3027SOL     OW 9979   4.423   0.531   0.501
 3027SOL    HW1 9980   4.399   0.479   0.419
 3027SOL    HW2 9981   4.357   0.605   0.514
 3028SOL     OW 9982   3.382   2.987   5.577
 3028SOL    HW1 9983   3.452   2.954   5.641
 3028SOL    HW2 9984   3.406   2.960   5.484
 3029SOL     OW 9985   6.841   3.316   4.681
 3029SOL    HW1 9986   6.814   3.283   4.772
 3029SOL    HW2 9987   6.796   3.403   4.662
 3030SOL     OW 9988   2.068   3.076   6.416
 3030SOL    HW1 9989   2.158   3.036   6.432
 3030SOL    HW2 9990   2.064   3.168   6.455
 3031SOL     OW 9991   1.242   5.541   0.829
 3031SOL    HW1 9992   1.290   5.627   0.814
 3031SOL    HW2 9993   1.162   5.536   0.769
 3032SOL     OW 9994   2.522   0.544   2.914
 3032SOL    HW1 9995   2.566   0.574   2.830
 3032SOL    HW2 9996   2.501   0.447   2.909
 3033SOL     OW 9997   0.556   1.772   5.730
 3033SOL    HW1 9998   0.530   1.860   5.691
 3033SOL    HW2 9999   0.642   1.742   5.688
 3034SOL     OW10000   6.513   4.060   3.601
 3034SOL    HW110001   6.480   4.126   3.533
 3034SOL    HW210002   6.581   4.104   3.660
 3035SOL     OW10003   0.777   3.512   0.489
 3035SOL    HW110004   0.731   3.423   0.493
 3035SOL    HW210005   0.876   3.498   0.480
 3036SOL     OW10006   3.117   2.123   5.284
 3036SOL    HW110007   3.087   2.214   5.256
 3036SOL    HW210008   3.216   2.115   5.271
 3037SOL     OW10009   1.120   5.933   6.879
 3037SOL    HW110010   1.132   5.899   6.786
 3037SOL    HW210011   1.103   6.031   6.876
 3038SOL     OW10012   5.581   4.675   6.137
 3038SOL    HW110013   5.681   4.677   6.124
 3038SOL    HW210014   5.545   4.767   6.123
 3039SOL     OW10015   6.729   3.974   5.904
 3039SOL    HW110016   6.685   3.899   5.855
 3039SOL    HW210017   6.743   3.949   6.000
 3040SOL     OW10018   5.842   5.202   6.545
 3040SOL    HW110019   5.795   5.285   6.574
 3040SOL    HW210020   5.776   5.138   6.506
 3041SOL     OW10021   1.157   4.573   5.796
 3041SOL    HW110022   1.103   4.519   5.861
 3041SOL    HW210023   1.104   4.588   5.713
 3042SOL     OW10024   0.253   5.199   4.172
 3042SOL    HW110025   0.274   5.293   4.197
 3042SOL    HW210026   0.276   5.184   4.076
 3043SOL     OW10027   2.502   5.120   0.886
 3043SOL    HW110028   2.575   5.109   0.954
 3043SOL    HW210029   2.543   5.148   0.799
 3044SOL     OW10030   3.835   3.352   4.364
 3044SOL    HW110031   3.743   3.317   4.346
 3044SOL    HW210032   3.829   3.443   4.406
 3045SOL     OW10033   4.367   1.819   2.128
 3045SOL    HW110034   4.382   1.918   2.124
 3045SOL    HW210035   4.285   1.796   2.077
 3046SOL     OW10036   5.067   6.488   0.841
 3046SOL    HW110037   5.041   6.573   0.886
 3046SOL    HW210038   5.166   6.488   0.824
 3047SOL     OW10039   5.623   1.380   4.868
 3047SOL    HW110040   5.621   1.444   4.944
 3047SOL    HW210041   5.685   1.414   4.797
 3048SOL     OW10042   3.746   4.693   1.149
 3048SOL    HW110043   3.688   4.715   1.070
 3048SOL    HW210044   3.691   4.698   1.233
 3049SOL     OW10045   0.943   1.731   2.751
 3049SOL    HW110046   0.985   1.732   2.661
 3049SOL    HW210047   0.911   1.823   2.775
 3050SOL     OW10048   3.657   2.146   0.079
 3050SOL    HW110049   3.640   2.133   7.006
 3050SOL    HW210050   3.753   2.127   0.099
 3051SOL     OW10051   2.203   5.280   5.676
 3051SOL    HW110052   2.230   5.241   5.764
 3051SOL    HW210053   2.105   5.297   5.676
 3052SOL     OW10054   6.819   0.225   2.336
 3052SOL    HW110055   6.764   0.152   2.378
 3052SOL    HW210056   6.763   0.275   2.271
 3053SOL     OW10057   0.733   4.269   0.499
 3053SOL    HW110058   0.827   4.255   0.529
 3053SOL    HW210059   0.689   4.181   0.484
 3054SOL     OW10060   5.131   0.571   2.834
 3054SOL    HW110061   5.142   0.575   2.933
 3054SOL    HW210062   5.130   0.664   2.797
 3055SOL     OW10063   5.896   6.321   6.859
 3055SOL    HW110064   5.822   6.297   6.795
 3055SOL    HW210065   5.946   6.238   6.884
 3056SOL     OW10066   4.655   1.270   6.020
 3056SOL    HW110067   4.628   1.237   5.929
 3056SOL    HW210068   4.749   1.303   6.017
 3057SOL     OW10069   5.103   3.722   2.943
 3057SOL    HW110070   5.016   3.746   2.988
 3057SOL    HW210071   5.104   3.623   2.924
 3058SOL     OW10072   0.409   4.524   6.271
 3058SOL    HW110073   0.320   4.549   6.233
 3058SOL    HW210074   0.464   4.477   6.202
 3059SOL     OW10075   1.677   1.720   3.104
 3059SOL    HW110076   1.685   1.621   3.115
 3059SOL    HW210077   1.712   1.745   3.013
 3060SOL     OW10078   5.573   4.544   4.273
 3060SOL    HW110079   5.671   4.536   4.254
 3060SOL    HW210080   5.560   4.570   4.368
 3061SOL     OW10081   5.936   0.219   3.976
 3061SOL    HW110082   6.035   0.205   3.976
 3061SOL    HW210083   5.909   0.259   3.888
 3062SOL     OW10084   4.333   4.303   0.724
 3062SOL    HW110085   4.281   4.364   0.665
 3062SOL    HW210086   4.325   4.335   0.819
 3063SOL     OW10087   0.445   4.687   2.716
 3063SOL    HW110088   0.437   4.603   2.663
 3063SOL    HW210089   0.441   4.665   2.814
 3064SOL     OW10090   4.679   2.362   6.788
 3064SOL    HW110091   4.730   2.276   6.782
 3064SOL    HW210092   4.728   2.434   6.737
 3065SOL     OW10093   5.950   1.742   0.132
 3065SOL    HW110094   5.996   1.690   0.060
 3065SOL    HW210095   5.861   1.774   0.099
 3066SOL     OW10096   5.322   6.908   4.824
 3066SOL    HW110097   5.223   6.906   4.841
 3066SOL    HW210098   5.367   6.959   4.897
 3067SOL     OW10099   1.261   2.546   5.353
 3067SOL    HW110100   1.201   2.487   5.298
 3067SOL    HW210101   1.230   2.547   5.448
 3068SOL     OW10102   0.150   0.727   0.697
 3068SOL    HW110103   0.108   0.803   0.648
 3068SOL    HW210104   0.224   0.688   0.642
 3069SOL     OW10105   5.032   6.582   3.540
 3069SOL    HW110106   5.058   6.636   3.461
 3069SOL    HW210107   5.044   6.636   3.624
 3070SOL     OW10108   1.957   0.848   0.622
 3070SOL    HW110109   1.998   0.806   0.703
 3070SOL    HW210110   1.860   0.866   0.640
 3071SOL     OW10111   5.943   4.761   5.296
 3071SOL    HW110112   5.893   4.727   5.216
 3071SOL    HW210113   5.883   4.821   5.349
 3072SOL     OW10114   2.064   6.599   6.115
 3072SOL    HW110115   2.045   6.506   6.084
 3072SOL    HW210116   2.117   6.647   6.045
 3073SOL     OW10117   6.919   4.760   2.075
 3073SOL    HW110118   6.991   4.737   2.140
 3073SOL    HW210119   6.866   4.678   2.052
 3074SOL     OW10120   3.241   2.584   1.666
 3074SOL    HW110121   3.293   2.512   1.711
 3074SOL    HW210122   3.156   2.547   1.631
 3075SOL     OW10123   3.122   5.070   1.469
 3075SOL    HW110124   3.130   5.169   1.454
 3075SOL    HW210125   3.210   5.035   1.502
 3076SOL     OW10126   0.586   1.003   5.308
 3076SOL    HW110127   0.660   0.959   5.358
 3076SOL    HW210128   0.509   1.018   5.369
 3077SOL     OW10129   0.198   4.089   2.549
 3077SOL    HW110130   0.261   4.011   2.550
 3077SOL    HW210131   0.117   4.065   2.495
 3078SOL     OW10132   0.030   3.083   1.619
 3078SOL    HW110133   0.049   2.995   1.576
 3078SOL    HW210134   0.105   3.108   1.681
 3079SOL     OW10135   2.227   3.740   5.456
 3079SOL    HW110136   2.144   3.761   5.404
 3079SOL    HW210137   2.290   3.688   5.398
 3080SOL     OW10138   3.370   4.566   0.979
 3080SOL    HW110139   3.342   4.556   1.074
 3080SOL    HW210140   3.341   4.485   0.927
 3081SOL     OW10141   1.098   3.631   0.199
 3081SOL    HW110142   1.098   3.659   0.295
 3081SOL    HW210143   1.139   3.704   0.143
 3082SOL     OW10144   4.765   5.642   4.636
 3082SOL    HW110145   4.781   5.575   4.709
 3082SOL    HW210146   4.716   5.597   4.561
 3083SOL     OW10147   3.911   5.518   2.031
 3083SOL    HW110148   3.834   5.581   2.019
 3083SOL    HW210149   3.984   5.565   2.081
 3084SOL     OW10150   6.653   4.707   4.327
 3084SOL    HW110151   6.553   4.715   4.331
 3084SOL    HW210152   6.679   4.611   4.329
 3085SOL     OW10153   6.046   5.424   0.380
 3085SOL    HW110154   6.087   5.501   0.331
 3085SOL    HW210155   5.970   5.388   0.326
 3086SOL     OW10156   6.367   6.354   6.518
 3086SOL    HW110157   6.391   6.401   6.603
 3086SOL    HW210158   6.368   6.255   6.534
 3087SOL     OW10159   3.417   6.807   2.291
 3087SOL    HW110160   3.324   6.795   2.256
 3087SOL    HW210161   3.434   6.905   2.303
 3088SOL     OW10162   2.027   3.286   5.632
 3088SOL    HW110163   1.983   3.312   5.718
 3088SOL    HW210164   2.012   3.358   5.564
 3089SOL     OW10165   4.701   5.326   6.055
 3089SOL    HW110166   4.636   5.358   6.124
 3089SOL    HW210167   4.655   5.260   5.995
 3090SOL     OW10168   0.221   2.817   2.628
 3090SOL    HW110169   0.187   2.845   2.538
 3090SOL    HW210170   0.308   2.863   2.647
 3091SOL     OW10171   0.595   2.864   1.323
 3091SOL    HW110172   0.568   2.959   1.334
 3091SOL    HW210173   0.572   2.833   1.231
 3092SOL     OW10174   6.017   1.344   2.284
 3092SOL    HW110175   5.960   1.339   2.202
 3092SOL    HW210176   6.098   1.400   2.266
 3093SOL     OW10177   6.335   5.572   0.004
 3093SOL    HW110178   6.266   5.520   6.979
 3093SOL    HW210179   6.418   5.580   6.971
 3094SOL     OW10180   2.157   2.142   6.787
 3094SOL    HW110181   2.180   2.196   6.869
 3094SOL    HW210182   2.106   2.199   6.723
 3095SOL     OW10183   2.053   4.073   5.591
 3095SOL    HW110184   2.129   4.126   5.555
 3095SOL    HW210185   1.984   4.134   5.630
 3096SOL     OW10186   0.573   3.149   4.023
 3096SOL    HW110187   0.563   3.236   3.975
 3096SOL    HW210188   0.669   3.122   4.024
 3097SOL     OW10189   5.429   2.878   5.581
 3097SOL    HW110190   5.346   2.828   5.556
 3097SOL    HW210191   5.427   2.970   5.541
 3098SOL     OW10192   2.111   3.522   3.277
 3098SOL    HW110193   2.100   3.525   3.177
 3098SOL    HW210194   2.181   3.454   3.300
 3099SOL     OW10195   0.587   6.306   4.668
 3099SOL    HW110196   0.647   6.254   4.607
 3099SOL    HW210197   0.545   6.382   4.617
 3100SOL     OW10198   5.611   4.902   1.942
 3100SOL    HW110199   5.559   4.855   2.014
 3100SOL    HW210200   5.557   4.978   1.906
 3101SOL     OW10201   4.516   0.149   5.240
 3101SOL    HW110202   4.583   0.074   5.247
 3101SOL    HW210203   4.445   0.137   5.309
 3102SOL     OW10204   6.627   4.781   1.826
 3102SOL    HW110205   6.636   4.741   1.735
 3102SOL    HW210206   6.711   4.832   1.847
 3103SOL     OW10207   3.221   1.626   1.601
 3103SOL    HW110208   3.136   1.630   1.653
 3103SOL    HW210209   3.267   1.538   1.618
 3104SOL     OW10210   4.558   1.610   5.147
 3104SOL    HW110211   4.630   1.589   5.082
 3104SOL    HW210212   4.596   1.618   5.239
 3105SOL     OW10213   5.923   3.590   7.002
 3105SOL    HW110214   5.999   3.612   0.038
 3105SOL    HW210215   5.840   3.636   0.010
 3106SOL     OW10216   5.364   1.050   5.510
 3106SOL    HW110217   5.434   0.979   5.507
 3106SOL    HW210218   5.334   1.063   5.604
 3107SOL     OW10219   3.280   1.822   4.998
 3107SOL    HW110220   3.356   1.757   4.988
 3107SOL    HW210221   3.216   1.788   5.067
 3108SOL     OW10222   2.314   4.173   3.303
 3108SOL    HW110223   2.289   4.154   3.398
 3108SOL    HW210224   2.377   4.250   3.300
 3109SOL     OW10225   6.838   6.482   4.481
 3109SOL    HW110226   6.914   6.418   4.468
 3109SOL    HW210227   6.752   6.433   4.472
 3110SOL     OW10228   0.792   5.209   3.021
 3110SOL    HW110229   0.863   5.179   2.956
 3110SOL    HW210230   0.779   5.307   3.013
 3111SOL     OW10231   5.784   4.536   4.076
 3111SOL    HW110232   5.758   4.442   4.054
 3111SOL    HW210233   5.883   4.543   4.084
 3112SOL     OW10234   3.280   1.214   6.003
 3112SOL    HW110235   3.371   1.256   5.997
 3112SOL    HW210236   3.235   1.222   5.914
 3113SOL     OW10237   1.763   6.461   3.189
 3113SOL    HW110238   1.730   6.378   3.144
 3113SOL    HW210239   1.808   6.438   3.275
 3114SOL     OW10240   4.877   1.402   5.975
 3114SOL    HW110241   4.962   1.381   6.023
 3114SOL    HW210242   4.888   1.484   5.920
 3115SOL     OW10243   4.907   5.393   5.198
 3115SOL    HW110244   4.929   5.391   5.296
 3115SOL    HW210245   4.827   5.337   5.181
 3116SOL     OW10246   0.717   0.590   0.222
 3116SOL    HW110247   0.664   0.558   0.144
 3116SOL    HW210248   0.798   0.640   0.189
 3117SOL     OW10249   4.989   0.563   6.303
 3117SOL    HW110250   5.010   0.645   6.249
 3117SOL    HW210251   5.044   0.486   6.271
 3118SOL     OW10252   0.995   1.871   3.702
 3118SOL    HW110253   0.957   1.923   3.626
 3118SOL    HW210254   0.984   1.774   3.685
 3119SOL     OW10255   4.610   5.635   5.107
 3119SOL    HW110256   4.576   5.623   5.014
 3119SOL    HW210257   4.618   5.546   5.152
 3120SOL     OW10258   2.051   6.006   5.995
 3120SOL    HW110259   2.140   5.973   6.028
 3120SOL    HW210260   1.982   5.936   6.008
 3121SOL     OW10261   3.494   1.900   4.242
 3121SOL    HW110262   3.519   1.978   4.299
 3121SOL    HW210263   3.464   1.933   4.152
 3122SOL     OW10264   5.094   5.127   4.761
 3122SOL    HW110265   5.136   5.058   4.703
 3122SOL    HW210266   5.121   5.218   4.731
 3123SOL     OW10267   2.049   1.177   3.396
 3123SOL    HW110268   2.083   1.161   3.489
 3123SOL    HW210269   2.049   1.275   3.378
 3124SOL     OW10270   5.177   0.308   4.260
 3124SOL    HW110271   5.096   0.367   4.248
 3124SOL    HW210272   5.158   0.217   4.223
 3125SOL     OW10273   1.531   1.181   4.993
 3125SOL    HW110274   1.553   1.086   4.971
 3125SOL    HW210275   1.523   1.234   4.909
 3126SOL     OW10276   5.757   5.207   5.339
 3126SOL    HW110277   5.795   5.140   5.276
 3126SOL    HW210278   5.764   5.173   5.433
 3127SOL     OW10279   0.185   1.171   5.408
 3127SOL    HW110280   0.108   1.229   5.435
 3127SOL    HW210281   0.206   1.187   5.312
 3128SOL     OW10282   3.748   0.364   0.838
 3128SOL    HW110283   3.828   0.340   0.782
 3128SOL    HW210284   3.770   0.442   0.896
 3129SOL     OW10285   4.336   3.825   0.396
 3129SOL    HW110286   4.317   3.743   0.342
 3129SOL    HW210287   4.322   3.906   0.340
 3130SOL     OW10288   6.712   5.314   2.035
 3130SOL    HW110289   6.681   5.245   2.100
 3130SOL    HW210290   6.751   5.269   1.954
 3131SOL     OW10291   6.148   4.589   2.848
 3131SOL    HW110292   6.064   4.631   2.814
 3131SOL    HW210293   6.201   4.657   2.898
 3132SOL     OW10294   4.531   4.348   0.066
 3132SOL    HW110295   4.601   4.325   7.022
 3132SOL    HW210296   4.567   4.332   0.158
 3133SOL     OW10297   4.177   0.257   4.505
 3133SOL    HW110298   4.255   0.197   4.527
 3133SOL    HW210299   4.211   0.339   4.458
 3134SOL     OW10300   5.357   5.144   2.451
 3134SOL    HW110301   5.273   5.163   2.400
 3134SOL    HW210302   5.418   5.087   2.396
 3135SOL     OW10303   4.523   5.483   6.589
 3135SOL    HW110304   4.476   5.563   6.550
 3135SOL    HW210305   4.598   5.513   6.647
 3136SOL     OW10306   6.701   1.405   3.103
 3136SOL    HW110307   6.711   1.306   3.107
 3136SOL    HW210308   6.776   1.448   3.154
 3137SOL     OW10309   6.155   6.570   6.689
 3137SOL    HW110310   6.203   6.609   6.610
 3137SOL    HW210311   6.218   6.516   6.744
 3138SOL     OW10312   6.008   6.628   4.478
 3138SOL    HW110313   5.912   6.628   4.452
 3138SOL    HW210314   6.033   6.540   4.518
 3139SOL     OW10315   2.495   5.314   1.416
 3139SOL    HW110316   2.454   5.243   1.474
 3139SOL    HW210317   2.429   5.389   1.405
 3140SOL     OW10318   6.704   6.333   6.249
 3140SOL    HW110319   6.803   6.342   6.234
 3140SOL    HW210320   6.686   6.330   6.347
 3141SOL     OW10321   6.686   1.712   6.540
 3141SOL    HW110322   6.708   1.676   6.449
 3141SOL    HW210323   6.606   1.664   6.576
 3142SOL     OW10324   4.119   0.619   4.059
 3142SOL    HW110325   4.122   0.521   4.038
 3142SOL    HW210326   4.211   0.652   4.079
 3143SOL     OW10327   6.196   1.409   0.834
 3143SOL    HW110328   6.128   1.483   0.834
 3143SOL    HW210329   6.156   1.327   0.874
 3144SOL     OW10330   3.998   4.040   0.124
 3144SOL    HW110331   3.947   3.956   0.138
 3144SOL    HW210332   4.060   4.029   0.046
 3145SOL     OW10333   0.029   6.563   0.617
 3145SOL    HW110334   0.058   6.607   0.702
 3145SOL    HW210335   6.964   6.598   0.590
 3146SOL     OW10336   0.357   1.114   4.934
 3146SOL    HW110337   0.291   1.171   4.884
 3146SOL    HW210338   0.394   1.045   4.872
 3147SOL     OW10339   3.472   5.368   1.016
 3147SOL    HW110340   3.458   5.330   0.924
 3147SOL    HW210341   3.479   5.468   1.010
 3148SOL     OW10342   6.977   5.523   2.116
 3148SOL    HW110343   6.963   5.437   2.166
 3148SOL    HW210344   6.950   5.510   2.021
 3149SOL     OW10345   2.949   1.788   6.827
 3149SOL    HW110346   2.961   1.853   6.902
 3149SOL    HW210347   2.879   1.721   6.852
 3150SOL     OW10348   6.358   5.802   5.022
 3150SOL    HW110349   6.265   5.765   5.018
 3150SOL    HW210350   6.423   5.728   5.035
 3151SOL     OW10351   0.097   0.518   5.761
 3151SOL    HW110352   0.104   0.489   5.857
 3151SOL    HW210353   0.147   0.603   5.748
 3152SOL     OW10354   1.782   3.336   6.391
 3152SOL    HW110355   1.788   3.334   6.291
 3152SOL    HW210356   1.874   3.328   6.429
 3153SOL     OW10357   6.297   5.008   1.380
 3153SOL    HW110358   6.391   5.001   1.414
 3153SOL    HW210359   6.298   5.006   1.280
 3154SOL     OW10360   5.126   1.024   0.263
 3154SOL    HW110361   5.073   1.064   0.188
 3154SOL    HW210362   5.076   1.035   0.349
 3155SOL     OW10363   0.803   4.543   0.445
 3155SOL    HW110364   0.752   4.626   0.421
 3155SOL    HW210365   0.756   4.463   0.408
 3156SOL     OW10366   3.754   4.270   1.776
 3156SOL    HW110367   3.778   4.269   1.679
 3156SOL    HW210368   3.801   4.195   1.823
 3157SOL     OW10369   0.729   1.117   5.759
 3157SOL    HW110370   0.687   1.206   5.778
 3157SOL    HW210371   0.664   1.044   5.777
 3158SOL     OW10372   1.514   1.166   6.093
 3158SOL    HW110373   1.475   1.246   6.047
 3158SOL    HW210374   1.461   1.147   6.176
 3159SOL     OW10375   6.114   0.861   7.015
 3159SOL    HW110376   6.039   0.796   7.022
 3159SOL    HW210377   6.104   0.932   0.061
 3160SOL     OW10378   1.856   0.072   6.269
 3160SOL    HW110379   1.928   0.021   6.316
 3160SOL    HW210380   1.885   0.168   6.258
 3161SOL     OW10381   2.314   2.396   2.019
 3161SOL    HW110382   2.376   2.407   2.097
 3161SOL    HW210383   2.262   2.311   2.030
 3162SOL     OW10384   2.084   5.566   1.144
 3162SOL    HW110385   2.104   5.469   1.160
 3162SOL    HW210386   2.081   5.615   1.231
 3163SOL     OW10387   4.261   4.246   0.088
 3163SOL    HW110388   4.349   4.287   0.067
 3163SOL    HW210389   4.201   4.315   0.128
 3164SOL     OW10390   2.379   6.794   3.075
 3164SOL    HW110391   2.337   6.837   2.996
 3164SOL    HW210392   2.312   6.786   3.149
 3165SOL     OW10393   0.575   6.574   6.680
 3165SOL    HW110394   0.627   6.649   6.637
 3165SOL    HW210395   0.505   6.613   6.740
 3166SOL     OW10396   4.867   0.912   4.827
 3166SOL    HW110397   4.784   0.967   4.817
 3166SOL    HW210398   4.844   0.816   4.813
 3167SOL     OW10399   5.662   3.025   0.611
 3167SOL    HW110400   5.605   3.105   0.588
 3167SOL    HW210401   5.758   3.049   0.600
 3168SOL     OW10402   5.118   2.098   0.570
 3168SOL    HW110403   5.075   2.156   0.640
 3168SOL    HW210404   5.053   2.027   0.542
 3169SOL     OW10405   2.310   4.690   2.030
 3169SOL    HW110406   2.358   4.758   1.976
 3169SOL    HW210407   2.364   4.605   2.032
 3170SOL     OW10408   2.178   3.944   3.219
 3170SOL    HW110409   2.236   4.026   3.221
 3170SOL    HW210410   2.166   3.909   3.312
 3171SOL     OW10411   5.216   2.632   3.865
 3171SOL    HW110412   5.239   2.536   3.857
 3171SOL    HW210413   5.194   2.669   3.775
 3172SOL     OW10414   6.328   3.920   2.069
 3172SOL    HW110415   6.408   3.980   2.068
 3172SOL    HW210416   6.358   3.825   2.062
 3173SOL     OW10417   4.260   2.918   0.646
 3173SOL    HW110418   4.270   2.838   0.587
 3173SOL    HW210419   4.350   2.948   0.677
 3174SOL     OW10420   3.031   3.532   6.380
 3174SOL    HW110421   2.953   3.590   6.405
 3174SOL    HW210422   3.097   3.531   6.454
 3175SOL     OW10423   5.612   0.969   4.778
 3175SOL    HW110424   5.607   0.902   4.853
 3175SOL    HW210425   5.530   0.962   4.722
 3176SOL     OW10426   0.625   4.782   4.520
 3176SOL    HW110427   0.568   4.770   4.439
 3176SOL    HW210428   0.692   4.708   4.526
 3177SOL     OW10429   5.171   3.874   3.639
 3177SOL    HW110430   5.083   3.917   3.656
 3177SOL    HW210431   5.233   3.894   3.716
 3178SOL     OW10432   6.724   0.990   1.804
 3178SOL    HW110433   6.719   0.969   1.902
 3178SOL    HW210434   6.704   0.908   1.751
 3179SOL     OW10435   1.131   1.867   1.979
 3179SOL    HW110436   1.061   1.925   2.021
 3179SOL    HW210437   1.123   1.774   2.017
 3180SOL     OW10438   6.909   6.263   0.019
 3180SOL    HW110439   6.942   6.198   0.087
 3180SOL    HW210440   6.878   6.346   0.065
 3181SOL     OW10441   2.027   6.977   4.860
 3181SOL    HW110442   2.020   6.979   4.960
 3181SOL    HW210443   1.999   6.886   4.827
 3182SOL     OW10444   2.168   1.263   0.643
 3182SOL    HW110445   2.241   1.324   0.674
 3182SOL    HW210446   2.199   1.168   0.649
 3183SOL     OW10447   4.115   4.014   0.935
 3183SOL    HW110448   4.093   3.930   0.984
 3183SOL    HW210449   4.215   4.027   0.933
 3184SOL     OW10450   0.575   2.413   4.860
 3184SOL    HW110451   0.631   2.494   4.877
 3184SOL    HW210452   0.483   2.441   4.834
 3185SOL     OW10453   0.362   5.709   6.273
 3185SOL    HW110454   0.315   5.678   6.356
 3185SOL    HW210455   0.344   5.645   6.199
 3186SOL     OW10456   0.565   1.788   6.588
 3186SOL    HW110457   0.573   1.752   6.495
 3186SOL    HW210458   0.506   1.728   6.641
 3187SOL     OW10459   4.480   5.792   2.339
 3187SOL    HW110460   4.479   5.707   2.286
 3187SOL    HW210461   4.467   5.770   2.436
 3188SOL     OW10462   2.139   5.278   6.190
 3188SOL    HW110463   2.192   5.199   6.159
 3188SOL    HW210464   2.088   5.316   6.113
 3189SOL     OW10465   3.766   1.949   5.308
 3189SOL    HW110466   3.823   1.880   5.352
 3189SOL    HW210467   3.672   1.938   5.338
 3190SOL     OW10468   5.583   6.308   4.559
 3190SOL    HW110469   5.576   6.209   4.570
 3190SOL    HW210470   5.508   6.353   4.610
 3191SOL     OW10471   4.095   5.694   1.465
 3191SOL    HW110472   4.069   5.791   1.468
 3191SOL    HW210473   4.183   5.685   1.419
 3192SOL     OW10474   5.804   1.959   2.722
 3192SOL    HW110475   5.843   1.957   2.814
 3192SOL    HW210476   5.704   1.954   2.727
 3193SOL     OW10477   3.464   0.065   5.259
 3193SOL    HW110478   3.496   0.041   5.167
 3193SOL    HW210479   3.539   0.051   5.324
 3194SOL     OW10480   1.590   0.518   6.798
 3194SOL    HW110481   1.621   0.469   6.716
 3194SOL    HW210482   1.635   0.607   6.802
 3195SOL     OW10483   0.111   1.724   1.288
 3195SOL    HW110484   0.125   1.662   1.364
 3195SOL    HW210485   0.013   1.738   1.273
 3196SOL     OW10486   6.014   0.544   3.788
 3196SOL    HW110487   5.970   0.455   3.798
 3196SOL    HW210488   5.968   0.611   3.845
 3197SOL     OW10489   1.884   1.190   6.809
 3197SOL    HW110490   1.857   1.109   6.756
 3197SOL    HW210491   1.811   1.258   6.804
 3198SOL     OW10492   5.761   2.921   3.155
 3198SOL    HW110493   5.740   2.873   3.241
 3198SOL    HW210494   5.729   2.866   3.078
 3199SOL     OW10495   5.564   3.928   3.133
 3199SOL    HW110496   5.474   3.939   3.091
 3199SOL    HW210497   5.635   3.946   3.065
 3200SOL     OW10498   5.393   3.371   3.677
 3200SOL    HW110499   5.309   3.405   3.634
 3200SOL    HW210500   5.426   3.292   3.626
 3201SOL     OW10501   5.767   4.456   2.699
 3201SOL    HW110502   5.785   4.386   2.630
 3201SOL    HW210503   5.668   4.469   2.709
 3202SOL     OW10504   1.779   4.166   6.779
 3202SOL    HW110505   1.706   4.132   6.721
 3202SOL    HW210506   1.742   4.194   6.868
 3203SOL     OW10507   3.262   6.817   1.514
 3203SOL    HW110508   3.275   6.897   1.572
 3203SOL    HW210509   3.197   6.839   1.441
 3204SOL     OW10510   3.362   1.477   3.128
 3204SOL    HW110511   3.378   1.391   3.176
 3204SOL    HW210512   3.448   1.513   3.093
 3205SOL     OW10513   4.922   3.543   5.762
 3205SOL    HW110514   4.995   3.611   5.753
 3205SOL    HW210515   4.876   3.532   5.674
 3206SOL     OW10516   3.218   3.561   1.040
 3206SOL    HW110517   3.131   3.575   1.087
 3206SOL    HW210518   3.239   3.463   1.036
 3207SOL     OW10519   1.603   5.394   5.439
 3207SOL    HW110520   1.513   5.437   5.432
 3207SOL    HW210521   1.600   5.321   5.508
 3208SOL     OW10522   6.074   5.348   6.133
 3208SOL    HW110523   6.136   5.312   6.064
 3208SOL    HW210524   6.045   5.440   6.108
 3209SOL     OW10525   5.290   5.801   6.710
 3209SOL    HW110526   5.385   5.792   6.738
 3209SOL    HW210527   5.284   5.864   6.632
 3210SOL     OW10528   5.860   5.971   1.971
 3210SOL    HW110529   5.854   5.914   2.053
 3210SOL    HW210530   5.786   6.038   1.972
 3211SOL     OW10531   1.023   5.215   5.941
 3211SOL    HW110532   1.060   5.128   5.909
 3211SOL    HW210533   1.093   5.264   5.993
 3212SOL     OW10534   2.018   0.452   3.101
 3212SOL    HW110535   2.093   0.409   3.151
 3212SOL    HW210536   1.933   0.401   3.118
 3213SOL     OW10537   1.418   0.470   6.439
 3213SOL    HW110538   1.419   0.544   6.372
 3213SOL    HW210539   1.512   0.453   6.471
 3214SOL     OW10540   3.400   1.122   2.890
 3214SOL    HW110541   3.423   1.208   2.844
 3214SOL    HW210542   3.302   1.104   2.878
 3215SOL     OW10543   2.063   3.071   1.178
 3215SOL    HW110544   2.104   3.052   1.089
 3215SOL    HW210545   1.964   3.081   1.168
 3216SOL     OW10546   5.918   4.557   0.514
 3216SOL    HW110547   5.914   4.545   0.415
 3216SOL    HW210548   5.861   4.488   0.558
 3217SOL     OW10549   0.348   6.035   2.701
 3217SOL    HW110550   0.285   6.025   2.778
 3217SOL    HW210551   0.434   5.988   2.722
 3218SOL     OW10552   5.481   0.851   3.122
 3218SOL    HW110553   5.567   0.817   3.083
 3218SOL    HW210554   5.498   0.938   3.169
 3219SOL     OW10555   6.016   0.949   5.677
 3219SOL    HW110556   6.075   1.028   5.667
 3219SOL    HW210557   5.946   0.967   5.745
 3220SOL     OW10558   6.854   4.549   6.506
 3220SOL    HW110559   6.940   4.570   6.553
 3220SOL    HW210560   6.807   4.634   6.483
 3221SOL     OW10561   3.308   0.929   1.164
 3221SOL    HW110562   3.224   0.963   1.122
 3221SOL    HW210563   3.287   0.893   1.255
 3222SOL     OW10564   3.771   1.866   3.119
 3222SOL    HW110565   3.755   1.918   3.035
 3222SOL    HW210566   3.735   1.917   3.197
 3223SOL     OW10567   1.326   6.048   0.851
 3223SOL    HW110568   1.326   6.058   0.951
 3223SOL    HW210569   1.286   6.130   0.810
 3224SOL     OW10570   3.391   1.984   4.005
 3224SOL    HW110571   3.319   1.920   3.978
 3224SOL    HW210572   3.427   2.030   3.923
 3225SOL     OW10573   3.940   0.747   3.872
 3225SOL    HW110574   3.930   0.847   3.880
 3225SOL    HW210575   3.997   0.714   3.947
 3226SOL     OW10576   6.849   0.529   0.803
 3226SOL    HW110577   6.789   0.450   0.784
 3226SOL    HW210578   6.899   0.553   0.720
 3227SOL     OW10579   4.972   4.600   5.165
 3227SOL    HW110580   4.978   4.645   5.077
 3227SOL    HW210581   5.035   4.643   5.230
 3228SOL     OW10582   2.610   3.810   0.080
 3228SOL    HW110583   2.686   3.858   0.037
 3228SOL    HW210584   2.641   3.720   0.111
 3229SOL     OW10585   1.375   1.552   0.729
 3229SOL    HW110586   1.346   1.526   0.822
 3229SOL    HW210587   1.311   1.620   0.693
 3230SOL     OW10588   2.865   5.895   5.607
 3230SOL    HW110589   2.849   5.802   5.640
 3230SOL    HW210590   2.961   5.905   5.580
 3231SOL     OW10591   2.399   1.882   2.362
 3231SOL    HW110592   2.452   1.966   2.352
 3231SOL    HW210593   2.438   1.826   2.436
 3232SOL     OW10594   3.949   5.230   4.082
 3232SOL    HW110595   3.964   5.198   3.989
 3232SOL    HW210596   3.916   5.325   4.081
 3233SOL     OW10597   0.249   1.827   0.513
 3233SOL    HW110598   0.307   1.826   0.594
 3233SOL    HW210599   0.301   1.792   0.435
 3234SOL     OW10600   2.392   2.998   0.812
 3234SOL    HW110601   2.456   2.921   0.804
 3234SOL    HW210602   2.444   3.082   0.829
 3235SOL     OW10603   0.675   6.960   2.557
 3235SOL    HW110604   0.649   6.893   2.488
 3235SOL    HW210605   0.712   0.017   2.512
 3236SOL     OW10606   3.428   2.109   0.215
 3236SOL    HW110607   3.448   2.072   0.306
 3236SOL    HW210608   3.514   2.119   0.164
 3237SOL     OW10609   5.603   1.571   5.102
 3237SOL    HW110610   5.668   1.630   5.054
 3237SOL    HW210611   5.634   1.557   5.196
 3238SOL     OW10612   6.538   4.978   1.560
 3238SOL    HW110613   6.494   4.945   1.644
 3238SOL    HW210614   6.558   5.076   1.570
 3239SOL     OW10615   6.874   0.123   4.473
 3239SOL    HW110616   6.786   0.164   4.450
 3239SOL    HW210617   6.902   0.153   4.564
 3240SOL     OW10618   0.581   0.531   6.997
 3240SOL    HW110619   0.574   0.447   6.943
 3240SOL    HW210620   0.491   0.575   7.003
 3241SOL     OW10621   6.275   1.872   5.742
 3241SOL    HW110622   6.228   1.951   5.703
 3241SOL    HW210623   6.233   1.849   5.830
 3242SOL     OW10624   5.519   3.955   4.771
 3242SOL    HW110625   5.605   3.977   4.816
 3242SOL    HW210626   5.516   3.999   4.681
 3243SOL     OW10627   6.017   4.932   4.556
 3243SOL    HW110628   5.924   4.968   4.557
 3243SOL    HW210629   6.042   4.905   4.462
 3244SOL     OW10630   5.486   0.188   6.781
 3244SOL    HW110631   5.544   0.246   6.723
 3244SOL    HW210632   5.392   0.189   6.745
 3245SOL     OW10633   3.819   0.974   5.729
 3245SOL    HW110634   3.854   1.008   5.642
 3245SOL    HW210635   3.723   0.998   5.739
 3246SOL     OW10636   6.513   0.113   2.878
 3246SOL    HW110637   6.453   0.193   2.889
 3246SOL    HW210638   6.481   0.040   2.938
 3247SOL     OW10639   0.450   4.425   3.353
 3247SOL    HW110640   0.471   4.332   3.384
 3247SOL    HW210641   0.375   4.421   3.287
 3248SOL     OW10642   5.239   2.368   3.888
 3248SOL    HW110643   5.229   2.281   3.936
 3248SOL    HW210644   5.301   2.356   3.811
 3249SOL     OW10645   3.125   3.994   3.764
 3249SOL    HW110646   3.186   4.065   3.728
 3249SOL    HW210647   3.073   3.953   3.689
 3250SOL     OW10648   4.630   5.235   2.558
 3250SOL    HW110649   4.721   5.262   2.525
 3250SOL    HW210650   4.589   5.170   2.494
 3251SOL     OW10651   2.347   1.425   2.707
 3251SOL    HW110652   2.431   1.415   2.654
 3251SOL    HW210653   2.272   1.377   2.662
 3252SOL     OW10654   2.131   1.056   2.955
 3252SOL    HW110655   2.172   0.974   2.913
 3252SOL    HW210656   2.074   1.103   2.887
 3253SOL     OW10657   6.759   3.705   0.442
 3253SOL    HW110658   6.845   3.739   0.480
 3253SOL    HW210659   6.779   3.636   0.372
 3254SOL     OW10660   6.343   0.209   0.846
 3254SOL    HW110661   6.435   0.239   0.874
 3254SOL    HW210662   6.299   0.163   0.923
 3255SOL     OW10663   4.882   5.723   1.062
 3255SOL    HW110664   4.908   5.715   0.966
 3255SOL    HW210665   4.962   5.746   1.117
 3256SOL     OW10666   4.731   2.129   1.350
 3256SOL    HW110667   4.637   2.161   1.358
 3256SOL    HW210668   4.790   2.205   1.324
 3257SOL     OW10669   2.736   2.128   3.223
 3257SOL    HW110670   2.753   2.146   3.126
 3257SOL    HW210671   2.801   2.180   3.278
 3258SOL     OW10672   2.566   5.728   3.594
 3258SOL    HW110673   2.604   5.808   3.548
 3258SOL    HW210674   2.545   5.657   3.527
 3259SOL     OW10675   4.772   4.549   3.698
 3259SOL    HW110676   4.827   4.595   3.767
 3259SOL    HW210677   4.689   4.512   3.740
 3260SOL     OW10678   1.060   4.480   2.846
 3260SOL    HW110679   0.971   4.526   2.842
 3260SOL    HW210680   1.087   4.468   2.942
 3261SOL     OW10681   5.541   6.582   3.988
 3261SOL    HW110682   5.517   6.622   4.077
 3261SOL    HW210683   5.635   6.605   3.965
 3262SOL     OW10684   3.055   2.212   2.808
 3262SOL    HW110685   3.129   2.279   2.793
 3262SOL    HW210686   3.095   2.124   2.832
 3263SOL     OW10687   0.170   1.571   2.517
 3263SOL    HW110688   0.160   1.647   2.452
 3263SOL    HW210689   0.120   1.591   2.601
 3264SOL     OW10690   1.951   4.889   0.040
 3264SOL    HW110691   2.012   4.816   0.009
 3264SOL    HW210692   1.943   4.886   0.140
 3265SOL     OW10693   6.041   5.351   6.421
 3265SOL    HW110694   6.057   5.331   6.324
 3265SOL    HW210695   6.000   5.272   6.465
 3266SOL     OW10696   3.344   5.154   6.835
 3266SOL    HW110697   3.273   5.087   6.855
 3266SOL    HW210698   3.303   5.241   6.808
 3267SOL     OW10699   3.909   6.847   1.003
 3267SOL    HW110700   3.844   6.897   0.947
 3267SOL    HW210701   3.922   6.895   1.090
 3268SOL     OW10702   6.347   5.497   1.738
 3268SOL    HW110703   6.326   5.406   1.703
 3268SOL    HW210704   6.380   5.491   1.832
 3269SOL     OW10705   1.457   4.848   2.025
 3269SOL    HW110706   1.465   4.898   2.111
 3269SOL    HW210707   1.474   4.911   1.949
 3270SOL     OW10708   0.711   3.339   5.543
 3270SOL    HW110709   0.738   3.307   5.453
 3270SOL    HW210710   0.707   3.262   5.607
 3271SOL     OW10711   0.366   2.624   2.895
 3271SOL    HW110712   0.352   2.722   2.884
 3271SOL    HW210713   0.383   2.603   2.992
 3272SOL     OW10714   4.204   6.101   0.761
 3272SOL    HW110715   4.218   6.067   0.668
 3272SOL    HW210716   4.226   6.199   0.764
 3273SOL     OW10717   5.091   2.505   6.253
 3273SOL    HW110718   5.034   2.522   6.332
 3273SOL    HW210719   5.139   2.588   6.226
 3274SOL     OW10720   5.831   0.560   0.370
 3274SOL    HW110721   5.877   0.523   0.451
 3274SOL    HW210722   5.732   0.549   0.381
 3275SOL     OW10723   4.512   0.394   1.298
 3275SOL    HW110724   4.607   0.412   1.321
 3275SOL    HW210725   4.500   0.296   1.279
 3276SOL     OW10726   5.114   0.323   0.518
 3276SOL    HW110727   5.141   0.286   0.607
 3276SOL    HW210728   5.045   0.264   0.477
 3277SOL     OW10729   3.856   2.094   2.078
 3277SOL    HW110730   3.932   2.159   2.071
 3277SOL    HW210731   3.775   2.132   2.034
 3278SOL     OW10732   6.785   0.418   0.351
 3278SOL    HW110733   6.716   0.446   0.284
 3278SOL    HW210734   6.786   0.483   0.427
 3279SOL     OW10735   3.343   0.200   1.858
 3279SOL    HW110736   3.417   0.217   1.923
 3279SOL    HW210737   3.372   0.229   1.767
 3280SOL     OW10738   5.779   4.276   4.019
 3280SOL    HW110739   5.875   4.287   4.043
 3280SOL    HW210740   5.738   4.204   4.076
 3281SOL     OW10741   6.172   3.423   1.135
 3281SOL    HW110742   6.196   3.519   1.154
 3281SOL    HW210743   6.084   3.402   1.176
 3282SOL     OW10744   0.554   4.802   3.995
 3282SOL    HW110745   0.522   4.896   3.998
 3282SOL    HW210746   0.647   4.800   3.958
 3283SOL     OW10747   3.616   1.772   0.472
 3283SOL    HW110748   3.684   1.811   0.410
 3283SOL    HW210749   3.579   1.688   0.433
 3284SOL     OW10750   1.415   5.956   3.922
 3284SOL    HW110751   1.498   5.990   3.878
 3284SOL    HW210752   1.410   5.992   4.015
 3285SOL     OW10753   3.977   1.649   5.130
 3285SOL    HW110754   3.978   1.734   5.078
 3285SOL    HW210755   4.054   1.648   5.195
 3286SOL     OW10756   2.921   1.520   1.313
 3286SOL    HW110757   2.928   1.546   1.216
 3286SOL    HW210758   2.895   1.599   1.367
 3287SOL     OW10759   2.465   0.088   6.754
 3287SOL    HW110760   2.425   0.089   6.662
 3287SOL    HW210761   2.450   0.176   6.798
 3288SOL     OW10762   1.973   6.469   1.970
 3288SOL    HW110763   1.973   6.558   1.924
 3288SOL    HW210764   1.889   6.420   1.947
 3289SOL     OW10765   4.251   1.580   6.928
 3289SOL    HW110766   4.324   1.520   6.958
 3289SOL    HW210767   4.226   1.643   7.001
 3290SOL     OW10768   0.530   5.706   0.453
 3290SOL    HW110769   0.553   5.804   0.454
 3290SOL    HW210770   0.588   5.658   0.519
 3291SOL     OW10771   4.938   6.575   5.295
 3291SOL    HW110772   4.963   6.518   5.374
 3291SOL    HW210773   5.000   6.557   5.219
 3292SOL     OW10774   6.489   2.070   1.176
 3292SOL    HW110775   6.535   2.124   1.246
 3292SOL    HW210776   6.520   2.100   1.086
 3293SOL     OW10777   5.786   5.719   3.187
 3293SOL    HW110778   5.696   5.754   3.163
 3293SOL    HW210779   5.812   5.647   3.122
 3294SOL     OW10780   5.172   2.496   5.017
 3294SOL    HW110781   5.159   2.584   5.064
 3294SOL    HW210782   5.106   2.489   4.942
 3295SOL     OW10783   1.213   2.938   2.242
 3295SOL    HW110784   1.150   2.930   2.165
 3295SOL    HW210785   1.220   3.034   2.268
 3296SOL     OW10786   1.916   0.433   5.677
 3296SOL    HW110787   1.819   0.443   5.654
 3296SOL    HW210788   1.929   0.349   5.730
 3297SOL     OW10789   2.843   1.216   4.752
 3297SOL    HW110790   2.811   1.311   4.746
 3297SOL    HW210791   2.942   1.215   4.769
 3298SOL     OW10792   5.388   4.270   5.743
 3298SOL    HW110793   5.328   4.248   5.666
 3298SOL    HW210794   5.446   4.191   5.764
 3299SOL     OW10795   2.665   4.798   4.227
 3299SOL    HW110796   2.710   4.809   4.316
 3299SOL    HW210797   2.585   4.857   4.223
 3300SOL     OW10798   1.773   0.004   4.296
 3300SOL    HW110799   1.781   0.104   4.286
 3300SOL    HW210800   1.865   6.989   4.305
 3301SOL     OW10801   1.193   1.160   2.970
 3301SOL    HW110802   1.147   1.180   2.883
 3301SOL    HW210803   1.201   1.244   3.024
 3302SOL     OW10804   2.527   5.208   6.081
 3302SOL    HW110805   2.463   5.198   6.157
 3302SOL    HW210806   2.604   5.146   6.095
 3303SOL     OW10807   3.660   2.876   7.004
 3303SOL    HW110808   3.581   2.929   0.010
 3303SOL    HW210809   3.721   2.935   6.950
 3304SOL     OW10810   2.843   5.263   6.564
 3304SOL    HW110811   2.906   5.340   6.565
 3304SOL    HW210812   2.852   5.212   6.650
 3305SOL     OW10813   3.501   2.368   0.744
 3305SOL    HW110814   3.597   2.369   0.770
 3305SOL    HW210815   3.458   2.285   0.780
 3306SOL     OW10816   2.126   0.659   0.144
 3306SOL    HW110817   2.131   0.683   0.047
 3306SOL    HW210818   2.156   0.737   0.199
 3307SOL     OW10819   1.831   6.772   5.383
 3307SOL    HW110820   1.859   6.841   5.450
 3307SOL    HW210821   1.911   6.720   5.353
 3308SOL     OW10822   4.070   4.369   1.184
 3308SOL    HW110823   4.141   4.332   1.243
 3308SOL    HW210824   4.011   4.295   1.151
 3309SOL     OW10825   6.009   3.186   3.604
 3309SOL    HW110826   6.009   3.247   3.525
 3309SOL    HW210827   5.976   3.235   3.684
 3310SOL     OW10828   6.315   5.497   5.787
 3310SOL    HW110829   6.256   5.436   5.841
 3310SOL    HW210830   6.366   5.558   5.849
 3311SOL     OW10831   3.344   3.352   0.150
 3311SOL    HW110832   3.440   3.326   0.155
 3311SOL    HW210833   3.292   3.301   0.218
 3312SOL     OW10834   4.585   2.229   6.072
 3312SOL    HW110835   4.585   2.171   6.154
 3312SOL    HW210836   4.552   2.176   5.994
 3313SOL     OW10837   1.170   0.715   3.310
 3313SOL    HW110838   1.090   0.677   3.263
 3313SOL    HW210839   1.211   0.787   3.254
 3314SOL     OW10840   2.783   5.527   2.711
 3314SOL    HW110841   2.731   5.450   2.675
 3314SOL    HW210842   2.880   5.511   2.700
 3315SOL     OW10843   0.363   5.535   5.198
 3315SOL    HW110844   0.319   5.575   5.117
 3315SOL    HW210845   0.410   5.608   5.249
 3316SOL     OW10846   3.296   2.298   5.983
 3316SOL    HW110847   3.206   2.273   5.948
 3316SOL    HW210848   3.332   2.374   5.928
 3317SOL     OW10849   4.891   2.507   2.842
 3317SOL    HW110850   4.838   2.570   2.786
 3317SOL    HW210851   4.831   2.435   2.878
 3318SOL     OW10852   3.392   2.112   0.804
 3318SOL    HW110853   3.403   2.102   0.705
 3318SOL    HW210854   3.334   2.039   0.839
 3319SOL     OW10855   6.643   5.875   3.571
 3319SOL    HW110856   6.567   5.925   3.529
 3319SOL    HW210857   6.728   5.925   3.555
 3320SOL     OW10858   6.208   7.019   1.282
 3320SOL    HW110859   6.200   6.932   1.331
 3320SOL    HW210860   6.190   0.070   1.345
 3321SOL     OW10861   5.001   1.001   0.509
 3321SOL    HW110862   5.007   0.956   0.598
 3321SOL    HW210863   4.908   0.991   0.473
 3322SOL     OW10864   6.635   3.972   0.880
 3322SOL    HW110865   6.719   4.019   0.909
 3322SOL    HW210866   6.621   3.988   0.782
 3323SOL     OW10867   1.454   2.437   1.620
 3323SOL    HW110868   1.510   2.480   1.691
 3323SOL    HW210869   1.476   2.340   1.614
 3324SOL     OW10870   4.954   5.680   5.795
 3324SOL    HW110871   4.886   5.664   5.866
 3324SOL    HW210872   4.911   5.727   5.718
 3325SOL     OW10873   2.360   4.048   6.294
 3325SOL    HW110874   2.386   4.006   6.382
 3325SOL    HW210875   2.426   4.120   6.272
 3326SOL     OW10876   4.194   0.897   2.878
 3326SOL    HW110877   4.106   0.906   2.831
 3326SOL    HW210878   4.181   0.845   2.962
 3327SOL     OW10879   1.147   5.315   0.556
 3327SOL    HW110880   1.096   5.305   0.641
 3327SOL    HW210881   1.119   5.245   0.491
 3328SOL     OW10882   4.421   2.304   6.891
 3328SOL    HW110883   4.497   2.341   6.838
 3328SOL    HW210884   4.382   2.225   6.843
 3329SOL     OW10885   6.822   5.772   6.051
 3329SOL    HW110886   6.902   5.774   6.111
 3329SOL    HW210887   6.768   5.691   6.070
 3330SOL     OW10888   6.457   3.309   2.522
 3330SOL    HW110889   6.474   3.246   2.598
 3330SOL    HW210890   6.536   3.370   2.512
 3331SOL     OW10891   2.132   3.026   0.916
 3331SOL    HW110892   2.226   3.027   0.881
 3331SOL    HW210893   2.099   2.931   0.920
 3332SOL     OW10894   6.371   4.570   1.134
 3332SOL    HW110895   6.446   4.578   1.069
 3332SOL    HW210896   6.293   4.527   1.090
 3333SOL     OW10897   4.302   4.926   5.905
 3333SOL    HW110898   4.230   4.858   5.896
 3333SOL    HW210899   4.261   5.018   5.904
 3334SOL     OW10900   2.475   4.338   1.807
 3334SOL    HW110901   2.510   4.387   1.727
 3334SOL    HW210902   2.477   4.399   1.887
 3335SOL     OW10903   5.499   4.679   4.968
 3335SOL    HW110904   5.414   4.629   4.959
 3335SOL    HW210905   5.527   4.715   4.879
 3336SOL     OW10906   3.754   5.564   6.190
 3336SOL    HW110907   3.764   5.663   6.203
 3336SOL    HW210908   3.680   5.530   6.249
 3337SOL     OW10909   3.416   1.628   1.093
 3337SOL    HW110910   3.510   1.661   1.095
 3337SOL    HW210911   3.382   1.615   1.186
 3338SOL     OW10912   0.332   4.810   1.034
 3338SOL    HW110913   0.233   4.803   1.026
 3338SOL    HW210914   0.367   4.735   1.090
 3339SOL     OW10915   6.906   5.612   6.829
 3339SOL    HW110916   6.876   5.667   6.751
 3339SOL    HW210917   6.839   5.541   6.848
 3340SOL     OW10918   3.495   6.349   1.386
 3340SOL    HW110919   3.573   6.411   1.384
 3340SOL    HW210920   3.416   6.393   1.344
 3341SOL     OW10921   1.122   0.721   2.182
 3341SOL    HW110922   1.030   0.754   2.159
 3341SOL    HW210923   1.175   0.710   2.098
 3342SOL     OW10924   2.298   6.604   4.384
 3342SOL    HW110925   2.379   6.558   4.347
 3342SOL    HW210926   2.222   6.539   4.387
 3343SOL     OW10927   5.475   2.858   0.610
 3343SOL    HW110928   5.553   2.919   0.624
 3343SOL    HW210929   5.398   2.911   0.576
 3344SOL     OW10930   0.177   3.734   5.785
 3344SOL    HW110931   0.159   3.824   5.823
 3344SOL    HW210932   0.091   3.683   5.780
 3345SOL     OW10933   3.159   3.175   5.510
 3345SOL    HW110934   3.157   3.087   5.462
 3345SOL    HW210935   3.249   3.189   5.551
 3346SOL     OW10936   1.460   6.896   2.157
 3346SOL    HW110937   1.434   6.916   2.062
 3346SOL    HW210938   1.397   6.830   2.195
 3347SOL     OW10939   5.702   4.437   5.203
 3347SOL    HW110940   5.610   4.411   5.175
 3347SOL    HW210941   5.759   4.356   5.211
 3348SOL     OW10942   3.360   2.906   3.817
 3348SOL    HW110943   3.391   2.867   3.731
 3348SOL    HW210944   3.276   2.958   3.802
 3349SOL     OW10945   6.125   3.990   5.162
 3349SOL    HW110946   6.043   3.933   5.159
 3349SOL    HW210947   6.204   3.935   5.136
 3350SOL     OW10948   1.175   1.044   1.284
 3350SOL    HW110949   1.186   0.951   1.248
 3350SOL    HW210950   1.249   1.065   1.347
 3351SOL     OW10951   4.962   1.791   1.980
 3351SOL    HW110952   4.905   1.778   2.062
 3351SOL    HW210953   4.926   1.867   1.926
 3352SOL     OW10954   0.261   3.905   0.722
 3352SOL    HW110955   0.339   3.900   0.784
 3352SOL    HW210956   0.239   3.814   0.688
 3353SOL     OW10957   2.361   6.882   5.888
 3353SOL    HW110958   2.393   6.885   5.794
 3353SOL    HW210959   2.324   6.792   5.908
 3354SOL     OW10960   0.976   1.851   3.164
 3354SOL    HW110961   0.951   1.754   3.162
 3354SOL    HW210962   0.894   1.907   3.155
 3355SOL     OW10963   6.829   1.375   2.709
 3355SOL    HW110964   6.773   1.440   2.760
 3355SOL    HW210965   6.821   1.285   2.752
 3356SOL     OW10966   2.515   2.998   6.677
 3356SOL    HW110967   2.577   3.040   6.743
 3356SOL    HW210968   2.452   2.937   6.725
 3357SOL     OW10969   2.460   4.880   1.905
 3357SOL    HW110970   2.498   4.973   1.905
 3357SOL    HW210971   2.524   4.818   1.859
 3358SOL     OW10972   5.223   4.851   2.315
 3358SOL    HW110973   5.272   4.809   2.391
 3358SOL    HW210974   5.212   4.948   2.332
 3359SOL     OW10975   1.378   1.287   2.550
 3359SOL    HW110976   1.368   1.370   2.497
 3359SOL    HW210977   1.460   1.293   2.607
 3360SOL     OW10978   1.092   0.395   6.732
 3360SOL    HW110979   0.995   0.370   6.726
 3360SOL    HW210980   1.104   0.488   6.698
 3361SOL     OW10981   5.741   6.731   2.705
 3361SOL    HW110982   5.808   6.799   2.677
 3361SOL    HW210983   5.681   6.771   2.775
 3362SOL     OW10984   1.750   1.156   5.786
 3362SOL    HW110985   1.663   1.205   5.793
 3362SOL    HW210986   1.825   1.222   5.779
 3363SOL     OW10987   0.679   1.002   6.617
 3363SOL    HW110988   0.598   1.056   6.593
 3363SOL    HW210989   0.721   1.039   6.699
 3364SOL     OW10990   1.934   4.937   6.258
 3364SOL    HW110991   1.938   4.918   6.160
 3364SOL    HW210992   1.878   5.018   6.274
 3365SOL     OW10993   6.540   1.980   5.308
 3365SOL    HW110994   6.487   1.918   5.250
 3365SOL    HW210995   6.575   1.930   5.387
 3366SOL     OW10996   5.530   0.944   5.978
 3366SOL    HW110997   5.568   1.036   5.988
 3366SOL    HW210998   5.599   0.885   5.936
 3367SOL     OW10999   0.882   0.764   2.087
 3367SOL    HW111000   0.880   0.688   2.021
 3367SOL    HW211001   0.791   0.804   2.094
 3368SOL     OW11002   6.985   6.036   5.749
 3368SOL    HW111003   6.937   5.963   5.699
 3368SOL    HW211004   6.973   6.022   5.848
 3369SOL     OW11005   4.187   0.153   6.554
 3369SOL    HW111006   4.193   0.111   6.463
 3369SOL    HW211007   4.257   0.112   6.613
 3370SOL     OW11008   5.830   6.360   5.377
 3370SOL    HW111009   5.732   6.378   5.370
 3370SOL    HW211010   5.846   6.286   5.443
 3371SOL     OW11011   0.358   5.481   1.713
 3371SOL    HW111012   0.346   5.384   1.692
 3371SOL    HW211013   0.345   5.496   1.811
 3372SOL     OW11014   0.382   1.363   2.914
 3372SOL    HW111015   0.288   1.341   2.887
 3372SOL    HW211016   0.445   1.333   2.843
 3373SOL     OW11017   6.582   2.247   5.258
 3373SOL    HW111018   6.543   2.292   5.338
 3373SOL    HW211019   6.551   2.152   5.255
 3374SOL     OW11020   3.123   5.154   5.281
 3374SOL    HW111021   3.152   5.075   5.227
 3374SOL    HW211022   3.180   5.162   5.363
 3375SOL     OW11023   4.451   4.534   5.489
 3375SOL    HW111024   4.545   4.563   5.510
 3375SOL    HW211025   4.413   4.594   5.419
 3376SOL     OW11026   3.514   3.818   2.331
 3376SOL    HW111027   3.444   3.754   2.299
 3376SOL    HW211028   3.575   3.771   2.395
 3377SOL     OW11029   1.558   6.314   5.477
 3377SOL    HW111030   1.568   6.250   5.554
 3377SOL    HW211031   1.468   6.302   5.436
 3378SOL     OW11032   6.745   1.581   0.877
 3378SOL    HW111033   6.792   1.669   0.873
 3378SOL    HW211034   6.792   1.515   0.818
 3379SOL     OW11035   0.816   4.664   5.409
 3379SOL    HW111036   0.860   4.614   5.484
 3379SOL    HW211037   0.861   4.642   5.323
 3380SOL     OW11038   0.080   4.253   6.535
 3380SOL    HW111039   0.059   4.158   6.513
 3380SOL    HW211040   0.149   4.256   6.608
 3381SOL     OW11041   3.005   2.356   0.438
 3381SOL    HW111042   3.071   2.281   0.434
 3381SOL    HW211043   2.922   2.330   0.389
 3382SOL     OW11044   6.881   0.763   0.925
 3382SOL    HW111045   6.847   0.676   0.888
 3382SOL    HW211046   6.888   0.830   0.851
 3383SOL     OW11047   6.208   5.146   2.809
 3383SOL    HW111048   6.159   5.121   2.726
 3383SOL    HW211049   6.171   5.094   2.886
 3384SOL     OW11050   3.845   3.103   4.153
 3384SOL    HW111051   3.935   3.145   4.136
 3384SOL    HW211052   3.835   3.085   4.251
 3385SOL     OW11053   6.246   3.625   3.317
 3385SOL    HW111054   6.308   3.701   3.335
 3385SOL    HW211055   6.192   3.645   3.235
 3386SOL     OW11056   6.038   4.461   5.357
 3386SOL    HW111057   5.958   4.520   5.358
 3386SOL    HW211058   6.121   4.516   5.364
 3387SOL     OW11059   2.289   2.126   2.584
 3387SOL    HW111060   2.314   2.043   2.633
 3387SOL    HW211061   2.219   2.104   2.516
 3388SOL     OW11062   5.645   2.311   1.296
 3388SOL    HW111063   5.708   2.313   1.219
 3388SOL    HW211064   5.558   2.354   1.270
 3389SOL     OW11065   5.415   4.552   3.537
 3389SOL    HW111066   5.453   4.459   3.541
 3389SOL    HW211067   5.317   4.547   3.520
 3390SOL     OW11068   4.490   2.719   5.693
 3390SOL    HW111069   4.450   2.805   5.664
 3390SOL    HW211070   4.430   2.673   5.758
 3391SOL     OW11071   3.936   2.180   4.555
 3391SOL    HW111072   4.017   2.211   4.504
 3391SOL    HW211073   3.862   2.161   4.490
 3392SOL     OW11074   3.775   6.676   3.956
 3392SOL    HW111075   3.822   6.648   3.872
 3392SOL    HW211076   3.826   6.643   4.036
 3393SOL     OW11077   6.630   0.026   6.943
 3393SOL    HW111078   6.644   0.051   0.014
 3393SOL    HW211079   6.553   6.986   6.936
 3394SOL     OW11080   5.992   2.971   1.456
 3394SOL    HW111081   6.079   2.938   1.418
 3394SOL    HW211082   6.008   3.012   1.545
 3395SOL     OW11083   1.522   3.326   5.208
 3395SOL    HW111084   1.574   3.411   5.207
 3395SOL    HW211085   1.571   3.258   5.263
 3396SOL     OW11086   6.861   4.412   3.936
 3396SOL    HW111087   6.916   4.447   3.860
 3396SOL    HW211088   6.917   4.350   3.991
 3397SOL     OW11089   3.862   6.483   5.955
 3397SOL    HW111090   3.941   6.523   6.001
 3397SOL    HW211091   3.778   6.524   5.993
 3398SOL     OW11092   1.131   6.908   4.242
 3398SOL    HW111093   1.192   6.917   4.320
 3398SOL    HW211094   1.123   6.812   4.216
 3399SOL     OW11095   4.944   4.803   4.275
 3399SOL    HW111096   5.028   4.812   4.223
 3399SOL    HW211097   4.902   4.714   4.257
 3400SOL     OW11098   4.766   2.566   6.997
 3400SOL    HW111099   4.690   2.626   0.001
 3400SOL    HW211100   4.731   2.495   6.936
 3401SOL     OW11101   5.972   4.256   6.978
 3401SOL    HW111102   6.058   4.287   7.018
 3401SOL    HW211103   5.918   4.335   6.950
 3402SOL     OW11104   5.571   5.827   1.859
 3402SOL    HW111105   5.582   5.828   1.760
 3402SOL    HW211106   5.589   5.919   1.896
 3403SOL     OW11107   3.639   1.071   5.326
 3403SOL    HW111108   3.663   0.979   5.294
 3403SOL    HW211109   3.551   1.067   5.373
 3404SOL     OW11110   4.737   0.922   0.428
 3404SOL    HW111111   4.712   0.828   0.451
 3404SOL    HW211112   4.711   0.941   0.333
 3405SOL     OW11113   6.809   3.531   6.681
 3405SOL    HW111114   6.830   3.628   6.668
 3405SOL    HW211115   6.761   3.518   6.767
 3406SOL     OW11116   1.474   3.819   2.494
 3406SOL    HW111117   1.473   3.719   2.485
 3406SOL    HW211118   1.476   3.861   2.404
 3407SOL     OW11119   1.274   5.935   2.701
 3407SOL    HW111120   1.230   5.955   2.788
 3407SOL    HW211121   1.295   6.021   2.654
 3408SOL     OW11122   5.223   4.481   2.679
 3408SOL    HW111123   5.124   4.487   2.675
 3408SOL    HW211124   5.250   4.385   2.685
 3409SOL     OW11125   3.956   0.544   5.667
 3409SOL    HW111126   3.896   0.500   5.734
 3409SOL    HW211127   3.901   0.579   5.592
 3410SOL     OW11128   6.382   6.833   0.599
 3410SOL    HW111129   6.431   6.837   0.687
 3410SOL    HW211130   6.284   6.844   0.615
 3411SOL     OW11131   4.696   2.335   2.895
 3411SOL    HW111132   4.694   2.320   2.994
 3411SOL    HW211133   4.680   2.249   2.848
 3412SOL     OW11134   3.807   4.557   0.121
 3412SOL    HW111135   3.715   4.522   0.138
 3412SOL    HW211136   3.839   4.608   0.201
 3413SOL     OW11137   3.667   1.997   3.884
 3413SOL    HW111138   3.705   2.002   3.976
 3413SOL    HW211139   3.673   1.903   3.850
 3414SOL     OW11140   2.820   2.257   5.069
 3414SOL    HW111141   2.834   2.159   5.056
 3414SOL    HW211142   2.908   2.304   5.064
 3415SOL     OW11143   0.679   4.669   3.678
 3415SOL    HW111144   0.752   4.605   3.704
 3415SOL    HW211145   0.594   4.643   3.723
 3416SOL     OW11146   1.599   5.614   5.205
 3416SOL    HW111147   1.618   5.688   5.270
 3416SOL    HW211148   1.573   5.652   5.117
 3417SOL     OW11149   6.736   6.805   2.459
 3417SOL    HW111150   6.799   6.778   2.387
 3417SOL    HW211151   6.658   6.741   2.461
 3418SOL     OW11152   2.815   1.626   5.547
 3418SOL    HW111153   2.835   1.668   5.635
 3418SOL    HW211154   2.720   1.648   5.521
 3419SOL     OW11155   4.514   4.828   0.330
 3419SOL    HW111156   4.493   4.893   0.403
 3419SOL    HW211157   4.463   4.853   0.247
 3420SOL     OW11158   4.222   2.283   3.745
 3420SOL    HW111159   4.160   2.226   3.690
 3420SOL    HW211160   4.268   2.349   3.685
 3421SOL     OW11161   0.195   5.896   5.367
 3421SOL    HW111162   0.214   5.823   5.433
 3421SOL    HW211163   0.139   5.967   5.410
 3422SOL     OW11164   3.667   1.415   2.232
 3422SOL    HW111165   3.690   1.436   2.326
 3422SOL    HW211166   3.683   1.317   2.215
 3423SOL     OW11167   2.438   0.303   1.110
 3423SOL    HW111168   2.344   0.334   1.095
 3423SOL    HW211169   2.479   0.356   1.184
 3424SOL     OW11170   4.829   0.992   3.258
 3424SOL    HW111171   4.790   1.000   3.167
 3424SOL    HW211172   4.758   0.968   3.324
 3425SOL     OW11173   4.663   4.378   1.752
 3425SOL    HW111174   4.611   4.343   1.830
 3425SOL    HW211175   4.605   4.378   1.670
 3426SOL     OW11176   4.230   3.723   0.636
 3426SOL    HW111177   4.285   3.705   0.554
 3426SOL    HW211178   4.236   3.820   0.660
 3427SOL     OW11179   0.836   1.154   0.129
 3427SOL    HW111180   0.897   1.217   0.176
 3427SOL    HW211181   0.751   1.144   0.180
 3428SOL     OW11182   4.203   4.716   2.188
 3428SOL    HW111183   4.215   4.809   2.223
 3428SOL    HW211184   4.116   4.679   2.222
 3429SOL     OW11185   1.508   3.318   0.117
 3429SOL    HW111186   1.463   3.340   0.030
 3429SOL    HW211187   1.514   3.401   0.173
 3430SOL     OW11188   1.776   6.780   0.267
 3430SOL    HW111189   1.720   6.715   0.318
 3430SOL    HW211190   1.734   6.871   0.271
 3431SOL     OW11191   0.724   6.195   0.586
 3431SOL    HW111192   0.769   6.284   0.593
 3431SOL    HW211193   0.792   6.122   0.598
 3432SOL     OW11194   3.091   1.654   6.014
 3432SOL    HW111195   3.022   1.618   5.950
 3432SOL    HW211196   3.045   1.691   6.095
 3433SOL     OW11197   3.480   1.168   5.075
 3433SOL    HW111198   3.544   1.144   5.149
 3433SOL    HW211199   3.387   1.146   5.103
 3434SOL     OW11200   4.731   2.816   2.162
 3434SOL    HW111201   4.775   2.886   2.107
 3434SOL    HW211202   4.741   2.727   2.118
 3435SOL     OW11203   0.157   1.750   1.775
 3435SOL    HW111204   0.179   1.811   1.699
 3435SOL    HW211205   0.236   1.693   1.797
 3436SOL     OW11206   4.154   6.848   4.478
 3436SOL    HW111207   4.171   6.915   4.551
 3436SOL    HW211208   4.140   6.758   4.519
 3437SOL     OW11209   4.133   6.979   5.607
 3437SOL    HW111210   4.113   0.053   5.611
 3437SOL    HW211211   4.074   6.929   5.669
 3438SOL     OW11212   1.314   2.965   6.563
 3438SOL    HW111213   1.256   3.015   6.498
 3438SOL    HW211214   1.276   2.975   6.655
 3439SOL     OW11215   2.464   6.364   4.099
 3439SOL    HW111216   2.477   6.402   4.190
 3439SOL    HW211217   2.549   6.320   4.069
 3440SOL     OW11218   4.895   3.338   0.578
 3440SOL    HW111219   4.861   3.309   0.668
 3440SOL    HW211220   4.825   3.319   0.509
 3441SOL     OW11221   2.941   0.256   3.789
 3441SOL    HW111222   3.038   0.263   3.813
 3441SOL    HW211223   2.919   0.327   3.722
 3442SOL     OW11224   1.810   4.687   3.625
 3442SOL    HW111225   1.731   4.642   3.583
 3442SOL    HW211226   1.805   4.786   3.606
 3443SOL     OW11227   6.110   1.476   2.706
 3443SOL    HW111228   6.052   1.394   2.711
 3443SOL    HW211229   6.138   1.491   2.612
 3444SOL     OW11230   4.859   5.576   0.127
 3444SOL    HW111231   4.881   5.666   0.164
 3444SOL    HW211232   4.880   5.506   0.195
 3445SOL     OW11233   6.448   4.788   4.068
 3445SOL    HW111234   6.479   4.840   4.148
 3445SOL    HW211235   6.527   4.746   4.023
 3446SOL     OW11236   3.877   7.017   2.458
 3446SOL    HW111237   3.837   0.057   2.524
 3446SOL    HW211238   3.825   7.020   2.373
 3447SOL     OW11239   5.491   6.302   6.995
 3447SOL    HW111240   5.567   6.237   6.983
 3447SOL    HW211241   5.412   6.271   6.941
 3448SOL     OW11242   3.371   1.194   1.584
 3448SOL    HW111243   3.281   1.158   1.559
 3448SOL    HW211244   3.384   1.184   1.683
 3449SOL     OW11245   6.979   6.556   3.134
 3449SOL    HW111246   7.002   6.579   3.040
 3449SOL    HW211247   0.009   6.477   3.164
 3450SOL     OW11248   0.914   1.457   1.574
 3450SOL    HW111249   0.965   1.375   1.545
 3450SOL    HW211250   0.975   1.536   1.570
 3451SOL     OW11251   1.075   6.067   3.996
 3451SOL    HW111252   1.092   6.054   4.093
 3451SOL    HW211253   1.072   5.978   3.950
 3452SOL     OW11254   5.907   1.202   0.570
 3452SOL    HW111255   5.980   1.220   0.505
 3452SOL    HW211256   5.827   1.167   0.522
 3453SOL     OW11257   5.341   5.801   4.757
 3453SOL    HW111258   5.331   5.762   4.848
 3453SOL    HW211259   5.427   5.852   4.752
 3454SOL     OW11260   0.944   0.841   0.768
 3454SOL    HW111261   0.869   0.789   0.808
 3454SOL    HW211262   0.970   0.916   0.830
 3455SOL     OW11263   2.002   2.392   4.261
 3455SOL    HW111264   1.978   2.390   4.358
 3455SOL    HW211265   2.036   2.483   4.236
 3456SOL     OW11266   5.632   6.891   1.348
 3456SOL    HW111267   5.622   6.979   1.301
 3456SOL    HW211268   5.676   6.825   1.286
 3457SOL     OW11269   2.487   4.648   3.518
 3457SOL    HW111270   2.574   4.644   3.468
 3457SOL    HW211271   2.450   4.555   3.528
 3458SOL     OW11272   5.551   6.812   0.556
 3458SOL    HW111273   5.480   6.743   0.562
 3458SOL    HW211274   5.577   6.827   0.461
 3459SOL     OW11275   0.581   5.260   3.785
 3459SOL    HW111276   0.639   5.236   3.707
 3459SOL    HW211277   0.485   5.256   3.757
 3460SOL     OW11278   4.651   2.834   6.707
 3460SOL    HW111279   4.704   2.884   6.775
 3460SOL    HW211280   4.557   2.825   6.738
 3461SOL     OW11281   3.910   6.158   3.789
 3461SOL    HW111282   3.950   6.201   3.709
 3461SOL    HW211283   3.813   6.184   3.796
 3462SOL     OW11284   4.887   3.453   3.133
 3462SOL    HW111285   4.870   3.539   3.086
 3462SOL    HW211286   4.826   3.382   3.096
 3463SOL     OW11287   2.153   2.827   1.400
 3463SOL    HW111288   2.187   2.874   1.482
 3463SOL    HW211289   2.117   2.894   1.336
 3464SOL     OW11290   5.108   2.986   6.243
 3464SOL    HW111291   5.149   3.058   6.299
 3464SOL    HW211292   5.053   2.926   6.301
 3465SOL     OW11293   2.078   3.668   2.017
 3465SOL    HW111294   2.133   3.584   2.009
 3465SOL    HW211295   2.131   3.746   1.983
 3466SOL     OW11296   6.281   5.022   4.805
 3466SOL    HW111297   6.324   5.081   4.736
 3466SOL    HW211298   6.292   4.926   4.778
 3467SOL     OW11299   2.770   2.628   0.797
 3467SOL    HW111300   2.776   2.531   0.775
 3467SOL    HW211301   2.821   2.647   0.881
 3468SOL     OW11302   4.605   1.485   1.360
 3468SOL    HW111303   4.563   1.536   1.285
 3468SOL    HW211304   4.705   1.488   1.352
 3469SOL     OW11305   4.605   6.718   5.543
 3469SOL    HW111306   4.506   6.724   5.558
 3469SOL    HW211307   4.638   6.805   5.506
 3470SOL     OW11308   0.345   2.812   2.133
 3470SOL    HW111309   0.285   2.834   2.209
 3470SOL    HW211310   0.438   2.845   2.152
 3471SOL     OW11311   4.756   4.058   2.956
 3471SOL    HW111312   4.811   4.117   3.014
 3471SOL    HW211313   4.678   4.109   2.919
 3472SOL     OW11314   4.645   1.933   3.574
 3472SOL    HW111315   4.649   1.971   3.666
 3472SOL    HW211316   4.720   1.971   3.519
 3473SOL     OW11317   6.833   3.926   3.161
 3473SOL    HW111318   6.896   3.861   3.119
 3473SOL    HW211319   6.740   3.891   3.156
 3474SOL     OW11320   6.250   5.269   4.372
 3474SOL    HW111321   6.153   5.248   4.360
 3474SOL    HW211322   6.304   5.185   4.360
 3475SOL     OW11323   6.711   3.981   4.528
 3475SOL    HW111324   6.662   3.992   4.615
 3475SOL    HW211325   6.809   3.978   4.546
 3476SOL     OW11326   1.509   1.801   3.284
 3476SOL    HW111327   1.424   1.845   3.257
 3476SOL    HW211328   1.564   1.781   3.202
 3477SOL     OW11329   0.357   3.681   1.298
 3477SOL    HW111330   0.454   3.706   1.305
 3477SOL    HW211331   0.322   3.656   1.388
 3478SOL     OW11332   2.476   6.919   6.946
 3478SOL    HW111333   2.430   6.937   0.009
 3478SOL    HW211334   2.453   6.992   6.881
 3479SOL     OW11335   0.678   3.454   3.724
 3479SOL    HW111336   0.732   3.375   3.752
 3479SOL    HW211337   0.693   3.471   3.626
 3480SOL     OW11338   1.071   5.655   6.927
 3480SOL    HW111339   1.068   5.754   6.917
 3480SOL    HW211340   0.985   5.622   6.965
 3481SOL     OW11341   6.575   0.674   6.356
 3481SOL    HW111342   6.506   0.745   6.343
 3481SOL    HW211343   6.598   0.632   6.267
 3482SOL     OW11344   5.944   3.946   4.692
 3482SOL    HW111345   5.938   3.859   4.642
 3482SOL    HW211346   5.979   4.017   4.631
 3483SOL     OW11347   4.651   2.014   3.844
 3483SOL    HW111348   4.567   2.068   3.844
 3483SOL    HW211349   4.720   2.058   3.901
 3484SOL     OW11350   2.149   3.442   5.972
 3484SOL    HW111351   2.159   3.497   5.889
 3484SOL    HW211352   2.227   3.379   5.979
 3485SOL     OW11353   0.154   1.809   5.757
 3485SOL    HW111354   0.137   1.782   5.852
 3485SOL    HW211355   0.164   1.727   5.700
 3486SOL     OW11356   2.231   0.328   4.839
 3486SOL    HW111357   2.137   0.299   4.854
 3486SOL    HW211358   2.272   0.274   4.765
 3487SOL     OW11359   6.205   1.915   6.646
 3487SOL    HW111360   6.230   1.997   6.698
 3487SOL    HW211361   6.106   1.902   6.650
 3488SOL     OW11362   5.999   0.857   4.228
 3488SOL    HW111363   6.027   0.764   4.205
 3488SOL    HW211364   5.913   0.854   4.280
 3489SOL     OW11365   3.358   0.275   0.948
 3489SOL    HW111366   3.402   0.364   0.939
 3489SOL    HW211367   3.381   0.219   0.868
 3490SOL     OW11368   4.219   5.030   0.589
 3490SOL    HW111369   4.263   5.066   0.507
 3490SOL    HW211370   4.129   5.072   0.600
 3491SOL     OW11371   4.729   3.991   0.304
 3491SOL    HW111372   4.696   3.990   0.210
 3491SOL    HW211373   4.694   3.910   0.352
 3492SOL     OW11374   5.981   4.318   2.568
 3492SOL    HW111375   5.972   4.408   2.611
 3492SOL    HW211376   6.078   4.296   2.558
 3493SOL     OW11377   6.239   3.662   4.593
 3493SOL    HW111378   6.184   3.602   4.651
 3493SOL    HW211379   6.286   3.730   4.649
 3494SOL     OW11380   3.744   1.582   2.024
 3494SOL    HW111381   3.691   1.520   2.082
 3494SOL    HW211382   3.682   1.631   1.963
 3495SOL     OW11383   1.437   3.522   1.615
 3495SOL    HW111384   1.476   3.521   1.523
 3495SOL    HW211385   1.461   3.438   1.663
 3496SOL     OW11386   6.582   5.302   0.987
 3496SOL    HW111387   6.502   5.317   0.928
 3496SOL    HW211388   6.557   5.243   1.063
 3497SOL     OW11389   4.232   0.557   2.325
 3497SOL    HW111390   4.226   0.507   2.239
 3497SOL    HW211391   4.161   0.523   2.387
 3498SOL     OW11392   1.929   2.021   1.374
 3498SOL    HW111393   1.912   1.956   1.448
 3498SOL    HW211394   1.939   2.113   1.412
 3499SOL     OW11395   5.806   5.653   5.567
 3499SOL    HW111396   5.893   5.662   5.518
 3499SOL    HW211397   5.818   5.689   5.660
 3500SOL     OW11398   1.683   2.056   3.646
 3500SOL    HW111399   1.767   2.109   3.638
 3500SOL    HW211400   1.654   2.054   3.742
 3501SOL     OW11401   2.087   0.058   6.469
 3501SOL    HW111402   2.128   0.052   6.378
 3501SOL    HW211403   2.109   0.147   6.509
 3502SOL     OW11404   5.038   3.815   1.763
 3502SOL    HW111405   5.021   3.890   1.698
 3502SOL    HW211406   5.110   3.843   1.827
 3503SOL     OW11407   6.697   6.081   6.144
 3503SOL    HW111408   6.656   6.169   6.166
 3503SOL    HW211409   6.788   6.095   6.105
 3504SOL     OW11410   1.531   0.569   2.032
 3504SOL    HW111411   1.570   0.643   2.087
 3504SOL    HW211412   1.516   0.488   2.089
 3505SOL     OW11413   5.778   5.129   5.587
 3505SOL    HW111414   5.702   5.145   5.650
 3505SOL    HW211415   5.843   5.066   5.630
 3506SOL     OW11416   5.113   4.444   4.419
 3506SOL    HW111417   5.204   4.420   4.385
 3506SOL    HW211418   5.047   4.375   4.388
 3507SOL     OW11419   2.323   0.157   0.343
 3507SOL    HW111420   2.294   0.240   0.391
 3507SOL    HW211421   2.407   0.176   0.292
 3508SOL     OW11422   2.980   2.501   5.403
 3508SOL    HW111423   3.049   2.480   5.334
 3508SOL    HW211424   2.914   2.566   5.364
 3509SOL     OW11425   4.364   5.927   6.799
 3509SOL    HW111426   4.379   5.854   6.866
 3509SOL    HW211427   4.273   5.966   6.813
 3510SOL     OW11428   2.256   0.532   0.852
 3510SOL    HW111429   2.276   0.626   0.880
 3510SOL    HW211430   2.239   0.476   0.933
 3511SOL     OW11431   2.558   4.730   1.321
 3511SOL    HW111432   2.462   4.713   1.345
 3511SOL    HW211433   2.562   4.766   1.228
 3512SOL     OW11434   1.406   4.231   6.953
 3512SOL    HW111435   1.312   4.205   6.975
 3512SOL    HW211436   1.407   4.289   6.871
 3513SOL     OW11437   5.901   2.272   0.464
 3513SOL    HW111438   5.931   2.313   0.549
 3513SOL    HW211439   5.822   2.212   0.481
 3514SOL     OW11440   4.804   0.866   2.860
 3514SOL    HW111441   4.796   0.766   2.851
 3514SOL    HW211442   4.749   0.897   2.937
 3515SOL     OW11443   5.728   6.197   4.818
 3515SOL    HW111444   5.795   6.223   4.888
 3515SOL    HW211445   5.758   6.231   4.729
 3516SOL     OW11446   5.079   0.299   1.084
 3516SOL    HW111447   5.110   0.359   1.011
 3516SOL    HW211448   5.149   0.296   1.157
 3517SOL     OW11449   6.577   1.504   0.308
 3517SOL    HW111450   6.558   1.442   0.232
 3517SOL    HW211451   6.491   1.535   0.348
 3518SOL     OW11452   5.799   1.723   4.984
 3518SOL    HW111453   5.821   1.815   5.014
 3518SOL    HW211454   5.883   1.671   4.967
 3519SOL     OW11455   3.232   0.756   0.579
 3519SOL    HW111456   3.312   0.697   0.571
 3519SOL    HW211457   3.187   0.740   0.667
 3520SOL     OW11458   3.198   5.607   5.174
 3520SOL    HW111459   3.128   5.595   5.243
 3520SOL    HW211460   3.158   5.648   5.092
 3521SOL     OW11461   2.940   3.070   6.986
 3521SOL    HW111462   2.999   2.990   6.999
 3521SOL    HW211463   2.897   3.093   0.050
 3522SOL     OW11464   6.944   5.444   0.154
 3522SOL    HW111465   6.893   5.418   0.236
 3522SOL    HW211466   6.936   5.371   0.086
 3523SOL     OW11467   1.090   5.238   5.684
 3523SOL    HW111468   1.007   5.227   5.630
 3523SOL    HW211469   1.068   5.232   5.782
 3524SOL     OW11470   6.303   1.794   2.964
 3524SOL    HW111471   6.258   1.736   3.032
 3524SOL    HW211472   6.393   1.821   2.997
 3525SOL     OW11473   6.022   4.598   4.005
 3525SOL    HW111474   5.980   4.684   3.975
 3525SOL    HW211475   6.090   4.617   4.076
 3526SOL     OW11476   1.074   5.791   3.330
 3526SOL    HW111477   1.068   5.877   3.279
 3526SOL    HW211478   1.118   5.808   3.418
 3527SOL     OW11479   6.864   3.070   5.862
 3527SOL    HW111480   6.784   3.010   5.868
 3527SOL    HW211481   6.908   3.076   5.951
 3528SOL     OW11482   2.709   6.280   5.441
 3528SOL    HW111483   2.806   6.294   5.422
 3528SOL    HW211484   2.662   6.258   5.355
 3529SOL     OW11485   5.045   5.722   6.796
 3529SOL    HW111486   4.998   5.703   6.709
 3529SOL    HW211487   5.141   5.743   6.778
 3530SOL     OW11488   7.022   6.330   2.007
 3530SOL    HW111489   7.009   6.328   2.106
 3530SOL    HW211490   0.085   6.288   1.983
 3531SOL     OW11491   4.557   1.454   2.018
 3531SOL    HW111492   4.609   1.368   2.013
 3531SOL    HW211493   4.484   1.452   1.950
 3532SOL     OW11494   2.454   1.175   2.407
 3532SOL    HW111495   2.368   1.150   2.363
 3532SOL    HW211496   2.459   1.274   2.417
 3533SOL     OW11497   6.619   1.533   2.191
 3533SOL    HW111498   6.584   1.441   2.175
 3533SOL    HW211499   6.681   1.533   2.269
 3534SOL     OW11500   0.362   2.156   1.668
 3534SOL    HW111501   0.430   2.217   1.627
 3534SOL    HW211502   0.311   2.205   1.739
 3535SOL     OW11503   2.736   5.275   4.951
 3535SOL    HW111504   2.756   5.190   4.903
 3535SOL    HW211505   2.804   5.289   5.024
 3536SOL     OW11506   3.159   1.930   2.780
 3536SOL    HW111507   3.178   1.907   2.684
 3536SOL    HW211508   3.064   1.908   2.801
 3537SOL     OW11509   1.528   5.821   2.682
 3537SOL    HW111510   1.577   5.795   2.766
 3537SOL    HW211511   1.432   5.838   2.704
 3538SOL     OW11512   3.180   5.316   4.954
 3538SOL    HW111513   3.208   5.299   5.048
 3538SOL    HW211514   3.244   5.379   4.911
 3539SOL     OW11515   3.903   3.841   4.365
 3539SOL    HW111516   3.923   3.753   4.408
 3539SOL    HW211517   3.866   3.904   4.433
 3540SOL     OW11518   2.075   1.992   4.154
 3540SOL    HW111519   2.032   1.905   4.177
 3540SOL    HW211520   2.006   2.055   4.120
 3541SOL     OW11521   3.073   3.498   5.098
 3541SOL    HW111522   2.987   3.517   5.144
 3541SOL    HW211523   3.055   3.472   5.003
 3542SOL     OW11524   1.427   4.794   2.542
 3542SOL    HW111525   1.388   4.718   2.490
 3542SOL    HW211526   1.389   4.795   2.634
 3543SOL     OW11527   5.584   2.763   4.235
 3543SOL    HW111528   5.568   2.738   4.331
 3543SOL    HW211529   5.546   2.692   4.176
 3544SOL     OW11530   2.220   4.363   6.126
 3544SOL    HW111531   2.183   4.447   6.166
 3544SOL    HW211532   2.156   4.288   6.142
 3545SOL     OW11533   4.318   5.497   6.313
 3545SOL    HW111534   4.339   5.569   6.381
 3545SOL    HW211535   4.219   5.481   6.312
 3546SOL     OW11536   6.842   5.863   3.298
 3546SOL    HW111537   6.835   5.935   3.366
 3546SOL    HW211538   6.782   5.787   3.322
 3547SOL     OW11539   4.619   5.170   4.678
 3547SOL    HW111540   4.674   5.122   4.747
 3547SOL    HW211541   4.679   5.201   4.604
 3548SOL     OW11542   4.914   2.905   5.615
 3548SOL    HW111543   5.011   2.881   5.610
 3548SOL    HW211544   4.866   2.838   5.672
 3549SOL     OW11545   6.274   4.715   3.085
 3549SOL    HW111546   6.367   4.745   3.065
 3549SOL    HW211547   6.244   4.754   3.172
 3550SOL     OW11548   5.204   2.133   3.023
 3550SOL    HW111549   5.167   2.224   3.036
 3550SOL    HW211550   5.243   2.125   2.931
 3551SOL     OW11551   3.019   6.536   2.741
 3551SOL    HW111552   2.994   6.622   2.697
 3551SOL    HW211553   3.117   6.536   2.759
 3552SOL     OW11554   5.370   6.023   2.710
 3552SOL    HW111555   5.393   6.001   2.615
 3552SOL    HW211556   5.432   5.975   2.772
 3553SOL     OW11557   5.314   2.292   2.392
 3553SOL    HW111558   5.220   2.301   2.426
 3553SOL    HW211559   5.318   2.324   2.297
 3554SOL     OW11560   4.128   4.850   6.771
 3554SOL    HW111561   4.044   4.868   6.821
 3554SOL    HW211562   4.116   4.768   6.715
 3555SOL     OW11563   1.265   2.992   3.195
 3555SOL    HW111564   1.354   2.963   3.229
 3555SOL    HW211565   1.219   2.916   3.149
 3556SOL     OW11566   3.023   0.575   5.476
 3556SOL    HW111567   2.957   0.585   5.401
 3556SOL    HW211568   3.051   0.479   5.483
 3557SOL     OW11569   2.005   0.445   4.597
 3557SOL    HW111570   2.043   0.356   4.623
 3557SOL    HW211571   2.030   0.464   4.502
 3558SOL     OW11572   6.845   5.968   2.016
 3558SOL    HW111573   6.761   6.018   1.993
 3558SOL    HW211574   6.896   5.948   1.932
 3559SOL     OW11575   0.590   1.259   4.748
 3559SOL    HW111576   0.656   1.330   4.771
 3559SOL    HW211577   0.515   1.260   4.814
 3560SOL     OW11578   0.790   5.562   1.529
 3560SOL    HW111579   0.732   5.598   1.456
 3560SOL    HW211580   0.886   5.573   1.504
 3561SOL     OW11581   4.988   4.744   5.552
 3561SOL    HW111582   5.006   4.681   5.627
 3561SOL    HW211583   4.912   4.804   5.575
 3562SOL     OW11584   5.612   0.235   3.593
 3562SOL    HW111585   5.580   0.206   3.503
 3562SOL    HW211586   5.604   0.160   3.658
 3563SOL     OW11587   5.138   1.009   1.035
 3563SOL    HW111588   5.156   1.072   1.110
 3563SOL    HW211589   5.092   1.058   0.961
 3564SOL     OW11590   0.018   4.442   4.201
 3564SOL    HW111591   6.980   4.519   4.194
 3564SOL    HW211592   0.099   4.458   4.144
 3565SOL     OW11593   2.875   0.727   4.874
 3565SOL    HW111594   2.889   0.766   4.964
 3565SOL    HW211595   2.962   0.721   4.826
 3566SOL     OW11596   0.129   3.103   6.158
 3566SOL    HW111597   0.030   3.115   6.165
 3566SOL    HW211598   0.163   3.154   6.079
 3567SOL     OW11599   7.001   3.155   0.700
 3567SOL    HW111600   0.050   3.221   0.680
 3567SOL    HW211601   0.000   3.102   0.781
 3568SOL     OW11602   4.420   4.538   3.320
 3568SOL    HW111603   4.434   4.561   3.416
 3568SOL    HW211604   4.502   4.492   3.285
 3569SOL     OW11605   3.122   4.088   4.432
 3569SOL    HW111606   3.091   4.175   4.470
 3569SOL    HW211607   3.133   4.021   4.507
 3570SOL     OW11608   0.116   1.506   6.179
 3570SOL    HW111609   0.126   1.414   6.139
 3570SOL    HW211610   0.153   1.505   6.272
 3571SOL     OW11611   2.186   6.583   5.621
 3571SOL    HW111612   2.227   6.522   5.554
 3571SOL    HW211613   2.214   6.677   5.602
 3572SOL     OW11614   4.996   4.629   1.526
 3572SOL    HW111615   4.923   4.591   1.469
 3572SOL    HW211616   5.075   4.568   1.523
 3573SOL     OW11617   6.640   3.527   2.417
 3573SOL    HW111618   6.707   3.585   2.371
 3573SOL    HW211619   6.574   3.585   2.465
 3574SOL     OW11620   2.853   3.152   6.074
 3574SOL    HW111621   2.823   3.062   6.107
 3574SOL    HW211622   2.861   3.215   6.151
 3575SOL     OW11623   5.408   6.981   0.140
 3575SOL    HW111624   5.336   6.955   0.076
 3575SOL    HW211625   5.470   0.022   0.096
 3576SOL     OW11626   0.969   3.216   6.822
 3576SOL    HW111627   0.907   3.294   6.832
 3576SOL    HW211628   1.049   3.243   6.769
 3577SOL     OW11629   2.594   2.657   5.523
 3577SOL    HW111630   2.564   2.640   5.616
 3577SOL    HW211631   2.547   2.738   5.487
 3578SOL     OW11632   3.255   3.045   6.695
 3578SOL    HW111633   3.334   2.989   6.670
 3578SOL    HW211634   3.263   3.074   6.790
 3579SOL     OW11635   0.485   3.463   2.516
 3579SOL    HW111636   0.522   3.457   2.423
 3579SOL    HW211637   0.559   3.455   2.582
 3580SOL     OW11638   0.301   3.691   1.576
 3580SOL    HW111639   0.325   3.770   1.632
 3580SOL    HW211640   0.205   3.669   1.589
 3581SOL     OW11641   0.686   0.325   2.543
 3581SOL    HW111642   0.673   0.387   2.466
 3581SOL    HW211643   0.662   0.232   2.515
 3582SOL     OW11644   3.542   3.942   6.009
 3582SOL    HW111645   3.592   3.858   5.992
 3582SOL    HW211646   3.479   3.960   5.934
 3583SOL     OW11647   0.765   4.826   0.797
 3583SOL    HW111648   0.667   4.846   0.799
 3583SOL    HW211649   0.799   4.817   0.890
 3584SOL     OW11650   5.555   4.443   4.710
 3584SOL    HW111651   5.607   4.370   4.665
 3584SOL    HW211652   5.509   4.498   4.641
 3585SOL     OW11653   2.749   1.811   3.355
 3585SOL    HW111654   2.662   1.782   3.314
 3585SOL    HW211655   2.731   1.869   3.434
 3586SOL     OW11656   6.351   2.595   4.639
 3586SOL    HW111657   6.413   2.673   4.633
 3586SOL    HW211658   6.370   2.531   4.564
 3587SOL     OW11659   3.370   6.838   6.138
 3587SOL    HW111660   3.322   6.845   6.225
 3587SOL    HW211661   3.352   6.749   6.097
 3588SOL     OW11662   6.597   4.217   4.419
 3588SOL    HW111663   6.632   4.128   4.447
 3588SOL    HW211664   6.499   4.209   4.398
 3589SOL     OW11665   0.199   0.093   6.228
 3589SOL    HW111666   0.172   0.187   6.248
 3589SOL    HW211667   0.172   0.033   6.304
 3590SOL     OW11668   6.758   4.687   0.721
 3590SOL    HW111669   6.828   4.615   0.723
 3590SOL    HW211670   6.731   4.703   0.626
 3591SOL     OW11671   5.416   2.380   6.867
 3591SOL    HW111672   5.394   2.393   6.770
 3591SOL    HW211673   5.502   2.427   6.888
 3592SOL     OW11674   1.631   6.982   1.706
 3592SOL    HW111675   1.674   6.903   1.749
 3592SOL    HW211676   1.588   6.955   1.619
 3593SOL     OW11677   5.127   3.142   5.997
 3593SOL    HW111678   5.104   3.079   5.923
 3593SOL    HW211679   5.134   3.091   6.083
 3594SOL     OW11680   4.384   5.131   4.571
 3594SOL    HW111681   4.463   5.184   4.601
 3594SOL    HW211682   4.391   5.037   4.604
 3595SOL     OW11683   5.495   6.204   5.856
 3595SOL    HW111684   5.411   6.191   5.803
 3595SOL    HW211685   5.471   6.220   5.952
 3596SOL     OW11686   3.800   1.641   3.558
 3596SOL    HW111687   3.889   1.637   3.513
 3596SOL    HW211688   3.755   1.552   3.549
 3597SOL     OW11689   2.198   3.391   5.226
 3597SOL    HW111690   2.212   3.297   5.258
 3597SOL    HW211691   2.274   3.448   5.257
 3598SOL     OW11692   1.523   5.239   4.675
 3598SOL    HW111693   1.540   5.147   4.710
 3598SOL    HW211694   1.569   5.306   4.733
 3599SOL     OW11695   4.798   1.452   4.931
 3599SOL    HW111696   4.746   1.390   4.990
 3599SOL    HW211697   4.886   1.410   4.908
 3600SOL     OW11698   3.620   3.189   0.527
 3600SOL    HW111699   3.701   3.243   0.549
 3600SOL    HW211700   3.587   3.214   0.436
 3601SOL     OW11701   5.229   0.875   5.346
 3601SOL    HW111702   5.134   0.891   5.320
 3601SOL    HW211703   5.285   0.952   5.314
 3602SOL     OW11704   2.052   2.179   1.159
 3602SOL    HW111705   2.100   2.130   1.086
 3602SOL    HW211706   2.017   2.113   1.226
 3603SOL     OW11707   2.855   1.332   5.872
 3603SOL    HW111708   2.899   1.243   5.859
 3603SOL    HW211709   2.792   1.349   5.796
 3604SOL     OW11710   6.716   0.569   3.808
 3604SOL    HW111711   6.718   0.606   3.901
 3604SOL    HW211712   6.809   0.562   3.773
 3605SOL     OW11713   0.760   5.752   3.448
 3605SOL    HW111714   0.843   5.801   3.421
 3605SOL    HW211715   0.755   5.746   3.548
 3606SOL     OW11716   2.479   6.548   1.999
 3606SOL    HW111717   2.451   6.483   1.928
 3606SOL    HW211718   2.555   6.603   1.966
 3607SOL     OW11719   5.042   2.788   3.033
 3607SOL    HW111720   5.087   2.814   3.118
 3607SOL    HW211721   5.091   2.711   2.992
 3608SOL     OW11722   3.016   1.987   5.073
 3608SOL    HW111723   3.042   2.016   5.165
 3608SOL    HW211724   3.083   2.023   5.007
 3609SOL     OW11725   2.403   0.057   4.402
 3609SOL    HW111726   2.475   7.015   4.422
 3609SOL    HW211727   2.400   0.073   4.303
 3610SOL     OW11728   2.578   6.803   4.840
 3610SOL    HW111729   2.551   6.776   4.748
 3610SOL    HW211730   2.571   6.902   4.849
 3611SOL     OW11731   5.318   4.860   2.959
 3611SOL    HW111732   5.293   4.764   2.951
 3611SOL    HW211733   5.366   4.875   3.045
 3612SOL     OW11734   6.192   1.461   6.454
 3612SOL    HW111735   6.271   1.399   6.447
 3612SOL    HW211736   6.151   1.453   6.545
 3613SOL     OW11737   3.928   5.494   1.376
 3613SOL    HW111738   3.989   5.571   1.394
 3613SOL    HW211739   3.904   5.493   1.278
 3614SOL     OW11740   3.941   4.510   6.587
 3614SOL    HW111741   4.021   4.525   6.645
 3614SOL    HW211742   3.931   4.588   6.524
 3615SOL     OW11743   6.086   2.357   5.756
 3615SOL    HW111744   6.130   2.430   5.808
 3615SOL    HW211745   6.046   2.395   5.673
 3616SOL     OW11746   1.297   1.732   6.842
 3616SOL    HW111747   1.263   1.784   6.920
 3616SOL    HW211748   1.348   1.792   6.781
 3617SOL     OW11749   3.516   6.238   6.319
 3617SOL    HW111750   3.515   6.338   6.323
 3617SOL    HW211751   3.611   6.206   6.319
 3618SOL     OW11752   2.077   4.383   4.370
 3618SOL    HW111753   1.979   4.403   4.378
 3618SOL    HW211754   2.091   4.284   4.381
 3619SOL     OW11755   5.773   2.854   1.375
 3619SOL    HW111756   5.850   2.893   1.426
 3619SOL    HW211757   5.687   2.892   1.409
 3620SOL     OW11758   6.187   6.250   4.918
 3620SOL    HW111759   6.099   6.212   4.944
 3620SOL    HW211760   6.244   6.260   5.000
 3621SOL     OW11761   2.969   3.448   3.575
 3621SOL    HW111762   3.007   3.358   3.552
 3621SOL    HW211763   2.921   3.485   3.495
 3622SOL     OW11764   0.916   6.644   0.079
 3622SOL    HW111765   0.957   6.734   0.091
 3622SOL    HW211766   0.821   6.654   0.049
 3623SOL     OW11767   1.059   4.760   6.354
 3623SOL    HW111768   1.037   4.695   6.281
 3623SOL    HW211769   1.046   4.853   6.321
 3624SOL     OW11770   3.301   1.382   1.970
 3624SOL    HW111771   3.328   1.418   2.059
 3624SOL    HW211772   3.382   1.375   1.911
 3625SOL     OW11773   6.732   2.470   0.626
 3625SOL    HW111774   6.672   2.390   0.613
 3625SOL    HW211775   6.811   2.444   0.680
 3626SOL     OW11776   1.130   2.380   5.000
 3626SOL    HW111777   1.157   2.457   5.058
 3626SOL    HW211778   1.119   2.412   4.906
 3627SOL     OW11779   3.872   2.316   1.664
 3627SOL    HW111780   3.824   2.347   1.582
 3627SOL    HW211781   3.813   2.326   1.744
 3628SOL     OW11782   6.631   2.107   1.696
 3628SOL    HW111783   6.628   2.205   1.675
 3628SOL    HW211784   6.539   2.069   1.686
 3629SOL     OW11785   1.424   1.557   4.462
 3629SOL    HW111786   1.468   1.483   4.411
 3629SOL    HW211787   1.373   1.518   4.540
 3630SOL     OW11788   6.768   2.357   3.625
 3630SOL    HW111789   6.809   2.266   3.618
 3630SOL    HW211790   6.780   2.406   3.539
 3631SOL     OW11791   2.007   6.612   2.508
 3631SOL    HW111792   2.048   6.556   2.436
 3631SOL    HW211793   2.018   6.709   2.485
 3632SOL     OW11794   4.750   4.098   0.907
 3632SOL    HW111795   4.688   4.072   0.833
 3632SOL    HW211796   4.738   4.195   0.928
 3633SOL     OW11797   3.632   3.132   6.355
 3633SOL    HW111798   3.543   3.089   6.370
 3633SOL    HW211799   3.636   3.169   6.263
 3634SOL     OW11800   3.351   5.500   6.857
 3634SOL    HW111801   3.328   5.596   6.872
 3634SOL    HW211802   3.347   5.450   6.943
 3635SOL     OW11803   2.584   6.986   1.407
 3635SOL    HW111804   2.509   0.020   1.375
 3635SOL    HW211805   2.572   6.967   1.504
 3636SOL     OW11806   1.066   4.836   6.831
 3636SOL    HW111807   1.059   4.741   6.861
 3636SOL    HW211808   1.127   4.842   6.752
 3637SOL     OW11809   6.514   3.182   6.890
 3637SOL    HW111810   6.609   3.198   6.864
 3637SOL    HW211811   6.507   3.174   6.990
 3638SOL     OW11812   5.819   4.680   2.851
 3638SOL    HW111813   5.797   4.680   2.948
 3638SOL    HW211814   5.789   4.593   2.810
 3639SOL     OW11815   3.650   3.711   4.069
 3639SOL    HW111816   3.729   3.733   4.011
 3639SOL    HW211817   3.643   3.779   4.142
 3640SOL     OW11818   5.349   2.251   0.578
 3640SOL    HW111819   5.353   2.313   0.500
 3640SOL    HW211820   5.274   2.186   0.565
 3641SOL     OW11821   6.030   3.403   2.243
 3641SOL    HW111822   5.987   3.423   2.331
 3641SOL    HW211823   5.959   3.394   2.173
 3642SOL     OW11824   6.002   3.086   6.294
 3642SOL    HW111825   6.057   3.051   6.218
 3642SOL    HW211826   5.950   3.166   6.263
 3643SOL     OW11827   3.980   5.399   5.558
 3643SOL    HW111828   3.991   5.488   5.515
 3643SOL    HW211829   4.049   5.336   5.522
 3644SOL     OW11830   2.616   0.973   1.634
 3644SOL    HW111831   2.663   0.889   1.607
 3644SOL    HW211832   2.564   0.957   1.718
 3645SOL     OW11833   1.616   4.555   3.424
 3645SOL    HW111834   1.617   4.636   3.366
 3645SOL    HW211835   1.683   4.489   3.391
 3646SOL     OW11836   2.232   4.473   4.577
 3646SOL    HW111837   2.305   4.417   4.615
 3646SOL    HW211838   2.171   4.416   4.522
 3647SOL     OW11839   3.340   6.816   6.935
 3647SOL    HW111840   3.345   6.762   6.851
 3647SOL    HW211841   3.373   6.909   6.917
 3648SOL     OW11842   4.348   5.500   3.276
 3648SOL    HW111843   4.346   5.578   3.338
 3648SOL    HW211844   4.262   5.450   3.282
 3649SOL     OW11845   5.858   2.833   0.093
 3649SOL    HW111846   5.955   2.816   0.107
 3649SOL    HW211847   5.821   2.883   0.171
 3650SOL     OW11848   5.276   5.577   0.166
 3650SOL    HW111849   5.286   5.491   0.216
 3650SOL    HW211850   5.214   5.563   0.088
 3651SOL     OW11851   1.139   1.992   5.740
 3651SOL    HW111852   1.192   2.067   5.780
 3651SOL    HW211853   1.128   1.919   5.807
 3652SOL     OW11854   4.263   1.346   2.103
 3652SOL    HW111855   4.189   1.376   2.163
 3652SOL    HW211856   4.224   1.311   2.017
 3653SOL     OW11857   0.829   1.353   1.105
 3653SOL    HW111858   0.761   1.373   1.035
 3653SOL    HW211859   0.805   1.401   1.189
 3654SOL     OW11860   5.705   0.028   0.744
 3654SOL    HW111861   5.606   0.037   0.751
 3654SOL    HW211862   5.747   0.055   0.831
 3655SOL     OW11863   1.739   2.274   4.160
 3655SOL    HW111864   1.765   2.239   4.070
 3655SOL    HW211865   1.811   2.332   4.195
 3656SOL     OW11866   6.835   7.017   1.605
 3656SOL    HW111867   6.857   6.920   1.588
 3656SOL    HW211868   6.896   0.028   1.676
 3657SOL     OW11869   4.903   5.821   4.961
 3657SOL    HW111870   4.946   5.911   4.951
 3657SOL    HW211871   4.966   5.760   5.009
 3658SOL     OW11872   1.623   5.030   5.904
 3658SOL    HW111873   1.626   5.130   5.901
 3658SOL    HW211874   1.636   4.993   5.813
 3659SOL     OW11875   6.900   1.908   6.252
 3659SOL    HW111876   6.945   1.820   6.266
 3659SOL    HW211877   6.874   1.917   6.156
 3660SOL     OW11878   5.765   5.576   6.756
 3660SOL    HW111879   5.782   5.542   6.664
 3660SOL    HW211880   5.679   5.627   6.758
 3661SOL     OW11881   0.319   2.225   4.924
 3661SOL    HW111882   0.271   2.285   4.989
 3661SOL    HW211883   0.322   2.269   4.834
 3662SOL     OW11884   2.816   1.684   5.860
 3662SOL    HW111885   2.762   1.751   5.910
 3662SOL    HW211886   2.784   1.592   5.882
 3663SOL     OW11887   2.639   2.211   6.864
 3663SOL    HW111888   2.599   2.163   6.941
 3663SOL    HW211889   2.717   2.159   6.828
 3664SOL     OW11890   4.025   1.233   1.901
 3664SOL    HW111891   3.969   1.314   1.885
 3664SOL    HW211892   4.029   1.179   1.817
 3665SOL     OW11893   1.126   5.763   5.864
 3665SOL    HW111894   1.123   5.680   5.809
 3665SOL    HW211895   1.082   5.838   5.814
 3666SOL     OW11896   2.127   2.508   4.536
 3666SOL    HW111897   2.086   2.599   4.526
 3666SOL    HW211898   2.223   2.511   4.508
 3667SOL     OW11899   1.967   0.355   1.576
 3667SOL    HW111900   1.977   0.311   1.487
 3667SOL    HW211901   1.984   0.289   1.648
 3668SOL     OW11902   0.628   1.258   1.759
 3668SOL    HW111903   0.535   1.290   1.778
 3668SOL    HW211904   0.647   1.176   1.814
 3669SOL     OW11905   0.481   1.466   3.585
 3669SOL    HW111906   0.520   1.410   3.658
 3669SOL    HW211907   0.439   1.407   3.516
 3670SOL     OW11908   3.029   5.668   1.792
 3670SOL    HW111909   3.046   5.737   1.863
 3670SOL    HW211910   3.105   5.668   1.727
 3671SOL     OW11911   6.226   0.512   3.950
 3671SOL    HW111912   6.156   0.512   3.879
 3671SOL    HW211913   6.291   0.438   3.933
 3672SOL     OW11914   3.851   6.742   2.819
 3672SOL    HW111915   3.844   6.817   2.886
 3672SOL    HW211916   3.792   6.763   2.740
 3673SOL     OW11917   3.660   5.884   1.146
 3673SOL    HW111918   3.650   5.971   1.195
 3673SOL    HW211919   3.671   5.902   1.049
 3674SOL     OW11920   1.355   4.577   6.063
 3674SOL    HW111921   1.423   4.505   6.072
 3674SOL    HW211922   1.400   4.665   6.056
 3675SOL     OW11923   1.350   0.729   4.279
 3675SOL    HW111924   1.275   0.714   4.214
 3675SOL    HW211925   1.321   0.795   4.348
 3676SOL     OW11926   4.086   1.832   4.086
 3676SOL    HW111927   4.092   1.921   4.041
 3676SOL    HW211928   4.151   1.829   4.162
 3677SOL     OW11929   2.411   0.543   4.077
 3677SOL    HW111930   2.343   0.481   4.116
 3677SOL    HW211931   2.484   0.559   4.144
 3678SOL     OW11932   1.085   0.918   3.722
 3678SOL    HW111933   1.179   0.909   3.756
 3678SOL    HW211934   1.087   0.956   3.630
 3679SOL     OW11935   4.329   0.679   2.571
 3679SOL    HW111936   4.333   0.627   2.486
 3679SOL    HW211937   4.273   0.629   2.638
 3680SOL     OW11938   3.448   1.196   4.498
 3680SOL    HW111939   3.539   1.234   4.514
 3680SOL    HW211940   3.393   1.261   4.447
 3681SOL     OW11941   1.747   6.221   4.702
 3681SOL    HW111942   1.777   6.183   4.789
 3681SOL    HW211943   1.649   6.203   4.690
 3682SOL     OW11944   5.354   1.444   1.714
 3682SOL    HW111945   5.312   1.407   1.797
 3682SOL    HW211946   5.326   1.539   1.703
 3683SOL     OW11947   5.808   1.510   5.677
 3683SOL    HW111948   5.753   1.566   5.739
 3683SOL    HW211949   5.884   1.470   5.727
 3684SOL     OW11950   1.954   6.607   5.766
 3684SOL    HW111951   2.034   6.614   5.707
 3684SOL    HW211952   1.980   6.560   5.851
 3685SOL     OW11953   2.064   6.246   5.509
 3685SOL    HW111954   2.031   6.340   5.497
 3685SOL    HW211955   2.163   6.244   5.499
 3686SOL     OW11956   0.570   3.946   2.905
 3686SOL    HW111957   0.568   3.869   2.841
 3686SOL    HW211958   0.656   3.945   2.956
 3687SOL     OW11959   5.500   5.783   4.294
 3687SOL    HW111960   5.432   5.723   4.253
 3687SOL    HW211961   5.531   5.850   4.227
 3688SOL     OW11962   6.170   2.443   0.564
 3688SOL    HW111963   6.221   2.457   0.479
 3688SOL    HW211964   6.123   2.527   0.589
 3689SOL     OW11965   1.490   6.592   5.745
 3689SOL    HW111966   1.557   6.576   5.673
 3689SOL    HW211967   1.536   6.629   5.826
 3690SOL     OW11968   5.041   5.583   1.460
 3690SOL    HW111969   5.027   5.677   1.428
 3690SOL    HW211970   5.127   5.548   1.422
 3691SOL     OW11971   1.586   2.822   0.907
 3691SOL    HW111972   1.665   2.784   0.859
 3691SOL    HW211973   1.507   2.763   0.894
 3692SOL     OW11974   0.958   3.364   5.847
 3692SOL    HW111975   0.910   3.447   5.819
 3692SOL    HW211976   1.045   3.387   5.891
 3693SOL     OW11977   6.546   0.991   2.257
 3693SOL    HW111978   6.465   1.026   2.303
 3693SOL    HW211979   6.521   0.914   2.198
 3694SOL     OW11980   6.655   0.442   2.641
 3694SOL    HW111981   6.563   0.458   2.674
 3694SOL    HW211982   6.674   0.344   2.639
 3695SOL     OW11983   5.768   3.073   2.923
 3695SOL    HW111984   5.786   3.005   2.851
 3695SOL    HW211985   5.794   3.036   3.011
 3696SOL     OW11986   4.343   0.741   4.487
 3696SOL    HW111987   4.437   0.742   4.521
 3696SOL    HW211988   4.282   0.774   4.559
 3697SOL     OW11989   0.326   6.190   3.059
 3697SOL    HW111990   0.327   6.214   3.156
 3697SOL    HW211991   0.263   6.252   3.010
 3698SOL     OW11992   1.795   0.322   3.175
 3698SOL    HW111993   1.790   0.236   3.124
 3698SOL    HW211994   1.703   0.360   3.185
 3699SOL     OW11995   2.731   2.410   3.456
 3699SOL    HW111996   2.825   2.379   3.444
 3699SOL    HW211997   2.701   2.390   3.550
 3700SOL     OW11998   1.048   5.111   4.181
 3700SOL    HW111999   0.969   5.118   4.241
 3700SOL    HW212000   1.086   5.202   4.164
 3701SOL     OW12001   1.447   0.325   2.202
 3701SOL    HW112002   1.358   0.301   2.164
 3701SOL    HW212003   1.436   0.351   2.298
 3702SOL     OW12004   5.231   4.528   3.237
 3702SOL    HW112005   5.199   4.435   3.257
 3702SOL    HW212006   5.195   4.591   3.306
 3703SOL     OW12007   1.094   1.417   4.300
 3703SOL    HW112008   1.101   1.514   4.278
 3703SOL    HW212009   1.171   1.391   4.358
 3704SOL     OW12010   6.496   2.301   0.870
 3704SOL    HW112011   6.590   2.276   0.892
 3704SOL    HW212012   6.445   2.317   0.955
 3705SOL     OW12013   5.017   4.674   2.757
 3705SOL    HW112014   5.014   4.752   2.694
 3705SOL    HW212015   4.980   4.701   2.846
 3706SOL     OW12016   0.093   3.756   0.280
 3706SOL    HW112017   0.053   3.815   0.210
 3706SOL    HW212018   0.184   3.725   0.250
 3707SOL     OW12019   1.295   4.834   3.448
 3707SOL    HW112020   1.202   4.805   3.470
 3707SOL    HW212021   1.361   4.782   3.503
 3708SOL     OW12022   2.817   6.762   0.808
 3708SOL    HW112023   2.790   6.666   0.799
 3708SOL    HW212024   2.742   6.820   0.778
 3709SOL     OW12025   1.707   1.403   2.237
 3709SOL    HW112026   1.719   1.355   2.324
 3709SOL    HW212027   1.693   1.500   2.254
 3710SOL     OW12028   0.392   4.543   5.154
 3710SOL    HW112029   0.461   4.541   5.226
 3710SOL    HW212030   0.337   4.625   5.163
 3711SOL     OW12031   1.483   5.572   4.305
 3711SOL    HW112032   1.533   5.604   4.224
 3711SOL    HW212033   1.521   5.484   4.334
 3712SOL     OW12034   2.063   5.242   4.328
 3712SOL    HW112035   2.065   5.158   4.275
 3712SOL    HW212036   1.968   5.265   4.350
 3713SOL     OW12037   5.567   0.488   4.152
 3713SOL    HW112038   5.561   0.455   4.058
 3713SOL    HW212039   5.658   0.470   4.188
 3714SOL     OW12040   0.485   4.553   0.863
 3714SOL    HW112041   0.499   4.607   0.946
 3714SOL    HW212042   0.465   4.615   0.787
 3715SOL     OW12043   5.404   5.564   3.614
 3715SOL    HW112044   5.414   5.488   3.550
 3715SOL    HW212045   5.324   5.619   3.588
 3716SOL     OW12046   5.057   5.811   4.145
 3716SOL    HW112047   5.084   5.715   4.143
 3716SOL    HW212048   4.975   5.824   4.089
 3717SOL     OW12049   4.407   1.094   1.015
 3717SOL    HW112050   4.396   0.999   0.986
 3717SOL    HW212051   4.477   1.138   0.960
 3718SOL     OW12052   6.665   6.964   5.792
 3718SOL    HW112053   6.684   0.017   5.730
 3718SOL    HW212054   6.730   6.890   5.774
 3719SOL     OW12055   3.655   4.131   0.182
 3719SOL    HW112056   3.700   4.166   0.264
 3719SOL    HW212057   3.596   4.202   0.144
 3720SOL     OW12058   0.238   2.934   1.450
 3720SOL    HW112059   0.303   3.010   1.456
 3720SOL    HW212060   0.285   2.852   1.418
 3721SOL     OW12061   6.443   5.703   5.971
 3721SOL    HW112062   6.456   5.793   6.012
 3721SOL    HW212063   6.509   5.639   6.010
 3722SOL     OW12064   4.834   6.083   2.748
 3722SOL    HW112065   4.905   6.152   2.739
 3722SOL    HW212066   4.804   6.077   2.843
 3723SOL     OW12067   4.691   3.620   0.104
 3723SOL    HW112068   4.664   3.524   0.100
 3723SOL    HW212069   4.613   3.677   0.076
 3724SOL     OW12070   1.130   4.780   4.747
 3724SOL    HW112071   1.081   4.760   4.832
 3724SOL    HW212072   1.073   4.836   4.688
 3725SOL     OW12073   0.880   5.496   0.027
 3725SOL    HW112074   0.832   5.411   0.003
 3725SOL    HW212075   0.905   5.493   0.123
 3726SOL     OW12076   6.174   4.024   4.855
 3726SOL    HW112077   6.167   4.044   4.953
 3726SOL    HW212078   6.085   3.997   4.820
 3727SOL     OW12079   6.400   3.706   4.034
 3727SOL    HW112080   6.361   3.733   3.946
 3727SOL    HW212081   6.481   3.761   4.053
 3728SOL     OW12082   3.348   2.454   7.010
 3728SOL    HW112083   3.409   2.378   6.992
 3728SOL    HW212084   3.281   2.428   0.055
 3729SOL     OW12085   0.595   0.557   5.342
 3729SOL    HW112086   0.648   0.619   5.283
 3729SOL    HW212087   0.634   0.465   5.336
 3730SOL     OW12088   3.948   5.721   3.984
 3730SOL    HW112089   3.996   5.729   4.071
 3730SOL    HW212090   3.855   5.756   3.994
 3731SOL     OW12091   0.257   2.258   6.692
 3731SOL    HW112092   0.264   2.178   6.633
 3731SOL    HW212093   0.164   2.264   6.729
 3732SOL     OW12094   3.209   2.109   6.490
 3732SOL    HW112095   3.250   2.072   6.574
 3732SOL    HW212096   3.109   2.105   6.497
 3733SOL     OW12097   2.188   0.902   3.922
 3733SOL    HW112098   2.273   0.883   3.971
 3733SOL    HW212099   2.171   1.001   3.921
 3734SOL     OW12100   4.011   6.494   0.833
 3734SOL    HW112101   4.051   6.426   0.895
 3734SOL    HW212102   4.053   6.583   0.850
 3735SOL     OW12103   4.045   6.812   2.543
 3735SOL    HW112104   4.021   6.887   2.481
 3735SOL    HW212105   3.967   6.789   2.601
 3736SOL     OW12106   6.673   0.999   0.843
 3736SOL    HW112107   6.721   1.082   0.870
 3736SOL    HW212108   6.632   0.956   0.923
 3737SOL     OW12109   6.867   2.600   2.895
 3737SOL    HW112110   6.948   2.642   2.854
 3737SOL    HW212111   6.800   2.579   2.824
 3738SOL     OW12112   6.758   6.774   1.143
 3738SOL    HW112113   6.810   6.860   1.137
 3738SOL    HW212114   6.768   6.724   1.058
 3739SOL     OW12115   3.010   3.823   0.518
 3739SOL    HW112116   3.011   3.920   0.494
 3739SOL    HW212117   3.091   3.778   0.478
 3740SOL     OW12118   5.133   5.456   6.161
 3740SOL    HW112119   5.066   5.392   6.199
 3740SOL    HW212120   5.091   5.546   6.150
 3741SOL     OW12121   5.310   3.315   0.262
 3741SOL    HW112122   5.385   3.357   0.211
 3741SOL    HW212123   5.301   3.360   0.351
 3742SOL     OW12124   3.606   5.366   0.169
 3742SOL    HW112125   3.690   5.396   0.122
 3742SOL    HW212126   3.546   5.322   0.102
 3743SOL     OW12127   4.085   3.518   1.420
 3743SOL    HW112128   3.992   3.483   1.430
 3743SOL    HW212129   4.123   3.539   1.510
 3744SOL     OW12130   0.477   6.968   2.012
 3744SOL    HW112131   0.389   6.996   2.053
 3744SOL    HW212132   0.462   6.942   1.917
 3745SOL     OW12133   4.947   3.799   2.156
 3745SOL    HW112134   4.908   3.730   2.094
 3745SOL    HW212135   5.012   3.755   2.218
 3746SOL     OW12136   6.143   0.859   4.550
 3746SOL    HW112137   6.169   0.955   4.563
 3746SOL    HW212138   6.070   0.853   4.482
 3747SOL     OW12139   3.464   6.856   5.604
 3747SOL    HW112140   3.510   6.928   5.552
 3747SOL    HW212141   3.532   6.803   5.654
 3748SOL     OW12142   5.049   1.708   2.850
 3748SOL    HW112143   5.017   1.701   2.755
 3748SOL    HW212144   4.974   1.683   2.912
 3749SOL     OW12145   6.964   6.409   2.436
 3749SOL    HW112146   0.022   6.352   2.443
 3749SOL    HW212147   6.893   6.360   2.385
 3750SOL     OW12148   5.932   4.123   0.610
 3750SOL    HW112149   5.892   4.211   0.587
 3750SOL    HW212150   6.007   4.103   0.547
 3751SOL     OW12151   1.646   3.568   1.994
 3751SOL    HW112152   1.699   3.569   1.909
 3751SOL    HW212153   1.707   3.590   2.071
 3752SOL     OW12154   0.664   6.380   6.869
 3752SOL    HW112155   0.660   6.314   6.793
 3752SOL    HW212156   0.647   6.472   6.835
 3753SOL     OW12157   6.626   6.879   4.637
 3753SOL    HW112158   6.613   6.862   4.539
 3753SOL    HW212159   6.656   6.795   4.682
 3754SOL     OW12160   6.493   6.772   1.164
 3754SOL    HW112161   6.462   6.711   1.091
 3754SOL    HW212162   6.590   6.792   1.153
 3755SOL     OW12163   5.380   3.593   3.101
 3755SOL    HW112164   5.378   3.576   3.200
 3755SOL    HW212165   5.305   3.544   3.057
 3756SOL     OW12166   3.233   0.417   0.357
 3756SOL    HW112167   3.252   0.364   0.274
 3756SOL    HW212168   3.296   0.494   0.362
 3757SOL     OW12169   3.002   5.548   6.479
 3757SOL    HW112170   3.054   5.624   6.519
 3757SOL    HW212171   2.906   5.557   6.503
 3758SOL     OW12172   1.853   1.395   4.294
 3758SOL    HW112173   1.937   1.371   4.342
 3758SOL    HW212174   1.875   1.433   4.204
 3759SOL     OW12175   4.698   4.717   6.258
 3759SOL    HW112176   4.598   4.715   6.255
 3759SOL    HW212177   4.729   4.805   6.294
 3760SOL     OW12178   1.538   2.554   4.943
 3760SOL    HW112179   1.618   2.603   4.979
 3760SOL    HW212180   1.468   2.549   5.014
 3761SOL     OW12181   0.180   6.528   4.397
 3761SOL    HW112182   0.162   6.591   4.472
 3761SOL    HW212183   0.196   6.436   4.434
 3762SOL     OW12184   6.910   3.940   0.111
 3762SOL    HW112185   6.839   3.977   0.051
 3762SOL    HW212186   6.926   4.003   0.187
 3763SOL     OW12187   6.834   3.417   6.385
 3763SOL    HW112188   6.825   3.475   6.465
 3763SOL    HW212189   6.764   3.345   6.388
 3764SOL     OW12190   2.295   6.716   3.571
 3764SOL    HW112191   2.382   6.766   3.571
 3764SOL    HW212192   2.293   6.652   3.648
 3765SOL     OW12193   5.714   0.761   4.597
 3765SOL    HW112194   5.698   0.817   4.515
 3765SOL    HW212195   5.699   0.817   4.679
 3766SOL     OW12196   1.404   0.694   5.207
 3766SOL    HW112197   1.446   0.607   5.234
 3766SOL    HW212198   1.475   0.763   5.196
 3767SOL     OW12199   1.016   5.235   0.778
 3767SOL    HW112200   1.072   5.192   0.848
 3767SOL    HW212201   0.972   5.316   0.815
 3768SOL     OW12202   4.391   6.641   0.526
 3768SOL    HW112203   4.356   6.697   0.451
 3768SOL    HW212204   4.412   6.699   0.604
 3769SOL     OW12205   4.499   6.548   5.091
 3769SOL    HW112206   4.490   6.485   5.014
 3769SOL    HW212207   4.533   6.497   5.171
 3770SOL     OW12208   1.762   2.223   6.995
 3770SOL    HW112209   1.767   2.177   6.906
 3770SOL    HW212210   1.678   2.278   6.999
 3771SOL     OW12211   5.300   2.223   5.840
 3771SOL    HW112212   5.252   2.248   5.924
 3771SOL    HW212213   5.350   2.303   5.806
 3772SOL     OW12214   4.990   1.333   2.368
 3772SOL    HW112215   4.891   1.320   2.356
 3772SOL    HW212216   5.026   1.384   2.291
 3773SOL     OW12217   6.830   2.730   6.866
 3773SOL    HW112218   6.830   2.756   6.962
 3773SOL    HW212219   6.904   2.665   6.849
 3774SOL     OW12220   0.439   0.991   1.611
 3774SOL    HW112221   0.458   1.051   1.533
 3774SOL    HW212222   0.391   1.044   1.682
 3775SOL     OW12223   5.607   4.003   3.825
 3775SOL    HW112224   5.600   3.982   3.728
 3775SOL    HW212225   5.625   3.919   3.876
 3776SOL     OW12226   2.438   3.454   0.517
 3776SOL    HW112227   2.453   3.551   0.535
 3776SOL    HW212228   2.341   3.432   0.531
 3777SOL     OW12229   2.189   4.374   3.685
 3777SOL    HW112230   2.115   4.414   3.632
 3777SOL    HW212231   2.173   4.389   3.782
 3778SOL     OW12232   2.675   5.542   2.094
 3778SOL    HW112233   2.638   5.629   2.063
 3778SOL    HW212234   2.649   5.526   2.189
 3779SOL     OW12235   2.832   5.207   6.309
 3779SOL    HW112236   2.848   5.203   6.407
 3779SOL    HW212237   2.868   5.292   6.272
 3780SOL     OW12238   3.286   6.825   4.864
 3780SOL    HW112239   3.279   6.803   4.961
 3780SOL    HW212240   3.195   6.823   4.823
 3781SOL     OW12241   2.861   5.709   5.003
 3781SOL    HW112242   2.800   5.644   5.046
 3781SOL    HW212243   2.810   5.764   4.936
 3782SOL     OW12244   2.416   1.737   3.573
 3782SOL    HW112245   2.357   1.657   3.583
 3782SOL    HW212246   2.475   1.745   3.653
 3783SOL     OW12247   5.244   6.074   5.385
 3783SOL    HW112248   5.273   6.103   5.477
 3783SOL    HW212249   5.289   5.987   5.362
 3784SOL     OW12250   5.607   1.690   3.351
 3784SOL    HW112251   5.581   1.780   3.388
 3784SOL    HW212252   5.690   1.658   3.397
 3785SOL     OW12253   1.923   1.599   1.283
 3785SOL    HW112254   1.875   1.521   1.323
 3785SOL    HW212255   2.016   1.603   1.320
 3786SOL     OW12256   3.199   5.479   3.275
 3786SOL    HW112257   3.284   5.530   3.285
 3786SOL    HW212258   3.145   5.488   3.359
 3787SOL     OW12259   3.857   1.342   3.982
 3787SOL    HW112260   3.788   1.300   4.041
 3787SOL    HW212261   3.866   1.439   4.004
 3788SOL     OW12262   5.434   3.181   2.291
 3788SOL    HW112263   5.486   3.097   2.307
 3788SOL    HW212264   5.459   3.219   2.202
 3789SOL     OW12265   1.422   4.900   3.196
 3789SOL    HW112266   1.378   4.881   3.283
 3789SOL    HW212267   1.521   4.888   3.205
 3790SOL     OW12268   1.994   3.097   3.466
 3790SOL    HW112269   1.976   3.190   3.434
 3790SOL    HW212270   2.074   3.097   3.526
 3791SOL     OW12271   4.663   0.182   1.586
 3791SOL    HW112272   4.695   0.140   1.670
 3791SOL    HW212273   4.582   0.134   1.553
 3792SOL     OW12274   6.908   6.434   5.122
 3792SOL    HW112275   6.809   6.427   5.118
 3792SOL    HW212276   6.945   6.434   5.029
 3793SOL     OW12277   1.934   0.659   2.535
 3793SOL    HW112278   1.873   0.586   2.504
 3793SOL    HW212279   1.954   0.646   2.632
 3794SOL     OW12280   4.631   6.257   1.591
 3794SOL    HW112281   4.587   6.181   1.544
 3794SOL    HW212282   4.638   6.236   1.689
 3795SOL     OW12283   5.566   6.923   6.480
 3795SOL    HW112284   5.605   6.848   6.534
 3795SOL    HW212285   5.621   6.936   6.398
 3796SOL     OW12286   1.307   3.222   2.226
 3796SOL    HW112287   1.370   3.188   2.296
 3796SOL    HW212288   1.358   3.273   2.157
 3797SOL     OW12289   0.525   4.938   2.757
 3797SOL    HW112290   0.472   4.997   2.696
 3797SOL    HW212291   0.504   4.842   2.738
 3798SOL     OW12292   1.724   4.745   1.929
 3798SOL    HW112293   1.657   4.807   1.969
 3798SOL    HW212294   1.749   4.777   1.838
 3799SOL     OW12295   2.402   0.107   5.956
 3799SOL    HW112296   2.375   0.011   5.947
 3799SOL    HW212297   2.427   0.143   5.866
 3800SOL     OW12298   4.528   2.485   4.565
 3800SOL    HW112299   4.524   2.477   4.466
 3800SOL    HW212300   4.575   2.570   4.590
 3801SOL     OW12301   0.355   6.939   5.921
 3801SOL    HW112302   0.316   6.849   5.902
 3801SOL    HW212303   0.333   7.001   5.847
 3802SOL     OW12304   1.705   1.810   5.572
 3802SOL    HW112305   1.622   1.866   5.560
 3802SOL    HW212306   1.769   1.859   5.631
 3803SOL     OW12307   3.485   0.952   1.382
 3803SOL    HW112308   3.491   1.039   1.432
 3803SOL    HW212309   3.435   0.965   1.297
 3804SOL     OW12310   4.678   2.079   4.245
 3804SOL    HW112311   4.665   1.981   4.228
 3804SOL    HW212312   4.686   2.095   4.343
 3805SOL     OW12313   2.726   4.362   1.536
 3805SOL    HW112314   2.794   4.369   1.609
 3805SOL    HW212315   2.646   4.417   1.559
 3806SOL     OW12316   2.675   1.665   0.047
 3806SOL    HW112317   2.590   1.618   0.073
 3806SOL    HW212318   2.725   1.608   7.007
 3807SOL     OW12319   1.603   6.568   3.744
 3807SOL    HW112320   1.595   6.667   3.737
 3807SOL    HW212321   1.523   6.525   3.702
 3808SOL     OW12322   2.998   0.149   1.609
 3808SOL    HW112323   2.952   0.142   1.520
 3808SOL    HW212324   2.974   0.236   1.652
 3809SOL     OW12325   5.148   1.126   6.794
 3809SOL    HW112326   5.201   1.047   6.763
 3809SOL    HW212327   5.196   1.210   6.768
 3810SOL     OW12328   2.928   3.204   5.333
 3810SOL    HW112329   2.979   3.223   5.417
 3810SOL    HW212330   2.983   3.231   5.254
 3811SOL     OW12331   0.685   5.483   5.383
 3811SOL    HW112332   0.627   5.561   5.361
 3811SOL    HW212333   0.632   5.416   5.435
 3812SOL     OW12334   5.338   1.681   5.113
 3812SOL    HW112335   5.343   1.774   5.077
 3812SOL    HW212336   5.415   1.628   5.078
 3813SOL     OW12337   3.294   5.362   1.255
 3813SOL    HW112338   3.382   5.409   1.246
 3813SOL    HW212339   3.266   5.363   1.351
 3814SOL     OW12340   0.343   6.454   2.344
 3814SOL    HW112341   0.346   6.526   2.414
 3814SOL    HW212342   0.402   6.479   2.267
 3815SOL     OW12343   5.213   2.252   1.449
 3815SOL    HW112344   5.166   2.220   1.531
 3815SOL    HW212345   5.241   2.347   1.462
 3816SOL     OW12346   1.512   6.898   1.039
 3816SOL    HW112347   1.578   6.824   1.050
 3816SOL    HW212348   1.538   6.956   0.961
 3817SOL     OW12349   5.348   2.308   5.356
 3817SOL    HW112350   5.429   2.255   5.382
 3817SOL    HW212351   5.307   2.267   5.274
 3818SOL     OW12352   4.832   5.313   1.799
 3818SOL    HW112353   4.903   5.297   1.731
 3818SOL    HW212354   4.835   5.241   1.868
 3819SOL     OW12355   5.417   4.677   0.236
 3819SOL    HW112356   5.402   4.578   0.246
 3819SOL    HW212357   5.513   4.694   0.213
 3820SOL     OW12358   4.958   6.641   4.035
 3820SOL    HW112359   5.052   6.673   4.051
 3820SOL    HW212360   4.961   6.548   3.998
 3821SOL     OW12361   1.070   4.045   2.277
 3821SOL    HW112362   1.100   3.997   2.359
 3821SOL    HW212363   1.078   3.984   2.198
 3822SOL     OW12364   2.716   5.610   1.509
 3822SOL    HW112365   2.718   5.621   1.609
 3822SOL    HW212366   2.752   5.520   1.485
 3823SOL     OW12367   3.483   2.837   5.355
 3823SOL    HW112368   3.563   2.800   5.308
 3823SOL    HW212369   3.401   2.789   5.324
 3824SOL     OW12370   0.148   2.530   6.234
 3824SOL    HW112371   0.073   2.573   6.285
 3824SOL    HW212372   0.235   2.556   6.274
 3825SOL     OW12373   6.764   6.701   6.458
 3825SOL    HW112374   6.765   6.778   6.394
 3825SOL    HW212375   6.697   6.633   6.427
 3826SOL     OW12376   6.797   2.810   1.725
 3826SOL    HW112377   6.714   2.765   1.691
 3826SOL    HW212378   6.860   2.826   1.649
 3827SOL     OW12379   4.322   3.216   0.748
 3827SOL    HW112380   4.280   3.211   0.838
 3827SOL    HW212381   4.296   3.302   0.704
 3828SOL     OW12382   4.413   0.882   2.739
 3828SOL    HW112383   4.411   0.795   2.690
 3828SOL    HW212384   4.326   0.896   2.786
 3829SOL     OW12385   2.259   5.084   3.647
 3829SOL    HW112386   2.222   5.103   3.738
 3829SOL    HW212387   2.319   5.005   3.652
 3830SOL     OW12388   2.834   0.931   5.373
 3830SOL    HW112389   2.746   0.979   5.363
 3830SOL    HW212390   2.895   0.985   5.430
 3831SOL     OW12391   3.997   1.373   2.223
 3831SOL    HW112392   3.944   1.296   2.189
 3831SOL    HW212393   3.944   1.457   2.213
 3832SOL     OW12394   6.836   0.700   2.408
 3832SOL    HW112395   6.883   0.616   2.435
 3832SOL    HW212396   6.738   0.683   2.404
 3833SOL     OW12397   1.261   4.586   0.162
 3833SOL    HW112398   1.301   4.543   0.243
 3833SOL    HW212399   1.205   4.664   0.190
 3834SOL     OW12400   2.607   1.898   6.960
 3834SOL    HW112401   2.614   1.799   6.964
 3834SOL    HW212402   2.519   1.928   6.996
 3835SOL     OW12403   3.636   5.544   5.530
 3835SOL    HW112404   3.703   5.578   5.595
 3835SOL    HW212405   3.642   5.444   5.525
 3836SOL     OW12406   1.125   3.428   6.053
 3836SOL    HW112407   1.161   3.520   6.036
 3836SOL    HW212408   1.060   3.432   6.129
 3837SOL     OW12409   3.688   2.927   0.499
 3837SOL    HW112410   3.669   3.025   0.494
 3837SOL    HW212411   3.634   2.879   0.431
 3838SOL     OW12412   6.296   3.173   5.669
 3838SOL    HW112413   6.319   3.121   5.586
 3838SOL    HW212414   6.200   3.201   5.665
 3839SOL     OW12415   6.138   6.542   6.246
 3839SOL    HW112416   6.206   6.469   6.249
 3839SOL    HW212417   6.061   6.513   6.189
 3840SOL     OW12418   1.693   1.128   4.344
 3840SOL    HW112419   1.649   1.218   4.350
 3840SOL    HW212420   1.626   1.057   4.366
 3841SOL     OW12421   0.374   3.694   4.935
 3841SOL    HW112422   0.346   3.661   4.845
 3841SOL    HW212423   0.295   3.733   4.982
 3842SOL     OW12424   0.756   5.526   6.791
 3842SOL    HW112425   0.791   5.541   6.884
 3842SOL    HW212426   0.656   5.537   6.791
 3843SOL     OW12427   5.886   3.163   1.030
 3843SOL    HW112428   5.791   3.157   1.001
 3843SOL    HW212429   5.897   3.118   1.119
 3844SOL     OW12430   1.914   4.990   5.933
 3844SOL    HW112431   1.958   4.927   5.869
 3844SOL    HW212432   1.816   4.990   5.916
 3845SOL     OW12433   3.863   4.002   3.979
 3845SOL    HW112434   3.861   4.073   3.908
 3845SOL    HW212435   3.772   3.992   4.018
 3846SOL     OW12436   7.019   4.468   3.718
 3846SOL    HW112437   6.989   4.403   3.648
 3846SOL    HW212438   0.029   4.551   3.674
 3847SOL     OW12439   0.610   0.127   0.472
 3847SOL    HW112440   0.547   0.090   0.403
 3847SOL    HW212441   0.588   0.088   0.561
 3848SOL     OW12442   3.036   5.323   0.543
 3848SOL    HW112443   2.978   5.334   0.462
 3848SOL    HW212444   3.128   5.294   0.515
 3849SOL     OW12445   1.609   2.133   5.947
 3849SOL    HW112446   1.670   2.200   5.904
 3849SOL    HW212447   1.634   2.123   6.043
 3850SOL     OW12448   2.626   3.848   1.601
 3850SOL    HW112449   2.700   3.799   1.648
 3850SOL    HW212450   2.609   3.935   1.648
 3851SOL     OW12451   2.716   2.635   1.352
 3851SOL    HW112452   2.810   2.655   1.379
 3851SOL    HW212453   2.670   2.721   1.327
 3852SOL     OW12454   3.558   0.918   4.794
 3852SOL    HW112455   3.492   0.844   4.776
 3852SOL    HW212456   3.510   1.006   4.792
 3853SOL     OW12457   1.603   3.047   1.915
 3853SOL    HW112458   1.687   3.018   1.961
 3853SOL    HW212459   1.595   2.999   1.827
 3854SOL     OW12460   1.443   3.188   3.855
 3854SOL    HW112461   1.536   3.194   3.819
 3854SOL    HW212462   1.407   3.096   3.839
 3855SOL     OW12463   6.990   2.005   5.478
 3855SOL    HW112464   0.047   2.063   5.478
 3855SOL    HW212465   6.912   2.057   5.445
 3856SOL     OW12466   0.736   6.433   5.833
 3856SOL    HW112467   0.761   6.522   5.795
 3856SOL    HW212468   0.765   6.427   5.928
 3857SOL     OW12469   0.615   6.800   5.936
 3857SOL    HW112470   0.642   6.781   5.842
 3857SOL    HW212471   0.525   6.844   5.937
 3858SOL     OW12472   2.305   5.593   0.447
 3858SOL    HW112473   2.231   5.564   0.507
 3858SOL    HW212474   2.320   5.691   0.457
 3859SOL     OW12475   0.139   2.272   2.076
 3859SOL    HW112476   0.194   2.246   1.996
 3859SOL    HW212477   0.121   2.370   2.075
 3860SOL     OW12478   2.356   6.230   5.516
 3860SOL    HW112479   2.366   6.327   5.494
 3860SOL    HW212480   2.384   6.175   5.438
 3861SOL     OW12481   4.449   4.601   0.783
 3861SOL    HW112482   4.420   4.516   0.740
 3861SOL    HW212483   4.397   4.677   0.746
 3862SOL     OW12484   1.367   5.125   5.982
 3862SOL    HW112485   1.361   5.080   6.071
 3862SOL    HW212486   1.425   5.071   5.921
 3863SOL     OW12487   3.039   2.820   1.200
 3863SOL    HW112488   3.069   2.901   1.150
 3863SOL    HW212489   3.110   2.750   1.197
 3864SOL     OW12490   3.765   1.687   6.867
 3864SOL    HW112491   3.859   1.657   6.853
 3864SOL    HW212492   3.762   1.758   6.938
 3865SOL     OW12493   4.554   0.425   2.752
 3865SOL    HW112494   4.593   0.340   2.789
 3865SOL    HW212495   4.471   0.448   2.803
 3866SOL     OW12496   4.081   6.218   6.486
 3866SOL    HW112497   4.112   6.313   6.491
 3866SOL    HW212498   4.158   6.159   6.459
 3867SOL     OW12499   1.949   2.971   3.723
 3867SOL    HW112500   1.925   3.030   3.645
 3867SOL    HW212501   1.940   2.875   3.696
 3868SOL     OW12502   1.517   5.644   2.489
 3868SOL    HW112503   1.455   5.574   2.524
 3868SOL    HW212504   1.521   5.721   2.553
 3869SOL     OW12505   1.267   2.394   3.409
 3869SOL    HW112506   1.262   2.328   3.484
 3869SOL    HW212507   1.358   2.389   3.367
 3870SOL     OW12508   3.022   4.763   0.453
 3870SOL    HW112509   3.115   4.781   0.421
 3870SOL    HW212510   2.987   4.680   0.408
 3871SOL     OW12511   2.476   1.336   4.263
 3871SOL    HW112512   2.548   1.345   4.194
 3871SOL    HW212513   2.415   1.416   4.258
 3872SOL     OW12514   4.299   3.554   0.297
 3872SOL    HW112515   4.213   3.581   0.253
 3872SOL    HW212516   4.317   3.457   0.276
 3873SOL     OW12517   5.029   4.358   2.017
 3873SOL    HW112518   5.000   4.446   1.980
 3873SOL    HW212519   5.126   4.343   1.997
 3874SOL     OW12520   4.570   6.405   5.799
 3874SOL    HW112521   4.551   6.367   5.708
 3874SOL    HW212522   4.669   6.404   5.815
 3875SOL     OW12523   2.185   3.948   0.757
 3875SOL    HW112524   2.279   3.920   0.737
 3875SOL    HW212525   2.143   3.984   0.674
 3876SOL     OW12526   5.201   3.782   2.677
 3876SOL    HW112527   5.301   3.783   2.675
 3876SOL    HW212528   5.170   3.762   2.769
 3877SOL     OW12529   5.500   0.693   2.512
 3877SOL    HW112530   5.514   0.747   2.429
 3877SOL    HW212531   5.403   0.691   2.534
 3878SOL     OW12532   3.964   5.940   4.939
 3878SOL    HW112533   3.975   6.005   5.013
 3878SOL    HW212534   3.911   5.982   4.865
 3879SOL     OW12535   3.336   5.895   1.098
 3879SOL    HW112536   3.385   5.978   1.070
 3879SOL    HW212537   3.358   5.821   1.034
 3880SOL     OW12538   5.632   2.577   3.859
 3880SOL    HW112539   5.695   2.502   3.841
 3880SOL    HW212540   5.675   2.663   3.832
 3881SOL     OW12541   0.484   5.190   0.891
 3881SOL    HW112542   0.405   5.240   0.927
 3881SOL    HW212543   0.474   5.093   0.911
 3882SOL     OW12544   0.175   6.995   6.520
 3882SOL    HW112545   0.079   6.982   6.544
 3882SOL    HW212546   0.228   6.917   6.553
 3883SOL     OW12547   3.036   1.038   6.095
 3883SOL    HW112548   3.111   1.091   6.055
 3883SOL    HW212549   3.067   0.996   6.181
 3884SOL     OW12550   1.224   4.855   5.512
 3884SOL    HW112551   1.264   4.930   5.565
 3884SOL    HW212552   1.290   4.780   5.504
 3885SOL     OW12553   0.429   2.156   5.175
 3885SOL    HW112554   0.408   2.168   5.078
 3885SOL    HW212555   0.378   2.223   5.229
 3886SOL     OW12556   6.892   5.659   4.649
 3886SOL    HW112557   6.950   5.715   4.590
 3886SOL    HW212558   6.950   5.601   4.707
 3887SOL     OW12559   5.249   3.036   5.229
 3887SOL    HW112560   5.284   2.949   5.195
 3887SOL    HW212561   5.177   3.069   5.169
 3888SOL     OW12562   5.262   2.007   1.740
 3888SOL    HW112563   5.290   2.060   1.820
 3888SOL    HW212564   5.312   2.041   1.659
 3889SOL     OW12565   0.153   5.383   0.290
 3889SOL    HW112566   0.228   5.393   0.225
 3889SOL    HW212567   0.068   5.416   0.247
 3890SOL     OW12568   6.612   3.334   1.624
 3890SOL    HW112569   6.689   3.287   1.667
 3890SOL    HW212570   6.543   3.353   1.693
 3891SOL     OW12571   5.646   5.274   6.206
 3891SOL    HW112572   5.739   5.240   6.195
 3891SOL    HW212573   5.633   5.355   6.150
 3892SOL     OW12574   5.352   6.129   3.926
 3892SOL    HW112575   5.276   6.132   3.860
 3892SOL    HW212576   5.439   6.126   3.877
 3893SOL     OW12577   2.928   6.270   4.172
 3893SOL    HW112578   3.011   6.314   4.136
 3893SOL    HW212579   2.931   6.172   4.151
 3894SOL     OW12580   5.365   5.528   6.318
 3894SOL    HW112581   5.391   5.454   6.379
 3894SOL    HW212582   5.280   5.505   6.270
 3895SOL     OW12583   1.717   1.460   5.976
 3895SOL    HW112584   1.734   1.422   6.067
 3895SOL    HW212585   1.771   1.543   5.963
 3896SOL     OW12586   6.969   2.499   5.996
 3896SOL    HW112587   6.928   2.408   6.010
 3896SOL    HW212588   0.029   2.506   6.049
 3897SOL     OW12589   3.335   6.650   2.706
 3897SOL    HW112590   3.336   6.719   2.634
 3897SOL    HW212591   3.325   6.695   2.795
 3898SOL     OW12592   3.508   3.829   4.934
 3898SOL    HW112593   3.432   3.774   4.900
 3898SOL    HW212594   3.577   3.768   4.975
 3899SOL     OW12595   5.350   1.951   5.036
 3899SOL    HW112596   5.434   1.987   5.077
 3899SOL    HW212597   5.280   2.022   5.036
 3900SOL     OW12598   6.650   2.632   4.319
 3900SOL    HW112599   6.577   2.572   4.288
 3900SOL    HW212600   6.691   2.595   4.402
 3901SOL     OW12601   2.631   5.530   4.729
 3901SOL    HW112602   2.571   5.607   4.708
 3901SOL    HW212603   2.688   5.553   4.808
 3902SOL     OW12604   3.799   4.945   2.056
 3902SOL    HW112605   3.713   4.893   2.058
 3902SOL    HW212606   3.779   5.043   2.053
 3903SOL     OW12607   4.533   2.409   6.441
 3903SOL    HW112608   4.529   2.312   6.418
 3903SOL    HW212609   4.629   2.438   6.444
 3904SOL     OW12610   2.383   5.633   0.977
 3904SOL    HW112611   2.390   5.685   1.062
 3904SOL    HW212612   2.374   5.535   0.998
 3905SOL     OW12613   0.375   0.431   6.072
 3905SOL    HW112614   0.281   0.466   6.067
 3905SOL    HW212615   0.412   0.423   5.979
 3906SOL     OW12616   0.715   6.119   4.967
 3906SOL    HW112617   0.808   6.109   5.000
 3906SOL    HW212618   0.690   6.216   4.966
 3907SOL     OW12619   1.172   1.415   5.126
 3907SOL    HW112620   1.192   1.324   5.163
 3907SOL    HW212621   1.118   1.467   5.191
 3908SOL     OW12622   2.273   0.958   4.498
 3908SOL    HW112623   2.225   0.916   4.422
 3908SOL    HW212624   2.347   1.016   4.463
 3909SOL     OW12625   4.930   2.968   1.279
 3909SOL    HW112626   5.019   3.002   1.309
 3909SOL    HW212627   4.941   2.881   1.232
 3910SOL     OW12628   3.409   2.196   1.136
 3910SOL    HW112629   3.448   2.104   1.125
 3910SOL    HW212630   3.376   2.229   1.048
 3911SOL     OW12631   6.864   0.864   1.439
 3911SOL    HW112632   6.853   0.803   1.360
 3911SOL    HW212633   6.838   0.957   1.413
 3912SOL     OW12634   4.023   3.337   6.768
 3912SOL    HW112635   4.036   3.239   6.780
 3912SOL    HW212636   4.081   3.387   6.833
 3913SOL     OW12637   4.091   5.599   1.724
 3913SOL    HW112638   4.067   5.674   1.785
 3913SOL    HW212639   4.086   5.631   1.629
 3914SOL     OW12640   6.715   1.851   6.907
 3914SOL    HW112641   6.742   1.926   6.846
 3914SOL    HW212642   6.778   1.848   6.985
 3915SOL     OW12643   5.637   6.731   5.209
 3915SOL    HW112644   5.700   6.766   5.279
 3915SOL    HW212645   5.650   6.782   5.124
 3916SOL     OW12646   1.954   2.001   2.547
 3916SOL    HW112647   2.014   1.936   2.501
 3916SOL    HW212648   1.945   1.974   2.643
 3917SOL     OW12649   3.874   4.804   1.466
 3917SOL    HW112650   3.844   4.817   1.560
 3917SOL    HW212651   3.795   4.784   1.408
 3918SOL     OW12652   4.857   0.629   6.851
 3918SOL    HW112653   4.861   0.708   6.790
 3918SOL    HW212654   4.762   0.612   6.877
 3919SOL     OW12655   4.118   6.059   2.599
 3919SOL    HW112656   4.150   5.994   2.530
 3919SOL    HW212657   4.184   6.132   2.609
 3920SOL     OW12658   3.204   1.811   5.435
 3920SOL    HW112659   3.173   1.792   5.342
 3920SOL    HW212660   3.153   1.754   5.500
 3921SOL     OW12661   0.976   2.748   6.471
 3921SOL    HW112662   1.068   2.714   6.449
 3921SOL    HW212663   0.984   2.827   6.531
 3922SOL     OW12664   4.956   4.427   2.768
 3922SOL    HW112665   4.869   4.412   2.721
 3922SOL    HW212666   4.987   4.521   2.752
 3923SOL     OW12667   5.024   1.380   1.579
 3923SOL    HW112668   5.036   1.340   1.670
 3923SOL    HW212669   5.018   1.480   1.587
 3924SOL     OW12670   5.200   5.235   4.042
 3924SOL    HW112671   5.235   5.272   3.956
 3924SOL    HW212672   5.134   5.162   4.022
 3925SOL     OW12673   4.998   5.092   0.957
 3925SOL    HW112674   4.970   4.996   0.957
 3925SOL    HW212675   5.061   5.108   0.882
 3926SOL     OW12676   1.038   5.482   4.689
 3926SOL    HW112677   0.940   5.499   4.694
 3926SOL    HW212678   1.059   5.436   4.602
 3927SOL     OW12679   5.986   1.772   5.691
 3927SOL    HW112680   5.927   1.691   5.695
 3927SOL    HW212681   6.071   1.754   5.740
 3928SOL     OW12682   3.446   5.742   2.175
 3928SOL    HW112683   3.489   5.668   2.226
 3928SOL    HW212684   3.511   5.817   2.162
 3929SOL     OW12685   0.970   1.500   5.797
 3929SOL    HW112686   1.015   1.463   5.716
 3929SOL    HW212687   1.008   1.458   5.879
 3930SOL     OW12688   1.786   4.301   3.539
 3930SOL    HW112689   1.841   4.383   3.555
 3930SOL    HW212690   1.847   4.221   3.530
 3931SOL     OW12691   1.266   2.618   0.393
 3931SOL    HW112692   1.312   2.622   0.482
 3931SOL    HW212693   1.276   2.705   0.346
 3932SOL     OW12694   2.410   4.422   3.347
 3932SOL    HW112695   2.325   4.463   3.313
 3932SOL    HW212696   2.488   4.472   3.312
 3933SOL     OW12697   1.872   6.261   1.166
 3933SOL    HW112698   1.905   6.222   1.079
 3933SOL    HW212699   1.779   6.295   1.154
 3934SOL     OW12700   1.687   6.676   1.078
 3934SOL    HW112701   1.675   6.630   0.990
 3934SOL    HW212702   1.768   6.640   1.124
 3935SOL     OW12703   0.129   3.924   5.265
 3935SOL    HW112704   0.223   3.910   5.295
 3935SOL    HW212705   0.123   3.912   5.166
 3936SOL     OW12706   0.184   3.989   5.010
 3936SOL    HW112707   0.255   4.058   5.020
 3936SOL    HW212708   0.191   3.947   4.919
 3937SOL     OW12709   0.447   5.845   1.193
 3937SOL    HW112710   0.379   5.859   1.265
 3937SOL    HW212711   0.400   5.830   1.106
 3938SOL     OW12712   0.847   3.197   0.857
 3938SOL    HW112713   0.912   3.129   0.890
 3938SOL    HW212714   0.758   3.182   0.901
 3939SOL     OW12715   0.837   0.187   3.262
 3939SOL    HW112716   0.871   0.270   3.217
 3939SOL    HW212717   0.884   0.176   3.350
 3940SOL     OW12718   2.972   5.993   7.006
 3940SOL    HW112719   2.902   6.064   7.004
 3940SOL    HW212720   3.030   6.005   0.063
 3941SOL     OW12721   4.915   5.901   2.091
 3941SOL    HW112722   4.845   5.892   2.161
 3941SOL    HW212723   4.928   5.998   2.068
 3942SOL     OW12724   6.712   5.985   5.849
 3942SOL    HW112725   6.727   5.935   5.935
 3942SOL    HW212726   6.720   6.083   5.866
 3943SOL     OW12727   2.320   3.140   0.198
 3943SOL    HW112728   2.254   3.088   0.144
 3943SOL    HW212729   2.329   3.232   0.160
 3944SOL     OW12730   4.693   2.939   6.421
 3944SOL    HW112731   4.667   2.891   6.505
 3944SOL    HW212732   4.707   3.036   6.441
 3945SOL     OW12733   5.598   0.539   3.785
 3945SOL    HW112734   5.614   0.465   3.850
 3945SOL    HW212735   5.527   0.601   3.820
 3946SOL     OW12736   7.012   4.033   0.627
 3946SOL    HW112737   0.048   4.096   0.578
 3946SOL    HW212738   0.011   4.034   0.724
 3947SOL     OW12739   5.627   6.104   1.999
 3947SOL    HW112740   5.536   6.068   2.022
 3947SOL    HW212741   5.621   6.202   1.980
 3948SOL     OW12742   1.586   2.763   5.449
 3948SOL    HW112743   1.576   2.664   5.458
 3948SOL    HW212744   1.536   2.809   5.523
 3949SOL     OW12745   6.138   0.419   2.050
 3949SOL    HW112746   6.130   0.423   2.150
 3949SOL    HW212747   6.059   0.463   2.008
 3950SOL     OW12748   2.941   4.363   1.709
 3950SOL    HW112749   2.969   4.423   1.633
 3950SOL    HW212750   2.917   4.419   1.788
 3951SOL     OW12751   0.847   2.628   4.911
 3951SOL    HW112752   0.861   2.616   4.812
 3951SOL    HW212753   0.890   2.713   4.940
 3952SOL     OW12754   5.875   3.772   0.410
 3952SOL    HW112755   5.807   3.809   0.347
 3952SOL    HW212756   5.885   3.674   0.395
 3953SOL     OW12757   3.137   3.865   6.691
 3953SOL    HW112758   3.205   3.806   6.735
 3953SOL    HW212759   3.046   3.842   6.725
 3954SOL     OW12760   1.045   3.305   5.305
 3954SOL    HW112761   1.080   3.338   5.217
 3954SOL    HW212762   1.021   3.208   5.298
 3955SOL     OW12763   6.332   3.760   0.571
 3955SOL    HW112764   6.301   3.718   0.656
 3955SOL    HW212765   6.254   3.785   0.515
 3956SOL     OW12766   6.741   2.974   5.400
 3956SOL    HW112767   6.805   2.960   5.475
 3956SOL    HW212768   6.711   3.070   5.398
 3957SOL     OW12769   0.699   1.858   2.416
 3957SOL    HW112770   0.657   1.767   2.415
 3957SOL    HW212771   0.683   1.901   2.505
 3958SOL     OW12772   5.533   0.167   0.034
 3958SOL    HW112773   5.512   0.164   6.960
 3958SOL    HW212774   5.518   0.260   0.068
 3959SOL     OW12775   2.314   6.106   1.237
 3959SOL    HW112776   2.400   6.061   1.263
 3959SOL    HW212777   2.277   6.154   1.316
 3960SOL     OW12778   5.308   3.794   0.859
 3960SOL    HW112779   5.270   3.884   0.879
 3960SOL    HW212780   5.242   3.724   0.882
 3961SOL     OW12781   5.784   0.296   1.344
 3961SOL    HW112782   5.815   0.383   1.383
 3961SOL    HW212783   5.732   0.315   1.261
 3962SOL     OW12784   0.558   6.293   5.699
 3962SOL    HW112785   0.540   6.333   5.609
 3962SOL    HW212786   0.605   6.360   5.756
 3963SOL     OW12787   4.695   4.735   2.999
 3963SOL    HW112788   4.637   4.677   2.942
 3963SOL    HW212789   4.640   4.776   3.072
 3964SOL     OW12790   6.035   6.074   6.885
 3964SOL    HW112791   6.056   6.063   6.982
 3964SOL    HW212792   6.120   6.071   6.832
 3965SOL     OW12793   3.464   3.514   0.701
 3965SOL    HW112794   3.501   3.508   0.794
 3965SOL    HW212795   3.488   3.603   0.662
 3966SOL     OW12796   6.355   3.867   5.106
 3966SOL    HW112797   6.448   3.859   5.069
 3966SOL    HW212798   6.327   3.780   5.145
 3967SOL     OW12799   2.003   6.894   6.834
 3967SOL    HW112800   1.929   6.853   6.887
 3967SOL    HW212801   2.059   6.822   6.793
 3968SOL     OW12802   4.640   1.414   1.018
 3968SOL    HW112803   4.660   1.500   1.064
 3968SOL    HW212804   4.725   1.374   0.983
 3969SOL     OW12805   0.357   6.210   1.439
 3969SOL    HW112806   0.448   6.196   1.478
 3969SOL    HW212807   0.290   6.220   1.513
 3970SOL     OW12808   4.907   3.937   4.331
 3970SOL    HW112809   4.962   3.863   4.294
 3970SOL    HW212810   4.891   3.921   4.428
 3971SOL     OW12811   0.695   5.941   3.768
 3971SOL    HW112812   0.612   5.963   3.716
 3971SOL    HW212813   0.728   6.024   3.814
 3972SOL     OW12814   0.838   0.285   6.791
 3972SOL    HW112815   0.777   0.300   6.869
 3972SOL    HW212816   0.824   0.192   6.755
 3973SOL     OW12817   3.066   3.053   3.797
 3973SOL    HW112818   3.077   3.151   3.814
 3973SOL    HW212819   2.988   3.019   3.850
 3974SOL     OW12820   5.537   0.601   6.711
 3974SOL    HW112821   5.564   0.505   6.697
 3974SOL    HW212822   5.437   0.608   6.710
 3975SOL     OW12823   6.978   5.975   5.051
 3975SOL    HW112824   7.021   5.894   5.012
 3975SOL    HW212825   6.940   5.952   5.141
 3976SOL     OW12826   0.836   3.003   0.004
 3976SOL    HW112827   0.929   3.020   6.996
 3976SOL    HW212828   0.807   3.077   0.065
 3977SOL     OW12829   3.334   5.344   5.188
 3977SOL    HW112830   3.319   5.310   5.282
 3977SOL    HW212831   3.296   5.436   5.179
 3978SOL     OW12832   6.531   4.191   6.291
 3978SOL    HW112833   6.618   4.164   6.332
 3978SOL    HW212834   6.466   4.115   6.299
 3979SOL     OW12835   0.880   6.822   3.428
 3979SOL    HW112836   0.810   6.894   3.434
 3979SOL    HW212837   0.837   6.733   3.443
 3980SOL     OW12838   4.885   3.724   4.750
 3980SOL    HW112839   4.918   3.645   4.699
 3980SOL    HW212840   4.856   3.697   4.841
 3981SOL     OW12841   6.701   1.818   5.475
 3981SOL    HW112842   6.619   1.804   5.530
 3981SOL    HW212843   6.780   1.832   5.535
 3982SOL     OW12844   2.443   2.621   4.000
 3982SOL    HW112845   2.455   2.557   4.076
 3982SOL    HW212846   2.520   2.611   3.936
 3983SOL     OW12847   3.307   0.321   3.606
 3983SOL    HW112848   3.272   0.283   3.692
 3983SOL    HW212849   3.246   0.297   3.531
 3984SOL     OW12850   1.787   6.838   1.866
 3984SOL    HW112851   1.867   6.891   1.896
 3984SOL    HW212852   1.752   6.784   1.942
 3985SOL     OW12853   1.823   3.156   1.686
 3985SOL    HW112854   1.743   3.215   1.692
 3985SOL    HW212855   1.840   3.133   1.590
 3986SOL     OW12856   1.793   2.083   1.800
 3986SOL    HW112857   1.748   2.171   1.813
 3986SOL    HW212858   1.865   2.092   1.731
 3987SOL     OW12859   1.381   3.960   5.488
 3987SOL    HW112860   1.399   4.042   5.542
 3987SOL    HW212861   1.461   3.900   5.489
 3988SOL     OW12862   5.124   0.572   0.133
 3988SOL    HW112863   5.033   0.553   0.172
 3988SOL    HW212864   5.178   0.623   0.199
 3989SOL     OW12865   4.448   0.809   6.124
 3989SOL    HW112866   4.412   0.831   6.033
 3989SOL    HW212867   4.471   0.893   6.172
 3990SOL     OW12868   0.960   2.506   4.243
 3990SOL    HW112869   0.944   2.471   4.150
 3990SOL    HW212870   0.992   2.600   4.238
 3991SOL     OW12871   0.696   1.503   3.939
 3991SOL    HW112872   0.645   1.442   3.879
 3991SOL    HW212873   0.655   1.595   3.936
 3992SOL     OW12874   5.857   3.839   6.511
 3992SOL    HW112875   5.812   3.907   6.452
 3992SOL    HW212876   5.889   3.763   6.455
 3993SOL     OW12877   1.762   0.601   4.284
 3993SOL    HW112878   1.835   0.653   4.329
 3993SOL    HW212879   1.767   0.616   4.185
 3994SOL     OW12880   2.723   1.942   2.650
 3994SOL    HW112881   2.701   2.014   2.584
 3994SOL    HW212882   2.643   1.925   2.708
 3995SOL     OW12883   1.215   3.605   2.674
 3995SOL    HW112884   1.305   3.643   2.652
 3995SOL    HW212885   1.221   3.550   2.757
 3996SOL     OW12886   5.769   6.606   4.338
 3996SOL    HW112887   5.726   6.693   4.363
 3996SOL    HW212888   5.698   6.537   4.324
 3997SOL     OW12889   4.953   3.523   2.335
 3997SOL    HW112890   5.023   3.582   2.375
 3997SOL    HW212891   4.867   3.534   2.385
 3998SOL     OW12892   5.129   2.372   3.166
 3998SOL    HW112893   5.224   2.392   3.191
 3998SOL    HW212894   5.090   2.450   3.118
 3999SOL     OW12895   4.531   2.900   1.266
 3999SOL    HW112896   4.484   2.975   1.219
 3999SOL    HW212897   4.599   2.937   1.329
 4000SOL     OW12898   2.690   4.972   2.527
 4000SOL    HW112899   2.625   5.023   2.470
 4000SOL    HW212900   2.640   4.924   2.599
 4001SOL     OW12901   1.179   4.907   4.090
 4001SOL    HW112902   1.245   4.944   4.025
 4001SOL    HW212903   1.114   4.978   4.117
 4002SOL     OW12904   3.515   4.107   3.830
 4002SOL    HW112905   3.448   4.134   3.761
 4002SOL    HW212906   3.491   4.017   3.867
 4003SOL     OW12907   1.882   0.659   5.092
 4003SOL    HW112908   1.816   0.622   5.157
 4003SOL    HW212909   1.970   0.614   5.104
 4004SOL     OW12910   0.684   3.498   4.105
 4004SOL    HW112911   0.762   3.460   4.055
 4004SOL    HW212912   0.660   3.587   4.068
 4005SOL     OW12913   5.078   3.184   0.282
 4005SOL    HW112914   5.098   3.093   0.245
 4005SOL    HW212915   5.157   3.244   0.266
 4006SOL     OW12916   5.875   5.407   2.752
 4006SOL    HW112917   5.949   5.377   2.692
 4006SOL    HW212918   5.799   5.440   2.697
 4007SOL     OW12919   0.041   0.318   2.755
 4007SOL    HW112920   0.131   0.334   2.795
 4007SOL    HW212921   0.004   0.404   2.722
 4008SOL     OW12922   2.644   1.080   0.887
 4008SOL    HW112923   2.704   1.023   0.832
 4008SOL    HW212924   2.558   1.096   0.838
 4009SOL     OW12925   5.002   2.183   1.051
 4009SOL    HW112926   5.051   2.096   1.051
 4009SOL    HW212927   5.014   2.228   0.963
 4010SOL     OW12928   2.392   5.137   1.577
 4010SOL    HW112929   2.358   5.139   1.671
 4010SOL    HW212930   2.459   5.063   1.567
 4011SOL     OW12931   5.267   6.337   6.332
 4011SOL    HW112932   5.220   6.408   6.279
 4011SOL    HW212933   5.218   6.322   6.418
 4012SOL     OW12934   4.924   6.925   2.532
 4012SOL    HW112935   4.859   6.887   2.598
 4012SOL    HW212936   4.999   6.861   2.519
 4013SOL     OW12937   6.947   0.855   5.723
 4013SOL    HW112938   6.880   0.824   5.655
 4013SOL    HW212939   6.954   0.954   5.718
 4014SOL     OW12940   2.922   4.928   2.752
 4014SOL    HW112941   2.890   4.834   2.736
 4014SOL    HW212942   2.873   4.991   2.693
 4015SOL     OW12943   4.073   4.800   5.916
 4015SOL    HW112944   3.979   4.819   5.889
 4015SOL    HW212945   4.115   4.739   5.848
 4016SOL     OW12946   4.599   5.086   5.321
 4016SOL    HW112947   4.527   5.039   5.372
 4016SOL    HW212948   4.682   5.090   5.376
 4017SOL     OW12949   0.961   4.894   5.621
 4017SOL    HW112950   1.043   4.846   5.591
 4017SOL    HW212951   0.883   4.832   5.619
 4018SOL     OW12952   3.906   5.830   1.234
 4018SOL    HW112953   3.929   5.924   1.257
 4018SOL    HW212954   3.810   5.825   1.203
 4019SOL     OW12955   5.467   3.829   2.732
 4019SOL    HW112956   5.504   3.751   2.784
 4019SOL    HW212957   5.480   3.913   2.785
 4020SOL     OW12958   0.264   5.477   4.496
 4020SOL    HW112959   0.202   5.399   4.506
 4020SOL    HW212960   0.326   5.481   4.575
 4021SOL     OW12961   4.404   3.741   6.382
 4021SOL    HW112962   4.487   3.688   6.362
 4021SOL    HW212963   4.325   3.691   6.348
 4022SOL     OW12964   2.271   0.193   1.569
 4022SOL    HW112965   2.216   0.245   1.503
 4022SOL    HW212966   2.367   0.197   1.542
 4023SOL     OW12967   0.513   1.211   4.498
 4023SOL    HW112968   0.549   1.222   4.591
 4023SOL    HW212969   0.529   1.294   4.445
 4024SOL     OW12970   0.991   6.148   4.389
 4024SOL    HW112971   0.948   6.195   4.313
 4024SOL    HW212972   1.045   6.071   4.355
 4025SOL     OW12973   0.077   5.692   3.612
 4025SOL    HW112974   0.024   5.609   3.627
 4025SOL    HW212975   0.103   5.697   3.515
 4026SOL     OW12976   0.333   0.357   3.913
 4026SOL    HW112977   0.321   0.445   3.867
 4026SOL    HW212978   0.291   0.362   4.004
 4027SOL     OW12979   3.230   4.344   5.939
 4027SOL    HW112980   3.205   4.270   5.877
 4027SOL    HW212981   3.151   4.370   5.994
 4028SOL     OW12982   4.842   1.602   3.532
 4028SOL    HW112983   4.802   1.649   3.611
 4028SOL    HW212984   4.884   1.669   3.472
 4029SOL     OW12985   1.705   6.166   6.680
 4029SOL    HW112986   1.652   6.081   6.675
 4029SOL    HW212987   1.644   6.244   6.676
 4030SOL     OW12988   0.247   1.246   2.644
 4030SOL    HW112989   0.185   1.251   2.722
 4030SOL    HW212990   0.245   1.332   2.593
 4031SOL     OW12991   6.250   6.212   0.431
 4031SOL    HW112992   6.344   6.208   0.463
 4031SOL    HW212993   6.194   6.146   0.483
 4032SOL     OW12994   5.136   1.054   2.243
 4032SOL    HW112995   5.110   1.077   2.337
 4032SOL    HW212996   5.056   1.019   2.194
 4033SOL     OW12997   2.171   2.376   2.715
 4033SOL    HW112998   2.217   2.295   2.680
 4033SOL    HW212999   2.226   2.457   2.693
 4034SOL     OW13000   0.137   3.250   5.614
 4034SOL    HW113001   0.059   3.281   5.559
 4034SOL    HW213002   0.218   3.303   5.589
 4035SOL     OW13003   4.307   1.777   1.651
 4035SOL    HW113004   4.228   1.760   1.709
 4035SOL    HW213005   4.363   1.694   1.646
 4036SOL     OW13006   3.086   5.461   2.815
 4036SOL    HW113007   3.162   5.422   2.865
 4036SOL    HW213008   3.084   5.560   2.828
 4037SOL     OW13009   2.719   1.912   5.966
 4037SOL    HW113010   2.692   1.973   6.041
 4037SOL    HW213011   2.651   1.917   5.893
 4038SOL     OW13012   3.378   3.737   6.151
 4038SOL    HW113013   3.374   3.661   6.086
 4038SOL    HW213014   3.335   3.818   6.110
 4039SOL     OW13015   5.756   5.167   1.540
 4039SOL    HW113016   5.754   5.071   1.566
 4039SOL    HW213017   5.731   5.224   1.619
 4040SOL     OW13018   3.097   6.437   4.941
 4040SOL    HW113019   3.128   6.455   4.848
 4040SOL    HW213020   3.162   6.475   5.006
 4041SOL     OW13021   2.466   6.617   0.665
 4041SOL    HW113022   2.532   6.691   0.675
 4041SOL    HW213023   2.392   6.629   0.731
 4042SOL     OW13024   6.598   0.960   2.972
 4042SOL    HW113025   6.552   0.883   3.017
 4042SOL    HW213026   6.596   0.948   2.873
 4043SOL     OW13027   5.758   3.517   6.638
 4043SOL    HW113028   5.857   3.527   6.638
 4043SOL    HW213029   5.718   3.581   6.703
 4044SOL     OW13030   4.866   5.101   3.113
 4044SOL    HW113031   4.901   5.082   3.204
 4044SOL    HW213032   4.888   5.195   3.087
 4045SOL     OW13033   4.974   0.772   5.566
 4045SOL    HW113034   4.944   0.842   5.631
 4045SOL    HW213035   4.974   0.810   5.474
 4046SOL     OW13036   6.061   1.785   2.303
 4046SOL    HW113037   6.159   1.802   2.317
 4046SOL    HW213038   6.016   1.775   2.392
 4047SOL     OW13039   2.687   3.546   0.005
 4047SOL    HW113040   2.737   3.464   0.033
 4047SOL    HW213041   2.628   3.524   6.952
 4048SOL     OW13042   4.384   1.931   2.390
 4048SOL    HW113043   4.408   1.868   2.315
 4048SOL    HW213044   4.385   1.881   2.477
 4049SOL     OW13045   4.009   4.642   6.985
 4049SOL    HW113046   4.060   4.712   0.011
 4049SOL    HW213047   3.927   4.617   0.013
 4050SOL     OW13048   0.546   5.898   2.076
 4050SOL    HW113049   0.617   5.957   2.037
 4050SOL    HW213050   0.568   5.876   2.171
 4051SOL     OW13051   5.603   1.145   5.039
 4051SOL    HW113052   5.563   1.080   4.974
 4051SOL    HW213053   5.586   1.238   5.009
 4052SOL     OW13054   6.208   2.220   3.185
 4052SOL    HW113055   6.175   2.290   3.122
 4052SOL    HW213056   6.204   2.131   3.140
 4053SOL     OW13057   1.890   5.025   4.147
 4053SOL    HW113058   1.818   5.012   4.077
 4053SOL    HW213059   1.849   5.017   4.238
 4054SOL     OW13060   3.921   4.144   0.761
 4054SOL    HW113061   3.990   4.104   0.822
 4054SOL    HW213062   3.958   4.148   0.668
 4055SOL     OW13063   0.717   4.673   1.417
 4055SOL    HW113064   0.693   4.590   1.365
 4055SOL    HW213065   0.795   4.653   1.476
 4056SOL     OW13066   5.221   3.668   0.486
 4056SOL    HW113067   5.159   3.597   0.453
 4056SOL    HW213068   5.290   3.626   0.545
 4057SOL     OW13069   6.950   3.676   0.011
 4057SOL    HW113070   6.924   3.768   0.042
 4057SOL    HW213071   6.869   3.618   0.007
 4058SOL     OW13072   3.460   6.994   5.936
 4058SOL    HW113073   3.415   6.948   6.012
 4058SOL    HW213074   3.401   6.989   5.854
 4059SOL     OW13075   0.649   1.949   3.971
 4059SOL    HW113076   0.726   1.970   4.031
 4059SOL    HW213077   0.684   1.909   3.886
 4060SOL     OW13078   6.008   5.719   5.392
 4060SOL    HW113079   6.024   5.813   5.364
 4060SOL    HW213080   6.094   5.668   5.387
 4061SOL     OW13081   2.102   5.335   0.901
 4061SOL    HW113082   2.007   5.327   0.873
 4061SOL    HW213083   2.117   5.426   0.941
 4062SOL     OW13084   1.573   2.815   1.418
 4062SOL    HW113085   1.668   2.831   1.444
 4062SOL    HW213086   1.565   2.728   1.370
 4063SOL     OW13087   4.635   0.938   0.139
 4063SOL    HW113088   4.539   0.936   0.111
 4063SOL    HW213089   4.668   0.844   0.151
 4064SOL     OW13090   2.227   1.693   5.616
 4064SOL    HW113091   2.186   1.746   5.691
 4064SOL    HW213092   2.160   1.682   5.543
 4065SOL     OW13093   2.577   6.525   1.239
 4065SOL    HW113094   2.644   6.456   1.213
 4065SOL    HW213095   2.487   6.498   1.205
 4066SOL     OW13096   0.193   4.216   3.614
 4066SOL    HW113097   0.267   4.163   3.571
 4066SOL    HW213098   0.229   4.302   3.648
 4067SOL     OW13099   4.873   4.936   0.664
 4067SOL    HW113100   4.789   4.883   0.649
 4067SOL    HW213101   4.946   4.874   0.693
 4068SOL     OW13102   2.281   2.504   5.068
 4068SOL    HW113103   2.324   2.594   5.078
 4068SOL    HW213104   2.223   2.504   4.986
 4069SOL     OW13105   4.310   0.013   6.734
 4069SOL    HW113106   4.347   6.945   6.724
 4069SOL    HW213107   4.304   0.037   6.831
 4070SOL     OW13108   1.369   2.931   3.801
 4070SOL    HW113109   1.276   2.896   3.794
 4070SOL    HW213110   1.426   2.889   3.731
 4071SOL     OW13111   1.131   0.355   3.952
 4071SOL    HW113112   1.036   0.334   3.928
 4071SOL    HW213113   1.133   0.398   4.043
 4072SOL     OW13114   2.646   5.832   3.164
 4072SOL    HW113115   2.576   5.904   3.169
 4072SOL    HW213116   2.619   5.764   3.096
 4073SOL     OW13117   2.837   4.689   0.108
 4073SOL    HW113118   2.805   4.757   0.174
 4073SOL    HW213119   2.779   4.692   0.026
 4074SOL     OW13120   1.750   5.719   2.832
 4074SOL    HW113121   1.768   5.786   2.904
 4074SOL    HW213122   1.833   5.705   2.778
 4075SOL     OW13123   6.162   0.827   0.913
 4075SOL    HW113124   6.080   0.862   0.868
 4075SOL    HW213125   6.141   0.741   0.959
 4076SOL     OW13126   2.532   4.124   5.370
 4076SOL    HW113127   2.493   4.114   5.279
 4076SOL    HW213128   2.488   4.060   5.432
 4077SOL     OW13129   2.302   1.258   1.539
 4077SOL    HW113130   2.311   1.297   1.631
 4077SOL    HW213131   2.206   1.256   1.513
 4078SOL     OW13132   2.782   4.698   2.738
 4078SOL    HW113133   2.746   4.629   2.676
 4078SOL    HW213134   2.719   4.776   2.742
 4079SOL     OW13135   0.891   2.517   4.602
 4079SOL    HW113136   0.859   2.430   4.565
 4079SOL    HW213137   0.821   2.588   4.587
 4080SOL     OW13138   6.089   1.784   4.805
 4080SOL    HW113139   6.014   1.788   4.740
 4080SOL    HW213140   6.143   1.701   4.789
 4081SOL     OW13141   1.913   3.262   4.057
 4081SOL    HW113142   1.917   3.342   3.996
 4081SOL    HW213143   2.002   3.248   4.100
 4082SOL     OW13144   1.252   3.620   0.871
 4082SOL    HW113145   1.267   3.546   0.806
 4082SOL    HW213146   1.329   3.683   0.869
 4083SOL     OW13147   5.439   2.556   4.943
 4083SOL    HW113148   5.361   2.514   4.990
 4083SOL    HW213149   5.513   2.489   4.935
 4084SOL     OW13150   0.698   1.281   4.103
 4084SOL    HW113151   0.741   1.296   4.192
 4084SOL    HW213152   0.699   1.366   4.051
 4085SOL     OW13153   3.579   6.523   6.914
 4085SOL    HW113154   3.546   6.443   6.965
 4085SOL    HW213155   3.502   6.584   6.896
 4086SOL     OW13156   1.712   4.662   0.781
 4086SOL    HW113157   1.642   4.619   0.838
 4086SOL    HW213158   1.680   4.752   0.751
 4087SOL     OW13159   1.669   1.431   3.151
 4087SOL    HW113160   1.701   1.337   3.161
 4087SOL    HW213161   1.675   1.478   3.239
 4088SOL     OW13162   6.574   1.588   1.097
 4088SOL    HW113163   6.569   1.678   1.141
 4088SOL    HW213164   6.635   1.593   1.018
 4089SOL     OW13165   0.846   0.915   4.617
 4089SOL    HW113166   0.834   0.967   4.533
 4089SOL    HW213167   0.943   0.912   4.641
 4090SOL     OW13168   1.882   4.327   5.571
 4090SOL    HW113169   1.891   4.339   5.670
 4090SOL    HW213170   1.828   4.245   5.552
 4091SOL     OW13171   4.515   5.874   0.393
 4091SOL    HW113172   4.488   5.926   0.312
 4091SOL    HW213173   4.596   5.916   0.434
 4092SOL     OW13174   6.972   2.866   4.734
 4092SOL    HW113175   7.018   2.902   4.815
 4092SOL    HW213176   6.951   2.942   4.672
 4093SOL     OW13177   5.630   0.803   4.065
 4093SOL    HW113178   5.626   0.901   4.045
 4093SOL    HW213179   5.560   0.755   4.012
 4094SOL     OW13180   2.152   4.194   5.070
 4094SOL    HW113181   2.219   4.124   5.046
 4094SOL    HW213182   2.070   4.182   5.013
 4095SOL     OW13183   1.475   3.368   6.287
 4095SOL    HW113184   1.558   3.382   6.341
 4095SOL    HW213185   1.395   3.380   6.346
 4096SOL     OW13186   3.749   4.367   0.802
 4096SOL    HW113187   3.733   4.395   0.707
 4096SOL    HW213188   3.803   4.283   0.802
 4097SOL     OW13189   3.360   3.564   5.519
 4097SOL    HW113190   3.354   3.566   5.419
 4097SOL    HW213191   3.371   3.470   5.550
 4098SOL     OW13192   0.456   2.011   3.049
 4098SOL    HW113193   0.377   2.034   3.106
 4098SOL    HW213194   0.434   2.027   2.953
 4099SOL     OW13195   4.347   5.824   1.996
 4099SOL    HW113196   4.425   5.764   2.017
 4099SOL    HW213197   4.348   5.847   1.899
 4100SOL     OW13198   3.880   5.917   3.595
 4100SOL    HW113199   3.907   6.013   3.585
 4100SOL    HW213200   3.823   5.907   3.677
 4101SOL     OW13201   6.039   1.460   6.106
 4101SOL    HW113202   6.118   1.520   6.114
 4101SOL    HW213203   5.955   1.515   6.104
 4102SOL     OW13204   5.989   1.331   0.242
 4102SOL    HW113205   5.894   1.339   0.274
 4102SOL    HW213206   6.001   1.386   0.159
 4103SOL     OW13207   0.600   0.121   2.192
 4103SOL    HW113208   0.687   0.170   2.191
 4103SOL    HW213209   0.608   0.036   2.142
 4104SOL     OW13210   1.100   4.974   2.582
 4104SOL    HW113211   1.087   4.943   2.676
 4104SOL    HW213212   1.040   4.921   2.521
 4105SOL     OW13213   4.403   5.067   0.157
 4105SOL    HW113214   4.315   5.109   0.134
 4105SOL    HW213215   4.420   4.989   0.096
 4106SOL     OW13216   7.007   3.731   4.595
 4106SOL    HW113217   6.921   3.681   4.602
 4106SOL    HW213218   0.055   3.680   4.641
 4107SOL     OW13219   6.847   0.720   1.180
 4107SOL    HW113220   6.853   0.761   1.090
 4107SOL    HW213221   6.924   0.658   1.194
 4108SOL     OW13222   6.318   3.567   6.227
 4108SOL    HW113223   6.247   3.499   6.207
 4108SOL    HW213224   6.327   3.578   6.326
 4109SOL     OW13225   3.068   6.257   3.511
 4109SOL    HW113226   2.994   6.293   3.567
 4109SOL    HW213227   3.031   6.228   3.423
 4110SOL     OW13228   5.031   3.531   6.027
 4110SOL    HW113229   5.012   3.628   6.012
 4110SOL    HW213230   5.034   3.484   5.938
 4111SOL     OW13231   4.079   3.083   6.776
 4111SOL    HW113232   4.164   3.090   6.828
 4111SOL    HW213233   4.098   3.048   6.684
 4112SOL     OW13234   3.290   1.318   3.784
 4112SOL    HW113235   3.319   1.406   3.821
 4112SOL    HW213236   3.206   1.288   3.830
 4113SOL     OW13237   3.591   4.959   4.862
 4113SOL    HW113238   3.585   4.951   4.762
 4113SOL    HW213239   3.668   5.020   4.885
 4114SOL     OW13240   2.898   1.907   2.839
 4114SOL    HW113241   2.829   1.908   2.767
 4114SOL    HW213242   2.874   1.837   2.907
 4115SOL     OW13243   5.054   4.923   1.799
 4115SOL    HW113244   5.142   4.874   1.800
 4115SOL    HW213245   5.006   4.902   1.714
 4116SOL     OW13246   3.324   1.693   1.880
 4116SOL    HW113247   3.329   1.793   1.871
 4116SOL    HW213248   3.315   1.652   1.790
 4117SOL     OW13249   1.256   5.364   1.537
 4117SOL    HW113250   1.169   5.335   1.497
 4117SOL    HW213251   1.305   5.421   1.470
 4118SOL     OW13252   1.817   5.759   0.519
 4118SOL    HW113253   1.863   5.840   0.484
 4118SOL    HW213254   1.773   5.710   0.444
 4119SOL     OW13255   3.629   0.770   4.186
 4119SOL    HW113256   3.532   0.786   4.165
 4119SOL    HW213257   3.685   0.836   4.136
 4120SOL     OW13258   3.273   0.353   1.614
 4120SOL    HW113259   3.236   0.390   1.699
 4120SOL    HW213260   3.252   0.416   1.538
 4121SOL     OW13261   6.682   3.274   4.943
 4121SOL    HW113262   6.688   3.365   4.983
 4121SOL    HW213263   6.736   3.210   4.997
 4122SOL     OW13264   1.401   5.616   5.679
 4122SOL    HW113265   1.383   5.689   5.745
 4122SOL    HW213266   1.474   5.645   5.617
 4123SOL     OW13267   4.869   3.939   6.335
 4123SOL    HW113268   4.913   4.029   6.336
 4123SOL    HW213269   4.939   3.868   6.341
 4124SOL     OW13270   5.614   0.061   4.048
 4124SOL    HW113271   5.702   0.060   4.095
 4124SOL    HW213272   5.544   0.025   4.109
 4125SOL     OW13273   4.195   0.909   0.786
 4125SOL    HW113274   4.201   0.989   0.727
 4125SOL    HW213275   4.280   0.900   0.838
 4126SOL     OW13276   1.992   3.906   4.560
 4126SOL    HW113277   2.016   3.907   4.657
 4126SOL    HW213278   1.974   3.812   4.531
 4127SOL     OW13279   5.674   3.398   5.652
 4127SOL    HW113280   5.773   3.387   5.638
 4127SOL    HW213281   5.645   3.486   5.613
 4128SOL     OW13282   0.844   2.748   2.403
 4128SOL    HW113283   0.798   2.660   2.401
 4128SOL    HW213284   0.936   2.738   2.441
 4129SOL     OW13285   5.660   2.519   6.059
 4129SOL    HW113286   5.710   2.513   6.145
 4129SOL    HW213287   5.725   2.520   5.983
 4130SOL     OW13288   6.139   4.146   0.194
 4130SOL    HW113289   6.102   4.053   0.190
 4130SOL    HW213290   6.153   4.173   0.289
 4131SOL     OW13291   6.293   4.979   3.983
 4131SOL    HW113292   6.336   5.046   3.923
 4131SOL    HW213293   6.357   4.905   4.001
 4132SOL     OW13294   5.372   2.441   3.243
 4132SOL    HW113295   5.374   2.521   3.303
 4132SOL    HW213296   5.433   2.370   3.279
 4133SOL     OW13297   2.790   0.990   1.167
 4133SOL    HW113298   2.807   1.078   1.212
 4133SOL    HW213299   2.830   0.991   1.076
 4134SOL     OW13300   1.332   1.854   0.200
 4134SOL    HW113301   1.358   1.831   0.294
 4134SOL    HW213302   1.412   1.848   0.141
 4135SOL     OW13303   1.841   1.288   2.024
 4135SOL    HW113304   1.907   1.221   2.059
 4135SOL    HW213305   1.808   1.345   2.099
 4136SOL     OW13306   0.391   2.104   3.927
 4136SOL    HW113307   0.469   2.047   3.902
 4136SOL    HW213308   0.402   2.137   4.021
 4137SOL     OW13309   3.122   4.130   6.806
 4137SOL    HW113310   3.122   4.045   6.752
 4137SOL    HW213311   3.216   4.161   6.819
 4138SOL     OW13312   4.175   4.804   3.478
 4138SOL    HW113313   4.145   4.837   3.568
 4138SOL    HW213314   4.098   4.807   3.415
 4139SOL     OW13315   1.833   2.149   6.276
 4139SOL    HW113316   1.784   2.071   6.236
 4139SOL    HW213317   1.906   2.178   6.215
 4140SOL     OW13318   4.415   1.055   4.965
 4140SOL    HW113319   4.456   1.115   4.897
 4140SOL    HW213320   4.456   1.072   5.055
 4141SOL     OW13321   5.562   5.532   0.584
 4141SOL    HW113322   5.637   5.553   0.522
 4141SOL    HW213323   5.550   5.607   0.649
 4142SOL     OW13324   6.892   4.238   1.634
 4142SOL    HW113325   6.929   4.151   1.667
 4142SOL    HW213326   6.933   4.261   1.546
 4143SOL     OW13327   6.689   2.918   0.779
 4143SOL    HW113328   6.619   2.987   0.763
 4143SOL    HW213329   6.650   2.827   0.769
 4144SOL     OW13330   5.059   1.114   2.495
 4144SOL    HW113331   5.037   1.200   2.449
 4144SOL    HW213332   5.079   1.132   2.592
 4145SOL     OW13333   2.236   6.728   1.963
 4145SOL    HW113334   2.189   6.722   1.875
 4145SOL    HW213335   2.325   6.682   1.957
 4146SOL     OW13336   4.771   6.796   0.146
 4146SOL    HW113337   4.869   6.791   0.169
 4146SOL    HW213338   4.737   6.887   0.167
 4147SOL     OW13339   3.441   1.599   5.625
 4147SOL    HW113340   3.436   1.663   5.548
 4147SOL    HW213341   3.351   1.560   5.642
 4148SOL     OW13342   6.424   0.598   3.670
 4148SOL    HW113343   6.483   0.522   3.696
 4148SOL    HW213344   6.479   0.676   3.642
 4149SOL     OW13345   6.066   3.702   2.174
 4149SOL    HW113346   6.015   3.743   2.099
 4149SOL    HW213347   6.056   3.602   2.171
 4150SOL     OW13348   5.887   0.446   6.766
 4150SOL    HW113349   5.884   0.456   6.666
 4150SOL    HW213350   5.918   0.353   6.789
 4151SOL     OW13351   0.307   5.368   1.024
 4151SOL    HW113352   0.302   5.448   1.085
 4151SOL    HW213353   0.215   5.337   1.002
 4152SOL     OW13354   4.029   4.653   1.703
 4152SOL    HW113355   3.941   4.605   1.701
 4152SOL    HW213356   4.103   4.587   1.718
 4153SOL     OW13357   6.321   4.783   6.186
 4153SOL    HW113358   6.355   4.866   6.141
 4153SOL    HW213359   6.393   4.744   6.243
 4154SOL     OW13360   5.857   3.005   5.919
 4154SOL    HW113361   5.838   2.908   5.904
 4154SOL    HW213362   5.810   3.035   6.002
 4155SOL     OW13363   1.224   3.281   1.612
 4155SOL    HW113364   1.254   3.376   1.614
 4155SOL    HW213365   1.241   3.238   1.700
 4156SOL     OW13366   5.819   6.785   5.429
 4156SOL    HW113367   5.842   6.694   5.465
 4156SOL    HW213368   5.901   6.826   5.390
 4157SOL     OW13369   3.660   0.360   4.758
 4157SOL    HW113370   3.579   0.303   4.744
 4157SOL    HW213371   3.722   0.349   4.680
 4158SOL     OW13372   0.636   6.449   3.719
 4158SOL    HW113373   0.625   6.387   3.641
 4158SOL    HW213374   0.724   6.432   3.763
 4159SOL     OW13375   1.206   2.745   5.015
 4159SOL    HW113376   1.205   2.794   4.927
 4159SOL    HW213377   1.296   2.754   5.057
 4160SOL     OW13378   0.598   0.779   1.460
 4160SOL    HW113379   0.520   0.839   1.480
 4160SOL    HW213380   0.664   0.828   1.403
 4161SOL     OW13381   6.373   1.682   0.602
 4161SOL    HW113382   6.389   1.684   0.701
 4161SOL    HW213383   6.371   1.776   0.567
 4162SOL     OW13384   5.841   6.961   5.163
 4162SOL    HW113385   5.895   6.998   5.087
 4162SOL    HW213386   5.875   6.870   5.185
 4163SOL     OW13387   5.840   1.568   4.413
 4163SOL    HW113388   5.893   1.528   4.338
 4163SOL    HW213389   5.824   1.665   4.395
 4164SOL     OW13390   1.819   0.453   0.080
 4164SOL    HW113391   1.831   0.494   7.014
 4164SOL    HW213392   1.868   0.507   0.148
 4165SOL     OW13393   3.899   6.904   1.690
 4165SOL    HW113394   3.958   6.846   1.747
 4165SOL    HW213395   3.806   6.867   1.689
 4166SOL     OW13396   5.062   3.052   0.617
 4166SOL    HW113397   5.034   3.141   0.581
 4166SOL    HW213398   4.987   3.012   0.670
 4167SOL     OW13399   2.542   2.820   1.285
 4167SOL    HW113400   2.459   2.764   1.282
 4167SOL    HW213401   2.548   2.876   1.202
 4168SOL     OW13402   1.238   5.069   1.646
 4168SOL    HW113403   1.150   5.058   1.691
 4168SOL    HW213404   1.239   5.155   1.595
 4169SOL     OW13405   5.445   3.194   4.130
 4169SOL    HW113406   5.396   3.171   4.214
 4169SOL    HW213407   5.383   3.240   4.067
 4170SOL     OW13408   3.995   2.884   5.467
 4170SOL    HW113409   4.073   2.824   5.485
 4170SOL    HW213410   3.917   2.856   5.523
 4171SOL     OW13411   5.213   3.542   1.357
 4171SOL    HW113412   5.195   3.450   1.320
 4171SOL    HW213413   5.185   3.610   1.290
 4172SOL     OW13414   1.043   2.092   0.825
 4172SOL    HW113415   0.995   2.145   0.895
 4172SOL    HW213416   1.063   2.000   0.860
 4173SOL     OW13417   5.170   3.382   5.356
 4173SOL    HW113418   5.104   3.448   5.321
 4173SOL    HW213419   5.138   3.344   5.443
 4174SOL     OW13420   4.746   0.848   4.465
 4174SOL    HW113421   4.750   0.932   4.411
 4174SOL    HW213422   4.808   0.780   4.426
 4175SOL     OW13423   2.853   0.719   2.784
 4175SOL    HW113424   2.926   0.716   2.852
 4175SOL    HW213425   2.809   0.809   2.787
 4176SOL     OW13426   5.225   6.392   3.118
 4176SOL    HW113427   5.228   6.402   3.217
 4176SOL    HW213428   5.318   6.391   3.082
 4177SOL     OW13429   0.577   6.286   2.940
 4177SOL    HW113430   0.498   6.235   2.974
 4177SOL    HW213431   0.588   6.269   2.842
 4178SOL     OW13432   3.571   2.272   5.553
 4178SOL    HW113433   3.587   2.202   5.622
 4178SOL    HW213434   3.473   2.295   5.552
 4179SOL     OW13435   5.627   3.900   5.321
 4179SOL    HW113436   5.646   3.824   5.258
 4179SOL    HW213437   5.615   3.864   5.414
 4180SOL     OW13438   4.471   4.296   1.556
 4180SOL    HW113439   4.476   4.207   1.511
 4180SOL    HW213440   4.425   4.285   1.645
 4181SOL     OW13441   0.870   1.028   0.529
 4181SOL    HW113442   0.774   1.035   0.501
 4181SOL    HW213443   0.882   0.947   0.587
 4182SOL     OW13444   5.658   0.542   2.650
 4182SOL    HW113445   5.616   0.452   2.661
 4182SOL    HW213446   5.600   0.599   2.591
 4183SOL     OW13447   1.427   1.758   1.671
 4183SOL    HW113448   1.375   1.675   1.691
 4183SOL    HW213449   1.498   1.770   1.739
 4184SOL     OW13450   4.088   5.338   0.218
 4184SOL    HW113451   4.125   5.344   0.311
 4184SOL    HW213452   3.998   5.382   0.214
 4185SOL     OW13453   0.113   0.137   3.808
 4185SOL    HW113454   0.150   0.087   3.729
 4185SOL    HW213455   0.188   0.172   3.864
 4186SOL     OW13456   2.794   4.195   1.123
 4186SOL    HW113457   2.830   4.219   1.213
 4186SOL    HW213458   2.732   4.117   1.132
 4187SOL     OW13459   4.172   3.455   6.498
 4187SOL    HW113460   4.166   3.461   6.398
 4187SOL    HW213461   4.266   3.433   6.525
 4188SOL     OW13462   4.974   0.246   4.745
 4188SOL    HW113463   4.904   0.186   4.783
 4188SOL    HW213464   5.060   0.232   4.793
 4189SOL     OW13465   2.217   1.914   3.929
 4189SOL    HW113466   2.202   1.952   4.021
 4189SOL    HW213467   2.301   1.953   3.891
 4190SOL     OW13468   2.408   1.027   0.795
 4190SOL    HW113469   2.358   0.946   0.825
 4190SOL    HW213470   2.444   1.012   0.703
 4191SOL     OW13471   6.632   1.752   1.762
 4191SOL    HW113472   6.720   1.799   1.759
 4191SOL    HW213473   6.641   1.667   1.814
 4192SOL     OW13474   6.165   1.090   3.211
 4192SOL    HW113475   6.083   1.123   3.259
 4192SOL    HW213476   6.171   1.134   3.122
 4193SOL     OW13477   1.964   6.798   2.273
 4193SOL    HW113478   1.916   6.852   2.341
 4193SOL    HW213479   1.998   6.857   2.200
 4194SOL     OW13480   0.562   0.721   4.073
 4194SOL    HW113481   0.608   0.653   4.017
 4194SOL    HW213482   0.602   0.811   4.056
 4195SOL     OW13483   4.788   0.402   1.447
 4195SOL    HW113484   4.745   0.342   1.514
 4195SOL    HW213485   4.824   0.347   1.371
 4196SOL     OW13486   4.990   2.493   3.439
 4196SOL    HW113487   4.898   2.455   3.431
 4196SOL    HW213488   5.006   2.557   3.364
 4197SOL     OW13489   4.671   4.387   4.328
 4197SOL    HW113490   4.661   4.371   4.230
 4197SOL    HW213491   4.738   4.322   4.365
 4198SOL     OW13492   6.289   3.469   6.736
 4198SOL    HW113493   6.193   3.497   6.736
 4198SOL    HW213494   6.298   3.381   6.690
 4199SOL     OW13495   2.859   3.802   5.717
 4199SOL    HW113496   2.879   3.873   5.650
 4199SOL    HW213497   2.942   3.780   5.768
 4200SOL     OW13498   2.129   0.285   6.895
 4200SOL    HW113499   2.132   0.187   6.918
 4200SOL    HW213500   2.117   0.338   6.979
 4201SOL     OW13501   5.705   6.100   3.894
 4201SOL    HW113502   5.651   6.142   3.821
 4201SOL    HW213503   5.778   6.044   3.853
 4202SOL     OW13504   5.489   4.599   4.515
 4202SOL    HW113505   5.397   4.636   4.502
 4202SOL    HW213506   5.549   4.672   4.547
 4203SOL     OW13507   5.295   5.800   3.460
 4203SOL    HW113508   5.392   5.798   3.484
 4203SOL    HW213509   5.285   5.802   3.361
 4204SOL     OW13510   3.319   3.527   1.427
 4204SOL    HW113511   3.353   3.606   1.375
 4204SOL    HW213512   3.365   3.523   1.515
 4205SOL     OW13513   2.805   4.883   3.544
 4205SOL    HW113514   2.903   4.901   3.555
 4205SOL    HW213515   2.781   4.800   3.594
 4206SOL     OW13516   5.516   0.227   4.559
 4206SOL    HW113517   5.503   0.252   4.463
 4206SOL    HW213518   5.429   0.232   4.607
 4207SOL     OW13519   1.249   1.294   1.849
 4207SOL    HW113520   1.317   1.258   1.913
 4207SOL    HW213521   1.273   1.388   1.826
 4208SOL     OW13522   0.791   3.714   1.037
 4208SOL    HW113523   0.890   3.703   1.034
 4208SOL    HW213524   0.751   3.681   0.951
 4209SOL     OW13525   2.934   0.903   5.084
 4209SOL    HW113526   2.978   0.989   5.061
 4209SOL    HW213527   2.870   0.917   5.160
 4210SOL     OW13528   5.249   2.944   0.465
 4210SOL    HW113529   5.179   2.989   0.522
 4210SOL    HW213530   5.221   2.850   0.448
 4211SOL     OW13531   4.501   4.816   3.184
 4211SOL    HW113532   4.552   4.786   3.265
 4211SOL    HW213533   4.415   4.766   3.179
 4212SOL     OW13534   6.111   0.476   2.826
 4212SOL    HW113535   6.014   0.499   2.824
 4212SOL    HW213536   6.152   0.507   2.912
 4213SOL     OW13537   1.285   0.632   2.618
 4213SOL    HW113538   1.284   0.532   2.626
 4213SOL    HW213539   1.209   0.671   2.669
 4214SOL     OW13540   1.520   2.886   4.571
 4214SOL    HW113541   1.473   2.891   4.483
 4214SOL    HW213542   1.487   2.959   4.631
 4215SOL     OW13543   1.053   5.291   4.455
 4215SOL    HW113544   1.071   5.374   4.402
 4215SOL    HW213545   0.986   5.234   4.406
 4216SOL     OW13546   1.566   3.103   5.379
 4216SOL    HW113547   1.575   3.167   5.454
 4216SOL    HW213548   1.470   3.073   5.371
 4217SOL     OW13549   0.012   0.229   3.151
 4217SOL    HW113550   6.974   0.275   3.088
 4217SOL    HW213551   0.065   0.160   3.102
 4218SOL     OW13552   4.205   0.081   2.199
 4218SOL    HW113553   4.283   0.079   2.137
 4218SOL    HW213554   4.140   0.151   2.168
 4219SOL     OW13555   4.457   6.589   3.180
 4219SOL    HW113556   4.358   6.597   3.184
 4219SOL    HW213557   4.497   6.679   3.163
 4220SOL     OW13558   6.373   2.881   3.107
 4220SOL    HW113559   6.340   2.973   3.130
 4220SOL    HW213560   6.382   2.827   3.191
 4221SOL     OW13561   5.217   5.663   5.917
 4221SOL    HW113562   5.131   5.688   5.873
 4221SOL    HW213563   5.227   5.563   5.916
 4222SOL     OW13564   4.676   2.285   0.802
 4222SOL    HW113565   4.614   2.228   0.748
 4222SOL    HW213566   4.687   2.246   0.893
 4223SOL     OW13567   3.520   4.137   2.689
 4223SOL    HW113568   3.571   4.132   2.603
 4223SOL    HW213569   3.565   4.201   2.751
 4224SOL     OW13570   4.313   2.259   4.889
 4224SOL    HW113571   4.277   2.166   4.894
 4224SOL    HW213572   4.270   2.315   4.960
 4225SOL     OW13573   5.729   0.569   4.799
 4225SOL    HW113574   5.705   0.611   4.712
 4225SOL    HW213575   5.674   0.486   4.812
 4226SOL     OW13576   1.170   1.383   3.982
 4226SOL    HW113577   1.104   1.393   4.056
 4226SOL    HW213578   1.194   1.286   3.972
 4227SOL     OW13579   6.058   3.969   6.936
 4227SOL    HW113580   6.125   3.917   6.990
 4227SOL    HW213581   6.068   4.067   6.955
 4228SOL     OW13582   6.035   5.343   2.239
 4228SOL    HW113583   6.013   5.436   2.210
 4228SOL    HW213584   6.020   5.280   2.162
 4229SOL     OW13585   5.444   4.767   5.798
 4229SOL    HW113586   5.464   4.834   5.726
 4229SOL    HW213587   5.464   4.675   5.765
 4230SOL     OW13588   3.078   7.009   4.635
 4230SOL    HW113589   3.092   6.918   4.675
 4230SOL    HW213590   3.132   0.052   4.686
 4231SOL     OW13591   4.324   6.780   5.568
 4231SOL    HW113592   4.321   6.748   5.473
 4231SOL    HW213593   4.266   6.861   5.577
 4232SOL     OW13594   2.141   4.468   2.203
 4232SOL    HW113595   2.077   4.540   2.176
 4232SOL    HW213596   2.154   4.404   2.127
 4233SOL     OW13597   5.942   6.961   0.932
 4233SOL    HW113598   6.012   0.007   0.943
 4233SOL    HW213599   5.986   6.871   0.928
 4234SOL     OW13600   2.841   4.583   5.575
 4234SOL    HW113601   2.790   4.600   5.491
 4234SOL    HW213602   2.835   4.486   5.600
 4235SOL     OW13603   6.536   3.802   5.692
 4235SOL    HW113604   6.446   3.823   5.654
 4235SOL    HW213605   6.562   3.709   5.666
 4236SOL     OW13606   1.343   3.414   4.438
 4236SOL    HW113607   1.423   3.412   4.378
 4236SOL    HW213608   1.351   3.489   4.503
 4237SOL     OW13609   5.241   3.541   4.857
 4237SOL    HW113610   5.299   3.597   4.916
 4237SOL    HW213611   5.174   3.492   4.913
 4238SOL     OW13612   4.436   5.175   4.270
 4238SOL    HW113613   4.424   5.161   4.368
 4238SOL    HW213614   4.348   5.162   4.224
 4239SOL     OW13615   5.060   5.437   5.682
 4239SOL    HW113616   5.010   5.517   5.716
 4239SOL    HW213617   5.143   5.467   5.635
 4240SOL     OW13618   2.728   4.887   6.502
 4240SOL    HW113619   2.766   4.906   6.411
 4240SOL    HW213620   2.757   4.797   6.533
 4241SOL     OW13621   3.715   0.787   6.609
 4241SOL    HW113622   3.679   0.823   6.522
 4241SOL    HW213623   3.717   0.687   6.605
 4242SOL     OW13624   1.786   0.451   2.441
 4242SOL    HW113625   1.823   0.372   2.491
 4242SOL    HW213626   1.687   0.454   2.452
 4243SOL     OW13627   1.741   2.795   3.017
 4243SOL    HW113628   1.774   2.884   3.050
 4243SOL    HW213629   1.647   2.781   3.048
 4244SOL     OW13630   3.665   6.594   1.909
 4244SOL    HW113631   3.587   6.550   1.863
 4244SOL    HW213632   3.746   6.585   1.852
 4245SOL     OW13633   6.480   3.600   1.434
 4245SOL    HW113634   6.380   3.609   1.430
 4245SOL    HW213635   6.511   3.618   1.527
 4246SOL     OW13636   4.760   1.741   3.745
 4246SOL    HW113637   4.792   1.767   3.836
 4246SOL    HW213638   4.663   1.765   3.737
 4247SOL     OW13639   1.362   4.935   6.274
 4247SOL    HW113640   1.277   4.971   6.235
 4247SOL    HW213641   1.342   4.852   6.326
 4248SOL     OW13642   1.997   0.778   3.593
 4248SOL    HW113643   2.045   0.795   3.507
 4248SOL    HW213644   1.992   0.864   3.645
 4249SOL     OW13645   6.427   6.959   4.827
 4249SOL    HW113646   6.486   7.004   4.895
 4249SOL    HW213647   6.484   6.923   4.753
 4250SOL     OW13648   0.008   5.447   4.057
 4250SOL    HW113649   0.080   5.442   3.988
 4250SOL    HW213650   0.018   5.370   4.121
 4251SOL     OW13651   6.318   2.598   5.525
 4251SOL    HW113652   6.230   2.599   5.573
 4251SOL    HW213653   6.372   2.677   5.553
 4252SOL     OW13654   6.919   6.894   0.083
 4252SOL    HW113655   6.853   6.847   0.025
 4252SOL    HW213656   7.002   6.912   0.031
 4253SOL     OW13657   4.876   5.456   2.571
 4253SOL    HW113658   4.823   5.470   2.655
 4253SOL    HW213659   4.877   5.540   2.517
 4254SOL     OW13660   1.695   3.157   6.938
 4254SOL    HW113661   1.760   3.163   6.862
 4254SOL    HW213662   1.738   3.195   7.020
 4255SOL     OW13663   1.233   3.288   3.401
 4255SOL    HW113664   1.196   3.287   3.308
 4255SOL    HW213665   1.171   3.339   3.460
 4256SOL     OW13666   0.581   6.266   1.949
 4256SOL    HW113667   0.549   6.253   2.043
 4256SOL    HW213668   0.621   6.357   1.940
 4257SOL     OW13669   6.215   0.187   4.102
 4257SOL    HW113670   6.189   0.092   4.118
 4257SOL    HW213671   6.175   0.244   4.174
 4258SOL     OW13672   3.327   6.023   0.818
 4258SOL    HW113673   3.308   6.082   0.740
 4258SOL    HW213674   3.268   5.942   0.814
 4259SOL     OW13675   1.199   7.010   1.300
 4259SOL    HW113676   1.192   0.032   1.388
 4259SOL    HW213677   1.284   0.012   1.254
 4260SOL     OW13678   5.374   1.401   4.771
 4260SOL    HW113679   5.458   1.371   4.816
 4260SOL    HW213680   5.396   1.461   4.694
 4261SOL     OW13681   2.336   5.998   4.095
 4261SOL    HW113682   2.394   6.047   4.161
 4261SOL    HW213683   2.385   5.988   4.009
 4262SOL     OW13684   2.453   4.181   6.530
 4262SOL    HW113685   2.543   4.186   6.486
 4262SOL    HW213686   2.443   4.093   6.576
 4263SOL     OW13687   2.372   1.025   3.731
 4263SOL    HW113688   2.462   1.045   3.770
 4263SOL    HW213689   2.353   0.927   3.741
 4264SOL     OW13690   5.081   1.529   5.580
 4264SOL    HW113691   5.114   1.585   5.505
 4264SOL    HW213692   5.009   1.468   5.547
 4265SOL     OW13693   2.964   6.747   6.711
 4265SOL    HW113694   2.890   6.758   6.777
 4265SOL    HW213695   2.966   6.826   6.649
 4266SOL     OW13696   1.348   5.438   1.274
 4266SOL    HW113697   1.418   5.509   1.270
 4266SOL    HW213698   1.272   5.462   1.214
 4267SOL     OW13699   1.467   4.465   4.990
 4267SOL    HW113700   1.394   4.462   4.922
 4267SOL    HW213701   1.543   4.407   4.961
 4268SOL     OW13702   1.102   4.204   6.698
 4268SOL    HW113703   1.019   4.171   6.652
 4268SOL    HW213704   1.157   4.257   6.633
 4269SOL     OW13705   2.976   1.229   5.266
 4269SOL    HW113706   2.969   1.324   5.295
 4269SOL    HW213707   2.885   1.194   5.244
 4270SOL     OW13708   3.637   3.263   0.877
 4270SOL    HW113709   3.640   3.234   0.781
 4270SOL    HW213710   3.581   3.199   0.929
 4271SOL     OW13711   0.040   1.072   1.782
 4271SOL    HW113712   0.062   0.999   1.717
 4271SOL    HW213713   6.966   1.070   1.801
 4272SOL     OW13714   0.306   0.996   6.893
 4272SOL    HW113715   0.251   1.071   6.931
 4272SOL    HW213716   0.381   0.975   6.955
 4273SOL     OW13717   3.105   6.221   4.604
 4273SOL    HW113718   3.013   6.182   4.607
 4273SOL    HW213719   3.164   6.174   4.670
 4274SOL     OW13720   6.702   1.543   1.918
 4274SOL    HW113721   6.697   1.568   2.014
 4274SOL    HW213722   6.773   1.473   1.906
 4275SOL     OW13723   7.006   2.549   3.564
 4275SOL    HW113724   0.014   2.618   3.629
 4275SOL    HW213725   6.982   2.466   3.614
 4276SOL     OW13726   2.155   5.786   3.475
 4276SOL    HW113727   2.140   5.687   3.477
 4276SOL    HW213728   2.082   5.832   3.525
 4277SOL     OW13729   5.971   5.640   2.623
 4277SOL    HW113730   5.962   5.615   2.526
 4277SOL    HW213731   5.884   5.678   2.655
 4278SOL     OW13732   1.693   6.737   2.115
 4278SOL    HW113733   1.615   6.796   2.135
 4278SOL    HW213734   1.754   6.732   2.194
 4279SOL     OW13735   1.158   1.488   3.450
 4279SOL    HW113736   1.229   1.505   3.381
 4279SOL    HW213737   1.191   1.420   3.515
 4280SOL     OW13738   1.306   6.788   6.361
 4280SOL    HW113739   1.248   6.715   6.397
 4280SOL    HW213740   1.248   6.867   6.339
 4281SOL     OW13741   5.247   5.734   3.206
 4281SOL    HW113742   5.183   5.787   3.149
 4281SOL    HW213743   5.197   5.664   3.256
 4282SOL     OW13744   3.888   4.490   0.986
 4282SOL    HW113745   3.888   4.582   0.948
 4282SOL    HW213746   3.835   4.430   0.926
 4283SOL     OW13747   4.957   1.288   4.704
 4283SOL    HW113748   4.877   1.227   4.700
 4283SOL    HW213749   5.015   1.272   4.625
 4284SOL     OW13750   4.933   5.278   6.165
 4284SOL    HW113751   4.883   5.276   6.078
 4284SOL    HW213752   4.913   5.195   6.217
 4285SOL     OW13753   3.504   0.791   5.543
 4285SOL    HW113754   3.498   0.696   5.574
 4285SOL    HW213755   3.500   0.793   5.443
 4286SOL     OW13756   5.982   0.514   6.067
 4286SOL    HW113757   5.992   0.415   6.075
 4286SOL    HW213758   5.966   0.539   5.972
 4287SOL     OW13759   4.026   0.055   0.534
 4287SOL    HW113760   3.948   0.045   0.473
 4287SOL    HW213761   4.072   6.991   0.544
 4288SOL     OW13762   6.907   6.458   2.714
 4288SOL    HW113763   6.940   6.417   2.629
 4288SOL    HW213764   6.877   6.552   2.697
 4289SOL     OW13765   0.368   4.288   4.050
 4289SOL    HW113766   0.302   4.360   4.026
 4289SOL    HW213767   0.361   4.267   4.147
 4290SOL     OW13768   0.735   1.494   3.499
 4290SOL    HW113769   0.790   1.552   3.560
 4290SOL    HW213770   0.641   1.493   3.532
 4291SOL     OW13771   4.389   3.457   5.946
 4291SOL    HW113772   4.365   3.525   5.877
 4291SOL    HW213773   4.487   3.438   5.941
 4292SOL     OW13774   6.190   2.211   1.303
 4292SOL    HW113775   6.160   2.126   1.259
 4292SOL    HW213776   6.239   2.189   1.387
 4293SOL     OW13777   4.074   3.672   0.185
 4293SOL    HW113778   4.045   3.659   0.091
 4293SOL    HW213779   3.997   3.702   0.241
 4294SOL     OW13780   1.952   2.339   6.644
 4294SOL    HW113781   1.996   2.383   6.565
 4294SOL    HW213782   1.878   2.281   6.612
 4295SOL     OW13783   3.936   6.175   3.056
 4295SOL    HW113784   3.874   6.160   3.134
 4295SOL    HW213785   3.913   6.111   2.982
 4296SOL     OW13786   3.099   6.734   3.292
 4296SOL    HW113787   3.035   6.658   3.283
 4296SOL    HW213788   3.184   6.711   3.244
 4297SOL     OW13789   5.670   5.083   0.321
 4297SOL    HW113790   5.614   5.018   0.373
 4297SOL    HW213791   5.754   5.037   0.291
 4298SOL     OW13792   1.961   6.656   0.756
 4298SOL    HW113793   1.956   6.593   0.679
 4298SOL    HW213794   2.025   6.730   0.735
 4299SOL     OW13795   0.663   2.808   6.954
 4299SOL    HW113796   0.575   2.835   6.993
 4299SOL    HW213797   0.728   2.884   6.962
 4300SOL     OW13798   2.399   0.733   1.461
 4300SOL    HW113799   2.492   0.760   1.437
 4300SOL    HW213800   2.395   0.704   1.556
 4301SOL     OW13801   2.579   6.394   0.231
 4301SOL    HW113802   2.540   6.457   0.298
 4301SOL    HW213803   2.537   6.304   0.242
 4302SOL     OW13804   2.316   5.695   6.007
 4302SOL    HW113805   2.303   5.794   6.004
 4302SOL    HW213806   2.237   5.650   5.966
 4303SOL     OW13807   5.850   5.545   3.011
 4303SOL    HW113808   5.788   5.537   2.933
 4303SOL    HW213809   5.931   5.489   2.995
 4304SOL     OW13810   3.661   3.580   1.202
 4304SOL    HW113811   3.646   3.567   1.104
 4304SOL    HW213812   3.593   3.643   1.238
 4305SOL     OW13813   1.301   6.694   5.564
 4305SOL    HW113814   1.315   6.630   5.640
 4305SOL    HW213815   1.250   6.649   5.491
 4306SOL     OW13816   5.948   4.212   5.246
 4306SOL    HW113817   6.012   4.136   5.243
 4306SOL    HW213818   5.987   4.288   5.299
 4307SOL     OW13819   0.421   1.391   6.137
 4307SOL    HW113820   0.408   1.465   6.203
 4307SOL    HW213821   0.507   1.406   6.087
 4308SOL     OW13822   4.765   6.007   6.489
 4308SOL    HW113823   4.738   6.088   6.438
 4308SOL    HW213824   4.685   5.971   6.538
 4309SOL     OW13825   0.875   1.828   0.669
 4309SOL    HW113826   0.938   1.768   0.720
 4309SOL    HW213827   0.893   1.819   0.571
 4310SOL     OW13828   6.998   2.256   2.607
 4310SOL    HW113829   0.052   2.317   2.617
 4310SOL    HW213830   6.979   2.213   2.695
 4311SOL     OW13831   0.488   0.271   1.625
 4311SOL    HW113832   0.530   0.192   1.579
 4311SOL    HW213833   0.558   0.323   1.673
 4312SOL     OW13834   6.784   4.947   2.341
 4312SOL    HW113835   6.876   4.916   2.367
 4312SOL    HW213836   6.716   4.897   2.396
 4313SOL     OW13837   0.223   2.964   6.560
 4313SOL    HW113838   0.225   2.865   6.549
 4313SOL    HW213839   0.284   2.990   6.635
 4314SOL     OW13840   0.521   1.094   6.006
 4314SOL    HW113841   0.453   1.141   5.950
 4314SOL    HW213842   0.563   1.021   5.952
 4315SOL     OW13843   2.797   0.984   4.435
 4315SOL    HW113844   2.793   0.890   4.468
 4315SOL    HW213845   2.708   1.027   4.447
 4316SOL     OW13846   5.103   5.967   1.485
 4316SOL    HW113847   5.196   6.001   1.497
 4316SOL    HW213848   5.037   6.039   1.509
 4317SOL     OW13849   4.733   0.875   5.962
 4317SOL    HW113850   4.821   0.842   5.997
 4317SOL    HW213851   4.664   0.872   6.035
 4318SOL     OW13852   0.932   0.081   4.310
 4318SOL    HW113853   1.012   0.037   4.272
 4318SOL    HW213854   0.867   0.102   4.237
 4319SOL     OW13855   1.672   4.868   2.785
 4319SOL    HW113856   1.713   4.863   2.694
 4319SOL    HW213857   1.572   4.859   2.777
 4320SOL     OW13858   3.122   6.857   1.289
 4320SOL    HW113859   3.191   6.870   1.218
 4320SOL    HW213860   3.047   6.801   1.254
 4321SOL     OW13861   6.691   6.666   2.764
 4321SOL    HW113862   6.654   6.580   2.730
 4321SOL    HW213863   6.625   6.739   2.749
 4322SOL     OW13864   1.730   2.710   5.050
 4322SOL    HW113865   1.785   2.729   5.131
 4322SOL    HW213866   1.707   2.796   5.004
 4323SOL     OW13867   4.123   4.850   0.113
 4323SOL    HW113868   4.181   4.837   0.194
 4323SOL    HW213869   4.134   4.943   0.078
 4324SOL     OW13870   0.496   4.350   6.036
 4324SOL    HW113871   0.578   4.385   5.991
 4324SOL    HW213872   0.416   4.363   5.977
 4325SOL     OW13873   2.337   0.817   2.570
 4325SOL    HW113874   2.429   0.837   2.535
 4325SOL    HW213875   2.319   0.718   2.562
 4326SOL     OW13876   5.253   2.093   2.766
 4326SOL    HW113877   5.267   2.014   2.706
 4326SOL    HW213878   5.160   2.128   2.753
 4327SOL     OW13879   2.683   6.119   3.529
 4327SOL    HW113880   2.751   6.061   3.485
 4327SOL    HW213881   2.684   6.210   3.487
 4328SOL     OW13882   6.399   0.117   4.373
 4328SOL    HW113883   6.382   0.026   4.336
 4328SOL    HW213884   6.317   0.173   4.365
 4329SOL     OW13885   0.159   1.749   6.401
 4329SOL    HW113886   0.075   1.696   6.412
 4329SOL    HW213887   0.156   1.830   6.459
 4330SOL     OW13888   3.145   4.959   4.431
 4330SOL    HW113889   3.105   5.051   4.431
 4330SOL    HW213890   3.127   4.915   4.519
 4331SOL     OW13891   5.588   1.082   1.908
 4331SOL    HW113892   5.527   1.008   1.936
 4331SOL    HW213893   5.595   1.150   1.981
 4332SOL     OW13894   0.567   5.519   2.163
 4332SOL    HW113895   0.520   5.547   2.079
 4332SOL    HW213896   0.664   5.506   2.144
 4333SOL     OW13897   3.997   1.989   5.835
 4333SOL    HW113898   3.968   2.085   5.838
 4333SOL    HW213899   3.922   1.931   5.867
 4334SOL     OW13900   6.974   2.910   4.386
 4334SOL    HW113901   6.932   2.828   4.424
 4334SOL    HW213902   6.952   2.989   4.444
 4335SOL     OW13903   2.733   3.748   1.343
 4335SOL    HW113904   2.682   3.676   1.297
 4335SOL    HW213905   2.678   3.785   1.418
 4336SOL     OW13906   2.512   5.651   5.769
 4336SOL    HW113907   2.491   5.595   5.849
 4336SOL    HW213908   2.458   5.619   5.691
 4337SOL     OW13909   1.212   5.158   3.766
 4337SOL    HW113910   1.213   5.256   3.744
 4337SOL    HW213911   1.118   5.128   3.783
 4338SOL     OW13912   3.583   1.385   5.702
 4338SOL    HW113913   3.677   1.371   5.672
 4338SOL    HW213914   3.548   1.470   5.663
 4339SOL     OW13915   4.034   3.802   6.261
 4339SOL    HW113916   4.017   3.838   6.352
 4339SOL    HW213917   4.006   3.706   6.258
 4340SOL     OW13918   6.226   3.989   1.005
 4340SOL    HW113919   6.273   4.036   0.929
 4340SOL    HW213920   6.130   3.976   0.982
 4341SOL     OW13921   6.575   0.006   2.432
 4341SOL    HW113922   6.594   0.065   2.510
 4341SOL    HW213923   6.620   6.941   2.445
 4342SOL     OW13924   5.091   3.787   2.416
 4342SOL    HW113925   5.139   3.776   2.503
 4342SOL    HW213926   5.020   3.856   2.426
 4343SOL     OW13927   4.159   6.575   5.883
 4343SOL    HW113928   4.199   6.542   5.968
 4343SOL    HW213929   4.226   6.631   5.834
 4344SOL     OW13930   6.837   3.361   3.865
 4344SOL    HW113931   6.854   3.435   3.799
 4344SOL    HW213932   6.854   3.273   3.821
 4345SOL     OW13933   3.135   3.164   2.645
 4345SOL    HW113934   3.119   3.247   2.698
 4345SOL    HW213935   3.127   3.185   2.547
 4346SOL     OW13936   1.391   3.267   2.615
 4346SOL    HW113937   1.386   3.186   2.673
 4346SOL    HW213938   1.434   3.243   2.528
 4347SOL     OW13939   6.350   5.864   0.504
 4347SOL    HW113940   6.278   5.851   0.437
 4347SOL    HW213941   6.439   5.855   0.459
 4348SOL     OW13942   5.417   5.058   3.794
 4348SOL    HW113943   5.483   5.109   3.739
 4348SOL    HW213944   5.325   5.072   3.757
 4349SOL     OW13945   0.086   3.702   4.144
 4349SOL    HW113946   0.081   3.769   4.218
 4349SOL    HW213947   0.167   3.645   4.156
 4350SOL     OW13948   3.991   1.481   4.889
 4350SOL    HW113949   3.991   1.503   4.987
 4350SOL    HW213950   3.946   1.393   4.875
 4351SOL     OW13951   1.154   6.024   0.404
 4351SOL    HW113952   1.108   6.084   0.471
 4351SOL    HW213953   1.150   5.930   0.437
 4352SOL     OW13954   3.547   4.306   1.017
 4352SOL    HW113955   3.621   4.365   0.983
 4352SOL    HW213956   3.476   4.298   0.948
 4353SOL     OW13957   2.808   2.721   1.080
 4353SOL    HW113958   2.760   2.674   1.154
 4353SOL    HW213959   2.895   2.757   1.113
 4354SOL     OW13960   5.799   7.022   3.380
 4354SOL    HW113961   5.787   6.960   3.458
 4354SOL    HW213962   5.866   0.068   3.403
 4355SOL     OW13963   1.968   5.622   2.647
 4355SOL    HW113964   2.003   5.541   2.694
 4355SOL    HW213965   1.903   5.594   2.576
 4356SOL     OW13966   5.409   2.463   5.707
 4356SOL    HW113967   5.409   2.552   5.754
 4356SOL    HW213968   5.327   2.455   5.650
 4357SOL     OW13969   5.729   0.494   2.039
 4357SOL    HW113970   5.632   0.517   2.048
 4357SOL    HW213971   5.762   0.453   2.123
 4358SOL     OW13972   2.735   0.008   6.838
 4358SOL    HW113973   2.664   0.073   6.861
 4358SOL    HW213974   2.694   6.943   6.818
 4359SOL     OW13975   2.719   2.000   0.192
 4359SOL    HW113976   2.668   1.948   0.123
 4359SOL    HW213977   2.668   2.000   0.278
 4360SOL     OW13978   1.895   3.911   3.914
 4360SOL    HW113979   1.807   3.936   3.874
 4360SOL    HW213980   1.882   3.884   4.010
 4361SOL     OW13981   6.536   1.761   0.823
 4361SOL    HW113982   6.598   1.691   0.860
 4361SOL    HW213983   6.568   1.789   0.732
 4362SOL     OW13984   0.927   5.577   3.268
 4362SOL    HW113985   0.990   5.654   3.273
 4362SOL    HW213986   0.931   5.526   3.354
 4363SOL     OW13987   4.641   1.008   2.687
 4363SOL    HW113988   4.701   0.964   2.754
 4363SOL    HW213989   4.547   0.976   2.700
 4364SOL     OW13990   4.062   3.510   2.585
 4364SOL    HW113991   4.085   3.607   2.581
 4364SOL    HW213992   3.986   3.497   2.650
 4365SOL     OW13993   2.305   2.031   1.481
 4365SOL    HW113994   2.355   2.116   1.497
 4365SOL    HW213995   2.355   1.975   1.415
 4366SOL     OW13996   4.374   6.079   4.915
 4366SOL    HW113997   4.310   6.011   4.950
 4366SOL    HW213998   4.455   6.034   4.879
 4367SOL     OW13999   2.775   5.558   3.170
 4367SOL    HW114000   2.736   5.553   3.078
 4367SOL    HW214001   2.831   5.640   3.179
 4368SOL     OW14002   4.810   4.251   3.372
 4368SOL    HW114003   4.789   4.249   3.470
 4368SOL    HW214004   4.732   4.289   3.322
 4369SOL     OW14005   4.723   4.706   3.312
 4369SOL    HW114006   4.822   4.705   3.295
 4369SOL    HW214007   4.704   4.762   3.393
 4370SOL     OW14008   3.773   4.546   1.660
 4370SOL    HW114009   3.766   4.454   1.699
 4370SOL    HW214010   3.715   4.608   1.713
 4371SOL     OW14011   2.846   1.798   0.698
 4371SOL    HW114012   2.874   1.786   0.603
 4371SOL    HW214013   2.846   1.895   0.721
 4372SOL     OW14014   1.838   3.177   4.807
 4372SOL    HW114015   1.922   3.169   4.753
 4372SOL    HW214016   1.773   3.234   4.758
 4373SOL     OW14017   3.741   1.334   6.251
 4373SOL    HW114018   3.821   1.309   6.198
 4373SOL    HW214019   3.763   1.411   6.311
 4374SOL     OW14020   2.242   0.395   1.330
 4374SOL    HW114021   2.322   0.444   1.293
 4374SOL    HW214022   2.180   0.461   1.372
 4375SOL     OW14023   4.347   1.597   4.321
 4375SOL    HW114024   4.404   1.517   4.341
 4375SOL    HW214025   4.269   1.568   4.266
 4376SOL     OW14026   1.655   6.307   6.996
 4376SOL    HW114027   1.717   6.369   6.947
 4376SOL    HW214028   1.684   6.213   6.979
 4377SOL     OW14029   5.869   7.001   6.446
 4377SOL    HW114030   5.832   6.915   6.480
 4377SOL    HW214031   5.890   6.992   6.349
 4378SOL     OW14032   2.608   5.516   2.392
 4378SOL    HW114033   2.590   5.605   2.433
 4378SOL    HW214034   2.611   5.446   2.464
 4379SOL     OW14035   1.294   0.481   1.623
 4379SOL    HW114036   1.203   0.507   1.657
 4379SOL    HW214037   1.359   0.555   1.642
 4380SOL     OW14038   2.304   5.192   4.417
 4380SOL    HW114039   2.221   5.225   4.374
 4380SOL    HW214040   2.350   5.267   4.463
 4381SOL     OW14041   4.315   6.202   5.611
 4381SOL    HW114042   4.259   6.144   5.552
 4381SOL    HW214043   4.262   6.231   5.691
 4382SOL     OW14044   4.985   3.675   3.580
 4382SOL    HW114045   5.050   3.743   3.612
 4382SOL    HW214046   4.928   3.714   3.507
 4383SOL     OW14047   1.427   2.463   0.202
 4383SOL    HW114048   1.369   2.516   0.263
 4383SOL    HW214049   1.373   2.429   0.125
 4384SOL     OW14050   3.834   6.322   1.133
 4384SOL    HW114051   3.853   6.375   1.215
 4384SOL    HW214052   3.756   6.363   1.085
 4385SOL     OW14053   6.922   1.745   2.524
 4385SOL    HW114054   6.982   1.825   2.526
 4385SOL    HW214055   6.848   1.756   2.590
 4386SOL     OW14056   1.215   3.947   6.683
 4386SOL    HW114057   1.231   4.045   6.669
 4386SOL    HW214058   1.122   3.934   6.719
 4387SOL     OW14059   6.794   3.073   2.053
 4387SOL    HW114060   6.719   3.089   1.989
 4387SOL    HW214061   6.799   2.975   2.075
 4388SOL     OW14062   3.215   1.390   5.388
 4388SOL    HW114063   3.149   1.411   5.460
 4388SOL    HW214064   3.188   1.438   5.304
 4389SOL     OW14065   4.631   2.422   2.590
 4389SOL    HW114066   4.646   2.325   2.569
 4389SOL    HW214067   4.659   2.440   2.684
 4390SOL     OW14068   4.521   2.526   2.256
 4390SOL    HW114069   4.533   2.563   2.164
 4390SOL    HW214070   4.492   2.599   2.318
 4391SOL     OW14071   0.641   5.823   0.756
 4391SOL    HW114072   0.689   5.856   0.675
 4391SOL    HW214073   0.652   5.889   0.830
 4392SOL     OW14074   5.547   3.454   4.653
 4392SOL    HW114075   5.560   3.460   4.752
 4392SOL    HW214076   5.468   3.510   4.627
 4393SOL     OW14077   4.739   6.673   3.330
 4393SOL    HW114078   4.837   6.692   3.325
 4393SOL    HW214079   4.720   6.619   3.412
 4394SOL     OW14080   4.939   0.952   2.066
 4394SOL    HW114081   4.847   0.974   2.097
 4394SOL    HW214082   4.935   0.890   1.988
 4395SOL     OW14083   4.653   1.733   1.973
 4395SOL    HW114084   4.577   1.787   2.009
 4395SOL    HW214085   4.627   1.637   1.970
 4396SOL     OW14086   1.603   0.857   4.105
 4396SOL    HW114087   1.599   0.799   4.025
 4396SOL    HW214088   1.531   0.831   4.170
 4397SOL     OW14089   6.387   0.894   6.352
 4397SOL    HW114090   6.371   0.851   6.263
 4397SOL    HW214091   6.308   0.951   6.376
 4398SOL     OW14092   6.375   4.797   4.426
 4398SOL    HW114093   6.369   4.784   4.525
 4398SOL    HW214094   6.314   4.732   4.380
 4399SOL     OW14095   2.348   1.687   1.846
 4399SOL    HW114096   2.439   1.682   1.805
 4399SOL    HW214097   2.356   1.721   1.940
 4400SOL     OW14098   3.565   6.088   4.640
 4400SOL    HW114099   3.501   6.164   4.641
 4400SOL    HW214100   3.517   6.003   4.618
 4401SOL     OW14101   5.370   6.449   4.656
 4401SOL    HW114102   5.397   6.542   4.679
 4401SOL    HW214103   5.285   6.450   4.603
 4402SOL     OW14104   6.751   0.504   3.548
 4402SOL    HW114105   6.737   0.532   3.643
 4402SOL    HW214106   6.670   0.458   3.514
 4403SOL     OW14107   0.780   6.885   2.856
 4403SOL    HW114108   0.822   6.964   2.900
 4403SOL    HW214109   0.736   6.913   2.771
 4404SOL     OW14110   1.564   3.990   3.490
 4404SOL    HW114111   1.572   4.052   3.412
 4404SOL    HW214112   1.595   3.899   3.464
 4405SOL     OW14113   3.805   4.398   5.794
 4405SOL    HW114114   3.718   4.350   5.806
 4405SOL    HW214115   3.874   4.358   5.854
 4406SOL     OW14116   5.147   3.836   1.420
 4406SOL    HW114117   5.093   3.903   1.471
 4406SOL    HW214118   5.188   3.880   1.340
 4407SOL     OW14119   6.706   6.718   6.965
 4407SOL    HW114120   6.702   6.646   0.010
 4407SOL    HW214121   6.699   6.677   6.874
 4408SOL     OW14122   4.909   6.069   0.108
 4408SOL    HW114123   4.984   6.029   0.055
 4408SOL    HW214124   4.938   6.156   0.147
 4409SOL     OW14125   3.363   1.409   2.389
 4409SOL    HW114126   3.315   1.458   2.462
 4409SOL    HW214127   3.381   1.473   2.314
 4410SOL     OW14128   2.250   5.487   1.977
 4410SOL    HW114129   2.227   5.583   1.962
 4410SOL    HW214130   2.280   5.446   1.892
 4411SOL     OW14131   3.744   3.252   2.428
 4411SOL    HW114132   3.771   3.156   2.419
 4411SOL    HW214133   3.825   3.310   2.424
 4412SOL     OW14134   3.633   2.208   6.422
 4412SOL    HW114135   3.587   2.126   6.389
 4412SOL    HW214136   3.569   2.262   6.477
 4413SOL     OW14137   3.693   5.573   4.419
 4413SOL    HW114138   3.730   5.654   4.373
 4413SOL    HW214139   3.643   5.601   4.501
 4414SOL     OW14140   3.603   5.197   2.309
 4414SOL    HW114141   3.566   5.113   2.270
 4414SOL    HW214142   3.595   5.193   2.409
 4415SOL     OW14143   5.124   2.692   0.342
 4415SOL    HW114144   5.044   2.634   0.325
 4415SOL    HW214145   5.130   2.762   0.271
 4416SOL     OW14146   4.064   0.811   3.409
 4416SOL    HW114147   4.069   0.764   3.497
 4416SOL    HW214148   4.119   0.894   3.412
 4417SOL     OW14149   0.254   0.276   1.270
 4417SOL    HW114150   0.289   0.369   1.275
 4417SOL    HW214151   0.155   0.277   1.280
 4418SOL     OW14152   3.840   0.056   3.444
 4418SOL    HW114153   3.810   7.008   3.506
 4418SOL    HW214154   3.931   0.088   3.470
 4419SOL     OW14155   0.311   5.368   0.071
 4419SOL    HW114156   0.253   5.416   0.006
 4419SOL    HW214157   0.358   5.292   0.025
 4420SOL     OW14158   4.945   1.186   6.611
 4420SOL    HW114159   4.908   1.115   6.550
 4420SOL    HW214160   5.010   1.144   6.674
 4421SOL     OW14161   2.279   1.442   3.564
 4421SOL    HW114162   2.260   1.354   3.608
 4421SOL    HW214163   2.241   1.442   3.471
 4422SOL     OW14164   2.277   3.769   5.947
 4422SOL    HW114165   2.223   3.749   5.866
 4422SOL    HW214166   2.364   3.719   5.944
 4423SOL     OW14167   0.881   1.743   6.648
 4423SOL    HW114168   0.874   1.770   6.744
 4423SOL    HW214169   0.794   1.757   6.602
 4424SOL     OW14170   0.352   6.836   3.427
 4424SOL    HW114171   0.373   6.907   3.360
 4424SOL    HW214172   0.258   6.803   3.412
 4425SOL     OW14173   4.729   4.282   6.885
 4425SOL    HW114174   4.812   4.230   6.900
 4425SOL    HW214175   4.697   4.267   6.791
 4426SOL     OW14176   0.899   0.683   5.572
 4426SOL    HW114177   0.921   0.600   5.521
 4426SOL    HW214178   0.982   0.720   5.614
 4427SOL     OW14179   0.849   6.994   3.714
 4427SOL    HW114180   0.805   6.915   3.671
 4427SOL    HW214181   0.782   0.021   3.768
 4428SOL     OW14182   3.097   5.884   3.302
 4428SOL    HW114183   3.086   5.825   3.222
 4428SOL    HW214184   3.125   5.829   3.380
 4429SOL     OW14185   4.178   0.048   3.217
 4429SOL    HW114186   4.194   0.146   3.226
 4429SOL    HW214187   4.219   0.016   3.132
 4430SOL     OW14188   1.314   0.880   1.689
 4430SOL    HW114189   1.377   0.958   1.681
 4430SOL    HW214190   1.302   0.837   1.600
 4431SOL     OW14191   1.946   1.972   3.095
 4431SOL    HW114192   1.916   2.006   3.185
 4431SOL    HW214193   2.045   1.964   3.095
 4432SOL     OW14194   2.905   3.559   2.919
 4432SOL    HW114195   2.841   3.634   2.938
 4432SOL    HW214196   2.914   3.501   3.000
 4433SOL     OW14197   6.486   0.446   3.260
 4433SOL    HW114198   6.526   0.451   3.168
 4433SOL    HW214199   6.470   0.538   3.294
 4434SOL     OW14200   5.390   2.269   4.426
 4434SOL    HW114201   5.327   2.233   4.495
 4434SOL    HW214202   5.353   2.354   4.388
 4435SOL     OW14203   3.532   2.864   1.816
 4435SOL    HW114204   3.611   2.806   1.796
 4435SOL    HW214205   3.453   2.807   1.837
 4436SOL     OW14206   5.087   0.730   6.935
 4436SOL    HW114207   5.103   0.691   0.002
 4436SOL    HW214208   5.013   0.681   6.890
 4437SOL     OW14209   3.742   6.809   4.654
 4437SOL    HW114210   3.782   6.890   4.611
 4437SOL    HW214211   3.812   6.761   4.706
 4438SOL     OW14212   3.957   3.520   6.043
 4438SOL    HW114213   3.991   3.427   6.056
 4438SOL    HW214214   3.861   3.524   6.073
 4439SOL     OW14215   2.354   5.392   2.217
 4439SOL    HW114216   2.434   5.444   2.245
 4439SOL    HW214217   2.319   5.427   2.130
 4440SOL     OW14218   0.216   0.736   6.174
 4440SOL    HW114219   0.275   0.736   6.255
 4440SOL    HW214220   0.156   0.656   6.177
 4441SOL     OW14221   5.794   2.487   2.817
 4441SOL    HW114222   5.813   2.423   2.891
 4441SOL    HW214223   5.718   2.453   2.762
 4442SOL     OW14224   2.717   6.664   3.085
 4442SOL    HW114225   2.645   6.625   3.028
 4442SOL    HW214226   2.735   6.758   3.058
 4443SOL     OW14227   2.473   1.738   5.472
 4443SOL    HW114228   2.509   1.811   5.413
 4443SOL    HW214229   2.385   1.766   5.511
 4444SOL     OW14230   5.211   0.702   2.465
 4444SOL    HW114231   5.162   0.617   2.487
 4444SOL    HW214232   5.146   0.778   2.464
 4445SOL     OW14233   1.667   1.192   6.519
 4445SOL    HW114234   1.677   1.230   6.610
 4445SOL    HW214235   1.573   1.205   6.487
 4446SOL     OW14236   6.676   6.244   3.986
 4446SOL    HW114237   6.668   6.234   4.085
 4446SOL    HW214238   6.654   6.337   3.959
 4447SOL     OW14239   4.990   3.263   5.184
 4447SOL    HW114240   5.046   3.297   5.260
 4447SOL    HW214241   4.918   3.329   5.164
 4448SOL     OW14242   2.741   2.915   6.205
 4448SOL    HW114243   2.762   2.922   6.303
 4448SOL    HW214244   2.794   2.839   6.166
 4449SOL     OW14245   0.990   1.552   5.264
 4449SOL    HW114246   1.042   1.636   5.267
 4449SOL    HW214247   0.892   1.573   5.255
 4450SOL     OW14248   3.831   4.015   3.414
 4450SOL    HW114249   3.762   4.045   3.480
 4450SOL    HW214250   3.785   3.983   3.331
 4451SOL     OW14251   6.195   4.419   2.317
 4451SOL    HW114252   6.238   4.493   2.369
 4451SOL    HW214253   6.240   4.409   2.229
 4452SOL     OW14254   6.330   5.592   6.356
 4452SOL    HW114255   6.397   5.593   6.430
 4452SOL    HW214256   6.361   5.532   6.283
 4453SOL     OW14257   5.567   1.782   1.525
 4453SOL    HW114258   5.664   1.765   1.541
 4453SOL    HW214259   5.543   1.756   1.432
 4454SOL     OW14260   5.123   3.335   1.576
 4454SOL    HW114261   5.094   3.339   1.672
 4454SOL    HW214262   5.146   3.427   1.544
 4455SOL     OW14263   4.192   1.583   1.829
 4455SOL    HW114264   4.254   1.507   1.806
 4455SOL    HW214265   4.100   1.548   1.845
 4456SOL     OW14266   0.768   5.740   3.094
 4456SOL    HW114267   0.673   5.746   3.123
 4456SOL    HW214268   0.825   5.713   3.172
 4457SOL     OW14269   5.214   2.018   6.496
 4457SOL    HW114270   5.168   2.101   6.464
 4457SOL    HW214271   5.313   2.033   6.498
 4458SOL     OW14272   3.739   1.651   6.220
 4458SOL    HW114273   3.652   1.700   6.214
 4458SOL    HW214274   3.797   1.678   6.143
 4459SOL     OW14275   4.802   6.016   5.293
 4459SOL    HW114276   4.868   6.082   5.257
 4459SOL    HW214277   4.730   6.000   5.226
 4460SOL     OW14278   1.842   1.697   6.347
 4460SOL    HW114279   1.930   1.716   6.303
 4460SOL    HW214280   1.857   1.684   6.446
 4461SOL     OW14281   2.338   0.314   1.886
 4461SOL    HW114282   2.410   0.277   1.827
 4461SOL    HW214283   2.303   0.399   1.846
 4462SOL     OW14284   6.685   5.678   1.720
 4462SOL    HW114285   6.673   5.579   1.714
 4462SOL    HW214286   6.746   5.700   1.795
 4463SOL     OW14287   1.714   3.527   6.057
 4463SOL    HW114288   1.771   3.472   5.996
 4463SOL    HW214289   1.618   3.506   6.042
 4464SOL     OW14290   5.851   3.313   6.479
 4464SOL    HW114291   5.829   3.377   6.553
 4464SOL    HW214292   5.856   3.221   6.517
 4465SOL     OW14293   1.300   6.162   2.461
 4465SOL    HW114294   1.313   6.079   2.407
 4465SOL    HW214295   1.204   6.169   2.489
 4466SOL     OW14296   0.569   2.447   3.718
 4466SOL    HW114297   0.540   2.522   3.660
 4466SOL    HW214298   0.505   2.371   3.710
 4467SOL     OW14299   1.024   6.847   3.148
 4467SOL    HW114300   0.992   6.927   3.097
 4467SOL    HW214301   0.978   6.842   3.236
 4468SOL     OW14302   1.654   2.803   0.491
 4468SOL    HW114303   1.744   2.761   0.481
 4468SOL    HW214304   1.663   2.903   0.492
 4469SOL     OW14305   4.456   0.264   0.168
 4469SOL    HW114306   4.440   0.357   0.135
 4469SOL    HW214307   4.421   0.256   0.262
 4470SOL     OW14308   4.766   4.515   1.346
 4470SOL    HW114309   4.666   4.517   1.349
 4470SOL    HW214310   4.797   4.519   1.251
 4471SOL     OW14311   6.467   3.550   0.457
 4471SOL    HW114312   6.422   3.626   0.504
 4471SOL    HW214313   6.499   3.580   0.367
 4472SOL     OW14314   1.756   4.817   1.637
 4472SOL    HW114315   1.675   4.777   1.592
 4472SOL    HW214316   1.835   4.757   1.622
 4473SOL     OW14317   0.567   6.622   5.552
 4473SOL    HW114318   0.649   6.630   5.609
 4473SOL    HW214319   0.593   6.599   5.459
 4474SOL     OW14320   5.303   0.764   3.529
 4474SOL    HW114321   5.269   0.689   3.584
 4474SOL    HW214322   5.348   0.728   3.446
 4475SOL     OW14323   1.721   4.234   0.392
 4475SOL    HW114324   1.816   4.247   0.420
 4475SOL    HW214325   1.674   4.322   0.391
 4476SOL     OW14326   4.646   6.696   1.922
 4476SOL    HW114327   4.617   6.631   1.993
 4476SOL    HW214328   4.742   6.679   1.900
 4477SOL     OW14329   1.293   1.270   0.463
 4477SOL    HW114330   1.387   1.292   0.492
 4477SOL    HW214331   1.286   1.282   0.364
 4478SOL     OW14332   1.650   5.385   2.279
 4478SOL    HW114333   1.643   5.289   2.308
 4478SOL    HW214334   1.560   5.417   2.247
 4479SOL     OW14335   0.555   0.227   4.996
 4479SOL    HW114336   0.505   0.250   5.079
 4479SOL    HW214337   0.557   0.127   4.985
 4480SOL     OW14338   0.766   4.697   3.264
 4480SOL    HW114339   0.760   4.599   3.280
 4480SOL    HW214340   0.729   4.746   3.343
 4481SOL     OW14341   1.165   0.197   4.481
 4481SOL    HW114342   1.219   0.234   4.405
 4481SOL    HW214343   1.077   0.165   4.446
 4482SOL     OW14344   6.731   4.119   3.784
 4482SOL    HW114345   6.707   4.114   3.881
 4482SOL    HW214346   6.828   4.143   3.774
 4483SOL     OW14347   5.344   2.330   2.120
 4483SOL    HW114348   5.351   2.243   2.072
 4483SOL    HW214349   5.293   2.396   2.065
 4484SOL     OW14350   4.113   2.456   5.648
 4484SOL    HW114351   4.029   2.467   5.594
 4484SOL    HW214352   4.184   2.413   5.591
 4485SOL     OW14353   5.228   1.410   6.574
 4485SOL    HW114354   5.163   1.421   6.650
 4485SOL    HW214355   5.214   1.484   6.508
 4486SOL     OW14356   6.379   2.439   4.413
 4486SOL    HW114357   6.455   2.406   4.470
 4486SOL    HW214358   6.409   2.444   4.318
 4487SOL     OW14359   3.164   3.211   6.493
 4487SOL    HW114360   3.230   3.184   6.563
 4487SOL    HW214361   3.205   3.200   6.403
 4488SOL     OW14362   0.746   1.606   5.390
 4488SOL    HW114363   0.677   1.659   5.342
 4488SOL    HW214364   0.729   1.508   5.375
 4489SOL     OW14365   6.210   0.284   3.722
 4489SOL    HW114366   6.216   0.196   3.769
 4489SOL    HW214367   6.302   0.325   3.717
 4490SOL     OW14368   6.865   2.112   3.786
 4490SOL    HW114369   6.868   2.117   3.886
 4490SOL    HW214370   6.944   2.061   3.753
 4491SOL     OW14371   1.566   3.163   2.836
 4491SOL    HW114372   1.632   3.189   2.765
 4491SOL    HW214373   1.520   3.245   2.871
 4492SOL     OW14374   4.769   3.527   6.528
 4492SOL    HW114375   4.774   3.540   6.429
 4492SOL    HW214376   4.834   3.457   6.557
 4493SOL     OW14377   5.902   5.049   3.769
 4493SOL    HW114378   5.872   5.000   3.688
 4493SOL    HW214379   5.823   5.084   3.819
 4494SOL     OW14380   6.023   3.745   3.838
 4494SOL    HW114381   5.981   3.762   3.749
 4494SOL    HW214382   6.093   3.675   3.828
 4495SOL     OW14383   4.835   6.264   1.113
 4495SOL    HW114384   4.769   6.328   1.152
 4495SOL    HW214385   4.835   6.273   1.013
 4496SOL     OW14386   5.046   4.381   5.570
 4496SOL    HW114387   4.983   4.303   5.565
 4496SOL    HW214388   5.007   4.451   5.630
 4497SOL     OW14389   6.059   5.012   0.687
 4497SOL    HW114390   6.156   5.028   0.666
 4497SOL    HW214391   6.003   5.066   0.625
 4498SOL     OW14392   0.068   4.018   6.918
 4498SOL    HW114393   0.131   3.956   6.872
 4498SOL    HW214394   0.042   3.979   7.006
 4499SOL     OW14395   6.877   3.014   6.421
 4499SOL    HW114396   6.895   2.955   6.342
 4499SOL    HW214397   6.854   2.957   6.500
 4500SOL     OW14398   3.579   4.195   4.372
 4500SOL    HW114399   3.593   4.293   4.386
 4500SOL    HW214400   3.556   4.179   4.276
 4501SOL     OW14401   0.715   4.226   4.889
 4501SOL    HW114402   0.731   4.280   4.806
 4501SOL    HW214403   0.699   4.131   4.865
 4502SOL     OW14404   0.080   3.420   0.387
 4502SOL    HW114405   0.089   3.502   0.443
 4502SOL    HW214406   0.155   3.357   0.409
 4503SOL     OW14407   1.697   1.831   3.504
 4503SOL    HW114408   1.624   1.831   3.437
 4503SOL    HW214409   1.684   1.906   3.568
 4504SOL     OW14410   4.997   2.301   4.845
 4504SOL    HW114411   4.945   2.277   4.927
 4504SOL    HW214412   4.934   2.310   4.768
 4505SOL     OW14413   1.703   5.327   5.889
 4505SOL    HW114414   1.673   5.414   5.928
 4505SOL    HW214415   1.675   5.322   5.793
 4506SOL     OW14416   3.963   0.379   5.397
 4506SOL    HW114417   3.925   0.470   5.413
 4506SOL    HW214418   4.041   0.385   5.335
 4507SOL     OW14419   6.380   4.270   0.678
 4507SOL    HW114420   6.322   4.192   0.702
 4507SOL    HW214421   6.452   4.280   0.747
 4508SOL     OW14422   1.443   3.645   0.600
 4508SOL    HW114423   1.418   3.558   0.644
 4508SOL    HW214424   1.530   3.634   0.551
 4509SOL     OW14425   1.510   1.512   3.788
 4509SOL    HW114426   1.535   1.588   3.849
 4509SOL    HW214427   1.591   1.479   3.740
 4510SOL     OW14428   4.071   6.425   5.122
 4510SOL    HW114429   4.053   6.377   5.207
 4510SOL    HW214430   4.020   6.512   5.122
 4511SOL     OW14431   6.110   2.498   0.142
 4511SOL    HW114432   6.076   2.404   0.135
 4511SOL    HW214433   6.072   2.541   0.224
 4512SOL     OW14434   2.648   5.231   6.915
 4512SOL    HW114435   2.610   5.143   6.887
 4512SOL    HW214436   2.590   5.271   6.986
 4513SOL     OW14437   5.004   0.792   1.866
 4513SOL    HW114438   5.046   0.734   1.935
 4513SOL    HW214439   5.052   0.782   1.779
 4514SOL     OW14440   3.636   1.338   4.940
 4514SOL    HW114441   3.682   1.392   5.010
 4514SOL    HW214442   3.574   1.273   4.984
 4515SOL     OW14443   0.640   4.847   1.214
 4515SOL    HW114444   0.554   4.881   1.251
 4515SOL    HW214445   0.677   4.776   1.274
 4516SOL     OW14446   1.144   0.355   4.987
 4516SOL    HW114447   1.060   0.351   4.933
 4516SOL    HW214448   1.166   0.451   5.007
 4517SOL     OW14449   3.592   6.820   5.192
 4517SOL    HW114450   3.614   6.777   5.279
 4517SOL    HW214451   3.652   6.899   5.178
 4518SOL     OW14452   1.182   1.802   4.514
 4518SOL    HW114453   1.154   1.780   4.421
 4518SOL    HW214454   1.106   1.843   4.564
 4519SOL     OW14455   6.413   2.729   4.005
 4519SOL    HW114456   6.316   2.706   4.010
 4519SOL    HW214457   6.423   2.826   3.987
 4520SOL     OW14458   6.938   3.962   2.881
 4520SOL    HW114459   7.019   4.006   2.843
 4520SOL    HW214460   6.960   3.868   2.907
 4521SOL     OW14461   6.097   2.181   6.453
 4521SOL    HW114462   6.091   2.259   6.516
 4521SOL    HW214463   6.169   2.120   6.484
 4522SOL     OW14464   5.894   0.788   3.962
 4522SOL    HW114465   5.799   0.780   3.992
 4522SOL    HW214466   5.953   0.806   4.041
 4523SOL     OW14467   3.801   3.429   0.101
 4523SOL    HW114468   3.803   3.478   0.188
 4523SOL    HW214469   3.818   3.332   0.116
 4524SOL     OW14470   5.952   0.059   4.950
 4524SOL    HW114471   6.022   0.036   4.883
 4524SOL    HW214472   5.921   0.153   4.935
 4525SOL     OW14473   6.791   1.593   5.004
 4525SOL    HW114474   6.706   1.554   4.970
 4525SOL    HW214475   6.795   1.585   5.103
 4526SOL     OW14476   4.208   0.707   1.111
 4526SOL    HW114477   4.158   0.793   1.100
 4526SOL    HW214478   4.163   0.636   1.056
 4527SOL     OW14479   4.672   1.096   2.999
 4527SOL    HW114480   4.606   1.142   2.939
 4527SOL    HW214481   4.664   1.134   3.092
 4528SOL     OW14482   6.193   0.664   6.691
 4528SOL    HW114483   6.136   0.608   6.632
 4528SOL    HW214484   6.175   0.761   6.673
 4529SOL     OW14485   3.544   6.334   2.858
 4529SOL    HW114486   3.564   6.236   2.861
 4529SOL    HW214487   3.558   6.368   2.765
 4530SOL     OW14488   0.610   3.513   5.755
 4530SOL    HW114489   0.659   3.444   5.701
 4530SOL    HW214490   0.593   3.477   5.846
 4531SOL     OW14491   0.057   3.743   3.880
 4531SOL    HW114492   0.122   3.776   3.811
 4531SOL    HW214493   0.096   3.755   3.971
 4532SOL     OW14494   5.752   1.792   1.209
 4532SOL    HW114495   5.753   1.881   1.254
 4532SOL    HW214496   5.767   1.720   1.277
 4533SOL     OW14497   2.598   6.193   2.835
 4533SOL    HW114498   2.524   6.239   2.885
 4533SOL    HW214499   2.666   6.260   2.808
 4534SOL     OW14500   5.853   4.192   5.695
 4534SOL    HW114501   5.839   4.159   5.601
 4534SOL    HW214502   5.787   4.263   5.716
 4535SOL     OW14503   4.967   2.902   1.821
 4535SOL    HW114504   5.043   2.966   1.832
 4535SOL    HW214505   4.888   2.934   1.875
 4536SOL     OW14506   6.489   1.310   4.299
 4536SOL    HW114507   6.468   1.217   4.267
 4536SOL    HW214508   6.507   1.308   4.397
 4537SOL     OW14509   3.640   2.895   6.169
 4537SOL    HW114510   3.560   2.866   6.221
 4537SOL    HW214511   3.634   2.859   6.076
 4538SOL     OW14512   2.967   1.140   2.895
 4538SOL    HW114513   2.880   1.092   2.888
 4538SOL    HW214514   3.027   1.090   2.959
 4539SOL     OW14515   1.833   1.558   2.710
 4539SOL    HW114516   1.835   1.632   2.778
 4539SOL    HW214517   1.815   1.596   2.620
 4540SOL     OW14518   3.485   2.883   4.482
 4540SOL    HW114519   3.539   2.871   4.565
 4540SOL    HW214520   3.459   2.793   4.446
 4541SOL     OW14521   5.124   1.503   1.322
 4541SOL    HW114522   5.212   1.456   1.317
 4541SOL    HW214523   5.075   1.474   1.405
 4542SOL     OW14524   4.708   0.395   3.188
 4542SOL    HW114525   4.746   0.379   3.096
 4542SOL    HW214526   4.714   0.492   3.210
 4543SOL     OW14527   5.241   1.690   1.943
 4543SOL    HW114528   5.146   1.702   1.970
 4543SOL    HW214529   5.253   1.723   1.849
 4544SOL     OW14530   3.573   4.917   6.303
 4544SOL    HW114531   3.550   4.896   6.208
 4544SOL    HW214532   3.585   5.016   6.314
 4545SOL     OW14533   4.355   2.345   5.518
 4545SOL    HW114534   4.435   2.399   5.545
 4545SOL    HW214535   4.359   2.326   5.420
 4546SOL     OW14536   1.580   6.675   5.996
 4546SOL    HW114537   1.643   6.751   5.980
 4546SOL    HW214538   1.488   6.710   6.011
 4547SOL     OW14539   4.755   2.079   2.194
 4547SOL    HW114540   4.665   2.058   2.233
 4547SOL    HW214541   4.751   2.168   2.148
 4548SOL     OW14542   0.825   3.206   3.743
 4548SOL    HW114543   0.837   3.177   3.648
 4548SOL    HW214544   0.854   3.133   3.805
 4549SOL     OW14545   5.980   2.676   2.409
 4549SOL    HW114546   5.965   2.579   2.431
 4549SOL    HW214547   6.043   2.684   2.332
 4550SOL     OW14548   1.156   5.883   4.256
 4550SOL    HW114549   1.118   5.804   4.304
 4550SOL    HW214550   1.235   5.854   4.202
 4551SOL     OW14551   1.065   3.134   5.763
 4551SOL    HW114552   1.040   3.091   5.850
 4551SOL    HW214553   1.037   3.230   5.765
 4552SOL     OW14554   0.216   3.368   4.602
 4552SOL    HW114555   0.171   3.367   4.512
 4552SOL    HW214556   0.293   3.432   4.600
 4553SOL     OW14557   4.922   4.772   0.359
 4553SOL    HW114558   4.846   4.723   0.316
 4553SOL    HW214559   4.996   4.708   0.377
 4554SOL     OW14560   5.341   7.001   2.545
 4554SOL    HW114561   5.437   7.010   2.517
 4554SOL    HW214562   5.288   6.961   2.471
 4555SOL     OW14563   5.474   1.864   0.005
 4555SOL    HW114564   5.449   1.790   6.967
 4555SOL    HW214565   5.393   1.891   0.058
 4556SOL     OW14566   4.804   1.161   3.918
 4556SOL    HW114567   4.770   1.069   3.938
 4556SOL    HW214568   4.799   1.177   3.820
 4557SOL     OW14569   4.959   0.137   5.417
 4557SOL    HW114570   4.958   0.099   5.510
 4557SOL    HW214571   5.033   0.094   5.364
 4558SOL     OW14572   6.373   2.807   6.256
 4558SOL    HW114573   6.398   2.780   6.349
 4558SOL    HW214574   6.331   2.898   6.257
 4559SOL     OW14575   1.266   6.803   1.028
 4559SOL    HW114576   1.357   6.840   1.006
 4559SOL    HW214577   1.199   6.877   1.025
 4560SOL     OW14578   4.889   3.486   2.832
 4560SOL    HW114579   4.847   3.567   2.789
 4560SOL    HW214580   4.899   3.414   2.763
 4561SOL     OW14581   3.167   0.066   6.709
 4561SOL    HW114582   3.163   0.023   6.800
 4561SOL    HW214583   3.240   0.135   6.709
 4562SOL     OW14584   3.009   4.958   6.331
 4562SOL    HW114585   2.918   4.964   6.290
 4562SOL    HW214586   3.050   5.049   6.334
 4563SOL     OW14587   6.159   2.402   6.651
 4563SOL    HW114588   6.192   2.413   6.745
 4563SOL    HW214589   6.205   2.468   6.591
 4564SOL     OW14590   1.591   5.525   0.116
 4564SOL    HW114591   1.530   5.448   0.136
 4564SOL    HW214592   1.537   5.609   0.110
 4565SOL     OW14593   2.664   0.248   5.214
 4565SOL    HW114594   2.577   0.249   5.165
 4565SOL    HW214595   2.722   0.323   5.181
 4566SOL     OW14596   0.067   1.897   6.745
 4566SOL    HW114597   0.161   1.900   6.779
 4566SOL    HW214598   0.040   1.989   6.715
 4567SOL     OW14599   0.260   1.151   0.643
 4567SOL    HW114600   0.300   1.080   0.701
 4567SOL    HW214601   0.307   1.238   0.659
 4568SOL     OW14602   3.762   4.597   5.310
 4568SOL    HW114603   3.744   4.612   5.407
 4568SOL    HW214604   3.759   4.684   5.262
 4569SOL     OW14605   0.415   2.020   4.715
 4569SOL    HW114606   0.380   2.035   4.807
 4569SOL    HW214607   0.495   2.078   4.699
 4570SOL     OW14608   0.477   5.082   3.963
 4570SOL    HW114609   0.560   5.137   3.966
 4570SOL    HW214610   0.426   5.102   3.879
 4571SOL     OW14611   3.644   2.880   4.711
 4571SOL    HW114612   3.602   2.877   4.801
 4571SOL    HW214613   3.742   2.896   4.719
 4572SOL     OW14614   1.722   5.898   0.999
 4572SOL    HW114615   1.697   5.952   0.918
 4572SOL    HW214616   1.819   5.874   0.993
 4573SOL     OW14617   5.069   0.022   0.902
 4573SOL    HW114618   5.068   0.122   0.910
 4573SOL    HW214619   5.157   7.016   0.865
 4574SOL     OW14620   0.405   4.487   2.499
 4574SOL    HW114621   0.366   4.408   2.546
 4574SOL    HW214622   0.434   4.460   2.407
 4575SOL     OW14623   6.123   0.098   2.750
 4575SOL    HW114624   6.142   0.002   2.771
 4575SOL    HW214625   6.029   0.119   2.774
 4576SOL     OW14626   2.972   5.813   5.242
 4576SOL    HW114627   2.963   5.910   5.265
 4576SOL    HW214628   2.931   5.795   5.153
 4577SOL     OW14629   0.825   2.949   3.430
 4577SOL    HW114630   0.861   3.037   3.460
 4577SOL    HW214631   0.894   2.900   3.378
 4578SOL     OW14632   6.416   4.052   4.087
 4578SOL    HW114633   6.513   4.069   4.104
 4578SOL    HW214634   6.378   3.999   4.162
 4579SOL     OW14635   5.540   1.798   4.003
 4579SOL    HW114636   5.585   1.862   3.941
 4579SOL    HW214637   5.478   1.739   3.951
 4580SOL     OW14638   6.928   5.786   0.705
 4580SOL    HW114639   7.013   5.739   0.727
 4580SOL    HW214640   6.851   5.733   0.738
 4581SOL     OW14641   3.406   5.722   2.864
 4581SOL    HW114642   3.396   5.710   2.765
 4581SOL    HW214643   3.391   5.818   2.888
 4582SOL     OW14644   4.544   6.542   2.134
 4582SOL    HW114645   4.549   6.572   2.229
 4582SOL    HW214646   4.449   6.547   2.102
 4583SOL     OW14647   4.563   1.482   5.670
 4583SOL    HW114648   4.492   1.549   5.693
 4583SOL    HW214649   4.521   1.393   5.656
 4584SOL     OW14650   0.545   5.321   5.580
 4584SOL    HW114651   0.472   5.258   5.608
 4584SOL    HW214652   0.507   5.412   5.564
 4585SOL     OW14653   4.151   6.507   2.430
 4585SOL    HW114654   4.082   6.579   2.444
 4585SOL    HW214655   4.238   6.537   2.470
 4586SOL     OW14656   3.492   5.177   2.588
 4586SOL    HW114657   3.408   5.217   2.552
 4586SOL    HW214658   3.480   5.079   2.600
 4587SOL     OW14659   2.179   4.256   1.551
 4587SOL    HW114660   2.117   4.289   1.480
 4587SOL    HW214661   2.264   4.223   1.509
 4588SOL     OW14662   4.333   3.765   5.263
 4588SOL    HW114663   4.267   3.742   5.192
 4588SOL    HW214664   4.304   3.850   5.308
 4589SOL     OW14665   6.659   2.194   4.746
 4589SOL    HW114666   6.606   2.135   4.807
 4589SOL    HW214667   6.696   2.140   4.671
 4590SOL     OW14668   4.862   5.662   2.395
 4590SOL    HW114669   4.946   5.709   2.371
 4590SOL    HW214670   4.797   5.727   2.433
 4591SOL     OW14671   5.584   5.918   5.501
 4591SOL    HW114672   5.585   5.938   5.599
 4591SOL    HW214673   5.547   5.826   5.486
 4592SOL     OW14674   3.978   1.899   6.147
 4592SOL    HW114675   3.882   1.927   6.138
 4592SOL    HW214676   4.038   1.978   6.133
 4593SOL     OW14677   3.840   5.813   2.721
 4593SOL    HW114678   3.783   5.735   2.696
 4593SOL    HW214679   3.827   5.835   2.818
 4594SOL     OW14680   2.781   0.984   2.054
 4594SOL    HW114681   2.834   0.918   2.107
 4594SOL    HW214682   2.751   0.942   1.969
 4595SOL     OW14683   3.993   2.261   5.857
 4595SOL    HW114684   3.914   2.296   5.907
 4595SOL    HW214685   4.025   2.330   5.792
 4596SOL     OW14686   5.859   0.145   1.576
 4596SOL    HW114687   5.788   0.179   1.638
 4596SOL    HW214688   5.831   0.164   1.482
 4597SOL     OW14689   6.317   4.782   6.699
 4597SOL    HW114690   6.258   4.721   6.752
 4597SOL    HW214691   6.334   4.865   6.752
 4598SOL     OW14692   2.587   4.959   6.871
 4598SOL    HW114693   2.510   4.966   6.808
 4598SOL    HW214694   2.629   4.868   6.863
 4599SOL     OW14695   1.266   4.526   0.442
 4599SOL    HW114696   1.298   4.620   0.457
 4599SOL    HW214697   1.213   4.496   0.521
 4600SOL     OW14698   3.066   5.662   1.363
 4600SOL    HW114699   3.156   5.706   1.371
 4600SOL    HW214700   2.997   5.722   1.404
 4601SOL     OW14701   2.042   6.537   5.003
 4601SOL    HW114702   1.950   6.545   4.966
 4601SOL    HW214703   2.109   6.561   4.933
 4602SOL     OW14704   1.795   0.498   1.127
 4602SOL    HW114705   1.855   0.578   1.135
 4602SOL    HW214706   1.703   0.522   1.157
 4603SOL     OW14707   3.638   6.814   1.712
 4603SOL    HW114708   3.604   6.804   1.619
 4603SOL    HW214709   3.600   6.740   1.769
 4604SOL     OW14710   3.579   6.621   2.373
 4604SOL    HW114711   3.516   6.699   2.362
 4604SOL    HW214712   3.534   6.550   2.427
 4605SOL     OW14713   5.080   6.929   4.936
 4605SOL    HW114714   5.067   6.979   5.022
 4605SOL    HW214715   4.995   6.930   4.884
 4606SOL     OW14716   6.927   6.245   5.368
 4606SOL    HW114717   6.973   6.290   5.291
 4606SOL    HW214718   6.858   6.307   5.406
 4607SOL     OW14719   2.811   2.175   0.952
 4607SOL    HW114720   2.868   2.138   1.025
 4607SOL    HW214721   2.759   2.253   0.987
 4608SOL     OW14722   1.585   3.726   5.718
 4608SOL    HW114723   1.516   3.655   5.722
 4608SOL    HW214724   1.676   3.685   5.724
 4609SOL     OW14725   4.523   6.590   6.288
 4609SOL    HW114726   4.451   6.656   6.267
 4609SOL    HW214727   4.594   6.635   6.344
 4610SOL     OW14728   0.734   3.184   6.435
 4610SOL    HW114729   0.725   3.096   6.482
 4610SOL    HW214730   0.658   3.195   6.371
 4611SOL     OW14731   0.736   3.997   7.006
 4611SOL    HW114732   0.746   4.072   6.941
 4611SOL    HW214733   0.732   4.033   0.075
 4612SOL     OW14734   2.113   0.289   6.626
 4612SOL    HW114735   2.124   0.268   6.723
 4612SOL    HW214736   2.200   0.320   6.588
 4613SOL     OW14737   3.093   5.160   2.035
 4613SOL    HW114738   3.144   5.074   2.043
 4613SOL    HW214739   3.061   5.189   2.125
 4614SOL     OW14740   1.673   5.624   6.861
 4614SOL    HW114741   1.610   5.698   6.841
 4614SOL    HW214742   1.729   5.648   6.940
 4615SOL     OW14743   0.169   2.517   0.392
 4615SOL    HW114744   0.143   2.495   0.298
 4615SOL    HW214745   0.164   2.434   0.448
 4616SOL     OW14746   5.826   1.063   6.691
 4616SOL    HW114747   5.742   1.022   6.656
 4616SOL    HW214748   5.829   1.159   6.664
 4617SOL     OW14749   0.151   2.928   2.341
 4617SOL    HW114750   0.161   3.026   2.326
 4617SOL    HW214751   0.055   2.902   2.328
 4618SOL     OW14752   0.875   2.268   5.983
 4618SOL    HW114753   0.859   2.224   5.894
 4618SOL    HW214754   0.869   2.200   6.056
 4619SOL     OW14755   3.543   0.562   3.803
 4619SOL    HW114756   3.538   0.543   3.901
 4619SOL    HW214757   3.637   0.556   3.772
 4620SOL     OW14758   2.124   3.928   6.584
 4620SOL    HW114759   2.109   4.014   6.631
 4620SOL    HW214760   2.221   3.904   6.588
 4621SOL     OW14761   0.302   5.957   6.206
 4621SOL    HW114762   0.323   5.867   6.243
 4621SOL    HW214763   0.202   5.968   6.200
 4622SOL     OW14764   2.281   3.680   1.223
 4622SOL    HW114765   2.189   3.642   1.238
 4622SOL    HW214766   2.281   3.777   1.249
 4623SOL     OW14767   5.935   4.482   2.273
 4623SOL    HW114768   6.000   4.414   2.305
 4623SOL    HW214769   5.970   4.525   2.190
 4624SOL     OW14770   4.784   6.679   4.903
 4624SOL    HW114771   4.730   6.612   4.851
 4624SOL    HW214772   4.722   6.740   4.953
 4625SOL     OW14773   0.910   3.471   6.871
 4625SOL    HW114774   0.986   3.516   6.823
 4625SOL    HW214775   0.881   3.528   6.948
 4626SOL     OW14776   6.104   4.971   1.551
 4626SOL    HW114777   6.184   4.974   1.491
 4626SOL    HW214778   6.122   5.025   1.634
 4627SOL     OW14779   2.990   6.973   6.568
 4627SOL    HW114780   3.059   0.008   6.610
 4627SOL    HW214781   2.900   7.016   6.579
 4628SOL     OW14782   0.268   3.948   1.683
 4628SOL    HW114783   0.170   3.949   1.703
 4628SOL    HW214784   0.319   3.926   1.766
 4629SOL     OW14785   2.692   4.973   5.481
 4629SOL    HW114786   2.760   4.938   5.417
 4629SOL    HW214787   2.640   4.898   5.519
 4630SOL     OW14788   1.888   6.851   2.814
 4630SOL    HW114789   1.886   6.751   2.806
 4630SOL    HW214790   1.917   6.875   2.907
 4631SOL     OW14791   2.977   6.972   2.232
 4631SOL    HW114792   2.988   6.875   2.256
 4631SOL    HW214793   2.989   6.983   2.134
 4632SOL     OW14794   5.074   5.528   4.084
 4632SOL    HW114795   4.990   5.497   4.129
 4632SOL    HW214796   5.087   5.478   3.999
 4633SOL     OW14797   6.400   2.207   5.006
 4633SOL    HW114798   6.365   2.230   5.097
 4633SOL    HW214799   6.423   2.291   4.957
 4634SOL     OW14800   3.139   4.351   0.524
 4634SOL    HW114801   3.089   4.266   0.511
 4634SOL    HW214802   3.234   4.339   0.493
 4635SOL     OW14803   5.426   3.944   1.567
 4635SOL    HW114804   5.507   3.892   1.540
 4635SOL    HW214805   5.345   3.903   1.527
 4636SOL     OW14806   2.138   5.115   0.463
 4636SOL    HW114807   2.173   5.034   0.509
 4636SOL    HW214808   2.040   5.123   0.480
 4637SOL     OW14809   1.323   1.055   5.113
 4637SOL    HW114810   1.391   1.116   5.073
 4637SOL    HW214811   1.240   1.056   5.058
 4638SOL     OW14812   5.311   3.587   5.503
 4638SOL    HW114813   5.240   3.638   5.551
 4638SOL    HW214814   5.296   3.489   5.516
 4639SOL     OW14815   6.841   3.757   5.084
 4639SOL    HW114816   6.898   3.819   5.031
 4639SOL    HW214817   6.849   3.778   5.181
 4640SOL     OW14818   5.932   3.963   2.843
 4640SOL    HW114819   5.921   4.014   2.758
 4640SOL    HW214820   6.029   3.955   2.865
 4641SOL     OW14821   2.073   4.716   5.546
 4641SOL    HW114822   2.061   4.778   5.468
 4641SOL    HW214823   2.158   4.666   5.536
 4642SOL     OW14824   5.454   6.216   4.164
 4642SOL    HW114825   5.413   6.216   4.073
 4642SOL    HW214826   5.475   6.123   4.192
 4643SOL     OW14827   4.094   2.121   1.417
 4643SOL    HW114828   4.052   2.157   1.500
 4643SOL    HW214829   4.191   2.145   1.416
 4644SOL     OW14830   2.214   5.514   4.819
 4644SOL    HW114831   2.236   5.417   4.832
 4644SOL    HW214832   2.254   5.567   4.894
 4645SOL     OW14833   1.850   6.131   4.942
 4645SOL    HW114834   1.812   6.040   4.963
 4645SOL    HW214835   1.943   6.120   4.907
 4646SOL     OW14836   3.692   0.600   1.635
 4646SOL    HW114837   3.651   0.509   1.641
 4646SOL    HW214838   3.653   0.649   1.557
 4647SOL     OW14839   6.711   0.439   4.572
 4647SOL    HW114840   6.669   0.378   4.640
 4647SOL    HW214841   6.686   0.409   4.480
 4648SOL     OW14842   2.136   5.834   2.704
 4648SOL    HW114843   2.085   5.918   2.690
 4648SOL    HW214844   2.088   5.758   2.659
 4649SOL     OW14845   5.568   0.088   5.696
 4649SOL    HW114846   5.591   0.111   5.790
 4649SOL    HW214847   5.473   0.114   5.677
 4650SOL     OW14848   6.522   4.675   2.244
 4650SOL    HW114849   6.618   4.650   2.257
 4650SOL    HW214850   6.512   4.732   2.163
 4651SOL     OW14851   7.021   2.143   1.524
 4651SOL    HW114852   0.063   2.178   1.458
 4651SOL    HW214853   0.041   2.076   1.584
 4652SOL     OW14854   6.975   6.108   6.118
 4652SOL    HW114855   0.009   6.188   6.105
 4652SOL    HW214856   7.002   6.060   6.201
 4653SOL     OW14857   0.274   5.911   6.791
 4653SOL    HW114858   0.259   5.816   6.821
 4653SOL    HW214859   0.232   5.974   6.856
 4654SOL     OW14860   1.111   1.270   6.831
 4654SOL    HW114861   1.085   1.364   6.807
 4654SOL    HW214862   1.087   1.209   6.756
 4655SOL     OW14863   0.282   5.364   3.711
 4655SOL    HW114864   0.203   5.348   3.651
 4655SOL    HW214865   0.355   5.408   3.658
 4656SOL     OW14866   1.865   6.433   3.458
 4656SOL    HW114867   1.952   6.386   3.471
 4656SOL    HW214868   1.869   6.523   3.502
 4657SOL     OW14869   6.203   0.415   0.052
 4657SOL    HW114870   6.126   0.353   0.067
 4657SOL    HW214871   6.261   0.416   0.133
 4658SOL     OW14872   5.488   0.640   3.327
 4658SOL    HW114873   5.581   0.624   3.361
 4658SOL    HW214874   5.493   0.683   3.237
 4659SOL     OW14875   2.310   2.228   4.832
 4659SOL    HW114876   2.244   2.303   4.843
 4659SOL    HW214877   2.268   2.143   4.865
 4660SOL     OW14878   0.086   0.428   6.030
 4660SOL    HW114879   0.028   0.494   6.078
 4660SOL    HW214880   0.062   0.335   6.058
 4661SOL     OW14881   4.127   3.621   3.405
 4661SOL    HW114882   4.074   3.698   3.440
 4661SOL    HW214883   4.216   3.653   3.374
 4662SOL     OW14884   4.737   0.708   5.099
 4662SOL    HW114885   4.761   0.666   5.011
 4662SOL    HW214886   4.647   0.751   5.092
 4663SOL     OW14887   0.278   2.316   2.539
 4663SOL    HW114888   0.306   2.329   2.634
 4663SOL    HW214889   0.315   2.230   2.504
 4664SOL     OW14890   3.217   2.165   6.825
 4664SOL    HW114891   3.174   2.253   6.803
 4664SOL    HW214892   3.225   2.155   6.924
 4665SOL     OW14893   5.607   0.742   0.138
 4665SOL    HW114894   5.705   0.741   0.155
 4665SOL    HW214895   5.590   0.756   0.040
 4666SOL     OW14896   1.944   1.380   0.734
 4666SOL    HW114897   1.918   1.285   0.755
 4666SOL    HW214898   2.018   1.379   0.666
 4667SOL     OW14899   0.825   5.602   5.900
 4667SOL    HW114900   0.921   5.610   5.872
 4667SOL    HW214901   0.814   5.520   5.956
 4668SOL     OW14902   6.369   1.803   4.042
 4668SOL    HW114903   6.289   1.745   4.053
 4668SOL    HW214904   6.448   1.760   4.085
 4669SOL     OW14905   2.453   0.165   0.623
 4669SOL    HW114906   2.518   0.129   0.555
 4669SOL    HW214907   2.490   0.150   0.715
 4670SOL     OW14908   2.196   1.426   4.088
 4670SOL    HW114909   2.258   1.487   4.039
 4670SOL    HW214910   2.173   1.466   4.177
 4671SOL     OW14911   5.566   3.778   0.924
 4671SOL    HW114912   5.470   3.776   0.895
 4671SOL    HW214913   5.624   3.796   0.845
 4672SOL     OW14914   2.241   3.572   5.729
 4672SOL    HW114915   2.336   3.540   5.730
 4672SOL    HW214916   2.225   3.627   5.647
 4673SOL     OW14917   3.879   0.464   2.677
 4673SOL    HW114918   3.964   0.514   2.697
 4673SOL    HW214919   3.807   0.497   2.738
 4674SOL     OW14920   4.499   6.004   6.218
 4674SOL    HW114921   4.547   5.951   6.149
 4674SOL    HW214922   4.559   6.077   6.251
 4675SOL     OW14923   1.123   4.168   6.982
 4675SOL    HW114924   1.041   4.208   7.024
 4675SOL    HW214925   1.123   4.189   6.884
 4676SOL     OW14926   0.949   5.674   3.985
 4676SOL    HW114927   0.992   5.751   3.939
 4676SOL    HW214928   1.006   5.592   3.974
 4677SOL     OW14929   1.348   3.170   0.356
 4677SOL    HW114930   1.304   3.253   0.390
 4677SOL    HW214931   1.439   3.163   0.397
 4678SOL     OW14932   2.636   4.643   2.255
 4678SOL    HW114933   2.683   4.620   2.169
 4678SOL    HW214934   2.661   4.736   2.283
 4679SOL     OW14935   5.108   0.149   1.402
 4679SOL    HW114936   5.198   0.187   1.422
 4679SOL    HW214937   5.051   0.154   1.484
 4680SOL     OW14938   2.059   1.264   1.438
 4680SOL    HW114939   1.994   1.188   1.434
 4680SOL    HW214940   2.015   1.343   1.480
 4681SOL     OW14941   4.763   4.993   1.388
 4681SOL    HW114942   4.676   5.031   1.420
 4681SOL    HW214943   4.795   5.044   1.309
 4682SOL     OW14944   3.898   3.905   6.817
 4682SOL    HW114945   3.839   3.886   6.896
 4682SOL    HW214946   3.869   3.990   6.774
 4683SOL     OW14947   6.406   4.214   3.388
 4683SOL    HW114948   6.406   4.181   3.293
 4683SOL    HW214949   6.354   4.299   3.393
 4684SOL     OW14950   5.181   6.895   6.974
 4684SOL    HW114951   5.128   6.811   6.985
 4684SOL    HW214952   5.181   6.923   6.878
 4685SOL     OW14953   3.113   3.539   5.788
 4685SOL    HW114954   3.053   3.501   5.718
 4685SOL    HW214955   3.101   3.638   5.792
 4686SOL     OW14956   2.887   5.393   0.064
 4686SOL    HW114957   2.941   5.469   0.028
 4686SOL    HW214958   2.792   5.404   0.037
 4687SOL     OW14959   2.898   0.746   3.123
 4687SOL    HW114960   2.810   0.698   3.126
 4687SOL    HW214961   2.882   0.845   3.132
 4688SOL     OW14962   6.004   3.173   5.733
 4688SOL    HW114963   5.973   3.134   5.819
 4688SOL    HW214964   5.977   3.114   5.657
 4689SOL     OW14965   5.872   1.032   1.961
 4689SOL    HW114966   5.867   1.029   2.061
 4689SOL    HW214967   5.787   1.069   1.925
 4690SOL     OW14968   2.411   2.064   0.372
 4690SOL    HW114969   2.489   2.034   0.427
 4690SOL    HW214970   2.326   2.033   0.416
 4691SOL     OW14971   6.930   4.167   2.232
 4691SOL    HW114972   6.836   4.178   2.267
 4691SOL    HW214973   6.950   4.070   2.223
 4692SOL     OW14974   5.668   3.766   2.040
 4692SOL    HW114975   5.704   3.859   2.051
 4692SOL    HW214976   5.569   3.771   2.022
 4693SOL     OW14977   1.721   1.092   4.069
 4693SOL    HW114978   1.657   1.015   4.069
 4693SOL    HW214979   1.747   1.113   4.163
 4694SOL     OW14980   1.885   1.352   0.255
 4694SOL    HW114981   1.917   1.321   0.344
 4694SOL    HW214982   1.814   1.290   0.221
 4695SOL     OW14983   1.128   6.227   1.780
 4695SOL    HW114984   1.160   6.217   1.686
 4695SOL    HW214985   1.065   6.153   1.802
 4696SOL     OW14986   1.328   5.397   5.543
 4696SOL    HW114987   1.341   5.479   5.599
 4696SOL    HW214988   1.241   5.354   5.567
 4697SOL     OW14989   3.852   4.725   0.848
 4697SOL    HW114990   3.870   4.818   0.881
 4697SOL    HW214991   3.753   4.710   0.844
 4698SOL     OW14992   5.538   1.054   3.290
 4698SOL    HW114993   5.613   1.120   3.295
 4698SOL    HW214994   5.451   1.100   3.310
 4699SOL     OW14995   1.376   6.994   2.866
 4699SOL    HW114996   1.366   6.954   2.775
 4699SOL    HW214997   1.473   7.014   2.883
 4700SOL     OW14998   6.483   2.079   2.480
 4700SOL    HW114999   6.431   2.083   2.565
 4700SOL    HW215000   6.580   2.098   2.499
 4701SOL     OW15001   3.234   2.191   1.790
 4701SOL    HW115002   3.153   2.250   1.795
 4701SOL    HW215003   3.310   2.242   1.751
 4702SOL     OW15004   5.591   4.733   6.500
 4702SOL    HW115005   5.682   4.691   6.498
 4702SOL    HW215006   5.553   4.735   6.407
 4703SOL     OW15007   0.712   5.179   3.552
 4703SOL    HW115008   0.734   5.113   3.480
 4703SOL    HW215009   0.728   5.271   3.518
 4704SOL     OW15010   0.884   4.754   4.925
 4704SOL    HW115011   0.787   4.730   4.936
 4704SOL    HW215012   0.892   4.851   4.900
 4705SOL     OW15013   3.465   2.339   1.663
 4705SOL    HW115014   3.536   2.363   1.728
 4705SOL    HW215015   3.450   2.416   1.600
 4706SOL     OW15016   2.076   0.549   0.580
 4706SOL    HW115017   2.101   0.596   0.665
 4706SOL    HW215018   1.989   0.586   0.547
 4707SOL     OW15019   1.809   5.821   1.625
 4707SOL    HW115020   1.857   5.906   1.647
 4707SOL    HW215021   1.711   5.835   1.636
 4708SOL     OW15022   0.742   3.185   4.312
 4708SOL    HW115023   0.658   3.234   4.286
 4708SOL    HW215024   0.723   3.087   4.317
 4709SOL     OW15025   4.794   3.805   5.250
 4709SOL    HW115026   4.805   3.868   5.173
 4709SOL    HW215027   4.756   3.719   5.217
 4710SOL     OW15028   6.529   6.508   4.420
 4710SOL    HW115029   6.514   6.468   4.330
 4710SOL    HW215030   6.458   6.477   4.483
 4711SOL     OW15031   5.617   3.430   3.329
 4711SOL    HW115032   5.671   3.464   3.252
 4711SOL    HW215033   5.599   3.505   3.393
 4712SOL     OW15034   4.577   3.990   5.326
 4712SOL    HW115035   4.498   3.952   5.374
 4712SOL    HW215036   4.637   3.915   5.297
 4713SOL     OW15037   6.087   4.383   1.326
 4713SOL    HW115038   6.077   4.332   1.241
 4713SOL    HW215039   6.083   4.321   1.404
 4714SOL     OW15040   5.836   1.622   6.091
 4714SOL    HW115041   5.820   1.649   5.996
 4714SOL    HW215042   5.749   1.597   6.134
 4715SOL     OW15043   6.549   1.269   2.185
 4715SOL    HW115044   6.463   1.259   2.135
 4715SOL    HW215045   6.584   1.178   2.210
 4716SOL     OW15046   4.026   4.485   6.154
 4716SOL    HW115047   3.934   4.523   6.146
 4716SOL    HW215048   4.063   4.468   6.062
 4717SOL     OW15049   2.513   5.413   5.344
 4717SOL    HW115050   2.510   5.422   5.245
 4717SOL    HW215051   2.440   5.469   5.385
 4718SOL     OW15052   4.675   4.633   0.525
 4718SOL    HW115053   4.651   4.726   0.550
 4718SOL    HW215054   4.689   4.627   0.426
 4719SOL     OW15055   7.018   4.134   3.797
 4719SOL    HW115056   0.058   4.144   3.873
 4719SOL    HW215057   0.038   4.162   3.711
 4720SOL     OW15058   2.572   4.069   6.868
 4720SOL    HW115059   2.663   4.102   6.893
 4720SOL    HW215060   2.523   4.044   6.951
 4721SOL     OW15061   6.309   3.151   3.605
 4721SOL    HW115062   6.360   3.215   3.663
 4721SOL    HW215063   6.213   3.149   3.633
 4722SOL     OW15064   1.736   4.695   6.943
 4722SOL    HW115065   1.642   4.669   6.965
 4722SOL    HW215066   1.764   4.772   7.000
 4723SOL     OW15067   4.025   4.178   6.830
 4723SOL    HW115068   4.007   4.226   6.916
 4723SOL    HW215069   4.122   4.185   6.807
 4724SOL     OW15070   1.277   6.513   4.820
 4724SOL    HW115071   1.242   6.419   4.817
 4724SOL    HW215072   1.221   6.566   4.884
 4725SOL     OW15073   5.171   6.171   0.458
 4725SOL    HW115074   5.108   6.194   0.383
 4725SOL    HW215075   5.235   6.100   0.427
 4726SOL     OW15076   1.381   3.142   5.758
 4726SOL    HW115077   1.415   3.146   5.852
 4726SOL    HW215078   1.283   3.160   5.758
 4727SOL     OW15079   0.797   5.627   0.866
 4727SOL    HW115080   0.740   5.567   0.921
 4727SOL    HW215081   0.739   5.694   0.818
 4728SOL     OW15082   6.492   1.990   4.878
 4728SOL    HW115083   6.564   1.940   4.927
 4728SOL    HW215084   6.470   2.073   4.929
 4729SOL     OW15085   5.882   1.369   2.060
 4729SOL    HW115086   5.802   1.315   2.034
 4729SOL    HW215087   5.943   1.377   1.981
 4730SOL     OW15088   3.509   7.024   4.866
 4730SOL    HW115089   3.603   7.009   4.897
 4730SOL    HW215090   3.454   6.942   4.884
 4731SOL     OW15091   3.679   0.230   0.482
 4731SOL    HW115092   3.657   0.298   0.551
 4731SOL    HW215093   3.734   0.272   0.410
 4732SOL     OW15094   0.271   4.842   3.866
 4732SOL    HW115095   0.248   4.924   3.814
 4732SOL    HW215096   0.363   4.851   3.903
 4733SOL     OW15097   1.839   3.705   3.657
 4733SOL    HW115098   1.815   3.677   3.750
 4733SOL    HW215099   1.911   3.646   3.622
 4734SOL     OW15100   4.810   3.134   0.260
 4734SOL    HW115101   4.907   3.144   0.283
 4734SOL    HW215102   4.801   3.074   0.181
 4735SOL     OW15103   0.023   0.374   5.110
 4735SOL    HW115104   6.982   0.312   5.066
 4735SOL    HW215105   0.088   0.408   5.042
 4736SOL     OW15106   6.518   2.192   3.497
 4736SOL    HW115107   6.421   2.175   3.477
 4736SOL    HW215108   6.574   2.141   3.433
 4737SOL     OW15109   2.248   4.582   1.088
 4737SOL    HW115110   2.198   4.574   1.001
 4737SOL    HW215111   2.232   4.672   1.127
 4738SOL     OW15112   1.778   6.309   3.810
 4738SOL    HW115113   1.838   6.316   3.890
 4738SOL    HW215114   1.741   6.400   3.788
 4739SOL     OW15115   5.763   3.561   3.713
 4739SOL    HW115116   5.723   3.472   3.736
 4739SOL    HW215117   5.732   3.629   3.779
 4740SOL     OW15118   0.729   1.177   1.482
 4740SOL    HW115119   0.724   1.231   1.565
 4740SOL    HW215120   0.640   1.177   1.436
 4741SOL     OW15121   4.300   4.486   1.762
 4741SOL    HW115122   4.321   4.390   1.785
 4741SOL    HW215123   4.347   4.546   1.827
 4742SOL     OW15124   2.845   6.185   2.008
 4742SOL    HW115125   2.866   6.200   1.912
 4742SOL    HW215126   2.751   6.154   2.017
 4743SOL     OW15127   2.584   2.403   0.328
 4743SOL    HW115128   2.501   2.396   0.272
 4743SOL    HW215129   2.604   2.499   0.345
 4744SOL     OW15130   1.809   3.134   5.284
 4744SOL    HW115131   1.735   3.100   5.342
 4744SOL    HW215132   1.807   3.234   5.282
 4745SOL     OW15133   3.105   5.714   4.868
 4745SOL    HW115134   3.092   5.790   4.804
 4745SOL    HW215135   3.017   5.685   4.904
 4746SOL     OW15136   6.303   0.918   0.677
 4746SOL    HW115137   6.396   0.885   0.696
 4746SOL    HW215138   6.248   0.911   0.760
 4747SOL     OW15139   6.323   2.306   1.072
 4747SOL    HW115140   6.294   2.295   1.167
 4747SOL    HW215141   6.246   2.286   1.011
 4748SOL     OW15142   1.539   0.653   1.735
 4748SOL    HW115143   1.569   0.644   1.830
 4748SOL    HW215144   1.533   0.749   1.710
 4749SOL     OW15145   1.617   6.803   6.810
 4749SOL    HW115146   1.565   6.722   6.838
 4749SOL    HW215147   1.673   6.834   6.886
 4750SOL     OW15148   0.089   1.139   4.409
 4750SOL    HW115149   0.023   1.071   4.443
 4750SOL    HW215150   0.164   1.092   4.363
 4751SOL     OW15151   0.960   3.598   6.477
 4751SOL    HW115152   1.040   3.617   6.420
 4751SOL    HW215153   0.877   3.618   6.425
 4752SOL     OW15154   2.888   5.824   1.467
 4752SOL    HW115155   2.809   5.773   1.503
 4752SOL    HW215156   2.857   5.886   1.396
 4753SOL     OW15157   6.673   6.639   4.987
 4753SOL    HW115158   6.696   6.658   4.892
 4753SOL    HW215159   6.659   6.541   5.000
 4754SOL     OW15160   1.231   0.334   5.790
 4754SOL    HW115161   1.188   0.281   5.718
 4754SOL    HW215162   1.161   0.379   5.845
 4755SOL     OW15163   2.562   1.999   6.574
 4755SOL    HW115164   2.464   1.981   6.579
 4755SOL    HW215165   2.577   2.097   6.569
 4756SOL     OW15166   5.199   3.001   1.328
 4756SOL    HW115167   5.231   3.065   1.398
 4756SOL    HW215168   5.249   2.915   1.337
 4757SOL     OW15169   2.043   2.451   1.061
 4757SOL    HW115170   2.055   2.365   1.110
 4757SOL    HW215171   2.030   2.433   0.963
 4758SOL     OW15172   5.458   4.958   5.586
 4758SOL    HW115173   5.478   5.032   5.650
 4758SOL    HW215174   5.391   4.989   5.519
 4759SOL     OW15175   5.628   5.428   5.327
 4759SOL    HW115176   5.704   5.491   5.311
 4759SOL    HW215177   5.663   5.339   5.355
 4760SOL     OW15178   1.264   1.963   1.358
 4760SOL    HW115179   1.259   2.063   1.352
 4760SOL    HW215180   1.352   1.937   1.397
 4761SOL     OW15181   0.880   6.189   5.904
 4761SOL    HW115182   0.811   6.224   5.841
 4761SOL    HW215183   0.957   6.253   5.909
 4762SOL     OW15184   2.817   5.890   2.695
 4762SOL    HW115185   2.818   5.910   2.793
 4762SOL    HW215186   2.743   5.942   2.651
 4763SOL     OW15187   5.981   5.775   4.070
 4763SOL    HW115188   5.884   5.787   4.049
 4763SOL    HW215189   5.998   5.681   4.101
 4764SOL     OW15190   3.605   3.452   3.976
 4764SOL    HW115191   3.524   3.481   3.924
 4764SOL    HW215192   3.638   3.529   4.031
 4765SOL     OW15193   5.702   5.545   4.723
 4765SOL    HW115194   5.651   5.460   4.731
 4765SOL    HW215195   5.674   5.608   4.795
 4766SOL     OW15196   3.375   0.689   2.864
 4766SOL    HW115197   3.367   0.612   2.801
 4766SOL    HW215198   3.440   0.756   2.827
 4767SOL     OW15199   4.168   5.697   6.757
 4767SOL    HW115200   4.116   5.761   6.701
 4767SOL    HW215201   4.266   5.706   6.736
 4768SOL     OW15202   6.921   0.677   5.316
 4768SOL    HW115203   6.950   0.758   5.367
 4768SOL    HW215204   6.978   0.599   5.342
 4769SOL     OW15205   3.648   0.112   1.619
 4769SOL    HW115206   3.739   0.151   1.606
 4769SOL    HW215207   3.656   0.016   1.647
 4770SOL     OW15208   2.570   0.368   3.295
 4770SOL    HW115209   2.642   0.409   3.239
 4770SOL    HW215210   2.530   0.291   3.246
 4771SOL     OW15211   3.803   4.296   5.254
 4771SOL    HW115212   3.837   4.390   5.261
 4771SOL    HW215213   3.799   4.255   5.345
 4772SOL     OW15214   2.647   2.387   1.460
 4772SOL    HW115215   2.682   2.389   1.554
 4772SOL    HW215216   2.671   2.472   1.414
 4773SOL     OW15217   0.068   6.062   3.912
 4773SOL    HW115218   0.036   5.999   3.842
 4773SOL    HW215219   0.157   6.031   3.946
 4774SOL     OW15220   0.676   4.326   1.500
 4774SOL    HW115221   0.593   4.376   1.473
 4774SOL    HW215222   0.653   4.257   1.569
 4775SOL     OW15223   3.413   1.073   1.837
 4775SOL    HW115224   3.375   0.994   1.788
 4775SOL    HW215225   3.399   1.062   1.935
 4776SOL     OW15226   3.193   5.467   2.131
 4776SOL    HW115227   3.097   5.450   2.151
 4776SOL    HW215228   3.245   5.471   2.216
 4777SOL     OW15229   3.199   4.284   1.138
 4777SOL    HW115230   3.214   4.380   1.161
 4777SOL    HW215231   3.112   4.274   1.090
 4778SOL     OW15232   5.038   4.014   2.002
 4778SOL    HW115233   4.951   4.058   1.983
 4778SOL    HW215234   5.023   3.934   2.060
 4779SOL     OW15235   5.420   0.777   2.797
 4779SOL    HW115236   5.471   0.857   2.765
 4779SOL    HW215237   5.375   0.799   2.884
 4780SOL     OW15238   1.667   6.512   6.241
 4780SOL    HW115239   1.665   6.570   6.159
 4780SOL    HW215240   1.575   6.479   6.261
 4781SOL     OW15241   1.950   5.462   1.902
 4781SOL    HW115242   1.953   5.402   1.982
 4781SOL    HW215243   2.043   5.492   1.880
 4782SOL     OW15244   5.691   6.311   6.688
 4782SOL    HW115245   5.767   6.363   6.650
 4782SOL    HW215246   5.617   6.305   6.620
 4783SOL     OW15247   5.859   4.527   1.457
 4783SOL    HW115248   5.895   4.483   1.540
 4783SOL    HW215249   5.932   4.532   1.388
 4784SOL     OW15250   5.754   5.338   4.489
 4784SOL    HW115251   5.698   5.324   4.571
 4784SOL    HW215252   5.736   5.428   4.451
 4785SOL     OW15253   6.534   0.823   1.035
 4785SOL    HW115254   6.570   0.803   1.126
 4785SOL    HW215255   6.475   0.748   1.006
 4786SOL     OW15256   1.802   2.904   2.061
 4786SOL    HW115257   1.797   2.909   2.160
 4786SOL    HW215258   1.867   2.832   2.034
 4787SOL     OW15259   3.782   2.039   2.906
 4787SOL    HW115260   3.817   1.983   2.830
 4787SOL    HW215261   3.702   2.091   2.875
 4788SOL     OW15262   1.571   4.945   4.180
 4788SOL    HW115263   1.488   4.916   4.229
 4788SOL    HW215264   1.606   4.868   4.126
 4789SOL     OW15265   5.954   0.663   0.647
 4789SOL    HW115266   5.990   0.713   0.568
 4789SOL    HW215267   5.972   0.565   0.635
 4790SOL     OW15268   5.562   1.869   6.641
 4790SOL    HW115269   5.489   1.925   6.680
 4790SOL    HW215270   5.589   1.799   6.708
 4791SOL     OW15271   5.077   6.675   2.399
 4791SOL    HW115272   4.985   6.674   2.362
 4791SOL    HW215273   5.133   6.742   2.350
 4792SOL     OW15274   2.471   2.507   1.831
 4792SOL    HW115275   2.414   2.469   1.905
 4792SOL    HW215276   2.545   2.443   1.810
 4793SOL     OW15277   1.319   6.735   6.061
 4793SOL    HW115278   1.259   6.813   6.045
 4793SOL    HW215279   1.318   6.711   6.158
 4794SOL     OW15280   3.070   0.802   2.153
 4794SOL    HW115281   3.153   0.754   2.127
 4794SOL    HW215282   3.094   0.888   2.199
 4795SOL     OW15283   6.156   3.041   4.283
 4795SOL    HW115284   6.135   3.120   4.341
 4795SOL    HW215285   6.250   3.046   4.252
 4796SOL     OW15286   5.773   4.330   1.193
 4796SOL    HW115287   5.750   4.275   1.274
 4796SOL    HW215288   5.862   4.301   1.158
 4797SOL     OW15289   0.327   5.028   4.867
 4797SOL    HW115290   0.288   5.033   4.959
 4797SOL    HW215291   0.276   5.087   4.805
 4798SOL     OW15292   6.692   4.104   4.082
 4798SOL    HW115293   6.784   4.120   4.117
 4798SOL    HW215294   6.648   4.191   4.061
 4799SOL     OW15295   3.722   1.749   4.838
 4799SOL    HW115296   3.745   1.796   4.924
 4799SOL    HW215297   3.792   1.681   4.818
 4800SOL     OW15298   2.029   2.104   4.797
 4800SOL    HW115299   1.952   2.086   4.858
 4800SOL    HW215300   2.003   2.173   4.729
 4801SOL     OW15301   0.674   2.363   1.095
 4801SOL    HW115302   0.673   2.370   0.995
 4801SOL    HW215303   0.698   2.452   1.134
 4802SOL     OW15304   2.815   0.737   2.246
 4802SOL    HW115305   2.791   0.654   2.197
 4802SOL    HW215306   2.905   0.769   2.216
 4803SOL     OW15307   0.953   6.611   0.372
 4803SOL    HW115308   1.035   6.664   0.393
 4803SOL    HW215309   0.940   6.608   0.272
 4804SOL     OW15310   4.055   5.141   6.605
 4804SOL    HW115311   4.107   5.139   6.691
 4804SOL    HW215312   4.000   5.058   6.597
 4805SOL     OW15313   6.952   1.755   0.841
 4805SOL    HW115314   6.978   1.755   0.745
 4805SOL    HW215315   7.013   1.695   0.893
 4806SOL     OW15316   0.874   2.581   2.755
 4806SOL    HW115317   0.778   2.596   2.728
 4806SOL    HW215318   0.877   2.557   2.852
 4807SOL     OW15319   6.922   6.981   1.261
 4807SOL    HW115320   6.877   0.004   1.337
 4807SOL    HW215321   7.021   6.984   1.275
 4808SOL     OW15322   4.965   3.241   1.371
 4808SOL    HW115323   4.867   3.244   1.389
 4808SOL    HW215324   5.015   3.267   1.454
 4809SOL     OW15325   4.124   5.479   6.925
 4809SOL    HW115326   4.082   5.417   6.860
 4809SOL    HW215327   4.137   5.569   6.882
 4810SOL     OW15328   0.767   7.021   1.334
 4810SOL    HW115329   0.677   0.026   1.302
 4810SOL    HW215330   0.838   0.040   1.278
 4811SOL     OW15331   4.114   5.705   2.121
 4811SOL    HW115332   4.193   5.730   2.065
 4811SOL    HW215333   4.145   5.670   2.209
 4812SOL     OW15334   6.681   5.846   4.365
 4812SOL    HW115335   6.641   5.932   4.333
 4812SOL    HW215336   6.781   5.854   4.367
 4813SOL     OW15337   5.666   2.438   3.554
 4813SOL    HW115338   5.650   2.535   3.575
 4813SOL    HW215339   5.639   2.419   3.460
 4814SOL     OW15340   0.003   3.102   1.924
 4814SOL    HW115341   6.999   3.081   1.830
 4814SOL    HW215342   6.945   3.119   1.980
 4815SOL     OW15343   4.431   6.236   1.263
 4815SOL    HW115344   4.475   6.167   1.320
 4815SOL    HW215345   4.471   6.234   1.171
 4816SOL     OW15346   5.345   4.995   3.468
 4816SOL    HW115347   5.393   4.936   3.533
 4816SOL    HW215348   5.382   4.982   3.377
 4817SOL     OW15349   0.424   1.617   6.750
 4817SOL    HW115350   0.493   1.544   6.743
 4817SOL    HW215351   0.345   1.583   6.801
 4818SOL     OW15352   0.844   0.651   4.277
 4818SOL    HW115353   0.862   0.641   4.179
 4818SOL    HW215354   0.924   0.622   4.329
 4819SOL     OW15355   1.807   3.346   0.585
 4819SOL    HW115356   1.851   3.286   0.518
 4819SOL    HW215357   1.798   3.299   0.672
 4820SOL     OW15358   6.613   2.801   1.918
 4820SOL    HW115359   6.684   2.788   1.848
 4820SOL    HW215360   6.582   2.896   1.917
 4821SOL     OW15361   0.047   5.801   2.680
 4821SOL    HW115362   0.030   5.787   2.583
 4821SOL    HW215363   6.993   5.768   2.733
 4822SOL     OW15364   1.438   3.604   4.226
 4822SOL    HW115365   1.345   3.571   4.211
 4822SOL    HW215366   1.444   3.701   4.203
 4823SOL     OW15367   1.787   3.109   1.442
 4823SOL    HW115368   1.689   3.109   1.465
 4823SOL    HW215369   1.799   3.128   1.345
 4824SOL     OW15370   6.673   1.413   5.840
 4824SOL    HW115371   6.717   1.469   5.769
 4824SOL    HW215372   6.678   1.317   5.815
 4825SOL     OW15373   1.821   6.957   3.921
 4825SOL    HW115374   1.796   6.908   4.004
 4825SOL    HW215375   1.892   0.000   3.941
 4826SOL     OW15376   3.970   0.581   1.665
 4826SOL    HW115377   4.037   0.642   1.623
 4826SOL    HW215378   3.879   0.620   1.657
 4827SOL     OW15379   6.602   1.796   1.271
 4827SOL    HW115380   6.562   1.791   1.362
 4827SOL    HW215381   6.578   1.884   1.229
 4828SOL     OW15382   5.109   0.818   4.074
 4828SOL    HW115383   5.033   0.845   4.134
 4828SOL    HW215384   5.195   0.849   4.114
 4829SOL     OW15385   4.457   6.776   4.768
 4829SOL    HW115386   4.541   6.723   4.756
 4829SOL    HW215387   4.381   6.728   4.725
 4830SOL     OW15388   3.261   6.150   3.112
 4830SOL    HW115389   3.318   6.228   3.138
 4830SOL    HW215390   3.178   6.149   3.166
 4831SOL     OW15391   3.047   4.684   5.323
 4831SOL    HW115392   3.000   4.641   5.246
 4831SOL    HW215393   3.041   4.624   5.403
 4832SOL     OW15394   3.926   3.097   4.621
 4832SOL    HW115395   3.979   3.032   4.566
 4832SOL    HW215396   3.847   3.129   4.568
 4833SOL     OW15397   6.777   3.391   4.362
 4833SOL    HW115398   6.802   3.405   4.266
 4833SOL    HW215399   6.852   3.422   4.421
 4834SOL     OW15400   1.044   5.249   1.389
 4834SOL    HW115401   1.023   5.299   1.306
 4834SOL    HW215402   0.959   5.226   1.436
 4835SOL     OW15403   6.780   2.178   5.419
 4835SOL    HW115404   6.762   2.209   5.513
 4835SOL    HW215405   6.698   2.192   5.363
 4836SOL     OW15406   5.088   1.186   5.736
 4836SOL    HW115407   5.059   1.116   5.800
 4836SOL    HW215408   5.169   1.153   5.685
 4837SOL     OW15409   0.429   4.294   3.773
 4837SOL    HW115410   0.446   4.388   3.743
 4837SOL    HW215411   0.438   4.289   3.873
 4838SOL     OW15412   2.500   4.334   6.163
 4838SOL    HW115413   2.544   4.398   6.100
 4838SOL    HW215414   2.401   4.332   6.145
 4839SOL     OW15415   2.440   1.421   0.465
 4839SOL    HW115416   2.423   1.392   0.559
 4839SOL    HW215417   2.375   1.375   0.404
 4840SOL     OW15418   5.838   3.784   4.027
 4840SOL    HW115419   5.909   3.808   3.960
 4840SOL    HW215420   5.750   3.777   3.981
 4841SOL     OW15421   3.244   6.361   2.856
 4841SOL    HW115422   3.337   6.349   2.892
 4841SOL    HW215423   3.185   6.395   2.929
 4842SOL     OW15424   3.252   5.351   2.991
 4842SOL    HW115425   3.236   5.383   3.085
 4842SOL    HW215426   3.349   5.360   2.970
 4843SOL     OW15427   0.257   1.969   0.972
 4843SOL    HW115428   0.265   1.876   1.009
 4843SOL    HW215429   0.161   1.988   0.953
 4844SOL     OW15430   1.784   5.406   5.253
 4844SOL    HW115431   1.733   5.349   5.318
 4844SOL    HW215432   1.724   5.478   5.218
 4845SOL     OW15433   4.811   3.970   5.026
 4845SOL    HW115434   4.843   4.064   5.020
 4845SOL    HW215435   4.793   3.934   4.935
 4846SOL     OW15436   6.708   3.563   4.606
 4846SOL    HW115437   6.630   3.552   4.667
 4846SOL    HW215438   6.680   3.619   4.527
 4847SOL     OW15439   2.858   5.778   6.300
 4847SOL    HW115440   2.798   5.730   6.236
 4847SOL    HW215441   2.813   5.785   6.389
 4848SOL     OW15442   3.406   0.695   4.684
 4848SOL    HW115443   3.490   0.705   4.630
 4848SOL    HW215444   3.381   0.599   4.689
 4849SOL     OW15445   2.133   6.765   1.701
 4849SOL    HW115446   2.039   6.737   1.720
 4849SOL    HW215447   2.135   6.863   1.683
 4850SOL     OW15448   4.359   0.238   0.414
 4850SOL    HW115449   4.424   0.226   0.488
 4850SOL    HW215450   4.285   0.298   0.444
 4851SOL     OW15451   3.827   4.275   6.685
 4851SOL    HW115452   3.878   4.338   6.626
 4851SOL    HW215453   3.890   4.227   6.745
 4852SOL     OW15454   5.553   5.296   4.690
 4852SOL    HW115455   5.484   5.250   4.634
 4852SOL    HW215456   5.582   5.236   4.764
 4853SOL     OW15457   3.998   6.915   2.175
 4853SOL    HW115458   4.027   6.820   2.161
 4853SOL    HW215459   4.075   6.969   2.208
 4854SOL     OW15460   5.157   6.644   1.641
 4854SOL    HW115461   5.230   6.663   1.576
 4854SOL    HW215462   5.197   6.613   1.728
 4855SOL     OW15463   5.377   4.872   6.037
 4855SOL    HW115464   5.436   4.951   6.052
 4855SOL    HW215465   5.401   4.829   5.950
 4856SOL     OW15466   0.231   3.631   2.970
 4856SOL    HW115467   0.150   3.688   2.984
 4856SOL    HW215468   0.272   3.653   2.882
 4857SOL     OW15469   2.522   1.884   4.968
 4857SOL    HW115470   2.529   1.885   4.868
 4857SOL    HW215471   2.511   1.977   5.002
 4858SOL     OW15472   0.768   5.882   4.651
 4858SOL    HW115473   0.867   5.866   4.649
 4858SOL    HW215474   0.720   5.795   4.642
 4859SOL     OW15475   0.569   6.534   2.679
 4859SOL    HW115476   0.478   6.493   2.681
 4859SOL    HW215477   0.575   6.603   2.751
 4860SOL     OW15478   4.600   5.212   1.231
 4860SOL    HW115479   4.623   5.287   1.293
 4860SOL    HW215480   4.653   5.221   1.146
 4861SOL     OW15481   0.415   4.165   6.294
 4861SOL    HW115482   0.317   4.183   6.290
 4861SOL    HW215483   0.451   4.156   6.201
 4862SOL     OW15484   2.369   5.625   5.033
 4862SOL    HW115485   2.464   5.653   5.049
 4862SOL    HW215486   2.308   5.682   5.087
 4863SOL     OW15487   4.435   2.180   3.177
 4863SOL    HW115488   4.395   2.095   3.143
 4863SOL    HW215489   4.534   2.168   3.188
 4864SOL     OW15490   1.800   1.309   1.240
 4864SOL    HW115491   1.741   1.389   1.228
 4864SOL    HW215492   1.842   1.285   1.152
 4865SOL     OW15493   3.973   6.142   5.592
 4865SOL    HW115494   4.035   6.134   5.671
 4865SOL    HW215495   3.915   6.061   5.587
 4866SOL     OW15496   0.083   4.416   2.226
 4866SOL    HW115497   0.000   4.362   2.211
 4866SOL    HW215498   0.140   4.414   2.145
 4867SOL     OW15499   4.660   5.626   3.420
 4867SOL    HW115500   4.658   5.537   3.465
 4867SOL    HW215501   4.645   5.698   3.488
 4868SOL     OW15502   0.970   6.177   1.449
 4868SOL    HW115503   0.933   6.236   1.521
 4868SOL    HW215504   0.911   6.181   1.368
 4869SOL     OW15505   6.211   1.273   1.099
 4869SOL    HW115506   6.283   1.236   1.040
 4869SOL    HW215507   6.123   1.232   1.074
 4870SOL     OW15508   6.625   0.119   1.482
 4870SOL    HW115509   6.700   0.076   1.533
 4870SOL    HW215510   6.571   0.049   1.436
 4871SOL     OW15511   0.978   3.352   4.070
 4871SOL    HW115512   1.037   3.274   4.054
 4871SOL    HW215513   0.949   3.352   4.166
 4872SOL     OW15514   0.816   0.618   3.617
 4872SOL    HW115515   0.907   0.578   3.621
 4872SOL    HW215516   0.747   0.547   3.628
 4873SOL     OW15517   0.966   6.135   5.076
 4873SOL    HW115518   0.975   6.228   5.042
 4873SOL    HW215519   1.035   6.118   5.147
 4874SOL     OW15520   5.161   3.438   3.575
 4874SOL    HW115521   5.124   3.527   3.602
 4874SOL    HW215522   5.116   3.366   3.627
 4875SOL     OW15523   6.237   3.013   6.403
 4875SOL    HW115524   6.152   3.052   6.369
 4875SOL    HW215525   6.220   2.923   6.443
 4876SOL     OW15526   0.599   1.422   6.801
 4876SOL    HW115527   0.596   1.380   6.710
 4876SOL    HW215528   0.690   1.411   6.840
 4877SOL     OW15529   6.481   1.381   0.922
 4877SOL    HW115530   6.497   1.449   0.993
 4877SOL    HW215531   6.385   1.384   0.893
 4878SOL     OW15532   6.554   2.177   1.401
 4878SOL    HW115533   6.590   2.246   1.464
 4878SOL    HW215534   6.470   2.138   1.439
 4879SOL     OW15535   4.215   6.156   3.171
 4879SOL    HW115536   4.128   6.197   3.143
 4879SOL    HW215537   4.243   6.192   3.260
 4880SOL     OW15538   5.877   2.043   6.288
 4880SOL    HW115539   5.888   1.949   6.318
 4880SOL    HW215540   5.950   2.099   6.326
 4881SOL     OW15541   3.234   5.804   6.945
 4881SOL    HW115542   3.189   5.891   6.969
 4881SOL    HW215543   3.332   5.819   6.932
 4882SOL     OW15544   5.106   0.654   5.884
 4882SOL    HW115545   5.177   0.697   5.828
 4882SOL    HW215546   5.048   0.597   5.826
 4883SOL     OW15547   6.884   6.400   1.041
 4883SOL    HW115548   6.954   6.347   0.993
 4883SOL    HW215549   6.803   6.343   1.057
 4884SOL     OW15550   3.485   6.561   2.104
 4884SOL    HW115551   3.480   6.626   2.180
 4884SOL    HW215552   3.552   6.592   2.037
 4885SOL     OW15553   2.179   0.157   2.024
 4885SOL    HW115554   2.152   0.223   2.094
 4885SOL    HW215555   2.234   0.203   1.955
 4886SOL     OW15556   6.197   0.702   5.996
 4886SOL    HW115557   6.178   0.655   6.082
 4886SOL    HW215558   6.243   0.639   5.933
 4887SOL     OW15559   0.664   2.077   5.248
 4887SOL    HW115560   0.692   2.142   5.178
 4887SOL    HW215561   0.564   2.069   5.248
 4888SOL     OW15562   2.772   5.322   1.928
 4888SOL    HW115563   2.742   5.398   1.986
 4888SOL    HW215564   2.816   5.252   1.984
 4889SOL     OW15565   1.440   2.596   6.828
 4889SOL    HW115566   1.409   2.665   6.894
 4889SOL    HW215567   1.525   2.555   6.861
 4890SOL     OW15568   1.400   0.286   4.989
 4890SOL    HW115569   1.301   0.291   4.989
 4890SOL    HW215570   1.437   0.348   4.920
 4891SOL     OW15571   1.081   3.918   0.913
 4891SOL    HW115572   1.092   3.820   0.929
 4891SOL    HW215573   1.171   3.960   0.899
 4892SOL     OW15574   1.666   6.045   1.294
 4892SOL    HW115575   1.658   6.024   1.197
 4892SOL    HW215576   1.749   6.002   1.331
 4893SOL     OW15577   1.192   3.414   6.383
 4893SOL    HW115578   1.218   3.334   6.438
 4893SOL    HW215579   1.102   3.398   6.343
 4894SOL     OW15580   2.172   1.187   3.652
 4894SOL    HW115581   2.255   1.141   3.683
 4894SOL    HW215582   2.095   1.161   3.710
 4895SOL     OW15583   6.253   3.778   0.015
 4895SOL    HW115584   6.207   3.698   0.054
 4895SOL    HW215585   6.341   3.791   0.060
 4896SOL     OW15586   4.547   5.949   3.383
 4896SOL    HW115587   4.455   5.934   3.347
 4896SOL    HW215588   4.612   5.952   3.308
 4897SOL     OW15589   2.979   5.650   5.791
 4897SOL    HW115590   2.948   5.588   5.719
 4897SOL    HW215591   3.059   5.701   5.759
 4898SOL     OW15592   5.408   2.588   5.327
 4898SOL    HW115593   5.502   2.578   5.295
 4898SOL    HW215594   5.364   2.498   5.329
 4899SOL     OW15595   5.399   4.305   4.868
 4899SOL    HW115596   5.371   4.220   4.823
 4899SOL    HW215597   5.457   4.358   4.806
 4900SOL     OW15598   1.262   6.801   5.150
 4900SOL    HW115599   1.226   6.869   5.213
 4900SOL    HW215600   1.207   6.801   5.066
 4901SOL     OW15601   1.357   6.396   3.255
 4901SOL    HW115602   1.345   6.469   3.188
 4901SOL    HW215603   1.449   6.400   3.292
 4902SOL     OW15604   3.114   4.726   1.755
 4902SOL    HW115605   3.213   4.731   1.767
 4902SOL    HW215606   3.073   4.672   1.829
 4903SOL     OW15607   4.941   6.357   6.343
 4903SOL    HW115608   4.913   6.332   6.436
 4903SOL    HW215609   4.954   6.274   6.289
 4904SOL     OW15610   3.411   6.346   3.494
 4904SOL    HW115611   3.354   6.412   3.543
 4904SOL    HW215612   3.508   6.369   3.509
 4905SOL     OW15613   6.369   3.127   3.343
 4905SOL    HW115614   6.356   3.136   3.442
 4905SOL    HW215615   6.300   3.181   3.295
 4906SOL     OW15616   5.832   1.014   1.490
 4906SOL    HW115617   5.842   0.941   1.557
 4906SOL    HW215618   5.891   1.091   1.516
 4907SOL     OW15619   2.895   1.314   2.468
 4907SOL    HW115620   2.926   1.354   2.555
 4907SOL    HW215621   2.906   1.215   2.472
 4908SOL     OW15622   3.622   5.418   6.847
 4908SOL    HW115623   3.624   5.347   6.917
 4908SOL    HW215624   3.527   5.434   6.819
 4909SOL     OW15625   6.466   0.064   5.383
 4909SOL    HW115626   6.396   0.133   5.363
 4909SOL    HW215627   6.424   6.998   5.381
 4910SOL     OW15628   6.163   0.565   5.388
 4910SOL    HW115629   6.091   0.500   5.413
 4910SOL    HW215630   6.175   0.631   5.462
 4911SOL     OW15631   0.596   3.015   6.062
 4911SOL    HW115632   0.638   3.106   6.069
 4911SOL    HW215633   0.566   2.986   6.152
 4912SOL     OW15634   2.656   2.294   2.135
 4912SOL    HW115635   2.750   2.288   2.101
 4912SOL    HW215636   2.634   2.390   2.156
 4913SOL     OW15637   2.992   3.482   2.495
 4913SOL    HW115638   3.000   3.457   2.592
 4913SOL    HW215639   2.960   3.576   2.488
 4914SOL     OW15640   1.602   6.313   3.441
 4914SOL    HW115641   1.523   6.341   3.496
 4914SOL    HW215642   1.675   6.380   3.451
 4915SOL     OW15643   3.426   5.921   3.227
 4915SOL    HW115644   3.505   5.941   3.169
 4915SOL    HW215645   3.343   5.957   3.185
 4916SOL     OW15646   2.217   1.594   2.502
 4916SOL    HW115647   2.146   1.534   2.539
 4916SOL    HW215648   2.267   1.545   2.430
 4917SOL     OW15649   1.913   5.150   6.955
 4917SOL    HW115650   1.931   5.057   6.986
 4917SOL    HW215651   1.949   5.162   6.862
 4918SOL     OW15652   2.592   0.423   2.216
 4918SOL    HW115653   2.526   0.349   2.228
 4918SOL    HW215654   2.679   0.386   2.186
 4919SOL     OW15655   2.488   2.905   1.551
 4919SOL    HW115656   2.519   2.893   1.457
 4919SOL    HW215657   2.527   2.834   1.609
 4920SOL     OW15658   4.244   0.702   0.206
 4920SOL    HW115659   4.156   0.672   0.169
 4920SOL    HW215660   4.234   0.724   0.303
 4921SOL     OW15661   1.565   4.555   1.584
 4921SOL    HW115662   1.663   4.540   1.568
 4921SOL    HW215663   1.540   4.517   1.672
 4922SOL     OW15664   1.013   2.813   5.847
 4922SOL    HW115665   0.972   2.875   5.914
 4922SOL    HW215666   1.102   2.781   5.881
 4923SOL     OW15667   3.760   1.490   0.832
 4923SOL    HW115668   3.703   1.565   0.866
 4923SOL    HW215669   3.848   1.527   0.801
 4924SOL     OW15670   0.534   4.040   4.423
 4924SOL    HW115671   0.609   4.025   4.487
 4924SOL    HW215672   0.554   3.993   4.337
 4925SOL     OW15673   4.564   5.564   6.221
 4925SOL    HW115674   4.482   5.527   6.265
 4925SOL    HW215675   4.545   5.580   6.124
 4926SOL     OW15676   4.430   2.494   1.704
 4926SOL    HW115677   4.428   2.584   1.747
 4926SOL    HW215678   4.495   2.435   1.752
 4927SOL     OW15679   3.775   3.922   2.913
 4927SOL    HW115680   3.824   3.928   3.000
 4927SOL    HW215681   3.687   3.969   2.921
 4928SOL     OW15682   0.454   6.162   1.091
 4928SOL    HW115683   0.376   6.215   1.126
 4928SOL    HW215684   0.507   6.127   1.167
 4929SOL     OW15685   0.778   4.944   4.169
 4929SOL    HW115686   0.848   4.900   4.226
 4929SOL    HW215687   0.780   4.904   4.077
 4930SOL     OW15688   6.623   2.088   0.662
 4930SOL    HW115689   6.540   2.062   0.613
 4930SOL    HW215690   6.691   2.120   0.597
 4931SOL     OW15691   0.218   0.693   1.395
 4931SOL    HW115692   0.305   0.645   1.388
 4931SOL    HW215693   0.154   0.656   1.329
 4932SOL     OW15694   3.655   1.963   0.903
 4932SOL    HW115695   3.582   2.031   0.907
 4932SOL    HW215696   3.744   2.009   0.907
 4933SOL     OW15697   2.481   0.962   5.373
 4933SOL    HW115698   2.494   0.986   5.277
 4933SOL    HW215699   2.388   0.987   5.401
 4934SOL     OW15700   1.357   6.164   5.082
 4934SOL    HW115701   1.308   6.136   5.165
 4934SOL    HW215702   1.360   6.264   5.077
 4935SOL     OW15703   1.622   1.118   0.713
 4935SOL    HW115704   1.635   1.042   0.650
 4935SOL    HW215705   1.608   1.202   0.662
 4936SOL     OW15706   3.748   5.782   0.668
 4936SOL    HW115707   3.764   5.740   0.757
 4936SOL    HW215708   3.808   5.861   0.657
 4937SOL     OW15709   1.150   3.022   6.352
 4937SOL    HW115710   1.052   3.012   6.339
 4937SOL    HW215711   1.185   3.093   6.290
 4938SOL     OW15712   3.589   4.783   1.379
 4938SOL    HW115713   3.512   4.732   1.416
 4938SOL    HW215714   3.573   4.881   1.390
 4939SOL     OW15715   1.284   1.865   2.256
 4939SOL    HW115716   1.201   1.917   2.239
 4939SOL    HW215717   1.260   1.778   2.299
 4940SOL     OW15718   0.036   2.138   4.842
 4940SOL    HW115719   0.082   2.218   4.879
 4940SOL    HW215720   6.985   2.111   4.903
 4941SOL     OW15721   4.361   1.825   5.416
 4941SOL    HW115722   4.455   1.852   5.435
 4941SOL    HW215723   4.309   1.904   5.384
 4942SOL     OW15724   0.303   1.588   3.343
 4942SOL    HW115725   0.305   1.601   3.244
 4942SOL    HW215726   0.305   1.491   3.364
 4943SOL     OW15727   4.953   2.978   6.686
 4943SOL    HW115728   4.888   3.021   6.749
 4943SOL    HW215729   5.024   3.043   6.662
 4944SOL     OW15730   0.838   4.872   0.300
 4944SOL    HW115731   0.760   4.813   0.283
 4944SOL    HW215732   0.858   4.874   0.398
 4945SOL     OW15733   2.252   0.691   5.403
 4945SOL    HW115734   2.174   0.751   5.419
 4945SOL    HW215735   2.325   0.714   5.467
 4946SOL     OW15736   2.958   5.001   0.155
 4946SOL    HW115737   2.899   4.920   0.153
 4946SOL    HW215738   2.903   5.083   0.168
 4947SOL     OW15739   1.254   0.693   1.949
 4947SOL    HW115740   1.263   0.756   1.872
 4947SOL    HW215741   1.338   0.640   1.959
 4948SOL     OW15742   1.767   2.618   1.872
 4948SOL    HW115743   1.751   2.617   1.773
 4948SOL    HW215744   1.854   2.664   1.891
 4949SOL     OW15745   0.046   4.806   6.894
 4949SOL    HW115746   0.121   4.779   6.834
 4949SOL    HW215747   6.985   4.766   6.861
 4950SOL     OW15748   3.129   3.805   5.821
 4950SOL    HW115749   3.179   3.846   5.898
 4950SOL    HW215750   3.186   3.811   5.739
 4951SOL     OW15751   5.156   5.318   3.399
 4951SOL    HW115752   5.117   5.302   3.490
 4951SOL    HW215753   5.085   5.306   3.330
 4952SOL     OW15754   0.552   6.869   6.403
 4952SOL    HW115755   0.571   6.832   6.312
 4952SOL    HW215756   0.524   6.964   6.395
 4953SOL     OW15757   0.795   1.877   4.830
 4953SOL    HW115758   0.835   1.856   4.919
 4953SOL    HW215759   0.704   1.916   4.842
 4954SOL     OW15760   3.129   3.996   4.914
 4954SOL    HW115761   3.218   4.036   4.896
 4954SOL    HW215762   3.074   4.059   4.969
 4955SOL     OW15763   4.137   5.162   5.886
 4955SOL    HW115764   4.121   5.258   5.863
 4955SOL    HW215765   4.148   5.109   5.802
 4956SOL     OW15766   2.729   0.281   4.801
 4956SOL    HW115767   2.708   0.375   4.830
 4956SOL    HW215768   2.781   0.284   4.715
 4957SOL     OW15769   5.889   4.595   6.453
 4957SOL    HW115770   5.864   4.566   6.361
 4957SOL    HW215771   5.877   4.519   6.517
 4958SOL     OW15772   3.487   6.374   0.491
 4958SOL    HW115773   3.435   6.303   0.443
 4958SOL    HW215774   3.573   6.390   0.441
 4959SOL     OW15775   0.857   2.004   2.834
 4959SOL    HW115776   0.810   1.995   2.922
 4959SOL    HW215777   0.916   2.084   2.835
 4960SOL     OW15778   4.414   4.615   4.126
 4960SOL    HW115779   4.453   4.624   4.218
 4960SOL    HW215780   4.340   4.682   4.115
 4961SOL     OW15781   3.478   1.060   0.853
 4961SOL    HW115782   3.432   1.086   0.769
 4961SOL    HW215783   3.523   1.141   0.893
 4962SOL     OW15784   1.315   4.037   0.892
 4962SOL    HW115785   1.378   3.995   0.827
 4962SOL    HW215786   1.351   4.127   0.920
 4963SOL     OW15787   1.184   3.699   6.324
 4963SOL    HW115788   1.205   3.705   6.226
 4963SOL    HW215789   1.236   3.623   6.364
 4964SOL     OW15790   2.610   6.941   4.534
 4964SOL    HW115791   2.695   6.948   4.480
 4964SOL    HW215792   2.593   6.845   4.555
 4965SOL     OW15793   1.716   6.078   3.396
 4965SOL    HW115794   1.639   6.039   3.345
 4965SOL    HW215795   1.696   6.174   3.418
 4966SOL     OW15796   2.880   0.014   4.460
 4966SOL    HW115797   2.939   6.994   4.392
 4966SOL    HW215798   2.925   0.012   4.550
 4967SOL     OW15799   4.396   4.732   5.015
 4967SOL    HW115800   4.475   4.765   5.066
 4967SOL    HW215801   4.399   4.633   5.008
 4968SOL     OW15802   6.304   2.585   3.050
 4968SOL    HW115803   6.346   2.671   3.021
 4968SOL    HW215804   6.297   2.583   3.149
 4969SOL     OW15805   0.659   6.340   3.452
 4969SOL    HW115806   0.661   6.423   3.397
 4969SOL    HW215807   0.715   6.269   3.409
 4970SOL     OW15808   0.777   1.495   1.340
 4970SOL    HW115809   0.696   1.539   1.379
 4970SOL    HW215810   0.835   1.460   1.413
 4971SOL     OW15811   0.010   6.074   2.537
 4971SOL    HW115812   0.079   6.126   2.486
 4971SOL    HW215813   0.055   6.000   2.586
 4972SOL     OW15814   0.691   4.467   1.208
 4972SOL    HW115815   0.740   4.444   1.124
 4972SOL    HW215816   0.645   4.386   1.243
 4973SOL     OW15817   6.854   0.895   0.612
 4973SOL    HW115818   6.901   0.982   0.595
 4973SOL    HW215819   6.757   0.913   0.630
 4974SOL     OW15820   3.726   5.953   5.284
 4974SOL    HW115821   3.646   6.013   5.288
 4974SOL    HW215822   3.768   5.947   5.375
 4975SOL     OW15823   5.683   4.509   0.812
 4975SOL    HW115824   5.680   4.608   0.796
 4975SOL    HW215825   5.612   4.483   0.877
 4976SOL     OW15826   1.718   6.730   3.150
 4976SOL    HW115827   1.721   6.632   3.168
 4976SOL    HW215828   1.646   6.750   3.083
 4977SOL     OW15829   1.810   4.611   5.953
 4977SOL    HW115830   1.790   4.690   6.012
 4977SOL    HW215831   1.725   4.567   5.926
 4978SOL     OW15832   5.120   4.581   4.728
 4978SOL    HW115833   5.106   4.485   4.703
 4978SOL    HW215834   5.110   4.638   4.646
 4979SOL     OW15835   2.679   6.977   5.915
 4979SOL    HW115836   2.590   6.999   5.955
 4979SOL    HW215837   2.673   6.986   5.815
 4980SOL     OW15838   5.438   3.673   3.706
 4980SOL    HW115839   5.341   3.695   3.707
 4980SOL    HW215840   5.449   3.575   3.691
 4981SOL     OW15841   3.237   4.893   2.289
 4981SOL    HW115842   3.144   4.872   2.321
 4981SOL    HW215843   3.243   4.877   2.190
 4982SOL     OW15844   3.913   1.584   5.933
 4982SOL    HW115845   4.006   1.563   5.963
 4982SOL    HW215846   3.912   1.672   5.886
 4983SOL     OW15847   5.775   5.824   2.917
 4983SOL    HW115848   5.730   5.879   2.987
 4983SOL    HW215849   5.852   5.775   2.959
 4984SOL     OW15850   4.666   4.449   3.258
 4984SOL    HW115851   4.705   4.534   3.292
 4984SOL    HW215852   4.674   4.445   3.159
 4985SOL     OW15853   5.203   6.505   2.546
 4985SOL    HW115854   5.147   6.469   2.621
 4985SOL    HW215855   5.144   6.555   2.482
 4986SOL     OW15856   0.462   5.275   2.276
 4986SOL    HW115857   0.524   5.343   2.236
 4986SOL    HW215858   0.511   5.222   2.345
 4987SOL     OW15859   0.790   0.742   2.415
 4987SOL    HW115860   0.775   0.803   2.493
 4987SOL    HW215861   0.881   0.758   2.378
 4988SOL     OW15862   6.181   6.421   3.303
 4988SOL    HW115863   6.133   6.469   3.228
 4988SOL    HW215864   6.277   6.448   3.304
 4989SOL     OW15865   4.618   6.795   2.862
 4989SOL    HW115866   4.539   6.737   2.841
 4989SOL    HW215867   4.587   6.880   2.905
 4990SOL     OW15868   4.651   2.388   5.041
 4990SOL    HW115869   4.558   2.353   5.030
 4990SOL    HW215870   4.662   2.469   4.983
 4991SOL     OW15871   1.443   5.140   5.166
 4991SOL    HW115872   1.374   5.127   5.238
 4991SOL    HW215873   1.468   5.237   5.161
 4992SOL     OW15874   0.602   2.755   4.100
 4992SOL    HW115875   0.509   2.784   4.124
 4992SOL    HW215876   0.600   2.660   4.070
 4993SOL     OW15877   3.180   6.036   3.611
 4993SOL    HW115878   3.105   6.018   3.676
 4993SOL    HW215879   3.161   6.120   3.561
 4994SOL     OW15880   3.149   4.330   5.429
 4994SOL    HW115881   3.151   4.391   5.509
 4994SOL    HW215882   3.223   4.356   5.366
 4995SOL     OW15883   0.909   0.167   5.875
 4995SOL    HW115884   0.988   0.227   5.876
 4995SOL    HW215885   0.828   0.217   5.907
 4996SOL     OW15886   6.785   1.325   4.399
 4996SOL    HW115887   6.861   1.388   4.410
 4996SOL    HW215888   6.749   1.331   4.306
 4997SOL     OW15889   3.780   1.883   1.274
 4997SOL    HW115890   3.801   1.786   1.287
 4997SOL    HW215891   3.858   1.928   1.229
 4998SOL     OW15892   0.091   3.861   3.542
 4998SOL    HW115893   7.016   3.858   3.524
 4998SOL    HW215894   0.118   3.956   3.556
 4999SOL     OW15895   0.846   3.512   4.462
 4999SOL    HW115896   0.869   3.414   4.465
 4999SOL    HW215897   0.877   3.556   4.547
 5000SOL     OW15898   2.951   5.216   2.679
 5000SOL    HW115899   2.960   5.230   2.580
 5000SOL    HW215900   2.967   5.302   2.727
 5001SOL     OW15901   0.206   5.758   3.377
 5001SOL    HW115902   0.263   5.680   3.351
 5001SOL    HW215903   0.262   5.825   3.427
 5002SOL     OW15904   0.351   3.202   3.559
 5002SOL    HW115905   0.409   3.266   3.608
 5002SOL    HW215906   0.402   3.161   3.483
 5003SOL     OW15907   4.122   0.345   4.037
 5003SOL    HW115908   4.168   0.309   3.956
 5003SOL    HW215909   4.039   0.292   4.055
 5004SOL     OW15910   2.383   5.746   6.781
 5004SOL    HW115911   2.400   5.662   6.730
 5004SOL    HW215912   2.429   5.822   6.735
 5005SOL     OW15913   3.208   2.145   0.410
 5005SOL    HW115914   3.269   2.183   0.340
 5005SOL    HW215915   3.192   2.048   0.391
 5006SOL     OW15916   5.112   1.519   2.218
 5006SOL    HW115917   5.104   1.612   2.255
 5006SOL    HW215918   5.061   1.512   2.133
 5007SOL     OW15919   5.869   6.579   1.979
 5007SOL    HW115920   5.902   6.673   1.987
 5007SOL    HW215921   5.830   6.550   2.067
 5008SOL     OW15922   5.458   6.887   2.188
 5008SOL    HW115923   5.474   6.817   2.119
 5008SOL    HW215924   5.507   6.863   2.272
 5009SOL     OW15925   6.848   2.497   0.888
 5009SOL    HW115926   6.833   2.460   0.980
 5009SOL    HW215927   6.906   2.578   0.894
 5010SOL     OW15928   3.810   3.662   0.744
 5010SOL    HW115929   3.851   3.616   0.665
 5010SOL    HW215930   3.865   3.742   0.768
 5011SOL     OW15931   2.314   3.204   6.799
 5011SOL    HW115932   2.264   3.211   6.712
 5011SOL    HW215933   2.411   3.219   6.782
 5012SOL     OW15934   6.193   2.273   5.252
 5012SOL    HW115935   6.130   2.276   5.175
 5012SOL    HW215936   6.200   2.180   5.287
 5013SOL     OW15937   6.198   0.356   5.797
 5013SOL    HW115938   6.123   0.358   5.731
 5013SOL    HW215939   6.171   0.302   5.876
 5014SOL     OW15940   6.638   3.727   1.676
 5014SOL    HW115941   6.720   3.686   1.636
 5014SOL    HW215942   6.639   3.715   1.775
 5015SOL     OW15943   5.246   6.461   3.942
 5015SOL    HW115944   5.242   6.556   3.972
 5015SOL    HW215945   5.339   6.427   3.953
 5016SOL     OW15946   1.917   3.842   5.468
 5016SOL    HW115947   1.971   3.918   5.504
 5016SOL    HW215948   1.962   3.804   5.388
 5017SOL     OW15949   0.368   3.167   1.602
 5017SOL    HW115950   0.383   3.124   1.691
 5017SOL    HW215951   0.452   3.213   1.573
 5018SOL     OW15952   0.654   0.045   0.978
 5018SOL    HW115953   0.731   7.013   0.948
 5018SOL    HW215954   0.596   7.017   1.039
 5019SOL     OW15955   0.924   5.286   5.368
 5019SOL    HW115956   0.891   5.195   5.343
 5019SOL    HW215957   0.878   5.316   5.451
 5020SOL     OW15958   2.222   6.870   4.482
 5020SOL    HW115959   2.267   6.953   4.447
 5020SOL    HW215960   2.279   6.791   4.462
 5021SOL     OW15961   1.405   1.421   1.053
 5021SOL    HW115962   1.437   1.329   1.072
 5021SOL    HW215963   1.307   1.427   1.071
 5022SOL     OW15964   0.210   3.396   1.486
 5022SOL    HW115965   0.276   3.322   1.469
 5022SOL    HW215966   0.236   3.446   1.568
 5023SOL     OW15967   6.792   4.550   2.709
 5023SOL    HW115968   6.832   4.468   2.668
 5023SOL    HW215969   6.724   4.524   2.778
 5024SOL     OW15970   4.582   3.563   1.386
 5024SOL    HW115971   4.504   3.620   1.358
 5024SOL    HW215972   4.666   3.601   1.348
 5025SOL     OW15973   3.954   1.015   3.879
 5025SOL    HW115974   4.050   1.040   3.882
 5025SOL    HW215975   3.906   1.073   3.813
 5026SOL     OW15976   4.472   0.137   4.968
 5026SOL    HW115977   4.481   0.152   5.067
 5026SOL    HW215978   4.524   0.208   4.919
 5027SOL     OW15979   5.182   0.235   0.145
 5027SOL    HW115980   5.201   0.289   0.227
 5027SOL    HW215981   5.264   0.233   0.087
 5028SOL     OW15982   0.421   2.016   2.782
 5028SOL    HW115983   0.509   2.003   2.735
 5028SOL    HW215984   0.388   2.109   2.765
 5029SOL     OW15985   6.221   1.787   2.688
 5029SOL    HW115986   6.133   1.740   2.696
 5029SOL    HW215987   6.267   1.787   2.777
 5030SOL     OW15988   0.069   4.544   6.619
 5030SOL    HW115989   0.102   4.546   6.713
 5030SOL    HW215990   0.069   4.450   6.586
 5031SOL     OW15991   6.764   0.329   6.533
 5031SOL    HW115992   6.799   0.253   6.588
 5031SOL    HW215993   6.667   0.313   6.513
 5032SOL     OW15994   2.967   3.510   5.546
 5032SOL    HW115995   2.983   3.590   5.487
 5032SOL    HW215996   2.877   3.471   5.525
 5033SOL     OW15997   1.627   1.205   0.213
 5033SOL    HW115998   1.587   1.263   0.142
 5033SOL    HW215999   1.628   1.110   0.181
 5034SOL     OW16000   4.368   6.734   3.753
 5034SOL    HW116001   4.283   6.777   3.724
 5034SOL    HW216002   4.446   6.777   3.706
 5035SOL     OW16003   1.563   4.330   3.695
 5035SOL    HW116004   1.652   4.312   3.652
 5035SOL    HW216005   1.516   4.243   3.711
 5036SOL     OW16006   6.050   2.757   5.339
 5036SOL    HW116007   6.134   2.755   5.285
 5036SOL    HW216008   6.003   2.844   5.325
 5037SOL     OW16009   4.603   4.338   0.568
 5037SOL    HW116010   4.621   4.436   0.579
 5037SOL    HW216011   4.529   4.310   0.628
 5038SOL     OW16012   3.456   3.873   3.954
 5038SOL    HW116013   3.359   3.863   3.974
 5038SOL    HW216014   3.505   3.793   3.989
 5039SOL     OW16015   0.699   3.392   6.643
 5039SOL    HW116016   0.699   3.315   6.579
 5039SOL    HW216017   0.780   3.448   6.627
 5040SOL     OW16018   0.682   6.180   6.663
 5040SOL    HW116019   0.636   6.115   6.602
 5040SOL    HW216020   0.781   6.171   6.654
 5041SOL     OW16021   0.273   3.531   2.103
 5041SOL    HW116022   0.307   3.462   2.039
 5041SOL    HW216023   0.234   3.486   2.183
 5042SOL     OW16024   0.657   2.770   5.958
 5042SOL    HW116025   0.737   2.731   6.005
 5042SOL    HW216026   0.646   2.866   5.985
 5043SOL     OW16027   3.773   6.654   0.750
 5043SOL    HW116028   3.783   6.753   0.754
 5043SOL    HW216029   3.861   6.611   0.772
 5044SOL     OW16030   5.818   5.335   0.776
 5044SOL    HW116031   5.774   5.308   0.861
 5044SOL    HW216032   5.877   5.415   0.792
 5045SOL     OW16033   6.514   3.485   6.021
 5045SOL    HW116034   6.431   3.439   6.053
 5045SOL    HW216035   6.494   3.580   6.001
 5046SOL     OW16036   3.626   3.119   3.429
 5046SOL    HW116037   3.538   3.164   3.439
 5046SOL    HW216038   3.637   3.049   3.499
 5047SOL     OW16039   1.296   4.023   3.132
 5047SOL    HW116040   1.298   4.001   3.229
 5047SOL    HW216041   1.350   4.106   3.116
 5048SOL     OW16042   1.377   1.067   5.731
 5048SOL    HW116043   1.418   1.158   5.731
 5048SOL    HW216044   1.297   1.066   5.671
 5049SOL     OW16045   5.665   0.770   6.279
 5049SOL    HW116046   5.717   0.854   6.264
 5049SOL    HW216047   5.659   0.751   6.377
 5050SOL     OW16048   1.731   0.816   1.551
 5050SOL    HW116049   1.690   0.802   1.461
 5050SOL    HW216050   1.780   0.733   1.578
 5051SOL     OW16051   3.994   5.235   1.202
 5051SOL    HW116052   4.060   5.184   1.257
 5051SOL    HW216053   3.954   5.308   1.256
 5052SOL     OW16054   2.775   1.055   6.052
 5052SOL    HW116055   2.781   1.111   5.970
 5052SOL    HW216056   2.859   1.065   6.106
 5053SOL     OW16057   0.520   6.561   2.163
 5053SOL    HW116058   0.598   6.527   2.111
 5053SOL    HW216059   0.530   6.659   2.178
 5054SOL     OW16060   4.202   4.788   4.152
 5054SOL    HW116061   4.204   4.744   4.242
 5054SOL    HW216062   4.217   4.886   4.163
 5055SOL     OW16063   6.489   2.852   6.523
 5055SOL    HW116064   6.538   2.923   6.573
 5055SOL    HW216065   6.452   2.785   6.588
 5056SOL     OW16066   5.467   4.301   5.166
 5056SOL    HW116067   5.466   4.202   5.179
 5056SOL    HW216068   5.415   4.325   5.083
 5057SOL     OW16069   1.048   6.611   3.029
 5057SOL    HW116070   0.966   6.592   2.975
 5057SOL    HW216071   1.038   6.698   3.077
 5058SOL     OW16072   2.979   4.682   5.963
 5058SOL    HW116073   2.958   4.688   6.061
 5058SOL    HW216074   2.925   4.748   5.912
 5059SOL     OW16075   0.656   0.898   2.652
 5059SOL    HW116076   0.618   0.983   2.615
 5059SOL    HW216077   0.674   0.910   2.749
 5060SOL     OW16078   6.760   2.259   5.679
 5060SOL    HW116079   6.846   2.214   5.703
 5060SOL    HW216080   6.684   2.208   5.718
 5061SOL     OW16081   5.672   3.915   0.230
 5061SOL    HW116082   5.721   4.001   0.245
 5061SOL    HW216083   5.574   3.931   0.243
 5062SOL     OW16084   0.114   6.533   1.317
 5062SOL    HW116085   0.018   6.527   1.288
 5062SOL    HW216086   0.155   6.617   1.281
 5063SOL     OW16087   1.144   6.675   2.010
 5063SOL    HW116088   1.200   6.692   1.928
 5063SOL    HW216089   1.086   6.595   1.994
 5064SOL     OW16090   4.484   3.003   0.026
 5064SOL    HW116091   4.416   2.949   0.076
 5064SOL    HW216092   4.574   2.987   0.065
 5065SOL     OW16093   2.263   6.624   5.874
 5065SOL    HW116094   2.234   6.595   5.782
 5065SOL    HW216095   2.310   6.548   5.919
 5066SOL     OW16096   5.725   4.942   1.085
 5066SOL    HW116097   5.658   4.869   1.074
 5066SOL    HW216098   5.801   4.910   1.141
 5067SOL     OW16099   4.836   1.278   0.454
 5067SOL    HW116100   4.771   1.246   0.385
 5067SOL    HW216101   4.929   1.270   0.417
 5068SOL     OW16102   2.760   5.027   0.947
 5068SOL    HW116103   2.774   5.080   0.863
 5068SOL    HW216104   2.807   4.940   0.940
 5069SOL     OW16105   0.549   4.639   2.962
 5069SOL    HW116106   0.606   4.716   2.990
 5069SOL    HW216107   0.600   4.554   2.973
 5070SOL     OW16108   5.543   2.950   3.524
 5070SOL    HW116109   5.469   3.016   3.524
 5070SOL    HW216110   5.566   2.925   3.618
 5071SOL     OW16111   4.478   1.791   0.169
 5071SOL    HW116112   4.515   1.738   0.093
 5071SOL    HW216113   4.434   1.874   0.133
 5072SOL     OW16114   1.085   4.302   1.475
 5072SOL    HW116115   1.147   4.224   1.469
 5072SOL    HW216116   1.076   4.330   1.571
 5073SOL     OW16117   4.607   0.928   3.390
 5073SOL    HW116118   4.551   0.865   3.443
 5073SOL    HW216119   4.549   1.002   3.356
 5074SOL     OW16120   2.636   4.088   6.102
 5074SOL    HW116121   2.670   4.078   6.009
 5074SOL    HW216122   2.616   4.184   6.121
 5075SOL     OW16123   0.494   5.964   4.701
 5075SOL    HW116124   0.590   5.990   4.709
 5075SOL    HW216125   0.456   5.951   4.793
 5076SOL     OW16126   3.182   0.098   1.357
 5076SOL    HW116127   3.137   0.011   1.337
 5076SOL    HW216128   3.164   0.124   1.452
 5077SOL     OW16129   0.249   2.314   3.275
 5077SOL    HW116130   0.210   2.264   3.352
 5077SOL    HW216131   0.340   2.348   3.300
 5078SOL     OW16132   1.144   1.826   3.994
 5078SOL    HW116133   1.108   1.825   3.901
 5078SOL    HW216134   1.244   1.826   3.991
 5079SOL     OW16135   3.575   5.278   5.569
 5079SOL    HW116136   3.596   5.200   5.510
 5079SOL    HW216137   3.630   5.273   5.652
 5080SOL     OW16138   6.158   6.545   5.583
 5080SOL    HW116139   6.189   6.632   5.621
 5080SOL    HW216140   6.228   6.475   5.599
 5081SOL     OW16141   3.751   3.587   3.753
 5081SOL    HW116142   3.675   3.564   3.814
 5081SOL    HW216143   3.715   3.631   3.671
 5082SOL     OW16144   5.560   5.979   4.823
 5082SOL    HW116145   5.588   6.075   4.822
 5082SOL    HW216146   5.528   5.955   4.914
 5083SOL     OW16147   1.952   6.037   1.747
 5083SOL    HW116148   2.044   6.027   1.784
 5083SOL    HW216149   1.887   6.045   1.822
 5084SOL     OW16150   1.697   5.851   3.126
 5084SOL    HW116151   1.725   5.916   3.055
 5084SOL    HW216152   1.600   5.829   3.114
 5085SOL     OW16153   6.403   2.658   6.674
 5085SOL    HW116154   6.421   2.569   6.632
 5085SOL    HW216155   6.442   2.659   6.766
 5086SOL     OW16156   6.692   5.081   3.265
 5086SOL    HW116157   6.757   5.007   3.281
 5086SOL    HW216158   6.702   5.115   3.172
 5087SOL     OW16159   0.059   5.373   5.856
 5087SOL    HW116160   0.142   5.333   5.896
 5087SOL    HW216161   0.077   5.469   5.832
 5088SOL     OW16162   5.657   0.360   6.639
 5088SOL    HW116163   5.720   0.283   6.647
 5088SOL    HW216164   5.644   0.384   6.543
 5089SOL     OW16165   5.444   3.804   3.359
 5089SOL    HW116166   5.499   3.738   3.410
 5089SOL    HW216167   5.489   3.824   3.272
 5090SOL     OW16168   1.550   5.120   0.923
 5090SOL    HW116169   1.528   5.184   0.849
 5090SOL    HW216170   1.483   5.132   0.997
 5091SOL     OW16171   1.632   6.123   2.863
 5091SOL    HW116172   1.586   6.151   2.948
 5091SOL    HW216173   1.713   6.070   2.885
 5092SOL     OW16174   4.300   2.421   1.335
 5092SOL    HW116175   4.378   2.442   1.394
 5092SOL    HW216176   4.231   2.493   1.345
 5093SOL     OW16177   0.863   2.150   1.556
 5093SOL    HW116178   0.831   2.075   1.614
 5093SOL    HW216179   0.963   2.150   1.552
 5094SOL     OW16180   0.706   0.178   5.605
 5094SOL    HW116181   0.798   0.210   5.627
 5094SOL    HW216182   0.705   0.078   5.604
 5095SOL     OW16183   2.856   6.916   5.159
 5095SOL    HW116184   2.909   6.958   5.233
 5095SOL    HW216185   2.871   6.967   5.074
 5096SOL     OW16186   4.217   4.468   0.946
 5096SOL    HW116187   4.178   4.549   0.902
 5096SOL    HW216188   4.142   4.410   0.982
 5097SOL     OW16189   1.620   6.987   6.180
 5097SOL    HW116190   1.598   6.912   6.242
 5097SOL    HW216191   1.705   0.007   6.209
 5098SOL     OW16192   0.355   2.045   2.519
 5098SOL    HW116193   0.374   2.003   2.608
 5098SOL    HW216194   0.438   2.045   2.463
 5099SOL     OW16195   1.217   0.228   5.267
 5099SOL    HW116196   1.239   0.135   5.297
 5099SOL    HW216197   1.290   0.261   5.207
 5100SOL     OW16198   5.235   0.034   6.220
 5100SOL    HW116199   5.248   7.016   6.130
 5100SOL    HW216200   5.152   0.089   6.220
 5101SOL     OW16201   3.886   6.169   0.454
 5101SOL    HW116202   3.799   6.118   0.459
 5101SOL    HW216203   3.880   6.250   0.511
 5102SOL     OW16204   3.537   6.421   5.304
 5102SOL    HW116205   3.502   6.346   5.247
 5102SOL    HW216206   3.465   6.452   5.365
 5103SOL     OW16207   0.962   0.922   4.165
 5103SOL    HW116208   0.890   0.863   4.128
 5103SOL    HW216209   0.932   0.962   4.251
 5104SOL     OW16210   1.449   0.335   1.171
 5104SOL    HW116211   1.398   0.304   1.251
 5104SOL    HW216212   1.507   0.412   1.197
 5105SOL     OW16213   3.195   4.048   6.487
 5105SOL    HW116214   3.149   3.981   6.546
 5105SOL    HW216215   3.134   4.073   6.411
 5106SOL     OW16216   3.290   0.286   2.270
 5106SOL    HW116217   3.195   0.314   2.260
 5106SOL    HW216218   3.349   0.358   2.232
 5107SOL     OW16219   1.627   6.611   5.468
 5107SOL    HW116220   1.692   6.685   5.449
 5107SOL    HW216221   1.534   6.644   5.452
 5108SOL     OW16222   3.327   3.390   4.199
 5108SOL    HW116223   3.292   3.346   4.282
 5108SOL    HW216224   3.395   3.458   4.224
 5109SOL     OW16225   6.961   1.252   1.404
 5109SOL    HW116226   6.946   1.289   1.496
 5109SOL    HW216227   6.879   1.202   1.375
 5110SOL     OW16228   2.212   5.786   5.516
 5110SOL    HW116229   2.145   5.797   5.590
 5110SOL    HW216230   2.228   5.875   5.472
 5111SOL     OW16231   1.413   0.868   1.115
 5111SOL    HW116232   1.394   0.880   1.017
 5111SOL    HW216233   1.332   0.830   1.160
 5112SOL     OW16234   0.322   5.983   4.014
 5112SOL    HW116235   0.313   6.076   4.048
 5112SOL    HW216236   0.389   5.934   4.070
 5113SOL     OW16237   1.289   6.947   6.947
 5113SOL    HW116238   1.227   6.999   7.006
 5113SOL    HW216239   1.260   6.851   6.945
 5114SOL     OW16240   3.966   5.048   0.289
 5114SOL    HW116241   3.978   4.970   0.228
 5114SOL    HW216242   3.954   5.132   0.234
 5115SOL     OW16243   1.976   3.496   5.446
 5115SOL    HW116244   2.064   3.542   5.430
 5115SOL    HW216245   1.949   3.447   5.363
 5116SOL     OW16246   6.796   4.309   0.809
 5116SOL    HW116247   6.698   4.325   0.803
 5116SOL    HW216248   6.813   4.214   0.832
 5117SOL     OW16249   2.537   4.539   4.360
 5117SOL    HW116250   2.630   4.563   4.333
 5117SOL    HW216251   2.518   4.445   4.332
 5118SOL     OW16252   4.406   6.455   0.875
 5118SOL    HW116253   4.466   6.384   0.913
 5118SOL    HW216254   4.462   6.534   0.850
 5119SOL     OW16255   5.712   0.195   2.096
 5119SOL    HW116256   5.804   0.200   2.057
 5119SOL    HW216257   5.684   0.285   2.128
 5120SOL     OW16258   5.162   1.468   2.790
 5120SOL    HW116259   5.131   1.561   2.810
 5120SOL    HW216260   5.182   1.421   2.875
 5121SOL     OW16261   0.410   3.851   5.235
 5121SOL    HW116262   0.445   3.803   5.315
 5121SOL    HW216263   0.480   3.914   5.201
 5122SOL     OW16264   1.930   6.126   3.677
 5122SOL    HW116265   1.878   6.196   3.727
 5122SOL    HW216266   1.995   6.171   3.616
 5123SOL     OW16267   5.738   4.842   2.430
 5123SOL    HW116268   5.654   4.791   2.451
 5123SOL    HW216269   5.769   4.889   2.512
 5124SOL     OW16270   2.868   6.485   0.083
 5124SOL    HW116271   2.872   6.576   0.041
 5124SOL    HW216272   2.777   6.469   0.120
 5125SOL     OW16273   0.193   2.985   5.232
 5125SOL    HW116274   0.248   2.956   5.310
 5125SOL    HW216275   0.097   2.964   5.250
 5126SOL     OW16276   5.469   3.674   6.010
 5126SOL    HW116277   5.539   3.718   6.066
 5126SOL    HW216278   5.501   3.584   5.981
 5127SOL     OW16279   5.879   3.044   6.543
 5127SOL    HW116280   5.784   3.014   6.539
 5127SOL    HW216281   5.921   3.035   6.453
 5128SOL     OW16282   0.295   0.687   6.741
 5128SOL    HW116283   0.347   0.698   6.657
 5128SOL    HW216284   0.246   0.600   6.740
 5129SOL     OW16285   4.069   1.878   2.460
 5129SOL    HW116286   4.164   1.911   2.455
 5129SOL    HW216287   4.033   1.867   2.367
 5130SOL     OW16288   1.142   6.280   4.780
 5130SOL    HW116289   1.130   6.183   4.759
 5130SOL    HW216290   1.087   6.303   4.861
 5131SOL     OW16291   3.061   4.976   3.547
 5131SOL    HW116292   3.097   4.939   3.633
 5131SOL    HW216293   3.137   4.994   3.485
 5132SOL     OW16294   3.426   1.264   6.820
 5132SOL    HW116295   3.371   1.221   6.748
 5132SOL    HW216296   3.521   1.236   6.811
 5133SOL     OW16297   4.948   4.297   6.642
 5133SOL    HW116298   4.989   4.258   6.724
 5133SOL    HW216299   4.853   4.266   6.633
 5134SOL     OW16300   6.300   6.315   1.157
 5134SOL    HW116301   6.383   6.358   1.192
 5134SOL    HW216302   6.262   6.369   1.083
 5135SOL     OW16303   6.425   3.128   2.318
 5135SOL    HW116304   6.345   3.075   2.290
 5135SOL    HW216305   6.406   3.175   2.404
 5136SOL     OW16306   1.067   0.880   5.913
 5136SOL    HW116307   1.025   0.971   5.907
 5136SOL    HW216308   1.150   0.885   5.967
 5137SOL     OW16309   6.220   1.129   4.530
 5137SOL    HW116310   6.141   1.183   4.561
 5137SOL    HW216311   6.302   1.187   4.530
 5138SOL     OW16312   3.063   3.329   3.836
 5138SOL    HW116313   3.109   3.394   3.895
 5138SOL    HW216314   3.045   3.371   3.747
 5139SOL     OW16315   2.887   0.175   5.774
 5139SOL    HW116316   2.897   0.172   5.874
 5139SOL    HW216317   2.879   0.270   5.745
 5140SOL     OW16318   3.849   2.813   6.633
 5140SOL    HW116319   3.949   2.808   6.630
 5140SOL    HW216320   3.811   2.721   6.624
 5141SOL     OW16321   6.612   2.694   1.559
 5141SOL    HW116322   6.640   2.690   1.463
 5141SOL    HW216323   6.539   2.628   1.575
 5142SOL     OW16324   0.075   0.186   2.386
 5142SOL    HW116325   7.011   0.207   2.344
 5142SOL    HW216326   0.136   0.265   2.377
 5143SOL     OW16327   0.028   6.269   3.024
 5143SOL    HW116328   0.007   6.281   3.121
 5143SOL    HW216329   7.006   6.187   2.990
 5144SOL     OW16330   2.453   2.879   5.407
 5144SOL    HW116331   2.475   2.937   5.328
 5144SOL    HW216332   2.355   2.885   5.426
 5145SOL     OW16333   2.098   5.674   6.578
 5145SOL    HW116334   2.003   5.668   6.608
 5145SOL    HW216335   2.154   5.607   6.626
 5146SOL     OW16336   5.559   5.383   6.449
 5146SOL    HW116337   5.580   5.326   6.370
 5146SOL    HW216338   5.639   5.440   6.470
 5147SOL     OW16339   4.620   2.692   3.531
 5147SOL    HW116340   4.524   2.704   3.557
 5147SOL    HW216341   4.651   2.772   3.481
 5148SOL     OW16342   0.736   0.159   6.486
 5148SOL    HW116343   0.772   0.121   6.401
 5148SOL    HW216344   0.637   0.144   6.491
 5149SOL     OW16345   4.751   4.901   3.916
 5149SOL    HW116346   4.737   4.934   4.009
 5149SOL    HW216347   4.825   4.834   3.915
 5150SOL     OW16348   0.288   6.244   4.055
 5150SOL    HW116349   0.199   6.273   4.090
 5150SOL    HW216350   0.345   6.325   4.038
 5151SOL     OW16351   5.982   5.578   2.114
 5151SOL    HW116352   6.035   5.531   2.044
 5151SOL    HW216353   6.042   5.642   2.163
 5152SOL     OW16354   1.639   1.041   0.445
 5152SOL    HW116355   1.635   1.076   0.352
 5152SOL    HW216356   1.552   0.997   0.468
 5153SOL     OW16357   1.097   1.835   0.928
 5153SOL    HW116358   1.182   1.804   0.971
 5153SOL    HW216359   1.022   1.775   0.955
 5154SOL     OW16360   0.203   2.799   0.397
 5154SOL    HW116361   0.162   2.709   0.378
 5154SOL    HW216362   0.131   2.869   0.395
 5155SOL     OW16363   1.551   1.336   0.558
 5155SOL    HW116364   1.557   1.409   0.626
 5155SOL    HW216365   1.581   1.370   0.469
 5156SOL     OW16366   5.316   6.158   5.661
 5156SOL    HW116367   5.284   6.253   5.659
 5156SOL    HW216368   5.246   6.099   5.700
 5157SOL     OW16369   3.199   7.013   1.698
 5157SOL    HW116370   3.249   0.050   1.759
 5157SOL    HW216371   3.113   0.032   1.671
 5158SOL     OW16372   1.973   2.226   1.574
 5158SOL    HW116373   2.004   2.304   1.518
 5158SOL    HW216374   2.035   2.213   1.651
 5159SOL     OW16375   6.628   2.894   5.863
 5159SOL    HW116376   6.551   2.958   5.875
 5159SOL    HW216377   6.609   2.834   5.785
 5160SOL     OW16378   6.158   6.598   3.604
 5160SOL    HW116379   6.115   6.639   3.685
 5160SOL    HW216380   6.143   6.657   3.525
 5161SOL     OW16381   1.230   3.414   0.442
 5161SOL    HW116382   1.157   3.402   0.509
 5161SOL    HW216383   1.194   3.461   0.362
 5162SOL     OW16384   6.898   0.272   3.781
 5162SOL    HW116385   6.990   0.233   3.785
 5162SOL    HW216386   6.899   0.355   3.725
 5163SOL     OW16387   2.929   0.664   1.770
 5163SOL    HW116388   2.995   0.590   1.756
 5163SOL    HW216389   2.977   0.751   1.773
 5164SOL     OW16390   3.049   3.457   7.019
 5164SOL    HW116391   3.018   3.547   0.026
 5164SOL    HW216392   3.121   3.423   0.054
 5165SOL     OW16393   1.724   4.452   6.294
 5165SOL    HW116394   1.761   4.397   6.219
 5165SOL    HW216395   1.782   4.442   6.375
 5166SOL     OW16396   1.479   5.148   0.519
 5166SOL    HW116397   1.564   5.200   0.507
 5166SOL    HW216398   1.424   5.190   0.592
 5167SOL     OW16399   5.558   3.189   5.182
 5167SOL    HW116400   5.526   3.097   5.206
 5167SOL    HW216401   5.629   3.182   5.113
 5168SOL     OW16402   4.224   2.328   2.888
 5168SOL    HW116403   4.218   2.319   2.988
 5168SOL    HW216404   4.138   2.299   2.846
 5169SOL     OW16405   4.085   5.692   4.369
 5169SOL    HW116406   4.087   5.664   4.465
 5169SOL    HW216407   3.992   5.716   4.343
 5170SOL     OW16408   2.363   3.407   6.274
 5170SOL    HW116409   2.407   3.491   6.304
 5170SOL    HW216410   2.266   3.424   6.258
 5171SOL     OW16411   2.006   5.836   5.696
 5171SOL    HW116412   1.983   5.927   5.732
 5171SOL    HW216413   1.929   5.800   5.645
 5172SOL     OW16414   5.925   5.721   4.685
 5172SOL    HW116415   5.973   5.712   4.597
 5172SOL    HW216416   5.854   5.651   4.690
 5173SOL     OW16417   4.167   4.400   5.935
 5173SOL    HW116418   4.129   4.307   5.929
 5173SOL    HW216419   4.218   4.420   5.852
 5174SOL     OW16420   2.392   6.394   3.476
 5174SOL    HW116421   2.438   6.451   3.407
 5174SOL    HW216422   2.404   6.298   3.453
 5175SOL     OW16423   3.218   3.248   6.925
 5175SOL    HW116424   3.124   3.222   6.944
 5175SOL    HW216425   3.270   3.252   7.010
 5176SOL     OW16426   6.267   6.627   0.038
 5176SOL    HW116427   6.301   6.642   0.131
 5176SOL    HW216428   6.180   6.674   0.026
 5177SOL     OW16429   6.334   0.164   0.362
 5177SOL    HW116430   6.363   0.110   0.441
 5177SOL    HW216431   6.315   0.103   0.286
 5178SOL     OW16432   0.482   4.454   2.232
 5178SOL    HW116433   0.490   4.514   2.152
 5178SOL    HW216434   0.431   4.372   2.207
 5179SOL     OW16435   4.667   6.186   2.382
 5179SOL    HW116436   4.613   6.170   2.465
 5179SOL    HW216437   4.747   6.240   2.404
 5180SOL     OW16438   2.247   6.172   2.613
 5180SOL    HW116439   2.288   6.090   2.574
 5180SOL    HW216440   2.297   6.253   2.581
 5181SOL     OW16441   7.000   6.972   5.944
 5181SOL    HW116442   0.025   6.968   5.857
 5181SOL    HW216443   0.030   6.927   6.015
 5182SOL     OW16444   2.739   6.396   3.417
 5182SOL    HW116445   2.671   6.469   3.427
 5182SOL    HW216446   2.791   6.389   3.502
 5183SOL     OW16447   4.200   1.530   3.749
 5183SOL    HW116448   4.216   1.582   3.833
 5183SOL    HW216449   4.151   1.588   3.683
 5184SOL     OW16450   3.027   1.245   3.841
 5184SOL    HW116451   2.995   1.158   3.804
 5184SOL    HW216452   2.950   1.309   3.844
 5185SOL     OW16453   6.769   0.357   1.447
 5185SOL    HW116454   6.783   0.425   1.519
 5185SOL    HW216455   6.729   0.274   1.487
 5186SOL     OW16456   0.271   3.375   6.550
 5186SOL    HW116457   0.211   3.313   6.500
 5186SOL    HW216458   0.284   3.459   6.498
 5187SOL     OW16459   1.339   4.522   5.216
 5187SOL    HW116460   1.288   4.600   5.181
 5187SOL    HW216461   1.390   4.478   5.142
 5188SOL     OW16462   5.621   7.014   2.537
 5188SOL    HW116463   5.652   7.013   2.632
 5188SOL    HW216464   5.640   6.925   2.495
 5189SOL     OW16465   5.685   6.928   6.211
 5189SOL    HW116466   5.618   6.970   6.150
 5189SOL    HW216467   5.771   6.915   6.162
 5190SOL     OW16468   2.068   4.079   0.525
 5190SOL    HW116469   2.124   4.089   0.443
 5190SOL    HW216470   1.991   4.018   0.506
 5191SOL     OW16471   2.869   5.018   1.904
 5191SOL    HW116472   2.953   5.059   1.939
 5191SOL    HW216473   2.883   4.987   1.810
 5192SOL     OW16474   1.809   5.261   2.538
 5192SOL    HW116475   1.893   5.316   2.535
 5192SOL    HW216476   1.740   5.311   2.589
 5193SOL     OW16477   5.129   6.989   5.261
 5193SOL    HW116478   5.037   6.958   5.285
 5193SOL    HW216479   5.192   6.912   5.262
 5194SOL     OW16480   5.618   1.562   6.243
 5194SOL    HW116481   5.546   1.506   6.201
 5194SOL    HW216482   5.586   1.656   6.254
 5195SOL     OW16483   0.187   0.966   4.712
 5195SOL    HW116484   0.277   0.930   4.736
 5195SOL    HW216485   0.116   0.918   4.764
 5196SOL     OW16486   6.069   6.812   3.160
 5196SOL    HW116487   6.003   6.758   3.107
 5196SOL    HW216488   6.054   6.909   3.144
 5197SOL     OW16489   1.029   3.562   5.096
 5197SOL    HW116490   1.043   3.635   5.163
 5197SOL    HW216491   0.931   3.553   5.076
 5198SOL     OW16492   5.665   5.488   3.343
 5198SOL    HW116493   5.662   5.576   3.295
 5198SOL    HW216494   5.582   5.437   3.322
 5199SOL     OW16495   0.425   4.564   1.653
 5199SOL    HW116496   0.471   4.653   1.663
 5199SOL    HW216497   0.339   4.565   1.703
 5200SOL     OW16498   0.205   3.985   4.509
 5200SOL    HW116499   0.276   4.004   4.441
 5200SOL    HW216500   0.153   3.904   4.481
 5201SOL     OW16501   1.342   4.854   4.311
 5201SOL    HW116502   1.301   4.802   4.386
 5201SOL    HW216503   1.270   4.878   4.245
 5202SOL     OW16504   0.761   4.930   2.104
 5202SOL    HW116505   0.670   4.906   2.138
 5202SOL    HW216506   0.812   4.846   2.084
 5203SOL     OW16507   0.638   3.007   0.570
 5203SOL    HW116508   0.663   3.015   0.474
 5203SOL    HW216509   0.541   2.982   0.577
 5204SOL     OW16510   4.841   4.509   0.033
 5204SOL    HW116511   4.904   4.469   0.100
 5204SOL    HW216512   4.808   4.437   6.996
 5205SOL     OW16513   1.475   0.055   1.235
 5205SOL    HW116514   1.488   7.008   1.166
 5205SOL    HW216515   1.469   0.144   1.191
 5206SOL     OW16516   0.424   4.146   4.982
 5206SOL    HW116517   0.521   4.133   5.000
 5206SOL    HW216518   0.385   4.207   5.052
 5207SOL     OW16519   1.739   4.255   4.086
 5207SOL    HW116520   1.804   4.221   4.018
 5207SOL    HW216521   1.754   4.353   4.100
 5208SOL     OW16522   4.454   1.203   6.837
 5208SOL    HW116523   4.545   1.164   6.825
 5208SOL    HW216524   4.434   1.266   6.762
 5209SOL     OW16525   5.118   6.129   3.060
 5209SOL    HW116526   5.106   6.147   2.963
 5209SOL    HW216527   5.141   6.214   3.108
 5210SOL     OW16528   4.512   5.097   3.298
 5210SOL    HW116529   4.415   5.114   3.310
 5210SOL    HW216530   4.525   5.012   3.245
 5211SOL     OW16531   3.871   3.975   2.624
 5211SOL    HW116532   3.837   3.957   2.716
 5211SOL    HW216533   3.798   4.015   2.568
 5212SOL     OW16534   0.983   1.688   0.439
 5212SOL    HW116535   1.030   1.773   0.414
 5212SOL    HW216536   0.999   1.619   0.368
 5213SOL     OW16537   4.035   1.799   6.562
 5213SOL    HW116538   4.045   1.894   6.532
 5213SOL    HW216539   3.975   1.750   6.498
 5214SOL     OW16540   5.653   1.659   5.828
 5214SOL    HW116541   5.559   1.643   5.797
 5214SOL    HW216542   5.678   1.754   5.810
 5215SOL     OW16543   5.027   5.344   2.352
 5215SOL    HW116544   4.989   5.392   2.430
 5215SOL    HW216545   4.995   5.387   2.267
 5216SOL     OW16546   4.825   5.419   1.132
 5216SOL    HW116547   4.759   5.388   1.063
 5216SOL    HW216548   4.836   5.518   1.125
 5217SOL     OW16549   2.771   4.655   3.689
 5217SOL    HW116550   2.689   4.641   3.744
 5217SOL    HW216551   2.849   4.678   3.748
 5218SOL     OW16552   1.598   6.851   4.179
 5218SOL    HW116553   1.673   6.878   4.240
 5218SOL    HW216554   1.557   6.767   4.212
 5219SOL     OW16555   2.455   5.583   0.186
 5219SOL    HW116556   2.405   5.622   0.108
 5219SOL    HW216557   2.407   5.605   0.271
 5220SOL     OW16558   0.576   6.871   2.286
 5220SOL    HW116559   0.553   6.909   2.196
 5220SOL    HW216560   0.671   6.839   2.285
 5221SOL     OW16561   4.797   1.233   5.138
 5221SOL    HW116562   4.764   1.220   5.232
 5221SOL    HW216563   4.817   1.144   5.098
 5222SOL     OW16564   1.069   0.297   2.422
 5222SOL    HW116565   1.054   0.346   2.336
 5222SOL    HW216566   1.003   0.329   2.490
 5223SOL     OW16567   5.394   6.794   1.158
 5223SOL    HW116568   5.375   6.882   1.201
 5223SOL    HW216569   5.475   6.753   1.199
 5224SOL     OW16570   5.882   1.753   2.554
 5224SOL    HW116571   5.830   1.677   2.594
 5224SOL    HW216572   5.861   1.837   2.604
 5225SOL     OW16573   5.298   5.824   5.290
 5225SOL    HW116574   5.209   5.783   5.313
 5225SOL    HW216575   5.327   5.792   5.200
 5226SOL     OW16576   1.413   6.330   4.304
 5226SOL    HW116577   1.431   6.409   4.246
 5226SOL    HW216578   1.393   6.360   4.397
 5227SOL     OW16579   6.185   4.869   3.322
 5227SOL    HW116580   6.285   4.876   3.323
 5227SOL    HW216581   6.146   4.961   3.318
 5228SOL     OW16582   5.405   1.330   0.926
 5228SOL    HW116583   5.503   1.347   0.913
 5228SOL    HW216584   5.362   1.410   0.968
 5229SOL     OW16585   1.115   4.513   4.931
 5229SOL    HW116586   1.093   4.422   4.966
 5229SOL    HW216587   1.151   4.504   4.837
 5230SOL     OW16588   0.880   6.939   6.879
 5230SOL    HW116589   0.950   6.929   6.808
 5230SOL    HW216590   0.921   6.926   6.969
 5231SOL     OW16591   3.859   2.980   3.351
 5231SOL    HW116592   3.765   3.007   3.369
 5231SOL    HW216593   3.879   2.894   3.399
 5232SOL     OW16594   4.858   2.678   6.134
 5232SOL    HW116595   4.942   2.731   6.151
 5232SOL    HW216596   4.780   2.741   6.127
 5233SOL     OW16597   0.444   0.689   2.677
 5233SOL    HW116598   0.509   0.743   2.622
 5233SOL    HW216599   0.494   0.619   2.728
 5234SOL     OW16600   3.614   6.823   1.097
 5234SOL    HW116601   3.573   6.868   1.177
 5234SOL    HW216602   3.623   6.889   1.023
 5235SOL     OW16603   0.916   3.273   1.221
 5235SOL    HW116604   0.974   3.335   1.275
 5235SOL    HW216605   0.894   3.317   1.134
 5236SOL     OW16606   4.836   2.937   0.710
 5236SOL    HW116607   4.822   2.963   0.805
 5236SOL    HW216608   4.829   2.838   0.700
 5237SOL     OW16609   2.527   1.681   5.141
 5237SOL    HW116610   2.522   1.753   5.072
 5237SOL    HW216611   2.541   1.592   5.097
 5238SOL     OW16612   2.066   4.358   0.950
 5238SOL    HW116613   2.114   4.406   0.877
 5238SOL    HW216614   2.007   4.423   0.999
 5239SOL     OW16615   2.906   3.662   4.566
 5239SOL    HW116616   2.967   3.735   4.535
 5239SOL    HW216617   2.829   3.653   4.502
 5240SOL     OW16618   3.352   2.087   4.964
 5240SOL    HW116619   3.285   2.160   4.979
 5240SOL    HW216620   3.308   1.998   4.971
 5241SOL     OW16621   2.015   5.730   6.307
 5241SOL    HW116622   2.072   5.703   6.385
 5241SOL    HW216623   2.013   5.656   6.240
 5242SOL     OW16624   5.755   0.834   5.874
 5242SOL    HW116625   5.784   0.738   5.876
 5242SOL    HW216626   5.789   0.877   5.790
 5243SOL     OW16627   1.098   4.724   1.060
 5243SOL    HW116628   1.117   4.681   1.148
 5243SOL    HW216629   1.143   4.672   0.987
 5244SOL     OW16630   5.324   4.173   6.043
 5244SOL    HW116631   5.414   4.141   6.013
 5244SOL    HW216632   5.335   4.253   6.102
 5245SOL     OW16633   4.937   3.719   6.665
 5245SOL    HW116634   4.931   3.673   6.753
 5245SOL    HW216635   4.882   3.671   6.597
 5246SOL     OW16636   0.874   3.174   2.492
 5246SOL    HW116637   0.971   3.189   2.472
 5246SOL    HW216638   0.864   3.141   2.586
 5247SOL     OW16639   0.885   5.000   1.146
 5247SOL    HW116640   0.791   4.973   1.168
 5247SOL    HW216641   0.945   4.976   1.222
 5248SOL     OW16642   5.009   0.808   6.106
 5248SOL    HW116643   5.035   0.745   6.033
 5248SOL    HW216644   5.091   0.836   6.156
 5249SOL     OW16645   0.989   5.357   4.947
 5249SOL    HW116646   1.048   5.289   4.904
 5249SOL    HW216647   0.966   5.429   4.882
 5250SOL     OW16648   0.668   1.154   6.254
 5250SOL    HW116649   0.642   1.185   6.163
 5250SOL    HW216650   0.588   1.112   6.298
 5251SOL     OW16651   6.891   3.189   1.148
 5251SOL    HW116652   6.803   3.231   1.165
 5251SOL    HW216653   6.930   3.155   1.234
 5252SOL     OW16654   3.930   5.990   0.658
 5252SOL    HW116655   3.922   6.058   0.585
 5252SOL    HW216656   3.984   6.028   0.733
 5253SOL     OW16657   5.580   3.242   3.529
 5253SOL    HW116658   5.645   3.167   3.538
 5253SOL    HW216659   5.607   3.301   3.453
 5254SOL     OW16660   4.664   0.936   3.971
 5254SOL    HW116661   4.677   0.899   3.879
 5254SOL    HW216662   4.642   0.862   4.034
 5255SOL     OW16663   3.421   6.516   4.895
 5255SOL    HW116664   3.354   6.543   4.825
 5255SOL    HW216665   3.483   6.592   4.912
 5256SOL     OW16666   5.750   6.387   3.641
 5256SOL    HW116667   5.829   6.405   3.582
 5256SOL    HW216668   5.725   6.290   3.634
 5257SOL     OW16669   3.229   0.842   1.391
 5257SOL    HW116670   3.268   0.873   1.478
 5257SOL    HW216671   3.210   0.744   1.396
 5258SOL     OW16672   5.878   3.025   2.185
 5258SOL    HW116673   5.821   3.012   2.266
 5258SOL    HW216674   5.893   2.937   2.140
 5259SOL     OW16675   4.911   4.954   2.280
 5259SOL    HW116676   4.882   4.945   2.184
 5259SOL    HW216677   4.896   4.868   2.327
 5260SOL     OW16678   5.278   3.262   1.250
 5260SOL    HW116679   5.330   3.239   1.332
 5260SOL    HW216680   5.230   3.181   1.217
 5261SOL     OW16681   1.664   2.640   4.571
 5261SOL    HW116682   1.590   2.683   4.622
 5261SOL    HW216683   1.749   2.645   4.625
 5262SOL     OW16684   2.620   6.679   2.588
 5262SOL    HW116685   2.681   6.748   2.629
 5262SOL    HW216686   2.530   6.720   2.571
 5263SOL     OW16687   0.993   6.347   0.071
 5263SOL    HW116688   0.925   6.357   0.144
 5263SOL    HW216689   0.993   6.429   0.015
 5264SOL     OW16690   0.256   2.371   0.822
 5264SOL    HW116691   0.323   2.298   0.836
 5264SOL    HW216692   0.166   2.331   0.807
 5265SOL     OW16693   5.279   4.766   1.845
 5265SOL    HW116694   5.194   4.714   1.855
 5265SOL    HW216695   5.337   4.722   1.776
 5266SOL     OW16696   1.712   6.526   0.849
 5266SOL    HW116697   1.739   6.433   0.826
 5266SOL    HW216698   1.772   6.591   0.802
 5267SOL     OW16699   4.774   4.658   4.735
 5267SOL    HW116700   4.825   4.711   4.668
 5267SOL    HW216701   4.728   4.582   4.690
 5268SOL     OW16702   5.873   4.615   4.431
 5268SOL    HW116703   5.932   4.685   4.392
 5268SOL    HW216704   5.796   4.659   4.479
 5269SOL     OW16705   1.662   5.729   3.635
 5269SOL    HW116706   1.672   5.672   3.716
 5269SOL    HW216707   1.749   5.775   3.616
 5270SOL     OW16708   6.021   2.470   2.223
 5270SOL    HW116709   5.960   2.460   2.145
 5270SOL    HW216710   6.108   2.509   2.194
 5271SOL     OW16711   5.001   4.742   4.924
 5271SOL    HW116712   4.919   4.724   4.869
 5271SOL    HW216713   5.082   4.733   4.867
 5272SOL     OW16714   1.582   0.916   4.891
 5272SOL    HW116715   1.495   0.947   4.852
 5272SOL    HW216716   1.649   0.902   4.818
 5273SOL     OW16717   0.617   1.014   4.046
 5273SOL    HW116718   0.586   1.022   3.952
 5273SOL    HW216719   0.626   1.105   4.087
 5274SOL     OW16720   6.477   5.109   3.812
 5274SOL    HW116721   6.436   5.143   3.727
 5274SOL    HW216722   6.534   5.180   3.853
 5275SOL     OW16723   2.183   0.021   6.955
 5275SOL    HW116724   2.252   6.982   6.989
 5275SOL    HW216725   2.121   6.996   6.894
 5276SOL     OW16726   0.203   6.610   1.566
 5276SOL    HW116727   0.165   6.565   1.647
 5276SOL    HW216728   0.169   6.564   1.483
 5277SOL     OW16729   1.237   1.903   3.089
 5277SOL    HW116730   1.160   1.863   3.141
 5277SOL    HW216731   1.283   1.832   3.037
 5278SOL     OW16732   1.126   5.367   5.219
 5278SOL    HW116733   1.089   5.364   5.126
 5278SOL    HW216734   1.053   5.351   5.284
 5279SOL     OW16735   1.739   5.684   6.421
 5279SOL    HW116736   1.760   5.778   6.393
 5279SOL    HW216737   1.648   5.659   6.388
 5280SOL     OW16738   4.200   6.011   5.118
 5280SOL    HW116739   4.156   6.069   5.187
 5280SOL    HW216740   4.166   5.918   5.127
 5281SOL     OW16741   2.264   1.241   4.764
 5281SOL    HW116742   2.283   1.332   4.800
 5281SOL    HW216743   2.236   1.182   4.839
 5282SOL     OW16744   1.350   0.237   1.799
 5282SOL    HW116745   1.296   0.309   1.754
 5282SOL    HW216746   1.439   0.230   1.754
 5283SOL     OW16747   0.784   1.045   4.389
 5283SOL    HW116748   0.696   1.036   4.343
 5283SOL    HW216749   0.806   1.142   4.400
 5284SOL     OW16750   4.607   2.359   1.847
 5284SOL    HW116751   4.601   2.261   1.828
 5284SOL    HW216752   4.683   2.377   1.908
 5285SOL     OW16753   1.125   2.364   4.414
 5285SOL    HW116754   1.099   2.303   4.489
 5285SOL    HW216755   1.043   2.404   4.373
 5286SOL     OW16756   6.078   3.116   0.825
 5286SOL    HW116757   6.100   3.210   0.802
 5286SOL    HW216758   6.023   3.114   0.909
 5287SOL     OW16759   2.819   5.182   1.210
 5287SOL    HW116760   2.839   5.258   1.149
 5287SOL    HW216761   2.735   5.136   1.179
 5288SOL     OW16762   4.381   0.836   2.366
 5288SOL    HW116763   4.358   0.794   2.454
 5288SOL    HW216764   4.400   0.764   2.299
 5289SOL     OW16765   2.119   4.598   6.211
 5289SOL    HW116766   2.171   4.683   6.220
 5289SOL    HW216767   2.027   4.611   6.248
 5290SOL     OW16768   1.402   2.839   5.667
 5290SOL    HW116769   1.446   2.912   5.719
 5290SOL    HW216770   1.306   2.863   5.651
 5291SOL     OW16771   2.807   4.766   4.733
 5291SOL    HW116772   2.741   4.700   4.696
 5291SOL    HW216773   2.833   4.738   4.825
 5292SOL     OW16774   6.896   4.356   6.272
 5292SOL    HW116775   6.854   4.410   6.199
 5292SOL    HW216776   6.869   4.392   6.361
 5293SOL     OW16777   1.773   5.829   4.423
 5293SOL    HW116778   1.715   5.798   4.499
 5293SOL    HW216779   1.794   5.751   4.364
 5294SOL     OW16780   3.657   0.600   5.152
 5294SOL    HW116781   3.620   0.613   5.060
 5294SOL    HW216782   3.756   0.615   5.151
 5295SOL     OW16783   2.859   1.355   2.188
 5295SOL    HW116784   2.892   1.349   2.282
 5295SOL    HW216785   2.786   1.287   2.175
 5296SOL     OW16786   4.419   4.958   1.249
 5296SOL    HW116787   4.497   5.016   1.270
 5296SOL    HW216788   4.421   4.932   1.152
 5297SOL     OW16789   2.530   4.745   0.749
 5297SOL    HW116790   2.615   4.774   0.705
 5297SOL    HW216791   2.516   4.647   0.735
 5298SOL     OW16792   1.996   0.293   0.736
 5298SOL    HW116793   1.919   0.321   0.792
 5298SOL    HW216794   2.047   0.374   0.706
 5299SOL     OW16795   2.812   1.747   0.417
 5299SOL    HW116796   2.854   1.741   0.326
 5299SOL    HW216797   2.777   1.657   0.443
 5300SOL     OW16798   2.083   4.172   0.146
 5300SOL    HW116799   2.029   4.256   0.154
 5300SOL    HW216800   2.028   4.101   0.104
 5301SOL     OW16801   4.751   0.451   5.757
 5301SOL    HW116802   4.843   0.466   5.719
 5301SOL    HW216803   4.686   0.443   5.682
 5302SOL     OW16804   5.497   5.737   3.116
 5302SOL    HW116805   5.408   5.750   3.159
 5302SOL    HW216806   5.485   5.704   3.022
 5303SOL     OW16807   6.848   4.919   5.647
 5303SOL    HW116808   6.849   5.003   5.592
 5303SOL    HW216809   6.774   4.925   5.714
 5304SOL     OW16810   6.730   1.111   1.285
 5304SOL    HW116811   6.678   1.196   1.277
 5304SOL    HW216812   6.672   1.039   1.323
 5305SOL     OW16813   1.252   5.330   2.881
 5305SOL    HW116814   1.205   5.289   2.804
 5305SOL    HW216815   1.256   5.265   2.957
 5306SOL     OW16816   6.680   3.962   5.512
 5306SOL    HW116817   6.624   3.918   5.582
 5306SOL    HW216818   6.625   4.031   5.464
 5307SOL     OW16819   5.490   2.601   0.944
 5307SOL    HW116820   5.541   2.686   0.926
 5307SOL    HW216821   5.462   2.560   0.857
 5308SOL     OW16822   1.579   4.594   2.746
 5308SOL    HW116823   1.527   4.642   2.817
 5308SOL    HW216824   1.519   4.576   2.668
 5309SOL     OW16825   5.277   6.559   2.883
 5309SOL    HW116826   5.347   6.629   2.899
 5309SOL    HW216827   5.313   6.469   2.909
 5310SOL     OW16828   6.085   2.807   3.073
 5310SOL    HW116829   6.057   2.796   2.978
 5310SOL    HW216830   6.178   2.844   3.076
 5311SOL     OW16831   5.948   0.364   0.574
 5311SOL    HW116832   5.899   0.302   0.513
 5311SOL    HW216833   6.007   0.310   0.635
 5312SOL     OW16834   6.824   6.553   1.347
 5312SOL    HW116835   6.804   6.641   1.303
 5312SOL    HW216836   6.838   6.568   1.445
 5313SOL     OW16837   6.902   5.268   5.037
 5313SOL    HW116838   6.926   5.212   4.958
 5313SOL    HW216839   6.853   5.213   5.104
 5314SOL     OW16840   6.151   0.201   1.487
 5314SOL    HW116841   6.247   0.227   1.480
 5314SOL    HW216842   6.097   0.258   1.426
 5315SOL     OW16843   4.324   1.102   3.828
 5315SOL    HW116844   4.339   1.096   3.927
 5315SOL    HW216845   4.265   1.180   3.808
 5316SOL     OW16846   0.919   2.883   4.953
 5316SOL    HW116847   0.927   2.923   4.861
 5316SOL    HW216848   0.966   2.942   5.018
 5317SOL     OW16849   6.973   2.075   5.878
 5317SOL    HW116850   7.004   2.167   5.855
 5317SOL    HW216851   0.025   2.024   5.920
 5318SOL     OW16852   6.399   2.848   0.115
 5318SOL    HW116853   6.443   2.773   0.067
 5318SOL    HW216854   6.301   2.832   0.120
 5319SOL     OW16855   4.071   6.963   1.219
 5319SOL    HW116856   4.139   6.892   1.199
 5319SOL    HW216857   4.047   6.960   1.316
 5320SOL     OW16858   3.413   5.880   1.352
 5320SOL    HW116859   3.364   5.881   1.265
 5320SOL    HW216860   3.486   5.948   1.350
 5321SOL     OW16861   1.945   4.540   4.600
 5321SOL    HW116862   2.030   4.495   4.572
 5321SOL    HW216863   1.868   4.499   4.550
 5322SOL     OW16864   5.674   6.732   1.704
 5322SOL    HW116865   5.701   6.639   1.680
 5322SOL    HW216866   5.749   6.795   1.682
 5323SOL     OW16867   4.792   1.420   5.493
 5323SOL    HW116868   4.778   1.482   5.416
 5323SOL    HW216869   4.732   1.445   5.568
 5324SOL     OW16870   2.183   2.000   0.498
 5324SOL    HW116871   2.111   2.070   0.497
 5324SOL    HW216872   2.144   1.914   0.530
 5325SOL     OW16873   2.767   2.136   4.762
 5325SOL    HW116874   2.700   2.124   4.836
 5325SOL    HW216875   2.734   2.088   4.680
 5326SOL     OW16876   6.118   6.376   2.748
 5326SOL    HW116877   6.217   6.359   2.755
 5326SOL    HW216878   6.072   6.293   2.717
 5327SOL     OW16879   5.372   2.806   5.159
 5327SOL    HW116880   5.346   2.756   5.077
 5327SOL    HW216881   5.385   2.741   5.235
 5328SOL     OW16882   4.327   4.180   6.842
 5328SOL    HW116883   4.280   4.179   6.930
 5328SOL    HW216884   4.385   4.099   6.834
 5329SOL     OW16885   1.340   6.236   6.486
 5329SOL    HW116886   1.403   6.302   6.526
 5329SOL    HW216887   1.362   6.224   6.389
 5330SOL     OW16888   2.930   3.259   0.421
 5330SOL    HW116889   2.852   3.276   0.480
 5330SOL    HW216890   3.007   3.225   0.476
 5331SOL     OW16891   6.758   0.879   6.775
 5331SOL    HW116892   6.684   0.864   6.709
 5331SOL    HW216893   6.845   0.850   6.735
 5332SOL     OW16894   0.934   4.460   2.256
 5332SOL    HW116895   0.883   4.375   2.242
 5332SOL    HW216896   0.976   4.459   2.346
 5333SOL     OW16897   1.139   6.636   4.257
 5333SOL    HW116898   1.131   6.648   4.356
 5333SOL    HW216899   1.234   6.615   4.233
 5334SOL     OW16900   3.031   6.953   4.074
 5334SOL    HW116901   2.966   0.004   4.082
 5334SOL    HW216902   3.082   6.944   4.159
 5335SOL     OW16903   6.826   5.419   0.951
 5335SOL    HW116904   6.816   5.507   0.997
 5335SOL    HW216905   6.741   5.367   0.960
 5336SOL     OW16906   1.506   3.743   1.799
 5336SOL    HW116907   1.517   3.675   1.726
 5336SOL    HW216908   1.556   3.715   1.880
 5337SOL     OW16909   5.114   4.222   1.250
 5337SOL    HW116910   5.046   4.236   1.322
 5337SOL    HW216911   5.197   4.184   1.289
 5338SOL     OW16912   6.735   2.393   6.789
 5338SOL    HW116913   6.773   2.457   6.722
 5338SOL    HW216914   6.759   2.423   6.881
 5339SOL     OW16915   6.660   1.861   3.491
 5339SOL    HW116916   6.594   1.831   3.423
 5339SOL    HW216917   6.612   1.887   3.575
 5340SOL     OW16918   5.360   2.864   6.875
 5340SOL    HW116919   5.386   2.929   6.804
 5340SOL    HW216920   5.330   2.779   6.833
 5341SOL     OW16921   4.729   0.645   6.455
 5341SOL    HW116922   4.665   0.581   6.496
 5341SOL    HW216923   4.804   0.594   6.412
 5342SOL     OW16924   4.342   0.889   5.890
 5342SOL    HW116925   4.243   0.907   5.895
 5342SOL    HW216926   4.365   0.858   5.798
 5343SOL     OW16927   4.017   3.338   2.338
 5343SOL    HW116928   4.040   3.420   2.392
 5343SOL    HW216929   4.077   3.263   2.365
 5344SOL     OW16930   1.877   2.599   3.196
 5344SOL    HW116931   1.854   2.672   3.131
 5344SOL    HW216932   1.907   2.640   3.282
 5345SOL     OW16933   4.349   6.827   1.165
 5345SOL    HW116934   4.359   6.873   1.077
 5345SOL    HW216935   4.436   6.829   1.214
 5346SOL     OW16936   3.002   6.148   3.226
 5346SOL    HW116937   2.990   6.056   3.263
 5346SOL    HW216938   2.920   6.174   3.175
 5347SOL     OW16939   0.005   2.032   0.914
 5347SOL    HW116940   6.955   1.969   0.892
 5347SOL    HW216941   0.002   2.055   1.012
 5348SOL     OW16942   1.191   1.449   0.219
 5348SOL    HW116943   1.276   1.469   0.268
 5348SOL    HW216944   1.212   1.394   0.138
 5349SOL     OW16945   6.887   1.325   1.096
 5349SOL    HW116946   6.918   1.247   1.151
 5349SOL    HW216947   6.818   1.377   1.146
 5350SOL     OW16948   2.414   1.095   6.283
 5350SOL    HW116949   2.415   1.115   6.381
 5350SOL    HW216950   2.428   1.180   6.232
 5351SOL     OW16951   4.692   6.704   1.101
 5351SOL    HW116952   4.649   6.724   1.189
 5351SOL    HW216953   4.762   6.773   1.082
 5352SOL     OW16954   3.247   5.759   3.515
 5352SOL    HW116955   3.346   5.744   3.517
 5352SOL    HW216956   3.226   5.851   3.546
 5353SOL     OW16957   5.061   5.622   5.057
 5353SOL    HW116958   4.992   5.588   5.120
 5353SOL    HW216959   5.064   5.563   4.976
 5354SOL     OW16960   1.319   4.597   1.539
 5354SOL    HW116961   1.412   4.576   1.571
 5354SOL    HW216962   1.277   4.664   1.601
 5355SOL     OW16963   4.347   1.623   3.987
 5355SOL    HW116964   4.402   1.566   4.048
 5355SOL    HW216965   4.373   1.719   3.999
 5356SOL     OW16966   6.192   3.828   1.444
 5356SOL    HW116967   6.219   3.909   1.392
 5356SOL    HW216968   6.250   3.820   1.525
 5357SOL     OW16969   3.597   0.106   0.147
 5357SOL    HW116970   3.592   0.030   0.082
 5357SOL    HW216971   3.575   0.192   0.101
 5358SOL     OW16972   4.549   2.898   0.766
 5358SOL    HW116973   4.629   2.927   0.818
 5358SOL    HW216974   4.570   2.813   0.718
 5359SOL     OW16975   2.072   1.643   0.426
 5359SOL    HW116976   2.168   1.650   0.452
 5359SOL    HW216977   2.050   1.717   0.363
 5360SOL     OW16978   3.941   6.367   6.226
 5360SOL    HW116979   3.876   6.440   6.245
 5360SOL    HW216980   4.032   6.407   6.209
 5361SOL     OW16981   2.227   0.998   4.939
 5361SOL    HW116982   2.203   0.943   4.859
 5361SOL    HW216983   2.158   0.985   5.010
 5362SOL     OW16984   5.032   4.927   2.608
 5362SOL    HW116985   5.081   4.969   2.531
 5362SOL    HW216986   4.947   4.977   2.624
 5363SOL     OW16987   0.888   4.978   6.386
 5363SOL    HW116988   0.823   4.942   6.319
 5363SOL    HW216989   0.859   4.953   6.478
 5364SOL     OW16990   6.886   6.957   0.650
 5364SOL    HW116991   6.873   6.858   0.641
 5364SOL    HW216992   6.984   6.979   0.649
 5365SOL     OW16993   4.696   1.727   5.739
 5365SOL    HW116994   4.785   1.704   5.779
 5365SOL    HW216995   4.646   1.643   5.721
 5366SOL     OW16996   4.642   4.256   0.281
 5366SOL    HW116997   4.623   4.296   0.371
 5366SOL    HW216998   4.649   4.157   0.289
 5367SOL     OW16999   0.164   4.410   1.613
 5367SOL    HW117000   0.109   4.414   1.697
 5367SOL    HW217001   0.195   4.316   1.599
 5368SOL     OW17002   5.685   2.083   3.079
 5368SOL    HW117003   5.592   2.059   3.105
 5368SOL    HW217004   5.739   1.999   3.067
 5369SOL     OW17005   2.277   4.165   3.025
 5369SOL    HW117006   2.320   4.245   2.983
 5369SOL    HW217007   2.301   4.162   3.122
 5370SOL     OW17008   3.719   2.682   1.254
 5370SOL    HW117009   3.636   2.657   1.204
 5370SOL    HW217010   3.694   2.741   1.331
 5371SOL     OW17011   1.292   4.045   4.702
 5371SOL    HW117012   1.195   4.023   4.712
 5371SOL    HW217013   1.331   3.988   4.630
 5372SOL     OW17014   2.871   5.111   2.975
 5372SOL    HW117015   2.938   5.144   3.041
 5372SOL    HW217016   2.916   5.048   2.911
 5373SOL     OW17017   3.246   4.868   4.010
 5373SOL    HW117018   3.152   4.888   3.980
 5373SOL    HW217019   3.243   4.826   4.101
 5374SOL     OW17020   2.064   2.437   6.398
 5374SOL    HW117021   2.076   2.383   6.315
 5374SOL    HW217022   1.991   2.503   6.384
 5375SOL     OW17023   1.462   4.499   4.537
 5375SOL    HW117024   1.492   4.434   4.607
 5375SOL    HW217025   1.375   4.540   4.564
 5376SOL     OW17026   1.390   3.873   1.582
 5376SOL    HW117027   1.435   3.844   1.667
 5376SOL    HW217028   1.443   3.842   1.503
 5377SOL     OW17029   0.051   0.581   1.169
 5377SOL    HW117030   0.086   0.652   1.108
 5377SOL    HW217031   0.058   0.492   1.124
 5378SOL     OW17032   5.623   1.143   0.110
 5378SOL    HW117033   5.548   1.078   0.122
 5378SOL    HW217034   5.689   1.107   0.044
 5379SOL     OW17035   0.208   5.245   2.680
 5379SOL    HW117036   0.296   5.258   2.725
 5379SOL    HW217037   0.197   5.313   2.607
 5380SOL     OW17038   2.446   0.027   3.472
 5380SOL    HW117039   2.412   0.102   3.528
 5380SOL    HW217040   2.540   0.005   3.499
 5381SOL     OW17041   5.891   4.074   1.655
 5381SOL    HW117042   5.811   4.094   1.711
 5381SOL    HW217043   5.928   3.984   1.680
 5382SOL     OW17044   2.776   1.269   1.231
 5382SOL    HW117045   2.772   1.284   1.133
 5382SOL    HW217046   2.802   1.354   1.277
 5383SOL     OW17047   2.534   1.997   5.365
 5383SOL    HW117048   2.585   2.082   5.352
 5383SOL    HW217049   2.447   2.003   5.317
 5384SOL     OW17050   6.259   6.936   4.084
 5384SOL    HW117051   6.191   6.884   4.135
 5384SOL    HW217052   6.349   6.926   4.127
 5385SOL     OW17053   3.670   4.100   2.458
 5385SOL    HW117054   3.747   4.129   2.402
 5385SOL    HW217055   3.588   4.094   2.401
 5386SOL     OW17056   5.152   6.203   4.303
 5386SOL    HW117057   5.161   6.112   4.343
 5386SOL    HW217058   5.226   6.219   4.237
 5387SOL     OW17059   2.851   5.081   2.228
 5387SOL    HW117060   2.884   4.988   2.213
 5387SOL    HW217061   2.756   5.078   2.259
 5388SOL     OW17062   5.435   6.676   2.599
 5388SOL    HW117063   5.346   6.630   2.609
 5388SOL    HW217064   5.427   6.771   2.629
 5389SOL     OW17065   4.286   1.167   1.329
 5389SOL    HW117066   4.361   1.102   1.319
 5389SOL    HW217067   4.259   1.202   1.240
 5390SOL     OW17068   6.004   5.273   5.592
 5390SOL    HW117069   6.007   5.351   5.529
 5390SOL    HW217070   5.913   5.233   5.592
 5391SOL     OW17071   2.797   3.100   0.184
 5391SOL    HW117072   2.707   3.064   0.210
 5391SOL    HW217073   2.836   3.151   0.260
 5392SOL     OW17074   5.987   3.256   1.600
 5392SOL    HW117075   5.900   3.260   1.552
 5392SOL    HW217076   6.061   3.237   1.535
 5393SOL     OW17077   6.658   0.091   0.169
 5393SOL    HW117078   6.603   0.045   0.237
 5393SOL    HW217079   6.723   0.153   0.214
 5394SOL     OW17080   0.697   3.785   5.675
 5394SOL    HW117081   0.682   3.705   5.733
 5394SOL    HW217082   0.712   3.756   5.581
 5395SOL     OW17083   3.823   0.677   0.643
 5395SOL    HW117084   3.906   0.666   0.697
 5395SOL    HW217085   3.745   0.691   0.704
 5396SOL     OW17086   5.883   3.648   1.924
 5396SOL    HW117087   5.796   3.685   1.957
 5396SOL    HW217088   5.924   3.714   1.860
 5397SOL     OW17089   6.858   3.533   1.235
 5397SOL    HW117090   6.951   3.499   1.223
 5397SOL    HW217091   6.793   3.460   1.213
 5398SOL     OW17092   3.031   2.379   1.660
 5398SOL    HW117093   2.968   2.372   1.582
 5398SOL    HW217094   2.979   2.386   1.744
 5399SOL     OW17095   2.112   6.022   1.516
 5399SOL    HW117096   2.157   6.111   1.511
 5399SOL    HW217097   2.039   6.025   1.585
 5400SOL     OW17098   2.725   4.689   6.876
 5400SOL    HW117099   2.795   4.680   6.805
 5400SOL    HW217100   2.646   4.631   6.853
 5401SOL     OW17101   5.643   3.188   1.550
 5401SOL    HW117102   5.600   3.258   1.494
 5401SOL    HW217103   5.684   3.231   1.631
 5402SOL     OW17104   1.807   5.782   2.120
 5402SOL    HW117105   1.899   5.753   2.147
 5402SOL    HW217106   1.760   5.820   2.199
 5403SOL     OW17107   0.310   3.654   6.492
 5403SOL    HW117108   0.406   3.632   6.509
 5403SOL    HW217109   0.303   3.751   6.466
 5404SOL     OW17110   1.788   2.728   4.121
 5404SOL    HW117111   1.812   2.808   4.066
 5404SOL    HW217112   1.755   2.758   4.211
 5405SOL     OW17113   6.470   5.115   5.663
 5405SOL    HW117114   6.378   5.109   5.625
 5405SOL    HW217115   6.485   5.037   5.724
 5406SOL     OW17116   1.387   0.904   6.892
 5406SOL    HW117117   1.318   0.963   6.934
 5406SOL    HW217118   1.352   0.811   6.885
 5407SOL     OW17119   3.886   2.993   0.826
 5407SOL    HW117120   3.799   2.950   0.850
 5407SOL    HW217121   3.906   3.067   0.890
 5408SOL     OW17122   2.327   0.864   6.956
 5408SOL    HW117123   2.365   0.954   6.935
 5408SOL    HW217124   2.335   0.845   0.029
 5409SOL     OW17125   4.821   0.324   2.944
 5409SOL    HW117126   4.914   0.299   2.917
 5409SOL    HW217127   4.756   0.260   2.902
 5410SOL     OW17128   3.084   2.099   2.024
 5410SOL    HW117129   3.012   2.167   2.038
 5410SOL    HW217130   3.154   2.136   1.963
 5411SOL     OW17131   0.423   5.065   5.375
 5411SOL    HW117132   0.505   5.041   5.427
 5411SOL    HW217133   0.346   5.075   5.437
 5412SOL     OW17134   6.036   2.643   0.744
 5412SOL    HW117135   5.955   2.684   0.703
 5412SOL    HW217136   6.013   2.605   0.833
 5413SOL     OW17137   2.780   1.942   2.005
 5413SOL    HW117138   2.737   1.853   2.015
 5413SOL    HW217139   2.857   1.949   2.069
 5414SOL     OW17140   4.489   1.258   4.784
 5414SOL    HW117141   4.576   1.291   4.749
 5414SOL    HW217142   4.439   1.334   4.825
 5415SOL     OW17143   0.048   5.686   1.604
 5415SOL    HW117144   0.016   5.594   1.583
 5415SOL    HW217145   0.145   5.683   1.630
 5416SOL     OW17146   4.196   4.983   5.162
 5416SOL    HW117147   4.247   4.964   5.078
 5416SOL    HW217148   4.211   4.910   5.228
 5417SOL     OW17149   3.468   6.772   4.660
 5417SOL    HW117150   3.566   6.770   4.677
 5417SOL    HW217151   3.419   6.784   4.746
 5418SOL     OW17152   3.808   0.165   2.666
 5418SOL    HW117153   3.708   0.165   2.670
 5418SOL    HW217154   3.840   0.260   2.659
 5419SOL     OW17155   3.291   4.876   6.266
 5419SOL    HW117156   3.289   4.790   6.215
 5419SOL    HW217157   3.381   4.888   6.308
 5420SOL     OW17158   2.002   1.857   2.822
 5420SOL    HW117159   1.984   1.855   2.921
 5420SOL    HW217160   2.093   1.896   2.806
 5421SOL     OW17161   1.849   3.980   1.695
 5421SOL    HW117162   1.833   3.919   1.772
 5421SOL    HW217163   1.947   4.000   1.688
 5422SOL     OW17164   1.705   4.253   1.712
 5422SOL    HW117165   1.679   4.247   1.616
 5422SOL    HW217166   1.794   4.210   1.725
 5423SOL     OW17167   5.584   2.976   6.537
 5423SOL    HW117168   5.516   3.011   6.601
 5423SOL    HW217169   5.549   2.985   6.444
 5424SOL     OW17170   4.988   3.468   4.679
 5424SOL    HW117171   5.033   3.458   4.769
 5424SOL    HW217172   4.947   3.380   4.653
 5425SOL     OW17173   4.490   0.798   5.241
 5425SOL    HW117174   4.573   0.802   5.297
 5425SOL    HW217175   4.458   0.890   5.222
 5426SOL     OW17176   5.850   6.596   4.887
 5426SOL    HW117177   5.872   6.657   4.962
 5426SOL    HW217178   5.932   6.545   4.860
 5427SOL     OW17179   4.362   6.116   6.420
 5427SOL    HW117180   4.392   6.075   6.333
 5427SOL    HW217181   4.370   6.215   6.415
 5428SOL     OW17182   0.904   0.228   0.858
 5428SOL    HW117183   0.932   0.209   0.952
 5428SOL    HW217184   0.969   0.189   0.794
 5429SOL     OW17185   0.968   2.098   6.664
 5429SOL    HW117186   0.971   2.197   6.670
 5429SOL    HW217187   0.874   2.066   6.670
 5430SOL     OW17188   1.234   2.499   6.285
 5430SOL    HW117189   1.168   2.441   6.332
 5430SOL    HW217190   1.248   2.584   6.337
 5431SOL     OW17191   3.435   6.503   5.868
 5431SOL    HW117192   3.339   6.490   5.892
 5431SOL    HW217193   3.455   6.456   5.782
 5432SOL     OW17194   5.046   6.739   0.289
 5432SOL    HW117195   5.075   6.651   0.253
 5432SOL    HW217196   5.015   6.729   0.383
 5433SOL     OW17197   0.103   1.798   5.328
 5433SOL    HW117198   0.062   1.867   5.387
 5433SOL    HW217199   0.192   1.831   5.295
 5434SOL     OW17200   2.896   0.353   6.393
 5434SOL    HW117201   2.857   0.278   6.446
 5434SOL    HW217202   2.838   0.434   6.401
 5435SOL     OW17203   4.209   0.382   1.600
 5435SOL    HW117204   4.264   0.432   1.534
 5435SOL    HW217205   4.115   0.417   1.599
 5436SOL     OW17206   4.861   4.352   3.017
 5436SOL    HW117207   4.936   4.395   2.967
 5436SOL    HW217208   4.775   4.371   2.970
 5437SOL     OW17209   2.872   4.193   0.029
 5437SOL    HW117210   2.781   4.235   0.025
 5437SOL    HW217211   2.934   4.243   6.993
 5438SOL     OW17212   5.909   1.853   1.544
 5438SOL    HW117213   5.909   1.759   1.578
 5438SOL    HW217214   5.884   1.915   1.618
 5439SOL     OW17215   0.958   2.627   1.162
 5439SOL    HW117216   0.896   2.576   1.221
 5439SOL    HW217217   1.004   2.564   1.100
 5440SOL     OW17218   1.321   2.254   1.383
 5440SOL    HW117219   1.288   2.331   1.329
 5440SOL    HW217220   1.420   2.264   1.396
 5441SOL     OW17221   2.986   1.739   3.870
 5441SOL    HW117222   3.012   1.776   3.959
 5441SOL    HW217223   2.987   1.812   3.802
 5442SOL     OW17224   3.651   0.443   1.977
 5442SOL    HW117225   3.746   0.475   1.980
 5442SOL    HW217226   3.601   0.496   1.908
 5443SOL     OW17227   2.989   6.728   5.313
 5443SOL    HW117228   3.059   6.794   5.286
 5443SOL    HW217229   2.907   6.742   5.256
 5444SOL     OW17230   0.392   6.575   4.208
 5444SOL    HW117231   0.307   6.541   4.247
 5444SOL    HW217232   0.375   6.659   4.157
 5445SOL     OW17233   6.144   3.469   2.965
 5445SOL    HW117234   6.065   3.411   2.943
 5445SOL    HW217235   6.151   3.542   2.896
 5446SOL     OW17236   6.127   5.418   5.030
 5446SOL    HW117237   6.031   5.394   5.018
 5446SOL    HW217238   6.146   5.504   4.982
 5447SOL     OW17239   3.848   2.099   0.375
 5447SOL    HW117240   3.880   2.169   0.439
 5447SOL    HW217241   3.750   2.083   0.389
 5448SOL     OW17242   4.998   2.545   5.350
 5448SOL    HW117243   5.005   2.573   5.255
 5448SOL    HW217244   4.903   2.524   5.372
 5449SOL     OW17245   0.615   3.580   0.000
 5449SOL    HW117246   0.552   3.547   0.071
 5449SOL    HW217247   0.692   3.627   0.044
 5450SOL     OW17248   1.870   6.897   1.472
 5450SOL    HW117249   1.927   6.944   1.539
 5450SOL    HW217250   1.928   6.864   1.397
 5451SOL     OW17251   0.658   5.964   2.961
 5451SOL    HW117252   0.692   5.909   3.038
 5451SOL    HW217253   0.602   5.907   2.902
 5452SOL     OW17254   2.340   4.427   6.676
 5452SOL    HW117255   2.314   4.388   6.765
 5452SOL    HW217256   2.393   4.359   6.624
 5453SOL     OW17257   5.927   4.384   0.216
 5453SOL    HW117258   5.984   4.302   0.225
 5453SOL    HW217259   5.960   4.439   0.139
 5454SOL     OW17260   6.855   4.625   6.844
 5454SOL    HW117261   6.778   4.656   6.899
 5454SOL    HW217262   6.822   4.569   6.768
 5455SOL     OW17263   6.690   3.360   1.127
 5455SOL    HW117264   6.663   3.412   1.046
 5455SOL    HW217265   6.613   3.304   1.159
 5456SOL     OW17266   3.168   0.220   0.174
 5456SOL    HW117267   3.226   0.166   0.234
 5456SOL    HW217268   3.086   0.168   0.152
 5457SOL     OW17269   5.989   2.818   1.158
 5457SOL    HW117270   6.073   2.841   1.207
 5457SOL    HW217271   5.911   2.825   1.220
 5458SOL     OW17272   1.825   4.369   6.544
 5458SOL    HW117273   1.917   4.341   6.516
 5458SOL    HW217274   1.772   4.288   6.568
 5459SOL     OW17275   1.971   4.567   6.921
 5459SOL    HW117276   1.894   4.627   6.940
 5459SOL    HW217277   1.997   4.576   6.825
 5460SOL     OW17278   2.768   0.415   1.228
 5460SOL    HW117279   2.794   0.319   1.221
 5460SOL    HW217280   2.672   0.422   1.253
 5461SOL     OW17281   4.742   0.068   4.814
 5461SOL    HW117282   4.659   0.040   4.864
 5461SOL    HW217283   4.779   7.014   4.764
 5462SOL     OW17284   1.396   0.019   0.531
 5462SOL    HW117285   1.410   0.012   0.630
 5462SOL    HW217286   1.485   0.015   0.485
 5463SOL     OW17287   6.316   2.774   0.535
 5463SOL    HW117288   6.307   2.766   0.634
 5463SOL    HW217289   6.341   2.685   0.497
 5464SOL     OW17290   2.078   0.516   4.336
 5464SOL    HW117291   2.052   0.553   4.247
 5464SOL    HW217292   2.175   0.493   4.335
 5465SOL     OW17293   3.270   0.439   4.627
 5465SOL    HW117294   3.347   0.452   4.565
 5465SOL    HW217295   3.192   0.493   4.595
 5466SOL     OW17296   5.120   4.164   4.885
 5466SOL    HW117297   5.192   4.101   4.912
 5466SOL    HW217298   5.157   4.230   4.818
 5467SOL     OW17299   5.227   1.509   2.525
 5467SOL    HW117300   5.208   1.491   2.622
 5467SOL    HW217301   5.156   1.466   2.469
 5468SOL     OW17302   4.662   2.036   4.887
 5468SOL    HW117303   4.646   2.116   4.830
 5468SOL    HW217304   4.632   1.954   4.838
 5469SOL     OW17305   3.413   4.477   5.747
 5469SOL    HW117306   3.317   4.450   5.753
 5469SOL    HW217307   3.470   4.405   5.787
 5470SOL     OW17308   2.192   5.101   3.939
 5470SOL    HW117309   2.224   5.028   3.999
 5470SOL    HW217310   2.092   5.104   3.941
 5471SOL     OW17311   6.984   5.843   1.820
 5471SOL    HW117312   0.031   5.823   1.887
 5471SOL    HW217313   6.982   5.771   1.751
 5472SOL     OW17314   4.073   4.127   5.893
 5472SOL    HW117315   4.135   4.049   5.879
 5472SOL    HW217316   4.026   4.148   5.808
 5473SOL     OW17317   1.427   3.398   3.610
 5473SOL    HW117318   1.376   3.391   3.696
 5473SOL    HW217319   1.416   3.314   3.558
 5474SOL     OW17320   1.652   5.681   4.110
 5474SOL    HW117321   1.738   5.661   4.158
 5474SOL    HW217322   1.660   5.653   4.014
 5475SOL     OW17323   3.067   2.006   0.911
 5475SOL    HW117324   3.057   2.075   0.982
 5475SOL    HW217325   3.068   2.051   0.821
 5476SOL     OW17326   1.547   3.067   6.464
 5476SOL    HW117327   1.627   3.007   6.472
 5476SOL    HW217328   1.464   3.014   6.476
 5477SOL     OW17329   1.968   2.971   3.102
 5477SOL    HW117330   1.954   2.955   3.199
 5477SOL    HW217331   2.056   2.932   3.074
 5478SOL     OW17332   5.390   5.793   5.780
 5478SOL    HW117333   5.331   5.750   5.848
 5478SOL    HW217334   5.355   5.773   5.688
 5479SOL     OW17335   4.891   0.474   4.622
 5479SOL    HW117336   4.913   0.389   4.669
 5479SOL    HW217337   4.975   0.519   4.592
 5480SOL     OW17338   1.167   3.534   4.187
 5480SOL    HW117339   1.217   3.456   4.149
 5480SOL    HW217340   1.118   3.581   4.113
 5481SOL     OW17341   3.524   6.776   4.273
 5481SOL    HW117342   3.455   6.828   4.323
 5481SOL    HW217343   3.585   6.838   4.225
 5482SOL     OW17344   2.631   4.968   1.598
 5482SOL    HW117345   2.661   4.940   1.507
 5482SOL    HW217346   2.662   4.901   1.665
 5483SOL     OW17347   0.358   2.788   5.755
 5483SOL    HW117348   0.394   2.882   5.756
 5483SOL    HW217349   0.370   2.748   5.846
 5484SOL     OW17350   4.547   0.838   4.657
 5484SOL    HW117351   4.613   0.848   4.582
 5484SOL    HW217352   4.481   0.913   4.654
 5485SOL     OW17353   3.078   6.576   5.696
 5485SOL    HW117354   2.986   6.609   5.673
 5485SOL    HW217355   3.146   6.634   5.654
 5486SOL     OW17356   2.695   6.143   4.853
 5486SOL    HW117357   2.613   6.096   4.886
 5486SOL    HW217358   2.735   6.197   4.927
 5487SOL     OW17359   2.935   4.928   5.335
 5487SOL    HW117360   2.980   4.840   5.350
 5487SOL    HW217361   2.986   5.000   5.382
 5488SOL     OW17362   6.007   1.154   1.000
 5488SOL    HW117363   5.988   1.079   0.936
 5488SOL    HW217364   5.920   1.190   1.035
 5489SOL     OW17365   6.689   3.900   2.504
 5489SOL    HW117366   6.625   3.929   2.433
 5489SOL    HW217367   6.640   3.891   2.591
 5490SOL     OW17368   1.563   6.742   2.905
 5490SOL    HW117369   1.660   6.746   2.885
 5490SOL    HW217370   1.510   6.743   2.820
 5491SOL     OW17371   6.601   4.331   0.497
 5491SOL    HW117372   6.677   4.272   0.524
 5491SOL    HW217373   6.515   4.294   0.532
 5492SOL     OW17374   0.340   1.574   5.696
 5492SOL    HW117375   0.310   1.554   5.603
 5492SOL    HW217376   0.395   1.657   5.696
 5493SOL     OW17377   4.110   3.789   1.334
 5493SOL    HW117378   4.053   3.801   1.252
 5493SOL    HW217379   4.086   3.703   1.379
 5494SOL     OW17380   6.476   4.155   5.211
 5494SOL    HW117381   6.420   4.093   5.155
 5494SOL    HW217382   6.486   4.242   5.163
 5495SOL     OW17383   5.801   0.541   0.918
 5495SOL    HW117384   5.786   0.550   0.820
 5495SOL    HW217385   5.806   0.631   0.960
 5496SOL     OW17386   3.908   0.534   4.633
 5496SOL    HW117387   3.847   0.613   4.620
 5496SOL    HW217388   3.988   0.562   4.685
 5497SOL     OW17389   1.122   0.381   6.257
 5497SOL    HW117390   1.212   0.379   6.214
 5497SOL    HW217391   1.129   0.343   6.349
 5498SOL     OW17392   0.514   5.075   1.754
 5498SOL    HW117393   0.517   4.975   1.747
 5498SOL    HW217394   0.591   5.108   1.809
 5499SOL     OW17395   1.544   0.448   4.785
 5499SOL    HW117396   1.599   0.526   4.815
 5499SOL    HW217397   1.600   0.388   4.728
 5500SOL     OW17398   2.578   0.695   0.588
 5500SOL    HW117399   2.664   0.700   0.640
 5500SOL    HW217400   2.543   0.601   0.592
 5501SOL     OW17401   3.764   3.225   6.597
 5501SOL    HW117402   3.708   3.184   6.525
 5501SOL    HW217403   3.760   3.168   6.679
 5502SOL     OW17404   4.291   2.554   6.954
 5502SOL    HW117405   4.330   2.470   6.917
 5502SOL    HW217406   4.208   2.533   7.006
 5503SOL     OW17407   6.744   4.083   0.533
 5503SOL    HW117408   6.676   4.009   0.533
 5503SOL    HW217409   6.832   4.046   0.562
 5504SOL     OW17410   3.348   2.007   6.260
 5504SOL    HW117411   3.315   2.027   6.353
 5504SOL    HW217412   3.269   1.998   6.199
 5505SOL     OW17413   2.190   4.760   3.865
 5505SOL    HW117414   2.154   4.803   3.947
 5505SOL    HW217415   2.230   4.671   3.888
 5506SOL     OW17416   0.941   3.320   6.281
 5506SOL    HW117417   0.882   3.285   6.207
 5506SOL    HW217418   0.891   3.317   6.367
 5507SOL     OW17419   2.826   6.702   6.966
 5507SOL    HW117420   2.734   6.662   6.976
 5507SOL    HW217421   2.837   6.777   0.006
 5508SOL     OW17422   0.316   0.666   6.426
 5508SOL    HW117423   0.291   0.570   6.428
 5508SOL    HW217424   0.237   0.721   6.453
 5509SOL     OW17425   0.043   5.277   0.952
 5509SOL    HW117426   0.080   5.263   0.860
 5509SOL    HW217427   6.983   5.331   0.945
 5510SOL     OW17428   3.830   5.172   6.989
 5510SOL    HW117429   3.736   5.180   7.022
 5510SOL    HW217430   3.866   5.263   6.968
 5511SOL     OW17431   0.821   1.734   5.636
 5511SOL    HW117432   0.792   1.690   5.551
 5511SOL    HW217433   0.897   1.796   5.617
 5512SOL     OW17434   3.538   1.014   2.535
 5512SOL    HW117435   3.623   0.992   2.488
 5512SOL    HW217436   3.543   1.107   2.571
 5513SOL     OW17437   3.919   4.303   0.025
 5513SOL    HW117438   3.929   4.235   0.097
 5513SOL    HW217439   3.883   4.388   0.064
 5514SOL     OW17440   2.938   0.471   0.364
 5514SOL    HW117441   3.037   0.464   0.373
 5514SOL    HW217442   2.895   0.388   0.402
 5515SOL     OW17443   2.561   6.100   2.224
 5515SOL    HW117444   2.606   6.011   2.239
 5515SOL    HW217445   2.569   6.155   2.307
 5516SOL     OW17446   2.553   2.481   5.293
 5516SOL    HW117447   2.512   2.520   5.211
 5516SOL    HW217448   2.578   2.555   5.356
 5517SOL     OW17449   1.482   3.175   3.429
 5517SOL    HW117450   1.497   3.083   3.393
 5517SOL    HW217451   1.412   3.221   3.376
 5518SOL     OW17452   4.325   4.301   6.228
 5518SOL    HW117453   4.256   4.325   6.296
 5518SOL    HW217454   4.311   4.207   6.198
 5519SOL     OW17455   4.706   2.801   3.795
 5519SOL    HW117456   4.650   2.751   3.861
 5519SOL    HW217457   4.729   2.740   3.719
 5520SOL     OW17458   5.013   6.859   1.519
 5520SOL    HW117459   5.027   6.760   1.531
 5520SOL    HW217460   4.956   6.894   1.593
 5521SOL     OW17461   5.780   5.462   1.895
 5521SOL    HW117462   5.768   5.370   1.932
 5521SOL    HW217463   5.789   5.528   1.970
 5522SOL     OW17464   6.154   6.025   0.627
 5522SOL    HW117465   6.068   5.978   0.645
 5522SOL    HW217466   6.217   5.964   0.579
 5523SOL     OW17467   5.439   0.981   2.336
 5523SOL    HW117468   5.341   0.978   2.313
 5523SOL    HW217469   5.466   1.076   2.354
 5524SOL     OW17470   3.287   1.418   4.366
 5524SOL    HW117471   3.191   1.398   4.380
 5524SOL    HW217472   3.315   1.493   4.426
 5525SOL     OW17473   5.975   1.235   1.329
 5525SOL    HW117474   5.975   1.225   1.429
 5525SOL    HW217475   6.021   1.321   1.305
 5526SOL     OW17476   4.677   4.838   3.560
 5526SOL    HW117477   4.599   4.775   3.555
 5526SOL    HW217478   4.644   4.930   3.576
 5527SOL     OW17479   5.774   1.561   3.822
 5527SOL    HW117480   5.844   1.517   3.766
 5527SOL    HW217481   5.809   1.647   3.859
 5528SOL     OW17482   1.046   1.095   0.901
 5528SOL    HW117483   1.069   1.100   0.804
 5528SOL    HW217484   1.109   1.152   0.953
 5529SOL     OW17485   3.629   0.817   2.064
 5529SOL    HW117486   3.619   0.763   2.148
 5529SOL    HW217487   3.715   0.868   2.066
 5530SOL     OW17488   6.207   1.981   1.160
 5530SOL    HW117489   6.194   1.930   1.075
 5530SOL    HW217490   6.299   2.022   1.161
 5531SOL     OW17491   2.057   3.853   1.451
 5531SOL    HW117492   2.059   3.903   1.537
 5531SOL    HW217493   2.138   3.878   1.397
 5532SOL     OW17494   1.370   3.391   0.720
 5532SOL    HW117495   1.357   3.314   0.783
 5532SOL    HW217496   1.328   3.369   0.632
 5533SOL     OW17497   3.756   2.115   3.661
 5533SOL    HW117498   3.732   2.061   3.742
 5533SOL    HW217499   3.842   2.163   3.679
 5534SOL     OW17500   1.229   0.695   4.743
 5534SOL    HW117501   1.189   0.614   4.700
 5534SOL    HW217502   1.198   0.700   4.838
 5535SOL     OW17503   0.402   2.083   3.534
 5535SOL    HW117504   0.337   2.038   3.596
 5535SOL    HW217505   0.416   2.025   3.454
 5536SOL     OW17506   3.884   6.357   4.118
 5536SOL    HW117507   3.794   6.321   4.092
 5536SOL    HW217508   3.949   6.282   4.125
 5537SOL     OW17509   3.215   1.218   3.456
 5537SOL    HW117510   3.304   1.198   3.417
 5537SOL    HW217511   3.217   1.204   3.555
 5538SOL     OW17512   4.311   5.477   4.663
 5538SOL    HW117513   4.243   5.450   4.731
 5538SOL    HW217514   4.289   5.436   4.575
 5539SOL     OW17515   2.266   4.137   0.337
 5539SOL    HW117516   2.201   4.147   0.262
 5539SOL    HW217517   2.331   4.064   0.316
 5540SOL     OW17518   5.222   5.260   1.756
 5540SOL    HW117519   5.157   5.279   1.682
 5540SOL    HW217520   5.172   5.235   1.839
 5541SOL     OW17521   4.477   1.234   5.618
 5541SOL    HW117522   4.526   1.177   5.684
 5541SOL    HW217523   4.382   1.203   5.611
 5542SOL     OW17524   5.222   5.054   6.445
 5542SOL    HW117525   5.282   4.978   6.420
 5542SOL    HW217526   5.132   5.042   6.402
 5543SOL     OW17527   0.186   1.982   6.035
 5543SOL    HW117528   0.215   1.888   6.051
 5543SOL    HW217529   0.256   2.046   6.068
 5544SOL     OW17530   5.763   1.464   6.428
 5544SOL    HW117531   5.781   1.551   6.475
 5544SOL    HW217532   5.728   1.482   6.337
 5545SOL     OW17533   2.690   2.380   1.736
 5545SOL    HW117534   2.760   2.418   1.796
 5545SOL    HW217535   2.688   2.280   1.747
 5546SOL     OW17536   2.094   4.996   5.456
 5546SOL    HW117537   2.113   4.981   5.553
 5546SOL    HW217538   2.178   5.025   5.409
 5547SOL     OW17539   3.732   6.254   4.946
 5547SOL    HW117540   3.793   6.238   5.024
 5547SOL    HW217541   3.759   6.195   4.870
 5548SOL     OW17542   0.295   3.219   5.159
 5548SOL    HW117543   0.250   3.130   5.170
 5548SOL    HW217544   0.385   3.206   5.118
 5549SOL     OW17545   3.388   4.366   6.549
 5549SOL    HW117546   3.424   4.278   6.519
 5549SOL    HW217547   3.462   4.432   6.556
 5550SOL     OW17548   3.743   6.902   2.232
 5550SOL    HW117549   3.711   6.877   2.140
 5550SOL    HW217550   3.840   6.880   2.241
 5551SOL     OW17551   0.886   1.074   3.307
 5551SOL    HW117552   0.819   1.012   3.347
 5551SOL    HW217553   0.884   1.064   3.207
 5552SOL     OW17554   0.511   2.732   0.928
 5552SOL    HW117555   0.601   2.726   0.972
 5552SOL    HW217556   0.450   2.664   0.968
 5553SOL     OW17557   5.462   6.527   0.096
 5553SOL    HW117558   5.472   6.439   0.051
 5553SOL    HW217559   5.458   6.600   0.028
 5554SOL     OW17560   2.755   1.471   4.714
 5554SOL    HW117561   2.804   1.556   4.735
 5554SOL    HW217562   2.714   1.478   4.623
 5555SOL     OW17563   0.173   6.243   2.396
 5555SOL    HW117564   0.209   6.175   2.331
 5555SOL    HW217565   0.231   6.324   2.395
 5556SOL     OW17566   0.524   1.453   4.370
 5556SOL    HW117567   0.601   1.508   4.338
 5556SOL    HW217568   0.464   1.431   4.292
 5557SOL     OW17569   2.890   0.421   3.580
 5557SOL    HW117570   2.947   0.411   3.498
 5557SOL    HW217571   2.794   0.417   3.554
 5558SOL     OW17572   4.883   2.328   4.599
 5558SOL    HW117573   4.909   2.402   4.537
 5558SOL    HW217574   4.826   2.262   4.551
 5559SOL     OW17575   2.098   0.051   1.188
 5559SOL    HW117576   2.160   0.065   1.110
 5559SOL    HW217577   2.030   0.124   1.189
 5560SOL     OW17578   0.108   0.713   4.214
 5560SOL    HW117579   0.090   0.736   4.309
 5560SOL    HW217580   0.172   0.636   4.209
 5561SOL     OW17581   1.450   3.760   3.028
 5561SOL    HW117582   1.432   3.832   3.095
 5561SOL    HW217583   1.438   3.796   2.936
 5562SOL     OW17584   2.672   2.451   5.723
 5562SOL    HW117585   2.698   2.400   5.640
 5562SOL    HW217586   2.749   2.507   5.753
 5563SOL     OW17587   4.178   4.389   1.540
 5563SOL    HW117588   4.236   4.438   1.605
 5563SOL    HW217589   4.109   4.452   1.503
 5564SOL     OW17590   6.415   4.086   1.484
 5564SOL    HW117591   6.511   4.057   1.481
 5564SOL    HW217592   6.369   4.053   1.402
 5565SOL     OW17593   2.918   3.221   5.692
 5565SOL    HW117594   3.013   3.219   5.663
 5565SOL    HW217595   2.889   3.315   5.709
 5566SOL     OW17596   2.175   4.506   0.772
 5566SOL    HW117597   2.114   4.545   0.703
 5566SOL    HW217598   2.265   4.491   0.731
 5567SOL     OW17599   1.998   5.378   2.817
 5567SOL    HW117600   1.950   5.308   2.871
 5567SOL    HW217601   2.059   5.431   2.876
 5568SOL     OW17602   3.669   1.706   1.063
 5568SOL    HW117603   3.727   1.727   1.141
 5568SOL    HW217604   3.674   1.781   0.997
 5569SOL     OW17605   5.861   2.377   6.850
 5569SOL    HW117606   5.919   2.401   6.772
 5569SOL    HW217607   5.777   2.431   6.846
 5570SOL     OW17608   6.994   3.912   6.029
 5570SOL    HW117609   6.905   3.956   6.012
 5570SOL    HW217610   0.043   3.972   5.995
 5571SOL     OW17611   0.112   4.761   6.467
 5571SOL    HW117612   0.095   4.687   6.532
 5571SOL    HW217613   0.043   4.759   6.395
 5572SOL     OW17614   5.147   2.779   5.491
 5572SOL    HW117615   5.094   2.697   5.472
 5572SOL    HW217616   5.206   2.800   5.413
 5573SOL     OW17617   0.782   4.075   0.232
 5573SOL    HW117618   0.870   4.067   0.277
 5573SOL    HW217619   0.708   4.056   0.297
 5574SOL     OW17620   0.740   6.166   4.506
 5574SOL    HW117621   0.828   6.186   4.463
 5574SOL    HW217622   0.746   6.083   4.560
 5575SOL     OW17623   1.567   1.037   1.617
 5575SOL    HW117624   1.632   1.109   1.641
 5575SOL    HW217625   1.617   0.955   1.589
 5576SOL     OW17626   6.599   5.834   0.438
 5576SOL    HW117627   6.653   5.766   0.388
 5576SOL    HW217628   6.657   5.878   0.507
 5577SOL     OW17629   2.195   3.758   5.049
 5577SOL    HW117630   2.218   3.852   5.025
 5577SOL    HW217631   2.279   3.704   5.054
 5578SOL     OW17632   3.333   1.088   6.260
 5578SOL    HW117633   3.325   1.163   6.194
 5578SOL    HW217634   3.397   1.113   6.332
 5579SOL     OW17635   5.115   4.528   1.211
 5579SOL    HW117636   5.102   4.433   1.240
 5579SOL    HW217637   5.130   4.586   1.291
 5580SOL     OW17638   5.178   0.581   1.212
 5580SOL    HW117639   5.110   0.607   1.144
 5580SOL    HW217640   5.254   0.646   1.210
 5581SOL     OW17641   2.505   2.746   0.767
 5581SOL    HW117642   2.482   2.692   0.686
 5581SOL    HW217643   2.604   2.739   0.783
 5582SOL     OW17644   3.912   3.455   3.222
 5582SOL    HW117645   3.931   3.367   3.180
 5582SOL    HW217646   3.975   3.470   3.299
 5583SOL     OW17647   3.445   0.552   0.497
 5583SOL    HW117648   3.485   0.500   0.573
 5583SOL    HW217649   3.506   0.547   0.418
 5584SOL     OW17650   5.361   2.956   3.016
 5584SOL    HW117651   5.294   3.030   3.022
 5584SOL    HW217652   5.406   2.944   3.104
 5585SOL     OW17653   6.884   6.692   4.299
 5585SOL    HW117654   6.974   6.704   4.257
 5585SOL    HW217655   6.891   6.623   4.372
 5586SOL     OW17656   2.160   1.817   6.416
 5586SOL    HW117657   2.259   1.831   6.409
 5586SOL    HW217658   2.121   1.808   6.324
 5587SOL     OW17659   3.616   7.011   3.925
 5587SOL    HW117660   3.622   0.086   3.912
 5587SOL    HW217661   3.671   6.985   4.004
 5588SOL     OW17662   4.364   0.037   5.868
 5588SOL    HW117663   4.388   0.121   5.918
 5588SOL    HW217664   4.429   6.989   5.891
 5589SOL     OW17665   3.608   3.473   6.705
 5589SOL    HW117666   3.627   3.398   6.769
 5589SOL    HW217667   3.509   3.484   6.695
 5590SOL     OW17668   0.105   6.748   3.325
 5590SOL    HW117669   0.025   6.701   3.361
 5590SOL    HW217670   0.076   6.815   3.257
 5591SOL     OW17671   4.847   0.812   6.639
 5591SOL    HW117672   4.794   0.780   6.561
 5591SOL    HW217673   4.938   0.841   6.609
 5592SOL     OW17674   2.732   2.342   2.678
 5592SOL    HW117675   2.749   2.277   2.604
 5592SOL    HW217676   2.820   2.371   2.717
 5593SOL     OW17677   2.017   3.376   5.010
 5593SOL    HW117678   2.026   3.431   4.927
 5593SOL    HW217679   2.086   3.404   5.076
 5594SOL     OW17680   2.347   1.430   6.422
 5594SOL    HW117681   2.268   1.473   6.466
 5594SOL    HW217682   2.432   1.467   6.462
 5595SOL     OW17683   0.222   1.717   6.033
 5595SOL    HW117684   0.171   1.647   6.081
 5595SOL    HW217685   0.320   1.703   6.048
 5596SOL     OW17686   5.209   1.625   3.171
 5596SOL    HW117687   5.211   1.711   3.120
 5596SOL    HW217688   5.233   1.549   3.109
 5597SOL     OW17689   0.260   0.984   6.168
 5597SOL    HW117690   0.329   0.998   6.097
 5597SOL    HW217691   0.238   0.887   6.175
 5598SOL     OW17692   6.894   2.433   4.437
 5598SOL    HW117693   6.918   2.465   4.345
 5598SOL    HW217694   6.957   2.360   4.464
 5599SOL     OW17695   5.060   2.777   3.291
 5599SOL    HW117696   4.962   2.791   3.301
 5599SOL    HW217697   5.109   2.830   3.360
 5600SOL     OW17698   2.426   1.800   2.087
 5600SOL    HW117699   2.402   1.811   2.184
 5600SOL    HW217700   2.383   1.873   2.034
 5601SOL     OW17701   6.147   3.023   6.064
 5601SOL    HW117702   6.221   3.032   5.997
 5601SOL    HW217703   6.059   3.017   6.017
 5602SOL     OW17704   6.416   2.182   2.227
 5602SOL    HW117705   6.406   2.279   2.247
 5602SOL    HW217706   6.427   2.131   2.312
 5603SOL     OW17707   4.386   1.451   6.033
 5603SOL    HW117708   4.383   1.545   6.065
 5603SOL    HW217709   4.481   1.420   6.029
 5604SOL     OW17710   1.404   6.477   3.575
 5604SOL    HW117711   1.374   6.400   3.631
 5604SOL    HW217712   1.327   6.539   3.561
 5605SOL     OW17713   4.444   6.650   4.270
 5605SOL    HW117714   4.363   6.638   4.212
 5605SOL    HW217715   4.425   6.613   4.361
 5606SOL     OW17716   5.065   3.454   0.408
 5606SOL    HW117717   5.021   3.450   0.498
 5606SOL    HW217718   5.052   3.367   0.361
 5607SOL     OW17719   6.989   2.591   3.310
 5607SOL    HW117720   6.988   2.579   3.409
 5607SOL    HW217721   6.898   2.575   3.273
 5608SOL     OW17722   4.971   0.770   3.304
 5608SOL    HW117723   5.070   0.783   3.304
 5608SOL    HW217724   4.926   0.856   3.281
 5609SOL     OW17725   6.615   0.287   0.676
 5609SOL    HW117726   6.598   0.288   0.577
 5609SOL    HW217727   6.622   0.192   0.708
 5610SOL     OW17728   5.493   5.783   0.330
 5610SOL    HW117729   5.584   5.745   0.347
 5610SOL    HW217730   5.438   5.716   0.281
 5611SOL     OW17731   5.996   4.533   2.012
 5611SOL    HW117732   5.940   4.578   1.943
 5611SOL    HW217733   6.056   4.466   1.969
 5612SOL     OW17734   3.856   1.884   0.024
 5612SOL    HW117735   3.945   1.929   0.012
 5612SOL    HW217736   3.849   1.848   0.117
 5613SOL     OW17737   6.209   5.275   5.897
 5613SOL    HW117738   6.115   5.269   5.864
 5613SOL    HW217739   6.260   5.194   5.868
 5614SOL     OW17740   4.880   3.069   4.309
 5614SOL    HW117741   4.878   2.974   4.338
 5614SOL    HW217742   4.946   3.080   4.234
 5615SOL     OW17743   0.562   2.460   3.086
 5615SOL    HW117744   0.509   2.380   3.115
 5615SOL    HW217745   0.524   2.542   3.129
 5616SOL     OW17746   1.677   3.289   2.272
 5616SOL    HW117747   1.715   3.370   2.315
 5616SOL    HW217748   1.725   3.271   2.186
 5617SOL     OW17749   1.389   4.641   6.650
 5617SOL    HW117750   1.488   4.655   6.654
 5617SOL    HW217751   1.344   4.723   6.615
 5618SOL     OW17752   5.196   6.338   2.194
 5618SOL    HW117753   5.251   6.342   2.277
 5618SOL    HW217754   5.249   6.372   2.117
 5619SOL     OW17755   3.340   3.267   3.522
 5619SOL    HW117756   3.251   3.225   3.503
 5619SOL    HW217757   3.367   3.247   3.616
 5620SOL     OW17758   4.906   4.553   4.158
 5620SOL    HW117759   4.815   4.512   4.149
 5620SOL    HW217760   4.975   4.481   4.162
 5621SOL     OW17761   0.267   2.705   6.510
 5621SOL    HW117762   0.297   2.683   6.418
 5621SOL    HW217763   0.346   2.712   6.571
 5622SOL     OW17764   4.653   5.633   3.873
 5622SOL    HW117765   4.657   5.583   3.787
 5622SOL    HW217766   4.575   5.601   3.927
 5623SOL     OW17767   4.929   4.820   4.562
 5623SOL    HW117768   5.029   4.812   4.559
 5623SOL    HW217769   4.894   4.828   4.468
 5624SOL     OW17770   5.248   4.601   2.971
 5624SOL    HW117771   5.151   4.618   2.956
 5624SOL    HW217772   5.262   4.570   3.065
 5625SOL     OW17773   2.333   5.958   6.103
 5625SOL    HW117774   2.311   6.044   6.150
 5625SOL    HW217775   2.423   5.927   6.130
 5626SOL     OW17776   0.817   4.645   0.079
 5626SOL    HW117777   0.732   4.628   0.031
 5626SOL    HW217778   0.891   4.662   0.013
 5627SOL     OW17779   0.910   5.176   6.834
 5627SOL    HW117780   0.865   5.259   6.865
 5627SOL    HW217781   0.928   5.116   6.912
 5628SOL     OW17782   2.141   3.827   0.309
 5628SOL    HW117783   2.121   3.742   0.260
 5628SOL    HW217784   2.058   3.881   0.319
 5629SOL     OW17785   6.529   3.137   2.738
 5629SOL    HW117786   6.460   3.065   2.745
 5629SOL    HW217787   6.615   3.106   2.778
 5630SOL     OW17788   0.438   4.058   6.916
 5630SOL    HW117789   0.351   4.017   6.888
 5630SOL    HW217790   0.487   3.995   6.975
 5631SOL     OW17791   3.911   1.461   1.833
 5631SOL    HW117792   3.893   1.506   1.745
 5631SOL    HW217793   3.840   1.488   1.899
 5632SOL     OW17794   4.952   6.798   5.586
 5632SOL    HW117795   4.918   6.885   5.623
 5632SOL    HW217796   4.892   6.724   5.616
 5633SOL     OW17797   1.131   5.633   5.336
 5633SOL    HW117798   1.170   5.704   5.277
 5633SOL    HW217799   1.150   5.543   5.296
 5634SOL     OW17800   2.516   0.456   1.341
 5634SOL    HW117801   2.530   0.413   1.431
 5634SOL    HW217802   2.546   0.551   1.344
 5635SOL     OW17803   3.190   0.560   1.433
 5635SOL    HW117804   3.094   0.535   1.418
 5635SOL    HW217805   3.235   0.571   1.344
 5636SOL     OW17806   5.024   1.064   6.018
 5636SOL    HW117807   4.998   0.977   6.061
 5636SOL    HW217808   4.957   1.134   6.041
 5637SOL     OW17809   5.010   6.866   4.349
 5637SOL    HW117810   5.095   6.880   4.399
 5637SOL    HW217811   4.995   6.768   4.334
 5638SOL     OW17812   6.241   5.246   1.074
 5638SOL    HW117813   6.290   5.262   0.988
 5638SOL    HW217814   6.285   5.298   1.147
 5639SOL     OW17815   2.248   0.522   1.710
 5639SOL    HW117816   2.176   0.473   1.662
 5639SOL    HW217817   2.225   0.619   1.714
 5640SOL     OW17818   3.106   0.136   2.837
 5640SOL    HW117819   3.164   0.202   2.885
 5640SOL    HW217820   3.031   0.185   2.792
 5641SOL     OW17821   6.728   4.383   3.638
 5641SOL    HW117822   6.802   4.350   3.580
 5641SOL    HW217823   6.734   4.339   3.728
 5642SOL     OW17824   2.157   3.574   6.596
 5642SOL    HW117825   2.224   3.572   6.670
 5642SOL    HW217826   2.081   3.632   6.622
 5643SOL     OW17827   5.618   2.375   5.011
 5643SOL    HW117828   5.713   2.343   5.019
 5643SOL    HW217829   5.560   2.298   4.986
 5644SOL     OW17830   4.227   0.488   4.412
 5644SOL    HW117831   4.156   0.538   4.361
 5644SOL    HW217832   4.300   0.550   4.437
 5645SOL     OW17833   6.701   5.735   4.001
 5645SOL    HW117834   6.799   5.754   4.016
 5645SOL    HW217835   6.661   5.702   4.087
 5646SOL     OW17836   0.136   6.495   3.793
 5646SOL    HW117837   0.233   6.520   3.786
 5646SOL    HW217838   0.111   6.487   3.890
 5647SOL     OW17839   6.676   5.353   6.308
 5647SOL    HW117840   6.679   5.365   6.407
 5647SOL    HW217841   6.585   5.379   6.275
 5648SOL     OW17842   2.019   1.001   5.104
 5648SOL    HW117843   1.939   0.941   5.103
 5648SOL    HW217844   1.993   1.092   5.073
 5649SOL     OW17845   1.506   0.145   5.236
 5649SOL    HW117846   1.600   0.111   5.234
 5649SOL    HW217847   1.473   0.158   5.143
 5650SOL     OW17848   6.160   5.009   6.871
 5650SOL    HW117849   6.239   5.058   6.833
 5650SOL    HW217850   6.091   4.998   6.800
 5651SOL     OW17851   6.402   1.530   2.723
 5651SOL    HW117852   6.314   1.555   2.764
 5651SOL    HW217853   6.395   1.536   2.623
 5652SOL     OW17854   5.751   4.172   0.207
 5652SOL    HW117855   5.816   4.248   0.215
 5652SOL    HW217856   5.702   4.179   0.120
 5653SOL     OW17857   1.929   6.521   6.632
 5653SOL    HW117858   1.846   6.547   6.583
 5653SOL    HW217859   1.904   6.482   6.721
 5654SOL     OW17860   0.671   5.851   5.968
 5654SOL    HW117861   0.650   5.905   5.886
 5654SOL    HW217862   0.720   5.768   5.942
 5655SOL     OW17863   6.866   4.181   3.083
 5655SOL    HW117864   6.859   4.085   3.111
 5655SOL    HW217865   6.781   4.228   3.106
 5656SOL     OW17866   3.097   4.984   6.024
 5656SOL    HW117867   3.001   4.955   6.025
 5656SOL    HW217868   3.143   4.948   6.105
 5657SOL     OW17869   4.007   5.860   1.832
 5657SOL    HW117870   3.989   5.864   1.930
 5657SOL    HW217871   3.920   5.869   1.782
 5658SOL     OW17872   5.037   6.590   4.943
 5658SOL    HW117873   5.084   6.678   4.950
 5658SOL    HW217874   4.938   6.605   4.940
 5659SOL     OW17875   3.489   3.908   3.002
 5659SOL    HW117876   3.440   3.922   2.916
 5659SOL    HW217877   3.453   3.826   3.047
 5660SOL     OW17878   6.104   6.750   0.660
 5660SOL    HW117879   6.047   6.806   0.600
 5660SOL    HW217880   6.076   6.654   0.654
 5661SOL     OW17881   6.350   5.928   4.774
 5661SOL    HW117882   6.348   5.901   4.870
 5661SOL    HW217883   6.384   5.853   4.718
 5662SOL     OW17884   2.119   3.510   4.212
 5662SOL    HW117885   2.162   3.421   4.195
 5662SOL    HW217886   2.132   3.568   4.132
 5663SOL     OW17887   1.570   3.569   0.245
 5663SOL    HW117888   1.600   3.564   0.340
 5663SOL    HW217889   1.501   3.641   0.236
 5664SOL     OW17890   6.961   4.729   2.779
 5664SOL    HW117891   7.023   4.703   2.854
 5664SOL    HW217892   6.902   4.652   2.757
 5665SOL     OW17893   1.969   1.211   6.172
 5665SOL    HW117894   1.912   1.137   6.135
 5665SOL    HW217895   1.911   1.289   6.193
 5666SOL     OW17896   5.956   5.229   0.556
 5666SOL    HW117897   5.906   5.260   0.637
 5666SOL    HW217898   5.989   5.308   0.504
 5667SOL     OW17899   0.200   5.729   3.875
 5667SOL    HW117900   0.223   5.640   3.914
 5667SOL    HW217901   0.156   5.716   3.786
 5668SOL     OW17902   5.692   2.756   5.687
 5668SOL    HW117903   5.609   2.777   5.635
 5668SOL    HW217904   5.690   2.804   5.774
 5669SOL     OW17905   6.949   3.383   5.442
 5669SOL    HW117906   6.921   3.479   5.455
 5669SOL    HW217907   6.973   3.369   5.346
 5670SOL     OW17908   1.866   3.814   3.273
 5670SOL    HW117909   1.939   3.852   3.329
 5670SOL    HW217910   1.907   3.769   3.192
 5671SOL     OW17911   1.734   1.109   5.291
 5671SOL    HW117912   1.737   1.075   5.385
 5671SOL    HW217913   1.716   1.033   5.229
 5672SOL     OW17914   5.519   4.505   5.696
 5672SOL    HW117915   5.453   4.436   5.726
 5672SOL    HW217916   5.500   4.530   5.601
 5673SOL     OW17917   1.584   0.371   1.669
 5673SOL    HW117918   1.585   0.466   1.702
 5673SOL    HW217919   1.571   0.370   1.569
 5674SOL     OW17920   6.869   3.776   1.051
 5674SOL    HW117921   6.873   3.697   1.113
 5674SOL    HW217922   6.774   3.804   1.039
 5675SOL     OW17923   4.343   1.668   5.656
 5675SOL    HW117924   4.271   1.707   5.713
 5675SOL    HW217925   4.352   1.722   5.572
 5676SOL     OW17926   3.529   6.787   1.456
 5676SOL    HW117927   3.432   6.810   1.449
 5676SOL    HW217928   3.579   6.832   1.381
 5677SOL     OW17929   0.101   0.709   3.936
 5677SOL    HW117930   0.112   0.706   4.035
 5677SOL    HW217931   0.153   0.785   3.898
 5678SOL     OW17932   2.033   4.917   3.424
 5678SOL    HW117933   2.049   4.857   3.345
 5678SOL    HW217934   2.117   4.924   3.478
 5679SOL     OW17935   2.431   6.039   4.919
 5679SOL    HW117936   2.364   6.058   4.991
 5679SOL    HW217937   2.383   6.021   4.833
 5680SOL     OW17938   2.228   0.018   6.239
 5680SOL    HW117939   2.172   0.052   6.164
 5680SOL    HW217940   2.315   7.007   6.203
 5681SOL     OW17941   1.872   3.887   0.446
 5681SOL    HW117942   1.792   3.905   0.388
 5681SOL    HW217943   1.856   3.805   0.500
 5682SOL     OW17944   0.164   3.445   3.809
 5682SOL    HW117945   0.111   3.458   3.893
 5682SOL    HW217946   0.102   3.427   3.733
 5683SOL     OW17947   3.693   2.747   5.210
 5683SOL    HW117948   3.792   2.749   5.225
 5683SOL    HW217949   3.673   2.752   5.113
 5684SOL     OW17950   3.260   3.575   2.986
 5684SOL    HW117951   3.238   3.509   3.057
 5684SOL    HW217952   3.194   3.650   2.988
 5685SOL     OW17953   0.888   5.530   2.663
 5685SOL    HW117954   0.982   5.561   2.674
 5685SOL    HW217955   0.842   5.587   2.595
 5686SOL     OW17956   3.435   5.449   0.394
 5686SOL    HW117957   3.356   5.494   0.352
 5686SOL    HW217958   3.490   5.406   0.322
 5687SOL     OW17959   4.979   5.327   5.462
 5687SOL    HW117960   4.925   5.245   5.484
 5687SOL    HW217961   5.005   5.373   5.547
 5688SOL     OW17962   5.938   1.998   2.148
 5688SOL    HW117963   5.980   1.930   2.208
 5688SOL    HW217964   5.868   2.049   2.198
 5689SOL     OW17965   4.139   2.438   6.493
 5689SOL    HW117966   4.083   2.436   6.575
 5689SOL    HW217967   4.219   2.496   6.508
 5690SOL     OW17968   4.716   6.904   1.638
 5690SOL    HW117969   4.763   6.817   1.652
 5690SOL    HW217970   4.620   6.886   1.613
 5691SOL     OW17971   2.105   0.315   2.255
 5691SOL    HW117972   2.136   0.395   2.306
 5691SOL    HW217973   2.046   0.259   2.313
 5692SOL     OW17974   6.135   2.807   0.089
 5692SOL    HW117975   6.132   2.709   0.067
 5692SOL    HW217976   6.151   2.858   0.005
 5693SOL     OW17977   4.781   2.850   3.106
 5693SOL    HW117978   4.865   2.853   3.052
 5693SOL    HW217979   4.727   2.770   3.079
 5694SOL     OW17980   0.823   2.019   4.372
 5694SOL    HW117981   0.735   1.989   4.336
 5694SOL    HW217982   0.895   1.998   4.305
 5695SOL     OW17983   2.102   3.560   3.913
 5695SOL    HW117984   2.125   3.653   3.883
 5695SOL    HW217985   2.005   3.544   3.898
 5696SOL     OW17986   3.213   0.188   5.796
 5696SOL    HW117987   3.271   0.177   5.715
 5696SOL    HW217988   3.185   0.098   5.829
 5697SOL     OW17989   6.730   3.474   6.944
 5697SOL    HW117990   6.635   3.448   6.926
 5697SOL    HW217991   6.770   3.410   7.010
 5698SOL     OW17992   0.812   3.828   2.236
 5698SOL    HW117993   0.767   3.741   2.217
 5698SOL    HW217994   0.842   3.870   2.151
 5699SOL     OW17995   6.430   0.987   4.713
 5699SOL    HW117996   6.469   0.987   4.805
 5699SOL    HW217997   6.337   1.024   4.717
 5700SOL     OW17998   1.047   5.365   3.460
 5700SOL    HW117999   1.072   5.290   3.522
 5700SOL    HW218000   1.109   5.365   3.381
 5701SOL     OW18001   5.774   5.130   1.992
 5701SOL    HW118002   5.763   5.170   2.083
 5701SOL    HW218003   5.766   5.030   1.998
 5702SOL     OW18004   2.034   0.547   6.682
 5702SOL    HW118005   2.018   0.450   6.664
 5702SOL    HW218006   2.081   0.588   6.604
 5703SOL     OW18007   4.116   4.660   0.786
 5703SOL    HW118008   4.019   4.678   0.804
 5703SOL    HW218009   4.170   4.738   0.817
 5704SOL     OW18010   3.908   5.492   3.843
 5704SOL    HW118011   3.945   5.571   3.892
 5704SOL    HW218012   3.826   5.520   3.792
 5705SOL     OW18013   6.278   1.586   1.884
 5705SOL    HW118014   6.357   1.566   1.825
 5705SOL    HW218015   6.301   1.660   1.947
 5706SOL     OW18016   1.650   1.354   6.726
 5706SOL    HW118017   1.614   1.447   6.727
 5706SOL    HW218018   1.614   1.304   6.805
 5707SOL     OW18019   3.188   2.518   6.432
 5707SOL    HW118020   3.246   2.447   6.393
 5707SOL    HW218021   3.100   2.519   6.385
 5708SOL     OW18022   5.501   7.017   1.736
 5708SOL    HW118023   5.450   0.012   1.820
 5708SOL    HW218024   5.569   0.065   1.722
 5709SOL     OW18025   1.276   0.894   3.107
 5709SOL    HW118026   1.268   0.989   3.076
 5709SOL    HW218027   1.321   0.840   3.036
 5710SOL     OW18028   3.043   4.158   6.301
 5710SOL    HW118029   2.998   4.199   6.221
 5710SOL    HW218030   3.100   4.227   6.346
 5711SOL     OW18031   3.970   1.127   4.370
 5711SOL    HW118032   3.887   1.177   4.397
 5711SOL    HW218033   4.044   1.192   4.353
 5712SOL     OW18034   6.970   5.797   0.000
 5712SOL    HW118035   6.995   5.785   0.096
 5712SOL    HW218036   6.972   5.709   6.978
 5713SOL     OW18037   6.905   1.772   3.285
 5713SOL    HW118038   6.912   1.800   3.380
 5713SOL    HW218039   6.859   1.844   3.232
 5714SOL     OW18040   1.857   0.834   7.023
 5714SOL    HW118041   1.948   0.823   6.984
 5714SOL    HW218042   1.788   0.816   6.952
 5715SOL     OW18043   1.644   0.244   3.608
 5715SOL    HW118044   1.606   0.200   3.689
 5715SOL    HW218045   1.569   0.267   3.545
 5716SOL     OW18046   2.430   2.987   5.712
 5716SOL    HW118047   2.514   3.013   5.664
 5716SOL    HW218048   2.434   3.023   5.806
 5717SOL     OW18049   0.374   4.121   0.590
 5717SOL    HW118050   0.325   4.039   0.619
 5717SOL    HW218051   0.391   4.180   0.668
 5718SOL     OW18052   2.067   4.771   5.277
 5718SOL    HW118053   2.085   4.869   5.268
 5718SOL    HW218054   2.096   4.725   5.193
 5719SOL     OW18055   3.057   0.552   6.632
 5719SOL    HW118056   3.032   0.628   6.572
 5719SOL    HW218057   2.990   0.478   6.623
 5720SOL     OW18058   2.128   4.901   4.110
 5720SOL    HW118059   2.036   4.940   4.122
 5720SOL    HW218060   2.141   4.825   4.174
 5721SOL     OW18061   0.739   4.634   1.861
 5721SOL    HW118062   0.729   4.534   1.868
 5721SOL    HW218063   0.792   4.668   1.939
 5722SOL     OW18064   5.483   0.684   4.330
 5722SOL    HW118065   5.502   0.626   4.250
 5722SOL    HW218066   5.492   0.630   4.413
 5723SOL     OW18067   1.552   4.566   0.981
 5723SOL    HW118068   1.634   4.532   1.028
 5723SOL    HW218069   1.500   4.624   1.043
 5724SOL     OW18070   5.158   1.844   6.816
 5724SOL    HW118071   5.153   1.787   6.898
 5724SOL    HW218072   5.125   1.793   6.737
 5725SOL     OW18073   4.985   5.697   6.202
 5725SOL    HW118074   5.011   5.771   6.264
 5725SOL    HW218075   4.904   5.650   6.238
 5726SOL     OW18076   4.848   3.460   6.252
 5726SOL    HW118077   4.902   3.491   6.173
 5726SOL    HW218078   4.802   3.375   6.229
 5727SOL     OW18079   5.888   2.101   3.904
 5727SOL    HW118080   5.937   2.061   3.982
 5727SOL    HW218081   5.954   2.131   3.835
 5728SOL     OW18082   6.043   0.715   6.295
 5728SOL    HW118083   5.984   0.780   6.248
 5728SOL    HW218084   6.040   0.627   6.247
 5729SOL     OW18085   0.898   2.759   5.337
 5729SOL    HW118086   0.913   2.725   5.430
 5729SOL    HW218087   0.931   2.691   5.271
 5730SOL     OW18088   4.604   5.043   6.662
 5730SOL    HW118089   4.683   5.011   6.714
 5730SOL    HW218090   4.574   4.972   6.599
 5731SOL     OW18091   3.389   1.127   4.767
 5731SOL    HW118092   3.354   1.171   4.685
 5731SOL    HW218093   3.377   1.187   4.846
 5732SOL     OW18094   5.680   4.116   4.254
 5732SOL    HW118095   5.595   4.139   4.301
 5732SOL    HW218096   5.757   4.157   4.303
 5733SOL     OW18097   2.859   0.339   0.848
 5733SOL    HW118098   2.928   0.271   0.875
 5733SOL    HW218099   2.869   0.421   0.904
 5734SOL     OW18100   2.277   5.845   6.485
 5734SOL    HW118101   2.303   5.804   6.398
 5734SOL    HW218102   2.232   5.777   6.543
 5735SOL     OW18103   4.379   0.693   1.738
 5735SOL    HW118104   4.303   0.667   1.679
 5735SOL    HW218105   4.451   0.734   1.682
 5736SOL     OW18106   5.398   4.150   0.051
 5736SOL    HW118107   5.492   4.152   0.017
 5736SOL    HW218108   5.388   4.075   0.117
 5737SOL     OW18109   4.131   5.116   0.997
 5737SOL    HW118110   4.093   5.120   0.905
 5737SOL    HW218111   4.067   5.157   1.062
 5738SOL     OW18112   2.846   0.278   0.574
 5738SOL    HW118113   2.834   0.291   0.672
 5738SOL    HW218114   2.787   0.203   0.543
 5739SOL     OW18115   1.832   0.799   5.840
 5739SOL    HW118116   1.787   0.821   5.754
 5739SOL    HW218117   1.803   0.864   5.910
 5740SOL     OW18118   5.340   3.528   2.103
 5740SOL    HW118119   5.276   3.473   2.157
 5740SOL    HW218120   5.425   3.476   2.090
 5741SOL     OW18121   0.303   3.574   4.214
 5741SOL    HW118122   0.326   3.539   4.305
 5741SOL    HW218123   0.315   3.501   4.146
 5742SOL     OW18124   5.365   0.419   3.436
 5742SOL    HW118125   5.404   0.332   3.405
 5742SOL    HW218126   5.405   0.494   3.383
 5743SOL     OW18127   4.127   4.479   0.165
 5743SOL    HW118128   4.082   4.523   0.087
 5743SOL    HW218129   4.058   4.450   0.231
 5744SOL     OW18130   5.601   6.836   2.940
 5744SOL    HW118131   5.508   6.835   2.903
 5744SOL    HW218132   5.608   6.767   3.013
 5745SOL     OW18133   1.705   2.302   1.937
 5745SOL    HW118134   1.733   2.390   1.899
 5745SOL    HW218135   1.632   2.317   2.003
 5746SOL     OW18136   4.453   6.998   3.362
 5746SOL    HW118137   4.509   6.946   3.297
 5746SOL    HW218138   4.419   0.057   3.317
 5747SOL     OW18139   0.607   5.955   0.993
 5747SOL    HW118140   0.550   6.037   1.005
 5747SOL    HW218141   0.581   5.887   1.061
 5748SOL     OW18142   0.273   6.133   0.809
 5748SOL    HW118143   0.371   6.153   0.810
 5748SOL    HW218144   0.248   6.091   0.722
 5749SOL     OW18145   1.419   5.807   5.909
 5749SOL    HW118146   1.497   5.743   5.912
 5749SOL    HW218147   1.340   5.765   5.955
 5750SOL     OW18148   6.452   3.904   3.831
 5750SOL    HW118149   6.441   3.965   3.752
 5750SOL    HW218150   6.454   3.959   3.915
 5751SOL     OW18151   1.890   3.654   4.476
 5751SOL    HW118152   1.795   3.684   4.484
 5751SOL    HW218153   1.893   3.570   4.422
 5752SOL     OW18154   4.767   0.090   0.690
 5752SOL    HW118155   4.785   0.018   0.757
 5752SOL    HW218156   4.842   0.156   0.690
 5753SOL     OW18157   4.008   4.114   5.164
 5753SOL    HW118158   4.001   4.213   5.175
 5753SOL    HW218159   3.978   4.088   5.072
 5754SOL     OW18160   1.045   5.809   1.771
 5754SOL    HW118161   1.015   5.814   1.866
 5754SOL    HW218162   0.984   5.864   1.713
 5755SOL     OW18163   0.958   2.354   6.751
 5755SOL    HW118164   1.046   2.401   6.753
 5755SOL    HW218165   0.886   2.417   6.782
 5756SOL     OW18166   5.894   6.064   1.288
 5756SOL    HW118167   5.895   6.036   1.384
 5756SOL    HW218168   5.988   6.067   1.253
 5757SOL     OW18169   6.642   0.248   4.383
 5757SOL    HW118170   6.555   0.199   4.383
 5757SOL    HW218171   6.649   0.302   4.299
 5758SOL     OW18172   6.203   6.850   2.719
 5758SOL    HW118173   6.175   6.771   2.774
 5758SOL    HW218174   6.296   6.877   2.743
 5759SOL     OW18175   3.799   0.225   1.180
 5759SOL    HW118176   3.739   0.282   1.237
 5759SOL    HW218177   3.838   0.152   1.236
 5760SOL     OW18178   0.625   3.087   0.970
 5760SOL    HW118179   0.563   3.158   1.004
 5760SOL    HW218180   0.572   3.009   0.938
 5761SOL     OW18181   6.059   0.059   4.414
 5761SOL    HW118182   6.124   0.062   4.490
 5761SOL    HW218183   5.973   0.020   4.444
 5762SOL     OW18184   6.714   5.625   0.042
 5762SOL    HW118185   6.698   5.543   7.010
 5762SOL    HW218186   6.795   5.673   0.009
 5763SOL     OW18187   6.094   0.074   0.002
 5763SOL    HW118188   6.008   0.108   6.989
 5763SOL    HW218189   6.168   0.094   6.961
 5764SOL     OW18190   4.651   6.639   4.094
 5764SOL    HW118191   4.733   6.695   4.093
 5764SOL    HW218192   4.591   6.667   4.169
 5765SOL     OW18193   6.377   5.014   1.814
 5765SOL    HW118194   6.316   5.016   1.893
 5765SOL    HW218195   6.464   5.058   1.838
 5766SOL     OW18196   0.491   1.726   4.164
 5766SOL    HW118197   0.501   1.687   4.073
 5766SOL    HW218198   0.414   1.790   4.164
 5767SOL     OW18199   3.375   0.097   0.314
 5767SOL    HW118200   3.474   0.100   0.298
 5767SOL    HW218201   3.341   0.005   0.294
 5768SOL     OW18202   0.307   0.462   4.499
 5768SOL    HW118203   0.328   0.547   4.450
 5768SOL    HW218204   0.272   0.485   4.590
 5769SOL     OW18205   1.269   4.275   6.487
 5769SOL    HW118206   1.347   4.327   6.451
 5769SOL    HW218207   1.276   4.180   6.457
 5770SOL     OW18208   1.990   4.700   1.590
 5770SOL    HW118209   2.057   4.666   1.657
 5770SOL    HW218210   1.988   4.639   1.511
 5771SOL     OW18211   2.942   5.458   3.417
 5771SOL    HW118212   2.882   5.433   3.341
 5771SOL    HW218213   2.969   5.375   3.466
 5772SOL     OW18214   3.277   0.573   2.011
 5772SOL    HW118215   3.316   0.569   1.919
 5772SOL    HW218216   3.339   0.624   2.071
 5773SOL     OW18217   4.315   1.958   3.049
 5773SOL    HW118218   4.328   1.953   2.950
 5773SOL    HW218219   4.315   1.866   3.087
 5774SOL     OW18220   0.207   6.914   2.314
 5774SOL    HW118221   0.247   7.004   2.297
 5774SOL    HW218222   0.236   6.880   2.403
 5775SOL     OW18223   6.177   5.775   2.194
 5775SOL    HW118224   6.230   5.784   2.109
 5775SOL    HW218225   6.233   5.804   2.271
 5776SOL     OW18226   2.902   0.793   3.841
 5776SOL    HW118227   2.986   0.758   3.883
 5776SOL    HW218228   2.832   0.722   3.842
 5777SOL     OW18229   1.556   6.282   3.087
 5777SOL    HW118230   1.556   6.216   3.162
 5777SOL    HW218231   1.470   6.332   3.087
 5778SOL     OW18232   0.614   1.765   0.602
 5778SOL    HW118233   0.704   1.783   0.642
 5778SOL    HW218234   0.546   1.823   0.645
 5779SOL     OW18235   6.186   1.653   6.229
 5779SOL    HW118236   6.173   1.576   6.290
 5779SOL    HW218237   6.276   1.693   6.244
 5780SOL     OW18238   4.982   5.927   3.828
 5780SOL    HW118239   4.925   5.880   3.896
 5780SOL    HW218240   5.030   5.860   3.772
 5781SOL     OW18241   0.701   4.360   5.137
 5781SOL    HW118242   0.783   4.417   5.139
 5781SOL    HW218243   0.692   4.319   5.046
 5782SOL     OW18244   0.626   1.196   0.304
 5782SOL    HW118245   0.545   1.254   0.306
 5782SOL    HW218246   0.688   1.222   0.378
 5783SOL     OW18247   1.519   1.909   1.475
 5783SOL    HW118248   1.614   1.882   1.464
 5783SOL    HW218249   1.473   1.845   1.537
 5784SOL     OW18250   6.644   6.564   6.100
 5784SOL    HW118251   6.711   6.633   6.071
 5784SOL    HW218252   6.691   6.478   6.117
 5785SOL     OW18253   1.352   1.749   1.028
 5785SOL    HW118254   1.372   1.655   1.001
 5785SOL    HW218255   1.434   1.805   1.017
 5786SOL     OW18256   6.169   4.478   0.970
 5786SOL    HW118257   6.228   4.439   0.899
 5786SOL    HW218258   6.152   4.574   0.950
 5787SOL     OW18259   2.989   1.988   5.893
 5787SOL    HW118260   2.892   1.976   5.914
 5787SOL    HW218261   3.000   2.065   5.830
 5788SOL     OW18262   2.542   1.284   3.455
 5788SOL    HW118263   2.516   1.236   3.372
 5788SOL    HW218264   2.532   1.224   3.534
 5789SOL     OW18265   4.196   5.085   6.356
 5789SOL    HW118266   4.228   5.007   6.410
 5789SOL    HW218267   4.136   5.142   6.412
 5790SOL     OW18268   0.537   2.571   3.475
 5790SOL    HW118269   0.490   2.654   3.504
 5790SOL    HW218270   0.625   2.595   3.434
 5791SOL     OW18271   2.614   0.467   2.478
 5791SOL    HW118272   2.699   0.518   2.475
 5791SOL    HW218273   2.575   0.462   2.385
 5792SOL     OW18274   0.049   2.397   3.118
 5792SOL    HW118275   0.123   2.379   3.183
 5792SOL    HW218276   7.019   2.474   3.149
 5793SOL     OW18277   6.568   0.851   3.541
 5793SOL    HW118278   6.527   0.879   3.627
 5793SOL    HW218279   6.641   0.914   3.516
 5794SOL     OW18280   4.148   3.937   6.938
 5794SOL    HW118281   4.084   3.968   6.867
 5794SOL    HW218282   4.236   3.914   6.896
 5795SOL     OW18283   6.023   4.216   6.303
 5795SOL    HW118284   6.077   4.162   6.369
 5795SOL    HW218285   6.078   4.233   6.221
 5796SOL     OW18286   3.568   1.509   0.376
 5796SOL    HW118287   3.522   1.470   0.296
 5796SOL    HW218288   3.658   1.466   0.387
 5797SOL     OW18289   3.304   1.837   4.728
 5797SOL    HW118290   3.232   1.885   4.679
 5797SOL    HW218291   3.285   1.838   4.826
 5798SOL     OW18292   6.902   4.481   4.607
 5798SOL    HW118293   6.919   4.480   4.705
 5798SOL    HW218294   6.989   4.494   4.559
 5799SOL     OW18295   5.548   0.329   3.934
 5799SOL    HW118296   5.562   0.242   3.982
 5799SOL    HW218297   5.465   0.323   3.879
 5800SOL     OW18298   5.951   4.834   0.479
 5800SOL    HW118299   5.996   4.884   0.553
 5800SOL    HW218300   5.973   4.737   0.487
 5801SOL     OW18301   1.938   1.045   3.718
 5801SOL    HW118302   1.904   0.992   3.797
 5801SOL    HW218303   1.861   1.085   3.670
 5802SOL     OW18304   0.330   4.086   5.663
 5802SOL    HW118305   0.319   4.000   5.612
 5802SOL    HW218306   0.263   4.153   5.629
 5803SOL     OW18307   0.867   4.566   0.729
 5803SOL    HW118308   0.868   4.661   0.758
 5803SOL    HW218309   0.842   4.560   0.632
 5804SOL     OW18310   6.390   4.431   4.493
 5804SOL    HW118311   6.412   4.392   4.582
 5804SOL    HW218312   6.322   4.503   4.503
 5805SOL     OW18313   4.941   3.295   6.506
 5805SOL    HW118314   5.025   3.276   6.556
 5805SOL    HW218315   4.964   3.334   6.416
 5806SOL     OW18316   0.715   6.312   0.095
 5806SOL    HW118317   0.676   6.221   0.113
 5806SOL    HW218318   0.687   6.343   0.004
 5807SOL     OW18319   1.571   3.270   1.708
 5807SOL    HW118320   1.527   3.256   1.619
 5807SOL    HW218321   1.553   3.192   1.767
 5808SOL     OW18322   6.312   3.424   2.295
 5808SOL    HW118323   6.365   3.340   2.304
 5808SOL    HW218324   6.217   3.402   2.275
 5809SOL     OW18325   0.006   3.853   4.344
 5809SOL    HW118326   6.954   3.917   4.336
 5809SOL    HW218327   7.010   3.787   4.417
 5810SOL     OW18328   2.918   1.731   2.249
 5810SOL    HW118329   2.881   1.645   2.214
 5810SOL    HW218330   2.986   1.766   2.184
 5811SOL     OW18331   2.987   0.695   4.273
 5811SOL    HW118332   3.009   0.643   4.190
 5811SOL    HW218333   3.042   0.662   4.349
 5812SOL     OW18334   4.827   0.609   4.002
 5812SOL    HW118335   4.776   0.567   3.927
 5812SOL    HW218336   4.924   0.587   3.993
 5813SOL     OW18337   1.795   0.523   5.329
 5813SOL    HW118338   1.701   0.501   5.303
 5813SOL    HW218339   1.852   0.442   5.317
 5814SOL     OW18340   0.119   5.030   1.852
 5814SOL    HW118341   0.068   4.985   1.778
 5814SOL    HW218342   0.055   5.068   1.918
 5815SOL     OW18343   4.172   1.236   3.210
 5815SOL    HW118344   4.095   1.276   3.258
 5815SOL    HW218345   4.142   1.201   3.121
 5816SOL     OW18346   4.677   0.658   0.473
 5816SOL    HW118347   4.718   0.630   0.386
 5816SOL    HW218348   4.586   0.616   0.481
 5817SOL     OW18349   4.759   3.131   5.561
 5817SOL    HW118350   4.809   3.057   5.605
 5817SOL    HW218351   4.822   3.204   5.537
 5818SOL     OW18352   6.289   6.939   6.219
 5818SOL    HW118353   6.271   6.879   6.297
 5818SOL    HW218354   6.351   6.894   6.155
 5819SOL     OW18355   5.740   0.442   1.671
 5819SOL    HW118356   5.708   0.521   1.723
 5819SOL    HW218357   5.679   0.426   1.593
 5820SOL     OW18358   5.580   6.162   3.367
 5820SOL    HW118359   5.506   6.112   3.413
 5820SOL    HW218360   5.662   6.160   3.424
 5821SOL     OW18361   2.433   1.157   1.886
 5821SOL    HW118362   2.530   1.182   1.883
 5821SOL    HW218363   2.382   1.215   1.822
 5822SOL     OW18364   0.020   1.541   1.870
 5822SOL    HW118365   0.002   1.556   1.967
 5822SOL    HW218366   0.078   1.615   1.835
 5823SOL     OW18367   2.288   1.769   4.241
 5823SOL    HW118368   2.212   1.744   4.180
 5823SOL    HW218369   2.266   1.854   4.288
 5824SOL     OW18370   5.604   0.002   3.761
 5824SOL    HW118371   5.676   6.965   3.730
 5824SOL    HW218372   5.613   0.016   3.860
 5825SOL     OW18373   2.202   0.399   0.132
 5825SOL    HW118374   2.194   0.376   0.229
 5825SOL    HW218375   2.172   0.493   0.117
 5826SOL     OW18376   6.557   0.014   5.039
 5826SOL    HW118377   6.613   6.966   5.080
 5826SOL    HW218378   6.555   0.093   5.100
 5827SOL     OW18379   0.958   5.722   5.042
 5827SOL    HW118380   0.921   5.807   5.080
 5827SOL    HW218381   0.910   5.644   5.083
 5828SOL     OW18382   0.420   3.322   2.014
 5828SOL    HW118383   0.501   3.306   1.958
 5828SOL    HW218384   0.370   3.236   2.026
 5829SOL     OW18385   2.191   1.659   1.615
 5829SOL    HW118386   2.260   1.625   1.551
 5829SOL    HW218387   2.235   1.684   1.701
 5830SOL     OW18388   3.174   1.352   6.226
 5830SOL    HW118389   3.209   1.338   6.134
 5830SOL    HW218390   3.221   1.430   6.268
 5831SOL     OW18391   5.417   6.783   3.331
 5831SOL    HW118392   5.434   6.698   3.381
 5831SOL    HW218393   5.390   6.855   3.395
 5832SOL     OW18394   3.969   3.875   5.367
 5832SOL    HW118395   4.032   3.950   5.349
 5832SOL    HW218396   3.936   3.881   5.461
 5833SOL     OW18397   3.148   3.609   4.407
 5833SOL    HW118398   3.064   3.573   4.448
 5833SOL    HW218399   3.125   3.678   4.339
 5834SOL     OW18400   5.759   1.176   1.131
 5834SOL    HW118401   5.762   1.259   1.075
 5834SOL    HW218402   5.812   1.190   1.214
 5835SOL     OW18403   5.033   2.303   3.714
 5835SOL    HW118404   5.111   2.310   3.775
 5835SOL    HW218405   5.065   2.298   3.619
 5836SOL     OW18406   3.531   5.957   2.422
 5836SOL    HW118407   3.629   5.946   2.438
 5836SOL    HW218408   3.516   5.995   2.331
 5837SOL     OW18409   4.660   4.049   0.048
 5837SOL    HW118410   4.688   3.981   7.004
 5837SOL    HW218411   4.666   4.140   0.007
 5838SOL     OW18412   1.283   1.150   5.345
 5838SOL    HW118413   1.294   1.105   5.256
 5838SOL    HW218414   1.230   1.090   5.406
 5839SOL     OW18415   6.728   3.006   2.873
 5839SOL    HW118416   6.679   2.928   2.913
 5839SOL    HW218417   6.768   3.061   2.946
 5840SOL     OW18418   1.211   5.401   6.920
 5840SOL    HW118419   1.152   5.480   6.938
 5840SOL    HW218420   1.204   5.336   6.995
 5841SOL     OW18421   6.502   2.497   3.465
 5841SOL    HW118422   6.516   2.405   3.501
 5841SOL    HW218423   6.442   2.548   3.527
 5842SOL     OW18424   3.913   2.860   1.214
 5842SOL    HW118425   3.893   2.947   1.257
 5842SOL    HW218426   3.845   2.792   1.242
 5843SOL     OW18427   1.809   3.494   2.405
 5843SOL    HW118428   1.897   3.481   2.450
 5843SOL    HW218429   1.816   3.567   2.337
 5844SOL     OW18430   0.858   6.387   6.495
 5844SOL    HW118431   0.846   6.477   6.537
 5844SOL    HW218432   0.949   6.352   6.517
 5845SOL     OW18433   0.213   2.452   4.260
 5845SOL    HW118434   0.280   2.411   4.198
 5845SOL    HW218435   0.245   2.441   4.354
 5846SOL     OW18436   0.205   2.606   5.314
 5846SOL    HW118437   0.234   2.692   5.355
 5846SOL    HW218438   0.120   2.575   5.358
 5847SOL     OW18439   2.142   2.706   2.237
 5847SOL    HW118440   2.075   2.774   2.267
 5847SOL    HW218441   2.199   2.746   2.165
 5848SOL     OW18442   0.952   4.456   3.314
 5848SOL    HW118443   0.960   4.376   3.373
 5848SOL    HW218444   1.013   4.445   3.235
 5849SOL     OW18445   2.493   0.209   5.717
 5849SOL    HW118446   2.580   0.254   5.738
 5849SOL    HW218447   2.422   0.278   5.701
 5850SOL     OW18448   0.452   4.630   2.010
 5850SOL    HW118449   0.516   4.670   1.944
 5850SOL    HW218450   0.369   4.685   2.014
 5851SOL     OW18451   6.612   3.741   2.137
 5851SOL    HW118452   6.598   3.840   2.131
 5851SOL    HW218453   6.535   3.699   2.185
 5852SOL     OW18454   4.098   5.886   2.378
 5852SOL    HW118455   4.154   5.918   2.302
 5852SOL    HW218456   4.110   5.787   2.389
 5853SOL     OW18457   3.261   4.650   6.144
 5853SOL    HW118458   3.172   4.641   6.188
 5853SOL    HW218459   3.253   4.628   6.047
 5854SOL     OW18460   0.005   1.022   6.005
 5854SOL    HW118461   0.035   1.006   5.910
 5854SOL    HW218462   6.953   0.961   6.027
 5855SOL     OW18463   1.292   1.078   4.472
 5855SOL    HW118464   1.235   1.009   4.517
 5855SOL    HW218465   1.264   1.169   4.503
 5856SOL     OW18466   1.497   4.679   3.645
 5856SOL    HW118467   1.442   4.629   3.712
 5856SOL    HW218468   1.519   4.619   3.569
 5857SOL     OW18469   6.628   3.125   5.649
 5857SOL    HW118470   6.654   3.158   5.740
 5857SOL    HW218471   6.610   3.203   5.589
 5858SOL     OW18472   3.937   1.109   3.132
 5858SOL    HW118473   3.873   1.041   3.170
 5858SOL    HW218474   3.885   1.182   3.087
 5859SOL     OW18475   5.874   6.493   0.848
 5859SOL    HW118476   5.812   6.416   0.832
 5859SOL    HW218477   5.821   6.576   0.865
 5860SOL     OW18478   1.401   4.207   1.712
 5860SOL    HW118479   1.498   4.189   1.696
 5860SOL    HW218480   1.355   4.219   1.624
 5861SOL     OW18481   6.047   2.478   4.129
 5861SOL    HW118482   6.076   2.430   4.212
 5861SOL    HW218483   5.964   2.530   4.148
 5862SOL     OW18484   4.201   4.935   3.083
 5862SOL    HW118485   4.238   4.842   3.093
 5862SOL    HW218486   4.187   4.955   2.986
 5863SOL     OW18487   2.078   1.030   6.380
 5863SOL    HW118488   2.068   1.124   6.414
 5863SOL    HW218489   2.175   1.009   6.371
 5864SOL     OW18490   4.499   4.497   1.378
 5864SOL    HW118491   4.524   4.415   1.430
 5864SOL    HW218492   4.440   4.554   1.434
 5865SOL     OW18493   4.873   0.937   3.580
 5865SOL    HW118494   4.862   1.036   3.580
 5865SOL    HW218495   4.957   0.913   3.530
 5866SOL     OW18496   3.954   6.845   5.750
 5866SOL    HW118497   3.926   6.754   5.719
 5866SOL    HW218498   3.953   6.848   5.850
 5867SOL     OW18499   0.357   3.004   1.839
 5867SOL    HW118500   0.429   2.934   1.850
 5867SOL    HW218501   0.338   3.046   1.927
 5868SOL     OW18502   1.587   6.836   5.272
 5868SOL    HW118503   1.596   6.836   5.172
 5868SOL    HW218504   1.676   6.821   5.314
 5869SOL     OW18505   2.810   4.888   4.451
 5869SOL    HW118506   2.900   4.899   4.410
 5869SOL    HW218507   2.818   4.877   4.550
 5870SOL     OW18508   4.780   5.373   4.822
 5870SOL    HW118509   4.876   5.375   4.848
 5870SOL    HW218510   4.772   5.362   4.723
 5871SOL     OW18511   3.563   3.234   0.268
 5871SOL    HW118512   3.490   3.167   0.278
 5871SOL    HW218513   3.628   3.203   0.199
 5872SOL     OW18514   3.207   5.771   5.772
 5872SOL    HW118515   3.237   5.824   5.851
 5872SOL    HW218516   3.281   5.710   5.742
 5873SOL     OW18517   3.366   3.590   0.033
 5873SOL    HW118518   3.435   3.633   0.091
 5873SOL    HW218519   3.339   3.503   0.073
 5874SOL     OW18520   2.046   3.402   1.478
 5874SOL    HW118521   2.066   3.408   1.576
 5874SOL    HW218522   2.124   3.359   1.431
 5875SOL     OW18523   3.058   1.422   0.136
 5875SOL    HW118524   3.003   1.371   0.071
 5875SOL    HW218525   3.016   1.511   0.155
 5876SOL     OW18526   3.197   3.632   6.574
 5876SOL    HW118527   3.271   3.655   6.512
 5876SOL    HW218528   3.140   3.714   6.590
 5877SOL     OW18529   6.715   0.145   2.624
 5877SOL    HW118530   6.813   0.144   2.605
 5877SOL    HW218531   6.699   0.112   2.717
 5878SOL     OW18532   4.413   4.892   2.576
 5878SOL    HW118533   4.504   4.850   2.568
 5878SOL    HW218534   4.384   4.926   2.487
 5879SOL     OW18535   3.823   3.314   5.809
 5879SOL    HW118536   3.889   3.377   5.847
 5879SOL    HW218537   3.866   3.258   5.738
 5880SOL     OW18538   4.387   2.642   6.073
 5880SOL    HW118539   4.329   2.597   6.005
 5880SOL    HW218540   4.477   2.597   6.075
 5881SOL     OW18541   1.164   6.253   2.193
 5881SOL    HW118542   1.210   6.189   2.256
 5881SOL    HW218543   1.218   6.261   2.109
 5882SOL     OW18544   1.679   5.647   5.911
 5882SOL    HW118545   1.680   5.621   5.815
 5882SOL    HW218546   1.710   5.742   5.920
 5883SOL     OW18547   0.084   4.536   1.401
 5883SOL    HW118548   0.110   4.496   1.314
 5883SOL    HW218549   0.139   4.495   1.475
 5884SOL     OW18550   6.241   1.872   3.638
 5884SOL    HW118551   6.261   1.914   3.549
 5884SOL    HW218552   6.184   1.934   3.692
 5885SOL     OW18553   0.302   5.010   6.493
 5885SOL    HW118554   0.374   4.944   6.514
 5885SOL    HW218555   0.240   4.972   6.425
 5886SOL     OW18556   1.951   3.942   3.625
 5886SOL    HW118557   1.970   3.999   3.705
 5886SOL    HW218558   1.864   3.894   3.638
 5887SOL     OW18559   2.336   2.630   1.295
 5887SOL    HW118560   2.262   2.683   1.337
 5887SOL    HW218561   2.309   2.534   1.290
 5888SOL     OW18562   3.331   6.705   0.851
 5888SOL    HW118563   3.352   6.635   0.921
 5888SOL    HW218564   3.388   6.689   0.771
 5889SOL     OW18565   6.438   0.852   2.023
 5889SOL    HW118566   6.430   0.806   1.935
 5889SOL    HW218567   6.380   0.806   2.090
 5890SOL     OW18568   2.763   6.417   2.794
 5890SOL    HW118569   2.860   6.408   2.770
 5890SOL    HW218570   2.741   6.513   2.809
 5891SOL     OW18571   2.977   3.297   0.932
 5891SOL    HW118572   2.955   3.390   0.960
 5891SOL    HW218573   2.961   3.235   1.009
 5892SOL     OW18574   1.244   4.014   1.195
 5892SOL    HW118575   1.286   3.924   1.182
 5892SOL    HW218576   1.162   4.021   1.139
 5893SOL     OW18577   0.464   6.154   2.173
 5893SOL    HW118578   0.380   6.100   2.180
 5893SOL    HW218579   0.536   6.112   2.226
 5894SOL     OW18580   2.118   5.514   5.899
 5894SOL    HW118581   2.101   5.523   5.801
 5894SOL    HW218582   2.094   5.422   5.928
 5895SOL     OW18583   5.395   2.914   4.671
 5895SOL    HW118584   5.430   3.007   4.656
 5895SOL    HW218585   5.442   2.872   4.748
 5896SOL     OW18586   5.343   2.093   1.972
 5896SOL    HW118587   5.249   2.089   2.004
 5896SOL    HW218588   5.394   2.013   2.004
 5897SOL     OW18589   4.192   2.316   0.657
 5897SOL    HW118590   4.113   2.377   0.651
 5897SOL    HW218591   4.190   2.267   0.745
 5898SOL     OW18592   1.982   1.347   5.834
 5898SOL    HW118593   1.972   1.322   5.930
 5898SOL    HW218594   2.072   1.318   5.801
 5899SOL     OW18595   6.601   5.380   5.736
 5899SOL    HW118596   6.540   5.303   5.716
 5899SOL    HW218597   6.576   5.458   5.679
 5900SOL     OW18598   5.818   6.111   3.517
 5900SOL    HW118599   5.907   6.116   3.563
 5900SOL    HW218600   5.803   6.019   3.481
 5901SOL     OW18601   2.150   0.630   5.684
 5901SOL    HW118602   2.067   0.582   5.712
 5901SOL    HW218603   2.225   0.564   5.674
 5902SOL     OW18604   4.774   4.283   5.539
 5902SOL    HW118605   4.693   4.239   5.580
 5902SOL    HW218606   4.759   4.295   5.441
 5903SOL     OW18607   6.498   2.326   5.511
 5903SOL    HW118608   6.516   2.289   5.602
 5903SOL    HW218609   6.434   2.402   5.518
 5904SOL     OW18610   1.677   4.541   2.132
 5904SOL    HW118611   1.726   4.588   2.205
 5904SOL    HW218612   1.682   4.596   2.048
 5905SOL     OW18613   6.147   1.777   4.355
 5905SOL    HW118614   6.170   1.803   4.448
 5905SOL    HW218615   6.189   1.689   4.334
 5906SOL     OW18616   4.637   0.808   5.519
 5906SOL    HW118617   4.646   0.708   5.522
 5906SOL    HW218618   4.714   0.850   5.568
 5907SOL     OW18619   2.042   3.341   6.453
 5907SOL    HW118620   2.053   3.378   6.545
 5907SOL    HW218621   2.074   3.408   6.386
 5908SOL     OW18622   4.628   2.533   6.145
 5908SOL    HW118623   4.713   2.585   6.149
 5908SOL    HW218624   4.649   2.435   6.142
 5909SOL     OW18625   6.989   5.259   4.266
 5909SOL    HW118626   6.915   5.198   4.295
 5909SOL    HW218627   0.053   5.220   4.293
 5910SOL     OW18628   2.026   3.626   1.305
 5910SOL    HW118629   2.023   3.715   1.350
 5910SOL    HW218630   2.022   3.554   1.374
 5911SOL     OW18631   5.950   6.652   6.828
 5911SOL    HW118632   5.900   6.568   6.848
 5911SOL    HW218633   6.029   6.631   6.770
 5912SOL     OW18634   6.486   3.569   6.884
 5912SOL    HW118635   6.412   3.517   6.841
 5912SOL    HW218636   6.524   3.634   6.817
 5913SOL     OW18637   1.439   1.460   5.987
 5913SOL    HW118638   1.417   1.555   6.009
 5913SOL    HW218639   1.538   1.446   5.993
 5914SOL     OW18640   2.101   6.138   0.594
 5914SOL    HW118641   2.112   6.069   0.665
 5914SOL    HW218642   2.185   6.145   0.541
 5915SOL     OW18643   4.944   3.214   2.685
 5915SOL    HW118644   4.924   3.155   2.607
 5915SOL    HW218645   5.038   3.197   2.716
 5916SOL     OW18646   3.257   0.830   5.914
 5916SOL    HW118647   3.321   0.868   5.981
 5916SOL    HW218648   3.243   0.732   5.933
 5917SOL     OW18649   3.242   3.432   3.224
 5917SOL    HW118650   3.253   3.491   3.304
 5917SOL    HW218651   3.324   3.377   3.212
 5918SOL     OW18652   2.196   2.989   4.439
 5918SOL    HW118653   2.233   3.079   4.460
 5918SOL    HW218654   2.210   2.969   4.341
 5919SOL     OW18655   1.438   3.140   6.822
 5919SOL    HW118656   1.529   3.138   6.864
 5919SOL    HW218657   1.446   3.178   6.729
 5920SOL     OW18658   3.861   6.395   6.575
 5920SOL    HW118659   3.859   6.317   6.638
 5920SOL    HW218660   3.875   6.361   6.482
 5921SOL     OW18661   3.893   5.254   5.229
 5921SOL    HW118662   3.836   5.336   5.220
 5921SOL    HW218663   3.921   5.222   5.139
 5922SOL     OW18664   5.757   4.029   2.024
 5922SOL    HW118665   5.731   4.106   1.966
 5922SOL    HW218666   5.837   4.055   2.079
 5923SOL     OW18667   0.268   6.963   4.274
 5923SOL    HW118668   0.240   0.034   4.293
 5923SOL    HW218669   0.366   6.959   4.260
 5924SOL     OW18670   5.588   2.017   4.456
 5924SOL    HW118671   5.511   2.063   4.413
 5924SOL    HW218672   5.673   2.055   4.422
 5925SOL     OW18673   5.688   6.259   1.308
 5925SOL    HW118674   5.670   6.312   1.390
 5925SOL    HW218675   5.780   6.220   1.313
 5926SOL     OW18676   3.554   5.080   1.684
 5926SOL    HW118677   3.612   5.137   1.625
 5926SOL    HW218678   3.519   5.135   1.760
 5927SOL     OW18679   2.852   5.897   2.961
 5927SOL    HW118680   2.948   5.870   2.968
 5927SOL    HW218681   2.793   5.821   2.989
 5928SOL     OW18682   1.326   6.733   1.823
 5928SOL    HW118683   1.295   6.766   1.734
 5928SOL    HW218684   1.353   6.811   1.879
 5929SOL     OW18685   1.359   0.033   6.116
 5929SOL    HW118686   1.292   0.021   6.189
 5929SOL    HW218687   1.450   0.010   6.151
 5930SOL     OW18688   6.872   1.757   4.558
 5930SOL    HW118689   6.830   1.698   4.626
 5930SOL    HW218690   6.957   1.796   4.594
 5931SOL     OW18691   6.527   5.248   1.460
 5931SOL    HW118692   6.460   5.249   1.534
 5931SOL    HW218693   6.492   5.303   1.384
 5932SOL     OW18694   2.882   6.531   0.341
 5932SOL    HW118695   2.876   6.509   0.244
 5932SOL    HW218696   2.839   6.620   0.358
 5933SOL     OW18697   6.692   3.650   2.724
 5933SOL    HW118698   6.735   3.688   2.642
 5933SOL    HW218699   6.594   3.640   2.709
 5934SOL     OW18700   3.096   3.803   2.980
 5934SOL    HW118701   3.101   3.885   3.037
 5934SOL    HW218702   3.097   3.830   2.883
 5935SOL     OW18703   3.723   3.277   3.795
 5935SOL    HW118704   3.717   3.346   3.867
 5935SOL    HW218705   3.730   3.322   3.706
 5936SOL     OW18706   5.024   5.853   6.420
 5936SOL    HW118707   4.949   5.918   6.432
 5936SOL    HW218708   5.025   5.790   6.498
 5937SOL     OW18709   1.856   3.659   0.717
 5937SOL    HW118710   1.953   3.668   0.692
 5937SOL    HW218711   1.841   3.567   0.754
 5938SOL     OW18712   2.129   4.598   1.805
 5938SOL    HW118713   2.107   4.657   1.883
 5938SOL    HW218714   2.226   4.573   1.808
 5939SOL     OW18715   3.323   0.597   3.673
 5939SOL    HW118716   3.412   0.592   3.720
 5939SOL    HW218717   3.306   0.509   3.627
 5940SOL     OW18718   3.767   5.987   3.288
 5940SOL    HW118719   3.717   5.988   3.375
 5940SOL    HW218720   3.712   6.030   3.217
 5941SOL     OW18721   6.140   4.706   2.181
 5941SOL    HW118722   6.130   4.636   2.110
 5941SOL    HW218723   6.198   4.670   2.254
 5942SOL     OW18724   4.793   2.160   5.703
 5942SOL    HW118725   4.711   2.115   5.738
 5942SOL    HW218726   4.850   2.092   5.657
 5943SOL     OW18727   1.484   5.877   0.268
 5943SOL    HW118728   1.395   5.918   0.282
 5943SOL    HW218729   1.479   5.811   0.193
 5944SOL     OW18730   4.941   1.671   2.599
 5944SOL    HW118731   4.872   1.615   2.554
 5944SOL    HW218732   5.007   1.705   2.531
 5945SOL     OW18733   6.901   4.866   5.338
 5945SOL    HW118734   6.834   4.793   5.323
 5945SOL    HW218735   6.964   4.838   5.410
 5946SOL     OW18736   4.075   3.079   5.302
 5946SOL    HW118737   4.054   3.001   5.359
 5946SOL    HW218738   4.032   3.068   5.212
 5947SOL     OW18739   4.363   3.347   1.644
 5947SOL    HW118740   4.451   3.356   1.689
 5947SOL    HW218741   4.310   3.431   1.659
 5948SOL     OW18742   3.502   4.918   2.234
 5948SOL    HW118743   3.528   4.848   2.167
 5948SOL    HW218744   3.422   4.886   2.286
 5949SOL     OW18745   4.401   4.787   1.717
 5949SOL    HW118746   4.379   4.779   1.814
 5949SOL    HW218747   4.498   4.770   1.703
 5950SOL     OW18748   6.121   2.406   3.878
 5950SOL    HW118749   6.115   2.422   3.976
 5950SOL    HW218750   6.152   2.489   3.832
 5951SOL     OW18751   1.943   5.314   3.550
 5951SOL    HW118752   2.016   5.265   3.502
 5951SOL    HW218753   1.900   5.379   3.487
 5952SOL     OW18754   0.355   6.902   4.660
 5952SOL    HW118755   0.323   6.942   4.746
 5952SOL    HW218756   0.300   6.823   4.637
 5953SOL     OW18757   0.513   3.237   6.275
 5953SOL    HW118758   0.463   3.152   6.288
 5953SOL    HW218759   0.450   3.310   6.250
 5954SOL     OW18760   0.432   5.200   6.669
 5954SOL    HW118761   0.403   5.201   6.765
 5954SOL    HW218762   0.378   5.132   6.619
 5955SOL     OW18763   5.456   5.533   2.159
 5955SOL    HW118764   5.403   5.449   2.162
 5955SOL    HW218765   5.536   5.524   2.218
 5956SOL     OW18766   5.738   2.328   0.114
 5956SOL    HW118767   5.700   2.257   0.054
 5956SOL    HW218768   5.732   2.417   0.068
 5957SOL     OW18769   5.916   6.772   6.100
 5957SOL    HW118770   5.885   6.703   6.165
 5957SOL    HW218771   5.941   6.728   6.014
 5958SOL     OW18772   6.830   5.000   1.992
 5958SOL    HW118773   6.765   5.037   2.058
 5958SOL    HW218774   6.852   4.905   2.016
 5959SOL     OW18775   2.242   1.593   6.059
 5959SOL    HW118776   2.229   1.495   6.068
 5959SOL    HW218777   2.332   1.612   6.019
 5960SOL     OW18778   3.060   0.545   3.750
 5960SOL    HW118779   3.124   0.602   3.699
 5960SOL    HW218780   2.988   0.511   3.689
 5961SOL     OW18781   2.872   0.697   5.700
 5961SOL    HW118782   2.922   0.685   5.614
 5961SOL    HW218783   2.928   0.751   5.764
 5962SOL     OW18784   4.867   5.419   2.126
 5962SOL    HW118785   4.865   5.519   2.123
 5962SOL    HW218786   4.773   5.384   2.118
 5963SOL     OW18787   4.129   3.728   2.206
 5963SOL    HW118788   4.221   3.760   2.228
 5963SOL    HW218789   4.061   3.780   2.259
 5964SOL     OW18790   0.597   5.041   5.564
 5964SOL    HW118791   0.629   5.029   5.658
 5964SOL    HW218792   0.600   5.139   5.540
 5965SOL     OW18793   2.852   2.281   5.522
 5965SOL    HW118794   2.797   2.281   5.439
 5965SOL    HW218795   2.908   2.364   5.525
 5966SOL     OW18796   2.699   6.123   3.813
 5966SOL    HW118797   2.782   6.083   3.853
 5966SOL    HW218798   2.711   6.130   3.713
 5967SOL     OW18799   4.842   6.720   2.216
 5967SOL    HW118800   4.829   6.633   2.263
 5967SOL    HW218801   4.767   6.782   2.237
 5968SOL     OW18802   0.300   2.875   4.687
 5968SOL    HW118803   0.210   2.848   4.652
 5968SOL    HW218804   0.296   2.969   4.720
 5969SOL     OW18805   5.949   3.621   3.539
 5969SOL    HW118806   5.898   3.584   3.616
 5969SOL    HW218807   6.033   3.569   3.526
 5970SOL     OW18808   1.515   2.945   3.272
 5970SOL    HW118809   1.580   3.007   3.229
 5970SOL    HW218810   1.564   2.877   3.326
 5971SOL     OW18811   2.302   7.001   2.427
 5971SOL    HW118812   2.324   6.996   2.329
 5971SOL    HW218813   2.346   6.925   2.475
 5972SOL     OW18814   4.716   6.390   0.294
 5972SOL    HW118815   4.640   6.407   0.357
 5972SOL    HW218816   4.686   6.325   0.223
 5973SOL     OW18817   0.987   4.326   3.625
 5973SOL    HW118818   1.015   4.275   3.544
 5973SOL    HW218819   0.928   4.268   3.682
 5974SOL     OW18820   0.927   3.859   6.580
 5974SOL    HW118821   0.946   3.817   6.491
 5974SOL    HW218822   0.916   3.957   6.568
 5975SOL     OW18823   2.657   3.050   0.569
 5975SOL    HW118824   2.748   3.029   0.605
 5975SOL    HW218825   2.662   3.136   0.517
 5976SOL     OW18826   3.218   2.977   5.048
 5976SOL    HW118827   3.150   2.973   4.974
 5976SOL    HW218828   3.210   3.065   5.095
 5977SOL     OW18829   0.854   3.817   2.499
 5977SOL    HW118830   0.886   3.734   2.545
 5977SOL    HW218831   0.846   3.801   2.401
 5978SOL     OW18832   5.349   5.486   1.666
 5978SOL    HW118833   5.382   5.532   1.749
 5978SOL    HW218834   5.289   5.410   1.691
 5979SOL     OW18835   0.277   0.541   3.412
 5979SOL    HW118836   0.297   0.458   3.360
 5979SOL    HW218837   0.188   0.532   3.457
 5980SOL     OW18838   6.148   3.837   6.696
 5980SOL    HW118839   6.080   3.853   6.768
 5980SOL    HW218840   6.239   3.855   6.732
 5981SOL     OW18841   4.666   0.900   2.412
 5981SOL    HW118842   4.675   0.932   2.506
 5981SOL    HW218843   4.571   0.878   2.393
 5982SOL     OW18844   6.707   2.026   6.037
 5982SOL    HW118845   6.636   1.958   6.020
 5982SOL    HW218846   6.778   2.019   5.968
 5983SOL     OW18847   1.361   1.036   4.784
 5983SOL    HW118848   1.368   1.130   4.753
 5983SOL    HW218849   1.285   1.027   4.849
 5984SOL     OW18850   0.138   6.727   5.122
 5984SOL    HW118851   0.133   6.765   5.214
 5984SOL    HW218852   0.150   6.628   5.127
 5985SOL     OW18853   4.281   1.867   4.282
 5985SOL    HW118854   4.336   1.784   4.287
 5985SOL    HW218855   4.247   1.889   4.374
 5986SOL     OW18856   3.581   3.266   2.218
 5986SOL    HW118857   3.570   3.189   2.155
 5986SOL    HW218858   3.653   3.244   2.284
 5987SOL     OW18859   3.789   0.267   5.036
 5987SOL    HW118860   3.784   0.252   4.938
 5987SOL    HW218861   3.816   0.361   5.055
 5988SOL     OW18862   3.934   0.144   4.050
 5988SOL    HW118863   3.887   0.106   3.971
 5988SOL    HW218864   3.981   0.070   4.099
 5989SOL     OW18865   2.996   0.594   6.178
 5989SOL    HW118866   3.014   0.531   6.254
 5989SOL    HW218867   2.898   0.598   6.160
 5990SOL     OW18868   3.328   4.653   1.477
 5990SOL    HW118869   3.290   4.737   1.517
 5990SOL    HW218870   3.322   4.579   1.544
 5991SOL     OW18871   2.778   5.021   4.875
 5991SOL    HW118872   2.811   4.979   4.960
 5991SOL    HW218873   2.782   4.955   4.801
 5992SOL     OW18874   4.738   0.277   3.789
 5992SOL    HW118875   4.777   0.217   3.720
 5992SOL    HW218876   4.802   0.287   3.865
 5993SOL     OW18877   2.684   5.800   5.372
 5993SOL    HW118878   2.674   5.736   5.449
 5993SOL    HW218879   2.753   5.868   5.395
 5994SOL     OW18880   6.951   2.332   2.267
 5994SOL    HW118881   6.960   2.283   2.354
 5994SOL    HW218882   6.986   2.275   2.193
 5995SOL     OW18883   0.001   4.397   1.830
 5995SOL    HW118884   0.046   4.335   1.894
 5995SOL    HW218885   6.963   4.345   1.771
 5996SOL     OW18886   0.299   5.188   5.680
 5996SOL    HW118887   0.270   5.094   5.700
 5996SOL    HW218888   0.227   5.234   5.629
 5997SOL     OW18889   0.388   6.726   2.497
 5997SOL    HW118890   0.344   6.772   2.574
 5997SOL    HW218891   0.467   6.780   2.466
 5998SOL     OW18892   5.543   1.984   2.773
 5998SOL    HW118893   5.541   1.975   2.873
 5998SOL    HW218894   5.450   2.000   2.739
 5999SOL     OW18895   1.463   1.429   2.976
 5999SOL    HW118896   1.452   1.330   2.979
 5999SOL    HW218897   1.550   1.455   3.018
 6000SOL     OW18898   4.661   5.519   1.844
 6000SOL    HW118899   4.712   5.435   1.823
 6000SOL    HW218900   4.718   5.579   1.900
 6001SOL     OW18901   6.563   2.483   0.066
 6001SOL    HW118902   6.548   2.385   0.076
 6001SOL    HW218903   6.602   2.520   0.150
 6002SOL     OW18904   1.858   0.133   1.762
 6002SOL    HW118905   1.856   0.195   1.840
 6002SOL    HW218906   1.770   0.085   1.756
 6003SOL     OW18907   4.863   4.241   4.447
 6003SOL    HW118908   4.895   4.286   4.530
 6003SOL    HW218909   4.870   4.142   4.458
 6004SOL     OW18910   0.268   3.304   2.516
 6004SOL    HW118911   0.213   3.275   2.594
 6004SOL    HW218912   0.352   3.348   2.549
 6005SOL     OW18913   3.328   5.991   2.901
 6005SOL    HW118914   3.305   6.060   2.970
 6005SOL    HW218915   3.325   6.032   2.810
 6006SOL     OW18916   2.441   6.298   6.976
 6006SOL    HW118917   2.433   6.338   6.884
 6006SOL    HW218918   2.536   6.268   6.990
 6007SOL     OW18919   5.818   2.604   4.214
 6007SOL    HW118920   5.892   2.663   4.246
 6007SOL    HW218921   5.732   2.655   4.213
 6008SOL     OW18922   2.913   4.648   6.661
 6008SOL    HW118923   2.979   4.574   6.677
 6008SOL    HW218924   2.830   4.610   6.621
 6009SOL     OW18925   2.745   1.881   4.451
 6009SOL    HW118926   2.828   1.825   4.456
 6009SOL    HW218927   2.673   1.829   4.406
 6010SOL     OW18928   1.323   4.078   3.413
 6010SOL    HW118929   1.305   4.169   3.450
 6010SOL    HW218930   1.381   4.027   3.476
 6011SOL     OW18931   5.819   3.488   3.153
 6011SOL    HW118932   5.840   3.476   3.056
 6011SOL    HW218933   5.861   3.413   3.205
 6012SOL     OW18934   6.553   3.321   0.583
 6012SOL    HW118935   6.647   3.287   0.579
 6012SOL    HW218936   6.545   3.403   0.527
 6013SOL     OW18937   5.437   1.209   2.712
 6013SOL    HW118938   5.480   1.122   2.688
 6013SOL    HW218939   5.467   1.280   2.649
 6014SOL     OW18940   5.822   0.286   0.898
 6014SOL    HW118941   5.907   0.281   0.844
 6014SOL    HW218942   5.796   0.381   0.910
 6015SOL     OW18943   6.091   2.117   4.450
 6015SOL    HW118944   6.164   2.099   4.383
 6015SOL    HW218945   6.113   2.072   4.536
 6016SOL     OW18946   1.775   0.069   5.228
 6016SOL    HW118947   1.808   7.001   5.210
 6016SOL    HW218948   1.803   0.130   5.153
 6017SOL     OW18949   6.434   4.957   2.506
 6017SOL    HW118950   6.406   4.876   2.455
 6017SOL    HW218951   6.455   4.932   2.601
 6018SOL     OW18952   2.440   4.242   0.775
 6018SOL    HW118953   2.523   4.189   0.763
 6018SOL    HW218954   2.370   4.186   0.819
 6019SOL     OW18955   3.754   6.903   4.136
 6019SOL    HW118956   3.790   6.813   4.112
 6019SOL    HW218957   3.819   6.951   4.194
 6020SOL     OW18958   3.661   0.571   2.849
 6020SOL    HW118959   3.704   0.535   2.932
 6020SOL    HW218960   3.637   0.667   2.863
 6021SOL     OW18961   4.405   1.197   2.900
 6021SOL    HW118962   4.309   1.180   2.920
 6021SOL    HW218963   4.413   1.251   2.816
 6022SOL     OW18964   4.370   1.650   4.614
 6022SOL    HW118965   4.381   1.609   4.524
 6022SOL    HW218966   4.297   1.718   4.612
 6023SOL     OW18967   6.904   1.287   2.457
 6023SOL    HW118968   6.873   1.193   2.449
 6023SOL    HW218969   6.887   1.320   2.550
 6024SOL     OW18970   0.810   4.411   2.561
 6024SOL    HW118971   0.747   4.469   2.509
 6024SOL    HW218972   0.827   4.453   2.650
 6025SOL     OW18973   4.649   1.734   1.508
 6025SOL    HW118974   4.718   1.721   1.437
 6025SOL    HW218975   4.590   1.653   1.513
 6026SOL     OW18976   0.231   5.016   5.155
 6026SOL    HW118977   0.313   5.018   5.212
 6026SOL    HW218978   0.159   5.069   5.199
 6027SOL     OW18979   2.991   3.714   0.124
 6027SOL    HW118980   2.951   3.694   0.214
 6027SOL    HW218981   2.918   3.737   0.060
 6028SOL     OW18982   1.276   3.699   6.972
 6028SOL    HW118983   1.333   3.661   6.899
 6028SOL    HW218984   1.220   3.773   6.935
 6029SOL     OW18985   2.162   5.769   1.320
 6029SOL    HW118986   2.108   5.850   1.298
 6029SOL    HW218987   2.252   5.776   1.276
 6030SOL     OW18988   1.917   0.283   1.283
 6030SOL    HW118989   1.854   0.205   1.285
 6030SOL    HW218990   1.881   0.353   1.222
 6031SOL     OW18991   5.255   0.162   4.852
 6031SOL    HW118992   5.204   0.077   4.835
 6031SOL    HW218993   5.314   0.149   4.931
 6032SOL     OW18994   0.709   3.387   2.671
 6032SOL    HW118995   0.763   3.334   2.605
 6032SOL    HW218996   0.770   3.430   2.737
 6033SOL     OW18997   1.141   0.732   4.049
 6033SOL    HW118998   1.109   0.807   4.108
 6033SOL    HW218999   1.063   0.674   4.024
 6034SOL     OW19000   1.915   4.136   5.250
 6034SOL    HW119001   1.871   4.158   5.337
 6034SOL    HW219002   1.991   4.073   5.267
 6035SOL     OW19003   6.233   1.401   4.107
 6035SOL    HW119004   6.272   1.407   4.199
 6035SOL    HW219005   6.270   1.322   4.060
 6036SOL     OW19006   0.114   0.118   4.878
 6036SOL    HW119007   0.141   0.208   4.911
 6036SOL    HW219008   0.061   0.128   4.793
 6037SOL     OW19009   5.843   5.904   4.874
 6037SOL    HW119010   5.897   5.864   4.800
 6037SOL    HW219011   5.773   5.964   4.835
 6038SOL     OW19012   5.095   3.797   6.325
 6038SOL    HW119013   5.127   3.887   6.298
 6038SOL    HW219014   5.155   3.727   6.286
 6039SOL     OW19015   3.367   3.936   2.767
 6039SOL    HW119016   3.433   3.982   2.707
 6039SOL    HW219017   3.301   3.887   2.711
 6040SOL     OW19018   0.348   1.727   0.289
 6040SOL    HW119019   0.287   1.647   0.286
 6040SOL    HW219020   0.435   1.704   0.245
 6041SOL     OW19021   1.001   2.523   0.623
 6041SOL    HW119022   1.002   2.477   0.534
 6041SOL    HW219023   0.907   2.548   0.646
 6042SOL     OW19024   4.746   5.286   3.415
 6042SOL    HW119025   4.817   5.270   3.347
 6042SOL    HW219026   4.657   5.263   3.375
 6043SOL     OW19027   1.074   4.510   4.022
 6043SOL    HW119028   1.148   4.576   4.035
 6043SOL    HW219029   1.045   4.511   3.926
 6044SOL     OW19030   0.898   0.554   1.349
 6044SOL    HW119031   0.907   0.653   1.353
 6044SOL    HW219032   0.880   0.519   1.441
 6045SOL     OW19033   7.016   3.998   1.742
 6045SOL    HW119034   6.918   3.981   1.753
 6045SOL    HW219035   0.025   4.054   1.817
 6046SOL     OW19036   2.987   2.599   0.594
 6046SOL    HW119037   3.008   2.516   0.542
 6046SOL    HW219038   2.900   2.587   0.642
 6047SOL     OW19039   7.022   0.143   4.237
 6047SOL    HW119040   6.970   0.133   4.323
 6047SOL    HW219041   6.959   0.169   4.164
 6048SOL     OW19042   4.676   6.487   5.317
 6048SOL    HW119043   4.752   6.503   5.254
 6048SOL    HW219044   4.711   6.479   5.411
 6049SOL     OW19045   6.379   4.857   0.574
 6049SOL    HW119046   6.434   4.886   0.652
 6049SOL    HW219047   6.347   4.763   0.589
 6050SOL     OW19048   5.166   4.696   5.321
 6050SOL    HW119049   5.101   4.700   5.396
 6050SOL    HW219050   5.223   4.614   5.329
 6051SOL     OW19051   2.202   1.533   2.927
 6051SOL    HW119052   2.261   1.608   2.958
 6051SOL    HW219053   2.230   1.505   2.835
 6052SOL     OW19054   7.008   1.103   0.552
 6052SOL    HW119055   6.961   1.180   0.510
 6052SOL    HW219056   0.076   1.131   0.579
 6053SOL     OW19057   1.872   0.034   6.655
 6053SOL    HW119058   1.917   6.997   6.719
 6053SOL    HW219059   1.930   0.047   6.575
 6054SOL     OW19060   2.275   4.391   0.454
 6054SOL    HW119061   2.299   4.294   0.450
 6054SOL    HW219062   2.194   4.407   0.397
 6055SOL     OW19063   4.864   0.616   4.860
 6055SOL    HW119064   4.917   0.549   4.911
 6055SOL    HW219065   4.842   0.580   4.770
 6056SOL     OW19066   4.688   2.043   6.530
 6056SOL    HW119067   4.751   2.026   6.606
 6056SOL    HW219068   4.624   1.966   6.523
 6057SOL     OW19069   3.193   1.208   5.738
 6057SOL    HW119070   3.241   1.154   5.669
 6057SOL    HW219071   3.119   1.260   5.695
 6058SOL     OW19072   5.870   2.524   4.539
 6058SOL    HW119073   5.939   2.485   4.479
 6058SOL    HW219074   5.801   2.454   4.561
 6059SOL     OW19075   6.674   5.075   6.332
 6059SOL    HW119076   6.689   5.171   6.310
 6059SOL    HW219077   6.675   5.021   6.247
 6060SOL     OW19078   4.473   5.979   5.731
 6060SOL    HW119079   4.403   5.937   5.789
 6060SOL    HW219080   4.433   6.056   5.681
 6061SOL     OW19081   2.427   1.857   6.377
 6061SOL    HW119082   2.514   1.897   6.406
 6061SOL    HW219083   2.435   1.827   6.282
 6062SOL     OW19084   2.275   0.220   4.580
 6062SOL    HW119085   2.319   0.151   4.523
 6062SOL    HW219086   2.275   0.308   4.532
 6063SOL     OW19087   4.525   0.354   6.222
 6063SOL    HW119088   4.575   0.431   6.182
 6063SOL    HW219089   4.527   0.361   6.322
 6064SOL     OW19090   1.564   5.122   3.449
 6064SOL    HW119091   1.467   5.099   3.461
 6064SOL    HW219092   1.572   5.213   3.409
 6065SOL     OW19093   0.201   0.481   0.842
 6065SOL    HW119094   0.136   0.427   0.894
 6065SOL    HW219095   0.156   0.564   0.808
 6066SOL     OW19096   4.387   2.773   0.253
 6066SOL    HW119097   4.335   2.732   0.328
 6066SOL    HW219098   4.325   2.791   0.176
 6067SOL     OW19099   6.748   1.960   6.492
 6067SOL    HW119100   6.713   1.877   6.536
 6067SOL    HW219101   6.809   1.935   6.417
 6068SOL     OW19102   4.655   2.714   4.676
 6068SOL    HW119103   4.594   2.709   4.755
 6068SOL    HW219104   4.711   2.796   4.681
 6069SOL     OW19105   6.383   4.755   4.732
 6069SOL    HW119106   6.315   4.689   4.700
 6069SOL    HW219107   6.404   4.737   4.828
 6070SOL     OW19108   4.558   1.987   6.208
 6070SOL    HW119109   4.551   1.928   6.288
 6070SOL    HW219110   4.483   1.967   6.145
 6071SOL     OW19111   4.018   5.801   5.271
 6071SOL    HW119112   4.044   5.708   5.298
 6071SOL    HW219113   3.922   5.802   5.243
 6072SOL     OW19114   0.317   1.752   1.107
 6072SOL    HW119115   0.403   1.738   1.156
 6072SOL    HW219116   0.241   1.742   1.171
 6073SOL     OW19117   6.623   2.694   1.050
 6073SOL    HW119118   6.699   2.758   1.054
 6073SOL    HW219119   6.596   2.680   0.954
 6074SOL     OW19120   0.618   0.382   4.775
 6074SOL    HW119121   0.579   0.333   4.854
 6074SOL    HW219122   0.577   0.348   4.691
 6075SOL     OW19123   5.821   3.942   6.787
 6075SOL    HW119124   5.842   3.919   6.692
 6075SOL    HW219125   5.906   3.962   6.836
 6076SOL     OW19126   1.902   5.673   4.235
 6076SOL    HW119127   1.922   5.738   4.161
 6076SOL    HW219128   1.938   5.583   4.210
 6077SOL     OW19129   6.121   6.401   2.020
 6077SOL    HW119130   6.061   6.481   2.030
 6077SOL    HW219131   6.179   6.393   2.100
 6078SOL     OW19132   2.519   4.626   3.811
 6078SOL    HW119133   2.503   4.701   3.746
 6078SOL    HW219134   2.508   4.538   3.764
 6079SOL     OW19135   2.005   1.916   6.818
 6079SOL    HW119136   2.057   1.999   6.793
 6079SOL    HW219137   2.067   1.838   6.820
 6080SOL     OW19138   5.630   2.483   1.767
 6080SOL    HW119139   5.566   2.458   1.839
 6080SOL    HW219140   5.710   2.527   1.807
 6081SOL     OW19141   6.880   3.628   3.752
 6081SOL    HW119142   6.949   3.673   3.809
 6081SOL    HW219143   6.819   3.697   3.712
 6082SOL     OW19144   4.123   1.279   4.023
 6082SOL    HW119145   4.031   1.258   3.990
 6082SOL    HW219146   4.129   1.376   4.047
 6083SOL     OW19147   1.762   6.032   6.986
 6083SOL    HW119148   1.747   6.014   6.889
 6083SOL    HW219149   1.771   5.945   0.011
 6084SOL     OW19150   0.191   4.896   5.595
 6084SOL    HW119151   0.104   4.859   5.629
 6084SOL    HW219152   0.260   4.823   5.594
 6085SOL     OW19153   5.612   4.091   0.839
 6085SOL    HW119154   5.636   4.178   0.796
 6085SOL    HW219155   5.604   4.020   0.768
 6086SOL     OW19156   3.057   1.938   3.657
 6086SOL    HW119157   3.109   2.023   3.645
 6086SOL    HW219158   3.014   1.912   3.570
 6087SOL     OW19159   5.114   6.978   6.711
 6087SOL    HW119160   5.113   6.894   6.658
 6087SOL    HW219161   5.171   0.022   6.665
 6088SOL     OW19162   0.956   0.045   4.757
 6088SOL    HW119163   1.054   0.045   4.737
 6088SOL    HW219164   0.913   6.992   4.709
 6089SOL     OW19165   6.847   3.524   0.263
 6089SOL    HW119166   6.819   3.442   0.213
 6089SOL    HW219167   6.944   3.517   0.286
 6090SOL     OW19168   0.784   5.535   4.702
 6090SOL    HW119169   0.724   5.548   4.780
 6090SOL    HW219170   0.734   5.554   4.617
 6091SOL     OW19171   5.732   1.762   1.912
 6091SOL    HW119172   5.809   1.762   1.977
 6091SOL    HW219173   5.749   1.831   1.841
 6092SOL     OW19174   2.168   1.933   1.941
 6092SOL    HW119175   2.149   1.968   1.849
 6092SOL    HW219176   2.115   1.849   1.955
 6093SOL     OW19177   0.772   2.827   1.058
 6093SOL    HW119178   0.782   2.916   1.104
 6093SOL    HW219179   0.848   2.768   1.083
 6094SOL     OW19180   1.335   0.723   1.460
 6094SOL    HW119181   1.263   0.739   1.393
 6094SOL    HW219182   1.395   0.649   1.428
 6095SOL     OW19183   6.463   3.734   5.949
 6095SOL    HW119184   6.409   3.808   5.990
 6095SOL    HW219185   6.490   3.760   5.857
 6096SOL     OW19186   3.420   2.116   3.776
 6096SOL    HW119187   3.390   2.042   3.716
 6096SOL    HW219188   3.517   2.134   3.762
 6097SOL     OW19189   3.080   1.871   1.787
 6097SOL    HW119190   3.128   1.916   1.711
 6097SOL    HW219191   3.058   1.939   1.857
 6098SOL     OW19192   2.139   2.313   5.758
 6098SOL    HW119193   2.133   2.260   5.843
 6098SOL    HW219194   2.234   2.340   5.742
 6099SOL     OW19195   5.660   5.709   4.963
 6099SOL    HW119196   5.589   5.748   5.021
 6099SOL    HW219197   5.712   5.782   4.920
 6100SOL     OW19198   6.545   3.169   0.164
 6100SOL    HW119199   6.452   3.134   0.177
 6100SOL    HW219200   6.603   3.140   0.239
 6101SOL     OW19201   6.204   1.507   5.036
 6101SOL    HW119202   6.268   1.430   5.033
 6101SOL    HW219203   6.123   1.481   5.088
 6102SOL     OW19204   2.672   0.447   5.459
 6102SOL    HW119205   2.625   0.400   5.385
 6102SOL    HW219206   2.722   0.525   5.423
 6103SOL     OW19207   6.412   6.370   5.629
 6103SOL    HW119208   6.414   6.447   5.693
 6103SOL    HW219209   6.414   6.284   5.680
 6104SOL     OW19210   0.040   2.606   6.699
 6104SOL    HW119211   0.098   2.638   6.625
 6104SOL    HW219212   6.981   2.565   6.661
 6105SOL     OW19213   3.364   6.039   4.339
 6105SOL    HW119214   3.395   5.982   4.263
 6105SOL    HW219215   3.345   5.980   4.418
 6106SOL     OW19216   3.242   5.543   5.491
 6106SOL    HW119217   3.149   5.574   5.472
 6106SOL    HW219218   3.240   5.450   5.527
 6107SOL     OW19219   1.858   4.513   5.364
 6107SOL    HW119220   1.901   4.594   5.404
 6107SOL    HW219221   1.865   4.436   5.428
 6108SOL     OW19222   0.693   2.423   5.272
 6108SOL    HW119223   0.677   2.350   5.205
 6108SOL    HW219224   0.650   2.507   5.240
 6109SOL     OW19225   6.178   4.626   1.310
 6109SOL    HW119226   6.172   4.528   1.327
 6109SOL    HW219227   6.254   4.644   1.247
 6110SOL     OW19228   3.469   1.453   4.690
 6110SOL    HW119229   3.505   1.535   4.646
 6110SOL    HW219230   3.529   1.427   4.766
 6111SOL     OW19231   1.522   4.471   3.080
 6111SOL    HW119232   1.604   4.521   3.110
 6111SOL    HW219233   1.442   4.530   3.088
 6112SOL     OW19234   0.518   1.403   2.451
 6112SOL    HW119235   0.436   1.380   2.399
 6112SOL    HW219236   0.588   1.437   2.389
 6113SOL     OW19237   1.409   6.345   5.851
 6113SOL    HW119238   1.424   6.432   5.805
 6113SOL    HW219239   1.480   6.330   5.919
 6114SOL     OW19240   5.286   5.655   0.505
 6114SOL    HW119241   5.368   5.636   0.559
 6114SOL    HW219242   5.289   5.750   0.473
 6115SOL     OW19243   5.591   5.152   2.614
 6115SOL    HW119244   5.548   5.157   2.704
 6115SOL    HW219245   5.521   5.150   2.543
 6116SOL     OW19246   4.375   1.394   1.778
 6116SOL    HW119247   4.349   1.301   1.804
 6116SOL    HW219248   4.390   1.399   1.679
 6117SOL     OW19249   5.149   0.191   4.501
 6117SOL    HW119250   5.168   0.233   4.412
 6117SOL    HW219251   5.060   0.222   4.534
 6118SOL     OW19252   6.148   0.573   3.262
 6118SOL    HW119253   6.188   0.531   3.344
 6118SOL    HW219254   6.086   0.646   3.290
 6119SOL     OW19255   6.733   5.469   4.527
 6119SOL    HW119256   6.751   5.546   4.589
 6119SOL    HW219257   6.782   5.484   4.441
 6120SOL     OW19258   2.453   0.774   3.081
 6120SOL    HW119259   2.470   0.685   3.037
 6120SOL    HW219260   2.403   0.760   3.166
 6121SOL     OW19261   6.852   2.708   4.496
 6121SOL    HW119262   6.842   2.744   4.589
 6121SOL    HW219263   6.872   2.611   4.499
 6122SOL     OW19264   4.586   5.692   3.173
 6122SOL    HW119265   4.514   5.630   3.142
 6122SOL    HW219266   4.603   5.677   3.270
 6123SOL     OW19267   5.799   1.333   2.485
 6123SOL    HW119268   5.816   1.257   2.548
 6123SOL    HW219269   5.863   1.327   2.409
 6124SOL     OW19270   3.726   0.443   5.808
 6124SOL    HW119271   3.646   0.463   5.752
 6124SOL    HW219272   3.698   0.426   5.902
 6125SOL     OW19273   2.212   5.784   1.633
 6125SOL    HW119274   2.153   5.817   1.559
 6125SOL    HW219275   2.308   5.800   1.608
 6126SOL     OW19276   5.350   5.437   2.570
 6126SOL    HW119277   5.273   5.414   2.630
 6126SOL    HW219278   5.361   5.365   2.501
 6127SOL     OW19279   1.823   5.399   1.663
 6127SOL    HW119280   1.735   5.357   1.681
 6127SOL    HW219281   1.854   5.448   1.744
 6128SOL     OW19282   5.447   1.628   0.700
 6128SOL    HW119283   5.378   1.694   0.669
 6128SOL    HW219284   5.538   1.665   0.680
 6129SOL     OW19285   5.964   4.719   3.625
 6129SOL    HW119286   5.972   4.740   3.527
 6129SOL    HW219287   6.052   4.736   3.669
 6130SOL     OW19288   5.658   3.664   2.311
 6130SOL    HW119289   5.714   3.716   2.375
 6130SOL    HW219290   5.650   3.715   2.225
 6131SOL     OW19291   5.989   1.370   5.129
 6131SOL    HW119292   5.970   1.318   5.045
 6131SOL    HW219293   5.981   1.310   5.208
 6132SOL     OW19294   4.994   2.523   1.018
 6132SOL    HW119295   5.029   2.444   0.968
 6132SOL    HW219296   4.895   2.530   1.005
 6133SOL     OW19297   0.857   4.483   0.984
 6133SOL    HW119298   0.877   4.571   1.027
 6133SOL    HW219299   0.832   4.498   0.888
 6134SOL     OW19300   4.622   3.622   6.269
 6134SOL    HW119301   4.700   3.570   6.235
 6134SOL    HW219302   4.607   3.702   6.211
 6135SOL     OW19303   5.647   0.142   1.065
 6135SOL    HW119304   5.722   0.188   1.017
 6135SOL    HW219305   5.676   0.050   1.091
 6136SOL     OW19306   0.620   2.282   1.587
 6136SOL    HW119307   0.708   2.242   1.561
 6136SOL    HW219308   0.628   2.324   1.677
 6137SOL     OW19309   2.946   6.834   6.119
 6137SOL    HW119310   2.908   6.922   6.147
 6137SOL    HW219311   2.920   6.814   6.025
 6138SOL     OW19312   4.251   6.987   2.966
 6138SOL    HW119313   4.179   0.015   2.921
 6138SOL    HW219314   4.244   6.891   2.942
 6139SOL     OW19315   1.868   4.509   4.094
 6139SOL    HW119316   1.931   4.438   4.062
 6139SOL    HW219317   1.918   4.572   4.154
 6140SOL     OW19318   2.226   6.419   0.815
 6140SOL    HW119319   2.186   6.493   0.870
 6140SOL    HW219320   2.166   6.399   0.737
 6141SOL     OW19321   6.419   5.965   6.063
 6141SOL    HW119322   6.337   6.008   6.024
 6141SOL    HW219323   6.486   6.037   6.086
 6142SOL     OW19324   0.033   4.155   1.981
 6142SOL    HW119325   0.126   4.191   1.993
 6142SOL    HW219326   7.002   4.178   2.062
 6143SOL     OW19327   6.267   5.350   6.602
 6143SOL    HW119328   6.244   5.415   6.675
 6143SOL    HW219329   6.193   5.349   6.534
 6144SOL     OW19330   0.728   4.442   3.951
 6144SOL    HW119331   0.773   4.358   3.981
 6144SOL    HW219332   0.644   4.455   4.004
 6145SOL     OW19333   5.331   6.070   3.492
 6145SOL    HW119334   5.247   6.122   3.475
 6145SOL    HW219335   5.312   5.972   3.485
 6146SOL     OW19336   5.682   1.269   3.055
 6146SOL    HW119337   5.745   1.275   3.132
 6146SOL    HW219338   5.713   1.198   2.992
 6147SOL     OW19339   1.802   3.388   3.442
 6147SOL    HW119340   1.750   3.393   3.528
 6147SOL    HW219341   1.837   3.479   3.420
 6148SOL     OW19342   6.623   6.759   4.385
 6148SOL    HW119343   6.721   6.778   4.389
 6148SOL    HW219344   6.607   6.662   4.400
 6149SOL     OW19345   2.391   6.515   3.745
 6149SOL    HW119346   2.410   6.498   3.648
 6149SOL    HW219347   2.361   6.430   3.788
 6150SOL     OW19348   4.573   5.170   5.867
 6150SOL    HW119349   4.511   5.228   5.813
 6150SOL    HW219350   4.562   5.075   5.839
 6151SOL     OW19351   5.063   2.704   5.875
 6151SOL    HW119352   4.964   2.709   5.886
 6151SOL    HW219353   5.093   2.609   5.885
 6152SOL     OW19354   6.575   4.583   6.768
 6152SOL    HW119355   6.584   4.489   6.734
 6152SOL    HW219356   6.499   4.628   6.720
 6153SOL     OW19357   4.691   3.214   1.089
 6153SOL    HW119358   4.719   3.220   1.185
 6153SOL    HW219359   4.592   3.226   1.083
 6154SOL     OW19360   5.102   3.090   2.963
 6154SOL    HW119361   5.109   2.992   2.947
 6154SOL    HW219362   5.013   3.111   3.004
 6155SOL     OW19363   0.600   3.978   4.792
 6155SOL    HW119364   0.629   3.903   4.734
 6155SOL    HW219365   0.503   3.969   4.812
 6156SOL     OW19366   6.495   0.315   3.702
 6156SOL    HW119367   6.529   0.245   3.765
 6156SOL    HW219368   6.520   0.290   3.608
 6157SOL     OW19369   2.509   1.413   3.889
 6157SOL    HW119370   2.433   1.441   3.948
 6157SOL    HW219371   2.525   1.484   3.820
 6158SOL     OW19372   5.213   0.922   6.249
 6158SOL    HW119373   5.252   0.993   6.308
 6158SOL    HW219374   5.286   0.860   6.220
 6159SOL     OW19375   5.167   3.156   6.600
 6159SOL    HW119376   5.201   3.248   6.621
 6159SOL    HW219377   5.225   3.115   6.530
 6160SOL     OW19378   6.112   5.706   1.676
 6160SOL    HW119379   6.164   5.650   1.742
 6160SOL    HW219380   6.145   5.800   1.679
 6161SOL     OW19381   5.730   0.594   6.076
 6161SOL    HW119382   5.820   0.554   6.094
 6161SOL    HW219383   5.706   0.657   6.149
 6162SOL     OW19384   6.031   4.914   4.286
 6162SOL    HW119385   6.019   5.014   4.284
 6162SOL    HW219386   6.014   4.877   4.195
 6163SOL     OW19387   6.495   4.157   2.307
 6163SOL    HW119388   6.407   4.112   2.322
 6163SOL    HW219389   6.517   4.213   2.387
 6164SOL     OW19390   3.992   2.532   0.654
 6164SOL    HW119391   4.019   2.612   0.708
 6164SOL    HW219392   3.929   2.560   0.582
 6165SOL     OW19393   4.027   6.033   0.106
 6165SOL    HW119394   4.011   6.069   0.015
 6165SOL    HW219395   3.942   6.037   0.159
 6166SOL     OW19396   2.879   1.968   6.314
 6166SOL    HW119397   2.780   1.970   6.297
 6166SOL    HW219398   2.902   2.034   6.386
 6167SOL     OW19399   6.800   4.065   3.391
 6167SOL    HW119400   6.807   4.006   3.471
 6167SOL    HW219401   6.809   4.009   3.308
 6168SOL     OW19402   0.342   3.168   2.904
 6168SOL    HW119403   0.350   3.251   2.959
 6168SOL    HW219404   0.283   3.185   2.825
 6169SOL     OW19405   1.946   4.059   2.110
 6169SOL    HW119406   1.855   4.042   2.146
 6169SOL    HW219407   2.007   4.088   2.184
 6170SOL     OW19408   0.285   3.139   4.788
 6170SOL    HW119409   0.255   3.186   4.705
 6170SOL    HW219410   0.354   3.195   4.835
 6171SOL     OW19411   0.464   0.348   6.326
 6171SOL    HW119412   0.418   0.405   6.393
 6171SOL    HW219413   0.412   0.348   6.241
 6172SOL     OW19414   0.726   3.523   3.458
 6172SOL    HW119415   0.643   3.558   3.415
 6172SOL    HW219416   0.798   3.514   3.390
 6173SOL     OW19417   6.847   6.329   3.521
 6173SOL    HW119418   6.851   6.323   3.621
 6173SOL    HW219419   6.847   6.425   3.493
 6174SOL     OW19420   6.117   3.876   2.424
 6174SOL    HW119421   6.111   3.777   2.437
 6174SOL    HW219422   6.104   3.898   2.328
 6175SOL     OW19423   2.943   2.459   5.781
 6175SOL    HW119424   3.023   2.519   5.779
 6175SOL    HW219425   2.971   2.365   5.761
 6176SOL     OW19426   4.481   3.760   5.875
 6176SOL    HW119427   4.515   3.722   5.789
 6176SOL    HW219428   4.557   3.803   5.925
 6177SOL     OW19429   6.308   1.046   1.569
 6177SOL    HW119430   6.250   1.014   1.644
 6177SOL    HW219431   6.254   1.055   1.486
 6178SOL     OW19432   3.791   4.502   1.386
 6178SOL    HW119433   3.700   4.489   1.348
 6178SOL    HW219434   3.783   4.526   1.483
 6179SOL     OW19435   5.737   4.866   3.581
 6179SOL    HW119436   5.789   4.786   3.610
 6179SOL    HW219437   5.641   4.842   3.571
 6180SOL     OW19438   3.034   4.099   0.227
 6180SOL    HW119439   2.981   4.134   0.150
 6180SOL    HW219440   3.112   4.047   0.193
 6181SOL     OW19441   6.061   6.045   6.522
 6181SOL    HW119442   6.107   6.055   6.611
 6181SOL    HW219443   6.064   5.950   6.493
 6182SOL     OW19444   3.518   2.556   0.522
 6182SOL    HW119445   3.548   2.512   0.438
 6182SOL    HW219446   3.469   2.490   0.579
 6183SOL     OW19447   0.646   0.315   0.695
 6183SOL    HW119448   0.571   0.318   0.762
 6183SOL    HW219449   0.729   0.281   0.739
 6184SOL     OW19450   2.372   0.452   5.794
 6184SOL    HW119451   2.391   0.428   5.889
 6184SOL    HW219452   2.434   0.525   5.765
 6185SOL     OW19453   3.625   3.017   5.733
 6185SOL    HW119454   3.578   3.049   5.816
 6185SOL    HW219455   3.662   3.095   5.684
 6186SOL     OW19456   0.068   1.960   1.964
 6186SOL    HW119457   7.004   1.996   1.934
 6186SOL    HW219458   0.108   1.903   1.892
 6187SOL     OW19459   5.400   1.652   5.732
 6187SOL    HW119460   5.340   1.729   5.754
 6187SOL    HW219461   5.350   1.566   5.745
 6188SOL     OW19462   1.296   1.527   4.881
 6188SOL    HW119463   1.373   1.590   4.890
 6188SOL    HW219464   1.265   1.500   4.973
 6189SOL     OW19465   6.354   6.620   1.363
 6189SOL    HW119466   6.417   6.674   1.307
 6189SOL    HW219467   6.372   6.639   1.460
 6190SOL     OW19468   0.619   2.657   5.133
 6190SOL    HW119469   0.543   2.717   5.108
 6190SOL    HW219470   0.694   2.669   5.068
 6191SOL     OW19471   3.974   3.643   6.955
 6191SOL    HW119472   3.973   3.710   6.880
 6191SOL    HW219473   3.913   3.567   6.932
 6192SOL     OW19474   2.696   1.492   0.554
 6192SOL    HW119475   2.599   1.473   0.539
 6192SOL    HW219476   2.716   1.491   0.652
 6193SOL     OW19477   4.567   5.890   6.626
 6193SOL    HW119478   4.481   5.883   6.677
 6193SOL    HW219479   4.635   5.830   6.666
 6194SOL     OW19480   6.397   0.319   6.034
 6194SOL    HW119481   6.431   0.317   5.940
 6194SOL    HW219482   6.441   0.394   6.083
 6195SOL     OW19483   6.845   6.296   5.821
 6195SOL    HW119484   6.861   6.337   5.911
 6195SOL    HW219485   6.933   6.281   5.775
 6196SOL     OW19486   5.877   3.765   3.239
 6196SOL    HW119487   5.824   3.772   3.154
 6196SOL    HW219488   5.871   3.672   3.274
 6197SOL     OW19489   3.170   5.810   1.995
 6197SOL    HW119490   3.136   5.894   2.037
 6197SOL    HW219491   3.224   5.759   2.061
 6198SOL     OW19492   6.612   0.740   0.004
 6198SOL    HW119493   6.620   0.772   0.099
 6198SOL    HW219494   6.523   0.766   6.991
 6199SOL     OW19495   1.166   0.092   0.093
 6199SOL    HW119496   1.223   0.120   0.171
 6199SOL    HW219497   1.122   0.172   0.053
 6200SOL     OW19498   1.957   1.562   2.145
 6200SOL    HW119499   1.965   1.623   2.067
 6200SOL    HW219500   1.866   1.573   2.186
 6201SOL     OW19501   6.973   4.268   3.500
 6201SOL    HW119502   0.046   4.247   3.502
 6201SOL    HW219503   6.933   4.232   3.415
 6202SOL     OW19504   6.325   1.571   2.470
 6202SOL    HW119505   6.321   1.506   2.394
 6202SOL    HW219506   6.348   1.662   2.435
 6203SOL     OW19507   6.732   0.236   1.872
 6203SOL    HW119508   6.785   0.151   1.869
 6203SOL    HW219509   6.647   0.221   1.923
 6204SOL     OW19510   2.415   0.321   5.095
 6204SOL    HW119511   2.352   0.343   5.020
 6204SOL    HW219512   2.441   0.405   5.143
 6205SOL     OW19513   4.996   4.798   3.300
 6205SOL    HW119514   4.978   4.779   3.397
 6205SOL    HW219515   5.048   4.883   3.291
 6206SOL     OW19516   5.882   1.824   4.362
 6206SOL    HW119517   5.853   1.918   4.343
 6206SOL    HW219518   5.982   1.818   4.359
 6207SOL     OW19519   2.191   4.734   4.537
 6207SOL    HW119520   2.196   4.639   4.570
 6207SOL    HW219521   2.247   4.744   4.455
 6208SOL     OW19522   3.564   3.676   5.687
 6208SOL    HW119523   3.484   3.659   5.629
 6208SOL    HW219524   3.647   3.652   5.637
 6209SOL     OW19525   3.286   2.312   1.368
 6209SOL    HW119526   3.278   2.236   1.434
 6209SOL    HW219527   3.328   2.278   1.284
 6210SOL     OW19528   4.957   2.143   4.056
 6210SOL    HW119529   4.882   2.096   4.103
 6210SOL    HW219530   4.995   2.213   4.116
 6211SOL     OW19531   5.643   4.769   5.536
 6211SOL    HW119532   5.603   4.705   5.470
 6211SOL    HW219533   5.578   4.843   5.554
 6212SOL     OW19534   4.360   5.047   4.922
 6212SOL    HW119535   4.409   4.961   4.936
 6212SOL    HW219536   4.378   5.082   4.830
 6213SOL     OW19537   4.174   6.237   0.289
 6213SOL    HW119538   4.107   6.207   0.357
 6213SOL    HW219539   4.149   6.199   0.200
 6214SOL     OW19540   6.690   5.865   6.341
 6214SOL    HW119541   6.752   5.906   6.273
 6214SOL    HW219542   6.600   5.851   6.299
 6215SOL     OW19543   5.457   2.365   6.159
 6215SOL    HW119544   5.524   2.403   6.095
 6215SOL    HW219545   5.487   2.382   6.252
 6216SOL     OW19546   4.709   2.449   3.411
 6216SOL    HW119547   4.705   2.371   3.473
 6216SOL    HW219548   4.683   2.532   3.460
 6217SOL     OW19549   0.306   4.291   2.682
 6217SOL    HW119550   0.372   4.231   2.729
 6217SOL    HW219551   0.248   4.236   2.623
 6218SOL     OW19552   4.408   6.367   0.141
 6218SOL    HW119553   4.475   6.441   0.147
 6218SOL    HW219554   4.347   6.371   0.221
 6219SOL     OW19555   1.771   1.070   6.025
 6219SOL    HW119556   1.679   1.090   6.058
 6219SOL    HW219557   1.775   1.084   5.926
 6220SOL     OW19558   4.045   0.269   0.692
 6220SOL    HW119559   4.052   0.188   0.633
 6220SOL    HW219560   4.050   0.242   0.788
 6221SOL     OW19561   5.830   5.666   0.033
 6221SOL    HW119562   5.744   5.615   0.047
 6221SOL    HW219563   5.877   5.631   6.976
 6222SOL     OW19564   6.346   1.787   2.061
 6222SOL    HW119565   6.418   1.799   2.129
 6222SOL    HW219566   6.310   1.876   2.034
 6223SOL     OW19567   0.384   5.090   3.689
 6223SOL    HW119568   0.284   5.086   3.683
 6223SOL    HW219569   0.421   5.131   3.606
 6224SOL     OW19570   3.974   0.599   0.160
 6224SOL    HW119571   3.994   0.501   0.157
 6224SOL    HW219572   3.920   0.619   0.243
 6225SOL     OW19573   4.714   6.439   6.584
 6225SOL    HW119574   4.770   6.357   6.574
 6225SOL    HW219575   4.707   6.463   6.681
 6226SOL     OW19576   1.492   1.370   4.791
 6226SOL    HW119577   1.539   1.450   4.752
 6226SOL    HW219578   1.401   1.396   4.820
 6227SOL     OW19579   2.659   4.620   5.313
 6227SOL    HW119580   2.588   4.581   5.254
 6227SOL    HW219581   2.749   4.606   5.271
 6228SOL     OW19582   1.176   2.987   3.488
 6228SOL    HW119583   1.174   2.907   3.428
 6228SOL    HW219584   1.248   3.050   3.457
 6229SOL     OW19585   0.535   3.130   4.567
 6229SOL    HW119586   0.590   3.062   4.615
 6229SOL    HW219587   0.552   3.220   4.605
 6230SOL     OW19588   6.988   0.820   1.915
 6230SOL    HW119589   6.890   0.827   1.938
 6230SOL    HW219590   7.002   0.847   1.820
 6231SOL     OW19591   1.602   5.104   6.853
 6231SOL    HW119592   1.592   5.203   6.864
 6231SOL    HW219593   1.663   5.085   6.776
 6232SOL     OW19594   4.180   1.322   6.423
 6232SOL    HW119595   4.192   1.240   6.367
 6232SOL    HW219596   4.239   1.316   6.503
 6233SOL     OW19597   6.816   3.159   1.718
 6233SOL    HW119598   6.906   3.155   1.676
 6233SOL    HW219599   6.764   3.077   1.693
 6234SOL     OW19600   4.480   5.614   4.835
 6234SOL    HW119601   4.437   5.556   4.765
 6234SOL    HW219602   4.496   5.705   4.798
 6235SOL     OW19603   6.829   0.302   2.933
 6235SOL    HW119604   6.791   0.209   2.934
 6235SOL    HW219605   6.906   0.306   2.869
 6236SOL     OW19606   0.338   5.714   1.590
 6236SOL    HW119607   0.375   5.660   1.665
 6236SOL    HW219608   0.391   5.799   1.580
 6237SOL     OW19609   2.999   1.382   0.594
 6237SOL    HW119610   3.036   1.384   0.501
 6237SOL    HW219611   2.960   1.292   0.612
 6238SOL     OW19612   2.229   0.330   4.097
 6238SOL    HW119613   2.214   0.339   3.999
 6238SOL    HW219614   2.142   0.309   4.142
 6239SOL     OW19615   4.549   1.238   3.961
 6239SOL    HW119616   4.558   1.142   3.936
 6239SOL    HW219617   4.636   1.286   3.944
 6240SOL     OW19618   3.677   2.926   3.619
 6240SOL    HW119619   3.651   2.832   3.599
 6240SOL    HW219620   3.695   2.936   3.717
 6241SOL     OW19621   3.478   0.533   3.322
 6241SOL    HW119622   3.441   0.442   3.305
 6241SOL    HW219623   3.554   0.527   3.386
 6242SOL     OW19624   3.091   2.057   3.082
 6242SOL    HW119625   3.149   1.976   3.068
 6242SOL    HW219626   3.001   2.040   3.041
 6243SOL     OW19627   4.682   1.737   6.654
 6243SOL    HW119628   4.748   1.797   6.698
 6243SOL    HW219629   4.640   1.677   6.723
 6244SOL     OW19630   5.720   3.824   2.539
 6244SOL    HW119631   5.747   3.903   2.593
 6244SOL    HW219632   5.628   3.794   2.566
 6245SOL     OW19633   6.889   4.283   2.654
 6245SOL    HW119634   6.864   4.193   2.619
 6245SOL    HW219635   6.955   4.325   2.592
 6246SOL     OW19636   6.694   6.995   4.030
 6246SOL    HW119637   6.734   0.063   4.032
 6246SOL    HW219638   6.768   6.927   4.026
 6247SOL     OW19639   6.642   6.505   3.631
 6247SOL    HW119640   6.547   6.493   3.603
 6247SOL    HW219641   6.649   6.497   3.731
 6248SOL     OW19642   3.730   2.825   5.561
 6248SOL    HW119643   3.689   2.900   5.613
 6248SOL    HW219644   3.670   2.799   5.486
 6249SOL     OW19645   5.836   2.784   1.772
 6249SOL    HW119646   5.761   2.834   1.728
 6249SOL    HW219647   5.856   2.701   1.721
 6250SOL     OW19648   6.379   0.948   0.290
 6250SOL    HW119649   6.292   0.962   0.337
 6250SOL    HW219650   6.422   0.864   0.323
 6251SOL     OW19651   2.577   0.085   3.926
 6251SOL    HW119652   2.566   0.182   3.905
 6251SOL    HW219653   2.647   0.046   3.866
 6252SOL     OW19654   3.119   5.758   6.697
 6252SOL    HW119655   3.175   5.764   6.780
 6252SOL    HW219656   3.057   5.836   6.693
 6253SOL     OW19657   3.538   5.529   4.955
 6253SOL    HW119658   3.591   5.451   4.921
 6253SOL    HW219659   3.588   5.574   5.028
 6254SOL     OW19660   0.159   0.002   1.379
 6254SOL    HW119661   0.180   0.089   1.333
 6254SOL    HW219662   0.168   0.014   1.478
 6255SOL     OW19663   0.774   1.710   1.752
 6255SOL    HW119664   0.823   1.674   1.831
 6255SOL    HW219665   0.700   1.648   1.727
 6256SOL     OW19666   5.354   6.325   2.408
 6256SOL    HW119667   5.452   6.338   2.390
 6256SOL    HW219668   5.319   6.404   2.459
 6257SOL     OW19669   3.181   4.031   1.256
 6257SOL    HW119670   3.162   4.127   1.232
 6257SOL    HW219671   3.265   4.026   1.310
 6258SOL     OW19672   4.044   5.200   5.000
 6258SOL    HW119673   4.095   5.118   5.027
 6258SOL    HW219674   4.105   5.263   4.951
 6259SOL     OW19675   3.486   0.519   4.483
 6259SOL    HW119676   3.434   0.585   4.428
 6259SOL    HW219677   3.584   0.532   4.466
 6260SOL     OW19678   1.536   1.395   0.034
 6260SOL    HW119679   1.447   1.357   0.008
 6260SOL    HW219680   1.559   1.470   6.996
 6261SOL     OW19681   3.663   0.052   0.974
 6261SOL    HW119682   3.578   0.090   0.937
 6261SOL    HW219683   3.708   0.120   1.031
 6262SOL     OW19684   5.472   0.490   2.130
 6262SOL    HW119685   5.461   0.416   2.198
 6262SOL    HW219686   5.390   0.496   2.074
 6263SOL     OW19687   5.975   6.229   5.878
 6263SOL    HW119688   5.901   6.194   5.936
 6263SOL    HW219689   5.963   6.327   5.864
 6264SOL     OW19690   2.568   6.776   6.670
 6264SOL    HW119691   2.530   6.749   6.759
 6264SOL    HW219692   2.540   6.711   6.600
 6265SOL     OW19693   4.933   0.162   6.531
 6265SOL    HW119694   4.934   0.161   6.431
 6265SOL    HW219695   5.024   0.187   6.566
 6266SOL     OW19696   2.618   5.064   3.145
 6266SOL    HW119697   2.653   5.141   3.091
 6266SOL    HW219698   2.659   5.065   3.236
 6267SOL     OW19699   2.567   6.428   4.732
 6267SOL    HW119700   2.665   6.441   4.743
 6267SOL    HW219701   2.519   6.466   4.811
 6268SOL     OW19702   3.630   1.277   0.924
 6268SOL    HW119703   3.678   1.351   0.876
 6268SOL    HW219704   3.637   1.291   1.023
 6269SOL     OW19705   6.192   4.955   0.103
 6269SOL    HW119706   6.180   4.978   0.007
 6269SOL    HW219707   6.174   5.035   0.159
 6270SOL     OW19708   2.096   5.426   0.564
 6270SOL    HW119709   2.158   5.357   0.600
 6270SOL    HW219710   2.065   5.486   0.638
 6271SOL     OW19711   6.463   3.365   5.749
 6271SOL    HW119712   6.374   3.322   5.732
 6271SOL    HW219713   6.465   3.402   5.842
 6272SOL     OW19714   6.849   0.168   0.466
 6272SOL    HW119715   6.828   0.244   0.404
 6272SOL    HW219716   6.765   0.124   0.495
 6273SOL     OW19717   0.452   6.479   1.452
 6273SOL    HW119718   0.414   6.543   1.519
 6273SOL    HW219719   0.394   6.398   1.447
 6274SOL     OW19720   3.500   5.494   3.571
 6274SOL    HW119721   3.450   5.539   3.497
 6274SOL    HW219722   3.464   5.402   3.585
 6275SOL     OW19723   2.284   5.670   7.011
 6275SOL    HW119724   2.223   5.590   7.008
 6275SOL    HW219725   2.319   5.688   6.919
 6276SOL     OW19726   1.948   4.866   2.905
 6276SOL    HW119727   2.016   4.841   2.837
 6276SOL    HW219728   1.856   4.852   2.867
 6277SOL     OW19729   5.392   3.065   0.873
 6277SOL    HW119730   5.316   3.127   0.892
 6277SOL    HW219731   5.357   2.983   0.828
 6278SOL     OW19732   2.830   1.551   6.861
 6278SOL    HW119733   2.812   1.533   6.765
 6278SOL    HW219734   2.806   1.471   6.916
 6279SOL     OW19735   3.071   6.684   2.333
 6279SOL    HW119736   2.993   6.630   2.364
 6279SOL    HW219737   3.127   6.629   2.271
 6280SOL     OW19738   5.896   2.661   6.479
 6280SOL    HW119739   5.923   2.673   6.575
 6280SOL    HW219740   5.953   2.718   6.421
 6281SOL     OW19741   5.560   4.082   5.957
 6281SOL    HW119742   5.652   4.080   5.996
 6281SOL    HW219743   5.546   4.001   5.900
 6282SOL     OW19744   0.337   3.423   6.212
 6282SOL    HW119745   0.237   3.417   6.208
 6282SOL    HW219746   0.364   3.518   6.224
 6283SOL     OW19747   1.753   6.327   5.123
 6283SOL    HW119748   1.791   6.265   5.055
 6283SOL    HW219749   1.820   6.340   5.197
 6284SOL     OW19750   1.725   4.114   5.480
 6284SOL    HW119751   1.695   4.020   5.492
 6284SOL    HW219752   1.652   4.167   5.435
 6285SOL     OW19753   1.114   3.519   3.176
 6285SOL    HW119754   1.178   3.534   3.101
 6285SOL    HW219755   1.110   3.421   3.197
 6286SOL     OW19756   0.432   2.397   0.040
 6286SOL    HW119757   0.495   2.429   0.111
 6286SOL    HW219758   0.360   2.342   0.081
 6287SOL     OW19759   4.639   4.898   4.916
 6287SOL    HW119760   4.728   4.938   4.894
 6287SOL    HW219761   4.645   4.850   5.004
 6288SOL     OW19762   3.300   3.730   6.844
 6288SOL    HW119763   3.334   3.661   6.780
 6288SOL    HW219764   3.302   3.693   6.937
 6289SOL     OW19765   2.645   4.703   5.806
 6289SOL    HW119766   2.737   4.742   5.798
 6289SOL    HW219767   2.595   4.718   5.721
 6290SOL     OW19768   6.026   6.146   4.434
 6290SOL    HW119769   6.082   6.190   4.363
 6290SOL    HW219770   6.083   6.127   4.514
 6291SOL     OW19771   4.049   3.172   3.104
 6291SOL    HW119772   4.054   3.174   3.204
 6291SOL    HW219773   4.074   3.261   3.067
 6292SOL     OW19774   2.151   3.537   4.487
 6292SOL    HW119775   2.170   3.541   4.389
 6292SOL    HW219776   2.090   3.612   4.512
 6293SOL     OW19777   3.123   0.968   6.765
 6293SOL    HW119778   3.212   0.968   6.720
 6293SOL    HW219779   3.060   0.909   6.714
 6294SOL     OW19780   1.591   1.361   2.733
 6294SOL    HW119781   1.647   1.444   2.731
 6294SOL    HW219782   1.534   1.363   2.815
 6295SOL     OW19783   5.252   3.609   6.177
 6295SOL    HW119784   5.322   3.627   6.108
 6295SOL    HW219785   5.173   3.565   6.133
 6296SOL     OW19786   0.917   3.284   0.328
 6296SOL    HW119787   0.946   3.197   0.370
 6296SOL    HW219788   0.979   3.306   0.252
 6297SOL     OW19789   5.695   1.519   4.645
 6297SOL    HW119790   5.601   1.542   4.618
 6297SOL    HW219791   5.750   1.503   4.563
 6298SOL     OW19792   6.586   6.351   1.021
 6298SOL    HW119793   6.545   6.260   1.014
 6298SOL    HW219794   6.593   6.378   1.117
 6299SOL     OW19795   4.241   1.001   3.458
 6299SOL    HW119796   4.181   1.063   3.509
 6299SOL    HW219797   4.324   1.050   3.432
 6300SOL     OW19798   2.536   0.947   6.626
 6300SOL    HW119799   2.576   0.955   6.717
 6300SOL    HW219800   2.498   1.036   6.599
 6301SOL     OW19801   4.123   6.503   0.286
 6301SOL    HW119802   4.098   6.522   0.191
 6301SOL    HW219803   4.157   6.409   0.294
 6302SOL     OW19804   3.331   2.767   6.388
 6302SOL    HW119805   3.363   2.701   6.320
 6302SOL    HW219806   3.267   2.722   6.450
 6303SOL     OW19807   0.356   5.926   4.969
 6303SOL    HW119808   0.296   5.852   5.000
 6303SOL    HW219809   0.362   5.997   5.039
 6304SOL     OW19810   3.718   0.737   4.611
 6304SOL    HW119811   3.745   0.802   4.683
 6304SOL    HW219812   3.691   0.788   4.530
 6305SOL     OW19813   0.824   6.034   6.329
 6305SOL    HW119814   0.778   5.945   6.335
 6305SOL    HW219815   0.782   6.087   6.255
 6306SOL     OW19816   0.349   5.438   4.246
 6306SOL    HW119817   0.325   5.428   4.342
 6306SOL    HW219818   0.321   5.528   4.214
 6307SOL     OW19819   3.844   2.996   1.916
 6307SOL    HW119820   3.752   2.975   1.949
 6307SOL    HW219821   3.888   3.061   1.978
 6308SOL     OW19822   0.117   2.255   0.545
 6308SOL    HW119823   0.054   2.294   0.612
 6308SOL    HW219824   0.104   2.156   0.542
 6309SOL     OW19825   2.486   6.198   4.584
 6309SOL    HW119826   2.422   6.180   4.659
 6309SOL    HW219827   2.541   6.279   4.606
 6310SOL     OW19828   1.507   0.147   3.115
 6310SOL    HW119829   1.556   0.072   3.070
 6310SOL    HW219830   1.437   0.108   3.175
 6311SOL     OW19831   5.730   0.706   6.549
 6311SOL    HW119832   5.659   0.659   6.602
 6311SOL    HW219833   5.820   0.684   6.588
 6312SOL     OW19834   3.466   5.862   6.818
 6312SOL    HW119835   3.558   5.899   6.831
 6312SOL    HW219836   3.463   5.811   6.732
 6313SOL     OW19837   5.989   5.071   4.880
 6313SOL    HW119838   6.066   5.116   4.925
 6313SOL    HW219839   6.015   5.048   4.786
 6314SOL     OW19840   2.186   6.563   2.705
 6314SOL    HW119841   2.118   6.563   2.631
 6314SOL    HW219842   2.174   6.481   2.761
 6315SOL     OW19843   2.369   2.261   3.694
 6315SOL    HW119844   2.304   2.319   3.743
 6315SOL    HW219845   2.354   2.270   3.596
 6316SOL     OW19846   4.736   1.129   4.650
 6316SOL    HW119847   4.761   1.126   4.553
 6316SOL    HW219848   4.643   1.093   4.661
 6317SOL     OW19849   5.458   5.095   1.858
 6317SOL    HW119850   5.387   5.117   1.792
 6317SOL    HW219851   5.538   5.153   1.842
 6318SOL     OW19852   6.739   6.836   0.337
 6318SOL    HW119853   6.708   6.743   0.354
 6318SOL    HW219854   6.723   6.860   0.241
 6319SOL     OW19855   5.207   1.483   4.097
 6319SOL    HW119856   5.110   1.478   4.074
 6319SOL    HW219857   5.257   1.412   4.047
 6320SOL     OW19858   6.191   1.190   5.712
 6320SOL    HW119859   6.265   1.147   5.660
 6320SOL    HW219860   6.210   1.182   5.810
 6321SOL     OW19861   6.530   2.694   6.916
 6321SOL    HW119862   6.539   2.621   6.984
 6321SOL    HW219863   6.618   2.740   6.904
 6322SOL     OW19864   1.157   1.054   2.142
 6322SOL    HW119865   1.162   0.963   2.182
 6322SOL    HW219866   1.140   1.046   2.044
 6323SOL     OW19867   2.268   4.849   1.673
 6323SOL    HW119868   2.171   4.865   1.692
 6323SOL    HW219869   2.322   4.870   1.755
 6324SOL     OW19870   4.328   2.373   1.081
 6324SOL    HW119871   4.317   2.380   1.180
 6324SOL    HW219872   4.342   2.464   1.042
 6325SOL     OW19873   1.470   2.977   4.263
 6325SOL    HW119874   1.547   2.924   4.299
 6325SOL    HW219875   1.490   3.075   4.271
 6326SOL     OW19876   5.537   5.161   5.744
 6326SOL    HW119877   5.497   5.145   5.835
 6326SOL    HW219878   5.520   5.256   5.717
 6327SOL     OW19879   0.161   0.872   3.604
 6327SOL    HW119880   0.070   0.830   3.595
 6327SOL    HW219881   0.216   0.850   3.524
 6328SOL     OW19882   4.536   3.650   5.375
 6328SOL    HW119883   4.608   3.613   5.316
 6328SOL    HW219884   4.468   3.697   5.319
 6329SOL     OW19885   0.868   2.114   5.753
 6329SOL    HW119886   0.843   2.143   5.660
 6329SOL    HW219887   0.946   2.051   5.748
 6330SOL     OW19888   5.478   1.421   3.649
 6330SOL    HW119889   5.476   1.447   3.552
 6330SOL    HW219890   5.493   1.502   3.705
 6331SOL     OW19891   0.690   2.716   3.276
 6331SOL    HW119892   0.682   2.757   3.185
 6331SOL    HW219893   0.721   2.785   3.341
 6332SOL     OW19894   3.150   1.725   6.543
 6332SOL    HW119895   3.109   1.662   6.608
 6332SOL    HW219896   3.157   1.816   6.584
 6333SOL     OW19897   5.365   1.597   0.981
 6333SOL    HW119898   5.384   1.596   0.883
 6333SOL    HW219899   5.396   1.683   1.021
 6334SOL     OW19900   1.456   1.719   2.079
 6334SOL    HW119901   1.465   1.620   2.068
 6334SOL    HW219902   1.372   1.740   2.130
 6335SOL     OW19903   6.364   2.427   6.871
 6335SOL    HW119904   6.357   2.341   6.922
 6335SOL    HW219905   6.460   2.454   6.863
 6336SOL     OW19906   0.932   3.843   5.206
 6336SOL    HW119907   1.021   3.851   5.251
 6336SOL    HW219908   0.934   3.892   5.119
 6337SOL     OW19909   5.375   6.278   4.924
 6337SOL    HW119910   5.452   6.257   4.985
 6337SOL    HW219911   5.410   6.307   4.835
 6338SOL     OW19912   1.460   1.160   3.013
 6338SOL    HW119913   1.366   1.163   2.978
 6338SOL    HW219914   1.505   1.077   2.981
 6339SOL     OW19915   0.419   4.556   3.766
 6339SOL    HW119916   0.386   4.596   3.680
 6339SOL    HW219917   0.356   4.579   3.839
 6340SOL     OW19918   2.755   3.964   0.547
 6340SOL    HW119919   2.723   4.014   0.627
 6340SOL    HW219920   2.832   3.905   0.573
 6341SOL     OW19921   0.344   4.957   2.508
 6341SOL    HW119922   0.278   5.014   2.556
 6341SOL    HW219923   0.353   4.988   2.413
 6342SOL     OW19924   1.838   1.119   1.443
 6342SOL    HW119925   1.818   1.206   1.399
 6342SOL    HW219926   1.765   1.053   1.424
 6343SOL     OW19927   0.835   5.221   0.411
 6343SOL    HW119928   0.806   5.239   0.505
 6343SOL    HW219929   0.787   5.141   0.375
 6344SOL     OW19930   0.505   1.292   3.794
 6344SOL    HW119931   0.549   1.202   3.786
 6344SOL    HW219932   0.412   1.280   3.829
 6345SOL     OW19933   6.221   2.778   1.618
 6345SOL    HW119934   6.259   2.713   1.551
 6345SOL    HW219935   6.175   2.727   1.690
 6346SOL     OW19936   0.212   4.041   5.902
 6346SOL    HW119937   0.281   4.040   5.974
 6346SOL    HW219938   0.256   4.060   5.814
 6347SOL     OW19939   2.286   1.894   2.742
 6347SOL    HW119940   2.344   1.933   2.814
 6347SOL    HW219941   2.335   1.821   2.695
 6348SOL     OW19942   0.400   2.134   6.077
 6348SOL    HW119943   0.490   2.174   6.064
 6348SOL    HW219944   0.368   2.152   6.170
 6349SOL     OW19945   6.855   1.250   0.390
 6349SOL    HW119946   6.803   1.276   0.309
 6349SOL    HW219947   6.793   1.244   0.468
 6350SOL     OW19948   0.759   6.066   2.015
 6350SOL    HW119949   0.722   6.141   1.960
 6350SOL    HW219950   0.736   6.081   2.111
 6351SOL     OW19951   5.269   3.609   1.628
 6351SOL    HW119952   5.271   3.678   1.700
 6351SOL    HW219953   5.244   3.653   1.541
 6352SOL     OW19954   3.293   0.713   4.390
 6352SOL    HW119955   3.310   0.812   4.393
 6352SOL    HW219956   3.220   0.690   4.454
 6353SOL     OW19957   3.765   6.794   5.504
 6353SOL    HW119958   3.760   6.712   5.446
 6353SOL    HW219959   3.734   6.772   5.596
 6354SOL     OW19960   4.686   5.415   1.397
 6354SOL    HW119961   4.661   5.510   1.379
 6354SOL    HW219962   4.782   5.410   1.425
 6355SOL     OW19963   2.892   5.020   0.456
 6355SOL    HW119964   2.948   5.094   0.418
 6355SOL    HW219965   2.952   4.952   0.499
 6356SOL     OW19966   6.649   5.502   5.983
 6356SOL    HW119967   6.747   5.489   5.991
 6356SOL    HW219968   6.617   5.464   5.896
 6357SOL     OW19969   5.400   1.086   1.687
 6357SOL    HW119970   5.370   1.181   1.687
 6357SOL    HW219971   5.452   1.068   1.771
 6358SOL     OW19972   1.505   1.951   5.442
 6358SOL    HW119973   1.475   1.872   5.389
 6358SOL    HW219974   1.438   2.024   5.434
 6359SOL     OW19975   5.515   6.446   0.587
 6359SOL    HW119976   5.570   6.465   0.506
 6359SOL    HW219977   5.576   6.425   0.664
 6360SOL     OW19978   0.414   1.820   2.007
 6360SOL    HW119979   0.394   1.866   2.093
 6360SOL    HW219980   0.457   1.884   1.943
 6361SOL     OW19981   0.410   1.039   0.152
 6361SOL    HW119982   0.448   1.105   0.216
 6361SOL    HW219983   0.412   0.948   0.192
 6362SOL     OW19984   0.642   5.445   0.569
 6362SOL    HW119985   0.586   5.406   0.496
 6362SOL    HW219986   0.707   5.510   0.531
 6363SOL     OW19987   2.150   3.982   2.870
 6363SOL    HW119988   2.120   3.911   2.933
 6363SOL    HW219989   2.208   4.048   2.919
 6364SOL     OW19990   2.425   2.450   4.229
 6364SOL    HW119991   2.346   2.395   4.201
 6364SOL    HW219992   2.413   2.479   4.324
 6365SOL     OW19993   5.594   6.653   3.153
 6365SOL    HW119994   5.542   6.713   3.214
 6365SOL    HW219995   5.553   6.562   3.153
 6366SOL     OW19996   5.792   0.764   5.177
 6366SOL    HW119997   5.755   0.775   5.269
 6366SOL    HW219998   5.717   0.760   5.111
 6367SOL     OW19999   1.298   2.210   2.592
 6367SOL    HW120000   1.317   2.308   2.585
 6367SOL    HW220001   1.304   2.182   2.688
 6368SOL     OW20002   5.029   3.416   4.961
 6368SOL    HW120003   5.050   3.337   5.018
 6368SOL    HW220004   4.954   3.468   5.003
 6369SOL     OW20005   4.426   5.413   0.162
 6369SOL    HW120006   4.332   5.394   0.134
 6369SOL    HW220007   4.426   5.478   0.238
 6370SOL     OW20008   5.160   4.115   4.328
 6370SOL    HW120009   5.145   4.144   4.234
 6370SOL    HW220010   5.079   4.065   4.360
 6371SOL     OW20011   5.223   4.480   1.508
 6371SOL    HW120012   5.220   4.384   1.537
 6371SOL    HW220013   5.316   4.514   1.515
 6372SOL     OW20014   6.562   1.788   2.233
 6372SOL    HW120015   6.643   1.839   2.261
 6372SOL    HW220016   6.588   1.694   2.214
 6373SOL     OW20017   4.955   4.375   1.713
 6373SOL    HW120018   4.861   4.380   1.747
 6373SOL    HW220019   4.954   4.363   1.614
 6374SOL     OW20020   4.237   3.622   6.877
 6374SOL    HW120021   4.141   3.646   6.886
 6374SOL    HW220022   4.269   3.642   6.785
 6375SOL     OW20023   4.857   1.772   2.234
 6375SOL    HW120024   4.813   1.694   2.279
 6375SOL    HW220025   4.802   1.854   2.248
 6376SOL     OW20026   3.314   0.904   0.108
 6376SOL    HW120027   3.284   0.811   0.127
 6376SOL    HW220028   3.389   0.902   0.041
 6377SOL     OW20029   0.476   0.486   1.113
 6377SOL    HW120030   0.482   0.408   1.050
 6377SOL    HW220031   0.423   0.559   1.070
 6378SOL     OW20032   5.056   4.591   1.848
 6378SOL    HW120033   4.987   4.656   1.879
 6378SOL    HW220034   5.023   4.544   1.767
 6379SOL     OW20035   1.870   5.253   6.485
 6379SOL    HW120036   1.970   5.257   6.481
 6379SOL    HW220037   1.831   5.314   6.416
 6380SOL     OW20038   1.444   4.015   4.913
 6380SOL    HW120039   1.429   4.090   4.976
 6380SOL    HW220040   1.385   4.026   4.833
 6381SOL     OW20041   4.294   2.697   0.511
 6381SOL    HW120042   4.221   2.630   0.501
 6381SOL    HW220043   4.376   2.651   0.545
 6382SOL     OW20044   1.082   1.175   0.641
 6382SOL    HW120045   1.147   1.228   0.586
 6382SOL    HW220046   1.013   1.135   0.582
 6383SOL     OW20047   2.501   2.192   1.914
 6383SOL    HW120048   2.409   2.225   1.934
 6383SOL    HW220049   2.560   2.206   1.993
 6384SOL     OW20050   6.476   2.756   2.367
 6384SOL    HW120051   6.501   2.732   2.273
 6384SOL    HW220052   6.547   2.815   2.407
 6385SOL     OW20053   0.506   3.392   0.511
 6385SOL    HW120054   0.587   3.356   0.557
 6385SOL    HW220055   0.424   3.352   0.552
 6386SOL     OW20056   2.551   2.992   0.256
 6386SOL    HW120057   2.476   3.057   0.253
 6386SOL    HW220058   2.523   2.911   0.309
 6387SOL     OW20059   0.159   0.222   0.007
 6387SOL    HW120060   0.061   0.230   7.017
 6387SOL    HW220061   0.185   0.269   0.092
 6388SOL     OW20062   6.270   5.542   2.455
 6388SOL    HW120063   6.211   5.477   2.502
 6388SOL    HW220064   6.220   5.627   2.438
 6389SOL     OW20065   0.073   0.455   0.559
 6389SOL    HW120066   0.157   0.494   0.596
 6389SOL    HW220067   0.083   0.355   0.552
 6390SOL     OW20068   5.216   0.454   6.679
 6390SOL    HW120069   5.125   0.446   6.639
 6390SOL    HW220070   5.209   0.453   6.779
 6391SOL     OW20071   1.159   1.953   4.884
 6391SOL    HW120072   1.168   1.914   4.975
 6391SOL    HW220073   1.199   2.045   4.883
 6392SOL     OW20074   3.868   6.522   3.700
 6392SOL    HW120075   3.899   6.615   3.718
 6392SOL    HW220076   3.940   6.457   3.723
 6393SOL     OW20077   0.477   5.178   6.951
 6393SOL    HW120078   0.543   5.242   6.992
 6393SOL    HW220079   0.515   5.086   6.953
 6394SOL     OW20080   1.694   5.539   1.976
 6394SOL    HW120081   1.714   5.616   2.037
 6394SOL    HW220082   1.776   5.516   1.924
 6395SOL     OW20083   2.048   3.549   3.526
 6395SOL    HW120084   2.072   3.534   3.430
 6395SOL    HW220085   2.061   3.463   3.576
 6396SOL     OW20086   1.415   3.100   6.027
 6396SOL    HW120087   1.328   3.128   6.068
 6396SOL    HW220088   1.491   3.139   6.080
 6397SOL     OW20089   5.484   3.775   4.376
 6397SOL    HW120090   5.433   3.727   4.448
 6397SOL    HW220091   5.563   3.822   4.417
 6398SOL     OW20092   2.060   0.005   1.642
 6398SOL    HW120093   2.140   0.063   1.629
 6398SOL    HW220094   1.988   0.057   1.689
 6399SOL     OW20095   3.174   0.889   6.318
 6399SOL    HW120096   3.225   0.973   6.300
 6399SOL    HW220097   3.237   0.812   6.325
 6400SOL     OW20098   1.108   6.086   3.207
 6400SOL    HW120099   1.054   6.170   3.208
 6400SOL    HW220100   1.191   6.099   3.262
 6401SOL     OW20101   3.715   5.507   3.380
 6401SOL    HW120102   3.669   5.482   3.465
 6401SOL    HW220103   3.784   5.576   3.398
 6402SOL     OW20104   2.166   4.605   5.069
 6402SOL    HW120105   2.149   4.671   4.996
 6402SOL    HW220106   2.084   4.551   5.085
 6403SOL     OW20107   5.042   4.997   5.016
 6403SOL    HW120108   5.035   4.898   5.004
 6403SOL    HW220109   4.998   5.043   4.938
 6404SOL     OW20110   4.397   6.753   1.817
 6404SOL    HW120111   4.475   6.718   1.870
 6404SOL    HW220112   4.354   6.828   1.868
 6405SOL     OW20113   5.526   1.733   3.080
 6405SOL    HW120114   5.580   1.732   3.165
 6405SOL    HW220115   5.513   1.639   3.048
 6406SOL     OW20116   7.008   3.447   3.591
 6406SOL    HW120117   6.942   3.375   3.568
 6406SOL    HW220118   6.961   3.523   3.635
 6407SOL     OW20119   0.643   6.289   2.595
 6407SOL    HW120120   0.572   6.264   2.530
 6407SOL    HW220121   0.636   6.386   2.617
 6408SOL     OW20122   6.407   0.440   2.010
 6408SOL    HW120123   6.435   0.472   1.919
 6408SOL    HW220124   6.316   0.477   2.032
 6409SOL     OW20125   5.001   5.294   3.614
 6409SOL    HW120126   4.947   5.213   3.637
 6409SOL    HW220127   4.948   5.377   3.636
 6410SOL     OW20128   1.672   1.651   6.675
 6410SOL    HW120129   1.601   1.711   6.638
 6410SOL    HW220130   1.690   1.675   6.770
 6411SOL     OW20131   0.614   2.841   1.901
 6411SOL    HW120132   0.592   2.852   1.998
 6411SOL    HW220133   0.677   2.765   1.888
 6412SOL     OW20134   3.055   0.956   0.212
 6412SOL    HW120135   3.081   0.874   0.162
 6412SOL    HW220136   3.059   0.938   0.310
 6413SOL     OW20137   5.057   6.388   2.784
 6413SOL    HW120138   5.092   6.300   2.751
 6413SOL    HW220139   5.107   6.415   2.866
 6414SOL     OW20140   1.678   0.218   0.565
 6414SOL    HW120141   1.773   0.193   0.548
 6414SOL    HW220142   1.663   0.313   0.538
 6415SOL     OW20143   0.312   2.595   3.726
 6415SOL    HW120144   0.228   2.609   3.674
 6415SOL    HW220145   0.298   2.521   3.793
 6416SOL     OW20146   2.333   6.174   0.216
 6416SOL    HW120147   2.382   6.107   0.160
 6416SOL    HW220148   2.237   6.176   0.188
 6417SOL     OW20149   4.372   2.621   6.483
 6417SOL    HW120150   4.423   2.537   6.465
 6417SOL    HW220151   4.364   2.674   6.399
 6418SOL     OW20152   5.032   4.417   0.191
 6418SOL    HW120153   5.016   4.349   0.262
 6418SOL    HW220154   5.115   4.394   0.141
 6419SOL     OW20155   0.654   6.353   6.113
 6419SOL    HW120156   0.632   6.450   6.109
 6419SOL    HW220157   0.585   6.300   6.064
 6420SOL     OW20158   1.800   4.415   4.390
 6420SOL    HW120159   1.748   4.474   4.327
 6420SOL    HW220160   1.757   4.325   4.395
 6421SOL     OW20161   3.948   0.482   1.922
 6421SOL    HW120162   3.977   0.556   1.983
 6421SOL    HW220163   3.957   0.512   1.827
 6422SOL     OW20164   5.804   2.125   4.849
 6422SOL    HW120165   5.844   2.126   4.757
 6422SOL    HW220166   5.740   2.049   4.858
 6423SOL     OW20167   1.608   4.675   4.392
 6423SOL    HW120168   1.570   4.615   4.462
 6423SOL    HW220169   1.600   4.770   4.422
 6424SOL     OW20170   6.520   4.726   5.456
 6424SOL    HW120171   6.485   4.779   5.378
 6424SOL    HW220172   6.587   4.660   5.423
 6425SOL     OW20173   6.878   5.514   4.302
 6425SOL    HW120174   6.924   5.425   4.303
 6425SOL    HW220175   6.926   5.575   4.240
 6426SOL     OW20176   4.875   4.231   4.999
 6426SOL    HW120177   4.970   4.205   4.981
 6426SOL    HW220178   4.872   4.294   5.077
 6427SOL     OW20179   4.163   3.451   2.999
 6427SOL    HW120180   4.247   3.468   2.948
 6427SOL    HW220181   4.105   3.533   2.994
 6428SOL     OW20182   5.775   2.930   0.335
 6428SOL    HW120183   5.858   2.963   0.380
 6428SOL    HW220184   5.701   2.925   0.402
 6429SOL     OW20185   2.256   1.258   5.800
 6429SOL    HW120186   2.288   1.270   5.894
 6429SOL    HW220187   2.299   1.325   5.741
 6430SOL     OW20188   6.356   0.298   5.282
 6430SOL    HW120189   6.346   0.286   5.184
 6430SOL    HW220190   6.293   0.368   5.315
 6431SOL     OW20191   3.736   4.866   1.692
 6431SOL    HW120192   3.685   4.787   1.726
 6431SOL    HW220193   3.675   4.944   1.683
 6432SOL     OW20194   5.336   4.544   6.110
 6432SOL    HW120195   5.421   4.582   6.072
 6432SOL    HW220196   5.299   4.607   6.178
 6433SOL     OW20197   3.212   4.400   6.347
 6433SOL    HW120198   3.272   4.390   6.426
 6433SOL    HW220199   3.262   4.444   6.272
 6434SOL     OW20200   4.808   5.543   6.331
 6434SOL    HW120201   4.847   5.455   6.304
 6434SOL    HW220202   4.716   5.552   6.293
 6435SOL     OW20203   4.854   2.550   1.352
 6435SOL    HW120204   4.897   2.459   1.347
 6435SOL    HW220205   4.773   2.545   1.410
 6436SOL     OW20206   6.458   3.314   3.802
 6436SOL    HW120207   6.487   3.406   3.775
 6436SOL    HW220208   6.491   3.294   3.894
 6437SOL     OW20209   1.397   2.304   5.668
 6437SOL    HW120210   1.390   2.243   5.589
 6437SOL    HW220211   1.379   2.252   5.752
 6438SOL     OW20212   0.394   4.796   0.161
 6438SOL    HW120213   0.378   4.734   0.084
 6438SOL    HW220214   0.349   4.760   0.243
 6439SOL     OW20215   5.036   0.037   3.243
 6439SOL    HW120216   5.117   0.001   3.198
 6439SOL    HW220217   5.054   0.047   3.341
 6440SOL     OW20218   2.644   2.271   6.380
 6440SOL    HW120219   2.640   2.298   6.476
 6440SOL    HW220220   2.679   2.347   6.326
 6441SOL     OW20221   0.134   1.786   2.283
 6441SOL    HW120222   0.095   1.851   2.349
 6441SOL    HW220223   0.190   1.836   2.217
 6442SOL     OW20224   3.033   2.132   4.789
 6442SOL    HW120225   3.077   2.189   4.858
 6442SOL    HW220226   2.934   2.134   4.802
 6443SOL     OW20227   4.467   3.261   6.663
 6443SOL    HW120228   4.434   3.294   6.575
 6443SOL    HW220229   4.407   3.190   6.698
 6444SOL     OW20230   6.365   3.823   4.785
 6444SOL    HW120231   6.291   3.890   4.793
 6444SOL    HW220232   6.447   3.858   4.830
 6445SOL     OW20233   3.075   3.168   3.529
 6445SOL    HW120234   3.004   3.123   3.583
 6445SOL    HW220235   3.080   3.127   3.438
 6446SOL     OW20236   1.415   1.227   6.433
 6446SOL    HW120237   1.347   1.157   6.413
 6446SOL    HW220238   1.378   1.317   6.411
 6447SOL     OW20239   5.846   3.166   1.931
 6447SOL    HW120240   5.844   3.130   2.024
 6447SOL    HW220241   5.917   3.119   1.879
 6448SOL     OW20242   3.376   4.954   1.513
 6448SOL    HW120243   3.434   5.002   1.579
 6448SOL    HW220244   3.382   5.000   1.424
 6449SOL     OW20245   2.645   5.208   0.627
 6449SOL    HW120246   2.735   5.230   0.664
 6449SOL    HW220247   2.654   5.140   0.555
 6450SOL     OW20248   0.135   4.508   0.292
 6450SOL    HW120249   0.139   4.500   0.193
 6450SOL    HW220250   0.112   4.419   0.332
 6451SOL     OW20251   4.455   2.696   1.423
 6451SOL    HW120252   4.367   2.708   1.469
 6451SOL    HW220253   4.469   2.772   1.359
 6452SOL     OW20254   4.412   1.870   4.039
 6452SOL    HW120255   4.406   1.942   3.970
 6452SOL    HW220256   4.363   1.898   4.121
 6453SOL     OW20257   2.340   0.787   2.222
 6453SOL    HW120258   2.258   0.783   2.279
 6453SOL    HW220259   2.333   0.863   2.158
 6454SOL     OW20260   5.160   2.267   3.431
 6454SOL    HW120261   5.120   2.359   3.427
 6454SOL    HW220262   5.145   2.220   3.344
 6455SOL     OW20263   6.428   2.913   3.669
 6455SOL    HW120264   6.377   2.978   3.612
 6455SOL    HW220265   6.451   2.955   3.756
 6456SOL     OW20266   6.037   1.117   2.469
 6456SOL    HW120267   6.090   1.059   2.532
 6456SOL    HW220268   6.084   1.204   2.456
 6457SOL     OW20269   3.474   7.012   2.548
 6457SOL    HW120270   3.471   0.019   2.454
 6457SOL    HW220271   3.388   0.008   2.594
 6458SOL     OW20272   6.792   5.490   3.908
 6458SOL    HW120273   6.767   5.587   3.909
 6458SOL    HW220274   6.889   5.480   3.933
 6459SOL     OW20275   0.124   3.291   3.255
 6459SOL    HW120276   0.079   3.214   3.300
 6459SOL    HW220277   0.059   3.336   3.194
 6460SOL     OW20278   0.444   5.458   6.534
 6460SOL    HW120279   0.443   5.374   6.587
 6460SOL    HW220280   0.395   5.530   6.584
 6461SOL     OW20281   1.584   5.666   0.944
 6461SOL    HW120282   1.619   5.755   0.975
 6461SOL    HW220283   1.502   5.681   0.889
 6462SOL     OW20284   1.864   4.252   5.018
 6462SOL    HW120285   1.883   4.350   5.020
 6462SOL    HW220286   1.886   4.212   5.107
 6463SOL     OW20287   4.727   2.154   1.031
 6463SOL    HW120288   4.826   2.159   1.042
 6463SOL    HW220289   4.687   2.113   1.113
 6464SOL     OW20290   1.122   4.055   3.645
 6464SOL    HW120291   1.075   3.998   3.578
 6464SOL    HW220292   1.076   4.046   3.734
 6465SOL     OW20293   3.706   1.401   3.537
 6465SOL    HW120294   3.702   1.333   3.463
 6465SOL    HW220295   3.619   1.449   3.542
 6466SOL     OW20296   6.341   4.162   7.019
 6466SOL    HW120297   6.317   4.210   6.934
 6466SOL    HW220298   6.280   4.191   0.068
 6467SOL     OW20299   3.091   2.973   0.536
 6467SOL    HW120300   3.047   2.913   0.602
 6467SOL    HW220301   3.172   3.015   0.577
 6468SOL     OW20302   2.243   0.914   1.296
 6468SOL    HW120303   2.262   0.980   1.224
 6468SOL    HW220304   2.312   0.921   1.368
 6469SOL     OW20305   3.130   1.706   2.060
 6469SOL    HW120306   3.200   1.654   2.109
 6469SOL    HW220307   3.155   1.711   1.963
 6470SOL     OW20308   0.222   1.638   7.008
 6470SOL    HW120309   0.290   1.572   0.016
 6470SOL    HW220310   0.133   1.615   0.021
 6471SOL     OW20311   1.123   6.422   5.626
 6471SOL    HW120312   1.088   6.512   5.653
 6471SOL    HW220313   1.157   6.374   5.706
 6472SOL     OW20314   6.716   6.442   3.257
 6472SOL    HW120315   6.722   6.344   3.237
 6472SOL    HW220316   6.803   6.486   3.232
 6473SOL     OW20317   2.427   1.170   3.221
 6473SOL    HW120318   2.342   1.117   3.209
 6473SOL    HW220319   2.418   1.257   3.174
 6474SOL     OW20320   4.087   5.401   4.793
 6474SOL    HW120321   4.022   5.468   4.828
 6474SOL    HW220322   4.036   5.326   4.749
 6475SOL     OW20323   5.860   5.641   2.346
 6475SOL    HW120324   5.893   5.611   2.256
 6475SOL    HW220325   5.780   5.588   2.372
 6476SOL     OW20326   3.843   2.289   6.244
 6476SOL    HW120327   3.853   2.384   6.273
 6476SOL    HW220328   3.778   2.242   6.304
 6477SOL     OW20329   6.481   5.915   1.668
 6477SOL    HW120330   6.547   5.848   1.703
 6477SOL    HW220331   6.435   5.878   1.588
 6478SOL     OW20332   3.039   5.876   1.079
 6478SOL    HW120333   2.986   5.816   1.018
 6478SOL    HW220334   3.137   5.863   1.063
 6479SOL     OW20335   3.769   6.450   3.057
 6479SOL    HW120336   3.822   6.438   2.973
 6479SOL    HW220337   3.724   6.540   3.056
 6480SOL     OW20338   4.006   1.526   6.801
 6480SOL    HW120339   4.008   1.575   6.714
 6480SOL    HW220340   4.086   1.552   6.856
 6481SOL     OW20341   3.927   2.674   1.546
 6481SOL    HW120342   3.940   2.731   1.627
 6481SOL    HW220343   4.006   2.614   1.535
 6482SOL     OW20344   5.477   3.883   5.781
 6482SOL    HW120345   5.442   3.801   5.827
 6482SOL    HW220346   5.411   3.914   5.713
 6483SOL     OW20347   2.031   6.692   5.232
 6483SOL    HW120348   2.018   6.626   5.157
 6483SOL    HW220349   2.129   6.702   5.250
 6484SOL     OW20350   2.719   0.989   3.479
 6484SOL    HW120351   2.703   0.892   3.497
 6484SOL    HW220352   2.776   0.998   3.397
 6485SOL     OW20353   2.417   6.050   5.308
 6485SOL    HW120354   2.505   6.088   5.281
 6485SOL    HW220355   2.362   6.032   5.227
 6486SOL     OW20356   1.182   5.017   2.896
 6486SOL    HW120357   1.209   5.005   2.992
 6486SOL    HW220358   1.118   4.945   2.870
 6487SOL     OW20359   5.819   4.307   4.406
 6487SOL    HW120360   5.904   4.297   4.457
 6487SOL    HW220361   5.816   4.398   4.364
 6488SOL     OW20362   3.699   5.284   4.821
 6488SOL    HW120363   3.743   5.196   4.838
 6488SOL    HW220364   3.762   5.344   4.771
 6489SOL     OW20365   4.563   2.678   4.962
 6489SOL    HW120366   4.637   2.731   5.002
 6489SOL    HW220367   4.488   2.671   5.028
 6490SOL     OW20368   2.185   2.281   0.405
 6490SOL    HW120369   2.253   2.215   0.370
 6490SOL    HW220370   2.233   2.362   0.438
 6491SOL     OW20371   2.733   6.693   1.811
 6491SOL    HW120372   2.765   6.666   1.721
 6491SOL    HW220373   2.802   6.668   1.880
 6492SOL     OW20374   4.077   3.426   4.998
 6492SOL    HW120375   4.054   3.343   4.946
 6492SOL    HW220376   4.135   3.485   4.943
 6493SOL     OW20377   0.831   4.586   4.397
 6493SOL    HW120378   0.865   4.506   4.349
 6493SOL    HW220379   0.851   4.577   4.495
 6494SOL     OW20380   6.139   0.432   1.330
 6494SOL    HW120381   6.182   0.487   1.402
 6494SOL    HW220382   6.210   0.387   1.276
 6495SOL     OW20383   6.435   0.701   3.347
 6495SOL    HW120384   6.343   0.737   3.358
 6495SOL    HW220385   6.498   0.750   3.408
 6496SOL     OW20386   3.317   2.004   1.425
 6496SOL    HW120387   3.281   1.937   1.360
 6496SOL    HW220388   3.417   2.005   1.422
 6497SOL     OW20389   0.449   1.360   0.617
 6497SOL    HW120390   0.493   1.394   0.534
 6497SOL    HW220391   0.464   1.425   0.692
 6498SOL     OW20392   1.338   4.474   3.782
 6498SOL    HW120393   1.428   4.431   3.785
 6498SOL    HW220394   1.313   4.505   3.874
 6499SOL     OW20395   4.743   2.886   3.374
 6499SOL    HW120396   4.792   2.970   3.397
 6499SOL    HW220397   4.747   2.871   3.276
 6500SOL     OW20398   1.437   4.252   2.838
 6500SOL    HW120399   1.508   4.190   2.805
 6500SOL    HW220400   1.474   4.311   2.910
 6501SOL     OW20401   5.920   1.660   2.094
 6501SOL    HW120402   5.918   1.560   2.100
 6501SOL    HW220403   5.982   1.696   2.165
 6502SOL     OW20404   0.084   3.550   2.328
 6502SOL    HW120405   7.021   3.590   2.301
 6502SOL    HW220406   0.067   3.458   2.365
 6503SOL     OW20407   6.937   3.686   5.726
 6503SOL    HW120408   6.938   3.785   5.714
 6503SOL    HW220409   6.875   3.661   5.800
 6504SOL     OW20410   4.342   6.211   6.079
 6504SOL    HW120411   4.386   6.296   6.104
 6504SOL    HW220412   4.392   6.134   6.119
 6505SOL     OW20413   0.151   5.642   0.760
 6505SOL    HW120414   0.142   5.572   0.689
 6505SOL    HW220415   0.247   5.651   0.786
 6506SOL     OW20416   0.475   3.688   2.061
 6506SOL    HW120417   0.565   3.671   2.103
 6506SOL    HW220418   0.420   3.605   2.064
 6507SOL     OW20419   3.568   5.167   0.426
 6507SOL    HW120420   3.560   5.118   0.513
 6507SOL    HW220421   3.610   5.257   0.443
 6508SOL     OW20422   0.880   0.050   3.029
 6508SOL    HW120423   0.868   0.102   3.114
 6508SOL    HW220424   0.915   0.111   2.958
 6509SOL     OW20425   2.210   1.737   6.824
 6509SOL    HW120426   2.252   1.779   6.744
 6509SOL    HW220427   2.234   1.640   6.827
 6510SOL     OW20428   3.238   6.210   5.531
 6510SOL    HW120429   3.268   6.115   5.517
 6510SOL    HW220430   3.264   6.239   5.623
 6511SOL     OW20431   3.369   1.748   0.875
 6511SOL    HW120432   3.461   1.747   0.835
 6511SOL    HW220433   3.368   1.692   0.958
 6512SOL     OW20434   3.865   1.526   0.174
 6512SOL    HW120435   3.792   1.510   0.108
 6512SOL    HW220436   3.853   1.465   0.253
 6513SOL     OW20437   2.914   4.852   3.195
 6513SOL    HW120438   2.993   4.847   3.134
 6513SOL    HW220439   2.900   4.946   3.225
 6514SOL     OW20440   5.258   6.659   5.461
 6514SOL    HW120441   5.277   6.563   5.441
 6514SOL    HW220442   5.181   6.665   5.525
 6515SOL     OW20443   0.934   4.835   2.373
 6515SOL    HW120444   0.959   4.808   2.280
 6515SOL    HW220445   0.834   4.835   2.382
 6516SOL     OW20446   6.217   3.269   1.472
 6516SOL    HW120447   6.273   3.323   1.409
 6516SOL    HW220448   6.248   3.285   1.566
 6517SOL     OW20449   0.041   3.547   0.663
 6517SOL    HW120450   0.008   3.617   0.599
 6517SOL    HW220451   0.135   3.567   0.690
 6518SOL     OW20452   0.521   1.663   2.555
 6518SOL    HW120453   0.561   1.676   2.645
 6518SOL    HW220454   0.478   1.572   2.550
 6519SOL     OW20455   1.195   1.355   3.150
 6519SOL    HW120456   1.266   1.425   3.150
 6519SOL    HW220457   1.122   1.382   3.213
 6520SOL     OW20458   0.120   5.459   0.561
 6520SOL    HW120459   0.039   5.436   0.616
 6520SOL    HW220460   0.132   5.391   0.489
 6521SOL     OW20461   1.575   3.738   3.790
 6521SOL    HW120462   1.606   3.823   3.749
 6521SOL    HW220463   1.495   3.755   3.848
 6522SOL     OW20464   2.735   3.009   5.397
 6522SOL    HW120465   2.649   3.013   5.345
 6522SOL    HW220466   2.805   3.063   5.349
 6523SOL     OW20467   6.008   0.143   0.429
 6523SOL    HW120468   5.953   0.152   0.346
 6523SOL    HW220469   6.104   0.166   0.409
 6524SOL     OW20470   2.846   2.913   0.702
 6524SOL    HW120471   2.852   2.820   0.739
 6524SOL    HW220472   2.908   2.973   0.752
 6525SOL     OW20473   0.883   4.943   3.474
 6525SOL    HW120474   0.940   4.863   3.492
 6525SOL    HW220475   0.927   4.999   3.403
 6526SOL     OW20476   0.879   5.778   0.206
 6526SOL    HW120477   0.860   5.838   0.128
 6526SOL    HW220478   0.978   5.769   0.218
 6527SOL     OW20479   6.672   1.744   0.258
 6527SOL    HW120480   6.647   1.649   0.270
 6527SOL    HW220481   6.593   1.796   0.224
 6528SOL     OW20482   3.971   6.783   6.591
 6528SOL    HW120483   4.071   6.777   6.595
 6528SOL    HW220484   3.942   6.876   6.615
 6529SOL     OW20485   5.803   0.667   2.330
 6529SOL    HW120486   5.741   0.710   2.264
 6529SOL    HW220487   5.808   0.569   2.311
 6530SOL     OW20488   0.303   2.898   3.000
 6530SOL    HW120489   0.242   2.902   3.080
 6530SOL    HW220490   0.338   2.990   2.981
 6531SOL     OW20491   3.344   4.187   5.188
 6531SOL    HW120492   3.368   4.279   5.219
 6531SOL    HW220493   3.362   4.179   5.090
 6532SOL     OW20494   1.329   0.208   0.314
 6532SOL    HW120495   1.372   0.148   0.380
 6532SOL    HW220496   1.397   0.270   0.275
 6533SOL     OW20497   4.972   3.881   1.123
 6533SOL    HW120498   4.884   3.833   1.131
 6533SOL    HW220499   4.962   3.974   1.157
 6534SOL     OW20500   0.126   4.195   3.178
 6534SOL    HW120501   0.167   4.285   3.164
 6534SOL    HW220502   0.037   4.191   3.132
 6535SOL     OW20503   4.865   2.896   5.333
 6535SOL    HW120504   4.792   2.827   5.339
 6535SOL    HW220505   4.893   2.923   5.425
 6536SOL     OW20506   0.884   4.576   5.154
 6536SOL    HW120507   0.977   4.552   5.181
 6536SOL    HW220508   0.886   4.657   5.095
 6537SOL     OW20509   6.319   5.465   3.933
 6537SOL    HW120510   6.409   5.436   3.902
 6537SOL    HW220511   6.248   5.411   3.888
 6538SOL     OW20512   1.800   2.791   5.613
 6538SOL    HW120513   1.735   2.795   5.538
 6538SOL    HW220514   1.862   2.870   5.609
 6539SOL     OW20515   5.283   0.547   6.222
 6539SOL    HW120516   5.223   0.509   6.152
 6539SOL    HW220517   5.359   0.594   6.178
 6540SOL     OW20518   6.659   2.753   5.634
 6540SOL    HW120519   6.698   2.667   5.600
 6540SOL    HW220520   6.730   2.824   5.633
 6541SOL     OW20521   6.307   1.738   5.206
 6541SOL    HW120522   6.342   1.692   5.287
 6541SOL    HW220523   6.290   1.670   5.134
 6542SOL     OW20524   1.395   4.275   3.208
 6542SOL    HW120525   1.465   4.214   3.246
 6542SOL    HW220526   1.439   4.355   3.168
 6543SOL     OW20527   3.689   1.631   4.422
 6543SOL    HW120528   3.662   1.650   4.328
 6543SOL    HW220529   3.626   1.676   4.485
 6544SOL     OW20530   1.200   6.352   1.324
 6544SOL    HW120531   1.164   6.440   1.356
 6544SOL    HW220532   1.287   6.367   1.277
 6545SOL     OW20533   4.611   6.631   0.820
 6545SOL    HW120534   4.672   6.685   0.762
 6545SOL    HW220535   4.583   6.685   0.899
 6546SOL     OW20536   4.721   3.856   6.131
 6546SOL    HW120537   4.773   3.877   6.214
 6546SOL    HW220538   4.781   3.860   6.052
 6547SOL     OW20539   0.593   5.869   6.257
 6547SOL    HW120540   0.620   5.886   6.162
 6547SOL    HW220541   0.515   5.806   6.259
 6548SOL     OW20542   6.966   1.133   5.696
 6548SOL    HW120543   6.880   1.153   5.744
 6548SOL    HW220544   6.983   1.205   5.628
 6549SOL     OW20545   4.324   1.561   2.519
 6549SOL    HW120546   4.380   1.529   2.443
 6549SOL    HW220547   4.338   1.659   2.532
 6550SOL     OW20548   6.079   6.361   3.021
 6550SOL    HW120549   6.058   6.387   2.926
 6550SOL    HW220550   6.017   6.288   3.050
 6551SOL     OW20551   3.299   4.348   0.831
 6551SOL    HW120552   3.243   4.353   0.749
 6551SOL    HW220553   3.259   4.282   0.894
 6552SOL     OW20554   2.008   5.460   0.307
 6552SOL    HW120555   1.977   5.373   0.270
 6552SOL    HW220556   2.038   5.447   0.402
 6553SOL     OW20557   1.096   1.084   3.484
 6553SOL    HW120558   1.084   1.181   3.506
 6553SOL    HW220559   1.045   1.063   3.401
 6554SOL     OW20560   1.794   1.768   4.274
 6554SOL    HW120561   1.789   1.852   4.328
 6554SOL    HW220562   1.709   1.756   4.223
 6555SOL     OW20563   6.232   3.454   3.781
 6555SOL    HW120564   6.302   3.390   3.811
 6555SOL    HW220565   6.141   3.413   3.794
 6556SOL     OW20566   4.934   3.108   2.440
 6556SOL    HW120567   4.888   3.121   2.353
 6556SOL    HW220568   5.033   3.115   2.427
 6557SOL     OW20569   2.169   0.569   2.064
 6557SOL    HW120570   2.239   0.625   2.108
 6557SOL    HW220571   2.162   0.481   2.112
 6558SOL     OW20572   5.518   6.261   6.459
 6558SOL    HW120573   5.570   6.177   6.445
 6558SOL    HW220574   5.429   6.252   6.413
 6559SOL     OW20575   6.713   2.718   6.401
 6559SOL    HW120576   6.709   2.738   6.303
 6559SOL    HW220577   6.637   2.765   6.447
 6560SOL     OW20578   5.672   4.774   0.177
 6560SOL    HW120579   5.614   4.849   0.144
 6560SOL    HW220580   5.696   4.790   0.273
 6561SOL     OW20581   3.509   4.728   0.117
 6561SOL    HW120582   3.504   4.717   0.018
 6561SOL    HW220583   3.591   4.780   0.141
 6562SOL     OW20584   5.414   2.425   1.121
 6562SOL    HW120585   5.334   2.467   1.164
 6562SOL    HW220586   5.455   2.490   1.057
 6563SOL     OW20587   5.593   5.280   5.015
 6563SOL    HW120588   5.527   5.209   5.038
 6563SOL    HW220589   5.558   5.370   5.042
 6564SOL     OW20590   6.252   3.297   3.159
 6564SOL    HW120591   6.338   3.284   3.110
 6564SOL    HW220592   6.201   3.371   3.115
 6565SOL     OW20593   5.502   0.340   3.055
 6565SOL    HW120594   5.460   0.253   3.082
 6565SOL    HW220595   5.443   0.385   2.987
 6566SOL     OW20596   4.731   5.911   3.128
 6566SOL    HW120597   4.666   5.836   3.134
 6566SOL    HW220598   4.697   5.980   3.064
 6567SOL     OW20599   3.824   0.631   1.364
 6567SOL    HW120600   3.819   0.729   1.342
 6567SOL    HW220601   3.732   0.594   1.375
 6568SOL     OW20602   4.521   1.859   0.727
 6568SOL    HW120603   4.527   1.955   0.700
 6568SOL    HW220604   4.434   1.821   0.696
 6569SOL     OW20605   0.884   4.584   4.656
 6569SOL    HW120606   0.804   4.526   4.671
 6569SOL    HW220607   0.905   4.634   4.740
 6570SOL     OW20608   4.459   0.351   1.712
 6570SOL    HW120609   4.512   0.310   1.638
 6570SOL    HW220610   4.363   0.360   1.685
 6571SOL     OW20611   3.489   4.956   2.989
 6571SOL    HW120612   3.533   5.027   3.045
 6571SOL    HW220613   3.442   4.891   3.049
 6572SOL     OW20614   1.201   5.335   4.143
 6572SOL    HW120615   1.295   5.318   4.113
 6572SOL    HW220616   1.148   5.371   4.067
 6573SOL     OW20617   1.604   1.510   3.436
 6573SOL    HW120618   1.632   1.474   3.524
 6573SOL    HW220619   1.648   1.599   3.420
 6574SOL     OW20620   1.782   5.556   2.489
 6574SOL    HW120621   1.692   5.600   2.495
 6574SOL    HW220622   1.781   5.489   2.415
 6575SOL     OW20623   0.075   1.360   3.185
 6575SOL    HW120624   7.016   1.395   3.228
 6575SOL    HW220625   0.136   1.436   3.164
 6576SOL     OW20626   4.824   5.709   0.620
 6576SOL    HW120627   4.891   5.730   0.691
 6576SOL    HW220628   4.772   5.627   0.646
 6577SOL     OW20629   3.348   1.064   3.722
 6577SOL    HW120630   3.347   1.158   3.756
 6577SOL    HW220631   3.331   1.000   3.798
 6578SOL     OW20632   1.483   4.730   1.213
 6578SOL    HW120633   1.426   4.651   1.239
 6578SOL    HW220634   1.431   4.814   1.227
 6579SOL     OW20635   6.668   1.113   4.064
 6579SOL    HW120636   6.761   1.083   4.044
 6579SOL    HW220637   6.657   1.208   4.034
 6580SOL     OW20638   2.381   2.000   0.103
 6580SOL    HW120639   2.415   2.015   0.196
 6580SOL    HW220640   2.285   2.027   0.098
 6581SOL     OW20641   0.644   1.691   1.038
 6581SOL    HW120642   0.601   1.655   0.955
 6581SOL    HW220643   0.666   1.788   1.025
 6582SOL     OW20644   6.668   1.543   2.851
 6582SOL    HW120645   6.572   1.526   2.831
 6582SOL    HW220646   6.687   1.517   2.946
 6583SOL     OW20647   3.695   5.244   6.590
 6583SOL    HW120648   3.694   5.295   6.676
 6583SOL    HW220649   3.789   5.232   6.558
 6584SOL     OW20650   4.175   2.572   0.283
 6584SOL    HW120651   4.135   2.507   0.218
 6584SOL    HW220652   4.120   2.655   0.284
 6585SOL     OW20653   5.825   6.608   1.390
 6585SOL    HW120654   5.878   6.537   1.344
 6585SOL    HW220655   5.787   6.571   1.475
 6586SOL     OW20656   0.206   1.485   0.267
 6586SOL    HW120657   0.145   1.467   0.345
 6586SOL    HW220658   0.229   1.399   0.223
 6587SOL     OW20659   1.639   4.674   5.619
 6587SOL    HW120660   1.578   4.639   5.690
 6587SOL    HW220661   1.695   4.599   5.583
 6588SOL     OW20662   6.802   2.713   0.498
 6588SOL    HW120663   6.779   2.633   0.554
 6588SOL    HW220664   6.866   2.771   0.548
 6589SOL     OW20665   6.647   0.374   2.135
 6589SOL    HW120666   6.578   0.410   2.073
 6589SOL    HW220667   6.722   0.440   2.144
 6590SOL     OW20668   1.362   6.262   3.752
 6590SOL    HW120669   1.303   6.281   3.832
 6590SOL    HW220670   1.417   6.181   3.770
 6591SOL     OW20671   5.878   4.192   3.721
 6591SOL    HW120672   5.814   4.213   3.794
 6591SOL    HW220673   5.945   4.124   3.753
 6592SOL     OW20674   6.233   6.761   3.359
 6592SOL    HW120675   6.322   6.730   3.327
 6592SOL    HW220676   6.171   6.773   3.282
 6593SOL     OW20677   2.658   1.686   2.069
 6593SOL    HW120678   2.638   1.590   2.051
 6593SOL    HW220679   2.574   1.733   2.097
 6594SOL     OW20680   5.487   0.397   6.377
 6594SOL    HW120681   5.463   0.303   6.401
 6594SOL    HW220682   5.406   0.444   6.343
 6595SOL     OW20683   0.893   2.084   5.458
 6595SOL    HW120684   0.918   2.178   5.435
 6595SOL    HW220685   0.846   2.042   5.380
 6596SOL     OW20686   5.498   0.303   2.678
 6596SOL    HW120687   5.440   0.369   2.726
 6596SOL    HW220688   5.515   0.224   2.737
 6597SOL     OW20689   0.875   4.222   2.199
 6597SOL    HW120690   0.948   4.154   2.211
 6597SOL    HW220691   0.786   4.179   2.218
 6598SOL     OW20692   1.394   4.456   4.270
 6598SOL    HW120693   1.437   4.469   4.359
 6598SOL    HW220694   1.386   4.544   4.224
 6599SOL     OW20695   6.397   5.421   6.163
 6599SOL    HW120696   6.407   5.475   6.079
 6599SOL    HW220697   6.329   5.349   6.148
 6600SOL     OW20698   4.382   0.555   5.157
 6600SOL    HW120699   4.369   0.547   5.058
 6600SOL    HW220700   4.441   0.634   5.176
 6601SOL     OW20701   1.613   2.283   1.366
 6601SOL    HW120702   1.639   2.212   1.301
 6601SOL    HW220703   1.620   2.247   1.459
 6602SOL     OW20704   1.344   5.824   1.866
 6602SOL    HW120705   1.290   5.820   1.782
 6602SOL    HW220706   1.317   5.748   1.926
 6603SOL     OW20707   0.049   3.393   2.983
 6603SOL    HW120708   0.132   3.443   2.956
 6603SOL    HW220709   7.008   3.457   3.023
 6604SOL     OW20710   2.197   6.313   2.878
 6604SOL    HW120711   2.273   6.305   2.942
 6604SOL    HW220712   2.216   6.258   2.797
 6605SOL     OW20713   0.174   5.598   1.120
 6605SOL    HW120714   0.131   5.606   1.030
 6605SOL    HW220715   0.144   5.674   1.177
 6606SOL     OW20716   1.680   3.098   3.116
 6606SOL    HW120717   1.659   3.107   3.018
 6606SOL    HW220718   1.758   3.156   3.139
 6607SOL     OW20719   5.972   3.881   3.482
 6607SOL    HW120720   5.947   3.786   3.502
 6607SOL    HW220721   6.059   3.902   3.528
 6608SOL     OW20722   1.246   5.650   6.083
 6608SOL    HW120723   1.201   5.673   6.169
 6608SOL    HW220724   1.192   5.684   6.006
 6609SOL     OW20725   4.876   1.533   6.305
 6609SOL    HW120726   4.797   1.590   6.281
 6609SOL    HW220727   4.850   1.436   6.299
 6610SOL     OW20728   3.091   5.540   0.766
 6610SOL    HW120729   3.043   5.590   0.694
 6610SOL    HW220730   3.055   5.447   0.772
 6611SOL     OW20731   3.925   1.796   4.445
 6611SOL    HW120732   3.856   1.727   4.469
 6611SOL    HW220733   3.881   1.886   4.439
 6612SOL     OW20734   0.803   0.731   6.263
 6612SOL    HW120735   0.744   0.747   6.342
 6612SOL    HW220736   0.895   0.709   6.294
 6613SOL     OW20737   4.765   6.714   0.596
 6613SOL    HW120738   4.752   6.741   0.500
 6613SOL    HW220739   4.856   6.673   0.607
 6614SOL     OW20740   4.581   5.511   1.037
 6614SOL    HW120741   4.519   5.575   0.991
 6614SOL    HW220742   4.617   5.553   1.120
 6615SOL     OW20743   3.797   4.846   5.932
 6615SOL    HW120744   3.698   4.845   5.937
 6615SOL    HW220745   3.833   4.914   5.995
 6616SOL     OW20746   3.395   1.479   6.238
 6616SOL    HW120747   3.454   1.423   6.181
 6616SOL    HW220748   3.420   1.576   6.229
 6617SOL     OW20749   3.797   0.348   4.221
 6617SOL    HW120750   3.829   0.354   4.316
 6617SOL    HW220751   3.856   0.287   4.169
 6618SOL     OW20752   6.460   2.495   4.161
 6618SOL    HW120753   6.448   2.408   4.112
 6618SOL    HW220754   6.451   2.571   4.097
 6619SOL     OW20755   4.337   6.180   4.229
 6619SOL    HW120756   4.281   6.259   4.254
 6619SOL    HW220757   4.389   6.201   4.147
 6620SOL     OW20758   0.517   3.020   3.449
 6620SOL    HW120759   0.458   2.947   3.484
 6620SOL    HW220760   0.613   2.994   3.462
 6621SOL     OW20761   4.106   3.403   4.553
 6621SOL    HW120762   4.159   3.378   4.633
 6621SOL    HW220763   4.124   3.339   4.479
 6622SOL     OW20764   0.638   5.478   1.071
 6622SOL    HW120765   0.569   5.467   1.000
 6622SOL    HW220766   0.617   5.416   1.147
 6623SOL     OW20767   3.015   3.734   5.363
 6623SOL    HW120768   2.934   3.734   5.305
 6623SOL    HW220769   3.093   3.771   5.311
 6624SOL     OW20770   2.138   1.445   3.327
 6624SOL    HW120771   2.155   1.399   3.240
 6624SOL    HW220772   2.147   1.544   3.314
 6625SOL     OW20773   6.016   4.056   5.896
 6625SOL    HW120774   6.029   3.972   5.843
 6625SOL    HW220775   5.970   4.125   5.839
 6626SOL     OW20776   2.935   6.089   5.264
 6626SOL    HW120777   2.991   6.128   5.190
 6626SOL    HW220778   2.930   6.153   5.340
 6627SOL     OW20779   1.928   6.001   4.255
 6627SOL    HW120780   1.879   5.948   4.325
 6627SOL    HW220781   1.979   5.938   4.196
 6628SOL     OW20782   3.837   6.086   4.750
 6628SOL    HW120783   3.758   6.098   4.689
 6628SOL    HW220784   3.919   6.121   4.706
 6629SOL     OW20785   4.680   6.247   6.337
 6629SOL    HW120786   4.611   6.316   6.359
 6629SOL    HW220787   4.739   6.281   6.264
 6630SOL     OW20788   1.837   0.805   0.364
 6630SOL    HW120789   1.769   0.863   0.320
 6630SOL    HW220790   1.866   0.846   0.450
 6631SOL     OW20791   1.779   3.792   6.034
 6631SOL    HW120792   1.768   3.693   6.038
 6631SOL    HW220793   1.830   3.817   5.952
 6632SOL     OW20794   1.422   0.266   0.674
 6632SOL    HW120795   1.383   0.328   0.606
 6632SOL    HW220796   1.512   0.236   0.644
 6633SOL     OW20797   3.621   5.719   5.961
 6633SOL    HW120798   3.618   5.645   6.029
 6633SOL    HW220799   3.528   5.749   5.942
 6634SOL     OW20800   3.896   1.624   4.039
 6634SOL    HW120801   3.817   1.632   4.100
 6634SOL    HW220802   3.957   1.702   4.054
 6635SOL     OW20803   4.879   5.144   4.125
 6635SOL    HW120804   4.798   5.085   4.123
 6635SOL    HW220805   4.953   5.100   4.073
 6636SOL     OW20806   3.951   0.849   6.766
 6636SOL    HW120807   3.886   0.839   6.691
 6636SOL    HW220808   3.906   0.826   6.852
 6637SOL     OW20809   1.062   1.721   1.525
 6637SOL    HW120810   1.058   1.757   1.432
 6637SOL    HW220811   1.044   1.794   1.591
 6638SOL     OW20812   2.910   3.721   3.993
 6638SOL    HW120813   2.942   3.736   3.900
 6638SOL    HW220814   2.881   3.808   4.033
 6639SOL     OW20815   4.695   2.548   0.892
 6639SOL    HW120816   4.680   2.454   0.864
 6639SOL    HW220817   4.610   2.585   0.931
 6640SOL     OW20818   1.846   3.564   4.802
 6640SOL    HW120819   1.789   3.497   4.754
 6640SOL    HW220820   1.941   3.553   4.774
 6641SOL     OW20821   4.854   2.032   1.583
 6641SOL    HW120822   4.811   1.950   1.620
 6641SOL    HW220823   4.818   2.050   1.491
 6642SOL     OW20824   1.348   5.704   0.024
 6642SOL    HW120825   1.382   5.751   6.967
 6642SOL    HW220826   1.264   5.655   0.002
 6643SOL     OW20827   3.991   5.395   6.708
 6643SOL    HW120828   4.012   5.315   6.653
 6643SOL    HW220829   3.953   5.467   6.650
 6644SOL     OW20830   1.876   6.633   3.655
 6644SOL    HW120831   1.787   6.634   3.701
 6644SOL    HW220832   1.948   6.620   3.723
 6645SOL     OW20833   6.015   2.641   0.348
 6645SOL    HW120834   5.915   2.643   0.336
 6645SOL    HW220835   6.045   2.729   0.385
 6646SOL     OW20836   4.407   6.662   5.802
 6646SOL    HW120837   4.443   6.573   5.774
 6646SOL    HW220838   4.374   6.712   5.722
 6647SOL     OW20839   4.316   5.265   0.705
 6647SOL    HW120840   4.403   5.280   0.751
 6647SOL    HW220841   4.300   5.167   0.694
 6648SOL     OW20842   3.180   6.355   5.816
 6648SOL    HW120843   3.139   6.421   5.752
 6648SOL    HW220844   3.112   6.330   5.886
 6649SOL     OW20845   5.259   3.409   6.607
 6649SOL    HW120846   5.294   3.467   6.680
 6649SOL    HW220847   5.289   3.445   6.519
 6650SOL     OW20848   1.991   1.708   5.071
 6650SOL    HW120849   2.083   1.741   5.093
 6650SOL    HW220850   1.998   1.617   5.030
 6651SOL     OW20851   6.592   2.176   6.444
 6651SOL    HW120852   6.626   2.083   6.453
 6651SOL    HW220853   6.632   2.218   6.362
 6652SOL     OW20854   7.011   4.661   0.525
 6652SOL    HW120855   0.064   4.620   0.476
 6652SOL    HW220856   6.925   4.632   0.484
 6653SOL     OW20857   5.672   4.804   0.459
 6653SOL    HW120858   5.619   4.849   0.531
 6653SOL    HW220859   5.765   4.788   0.491
 6654SOL     OW20860   6.468   4.185   3.095
 6654SOL    HW120861   6.435   4.271   3.058
 6654SOL    HW220862   6.524   4.138   3.027
 6655SOL     OW20863   0.038   5.038   2.149
 6655SOL    HW120864   7.000   4.964   2.124
 6655SOL    HW220865   7.011   5.113   2.189
 6656SOL     OW20866   4.776   1.411   3.006
 6656SOL    HW120867   4.764   1.461   2.920
 6656SOL    HW220868   4.809   1.474   3.077
 6657SOL     OW20869   5.345   2.261   3.661
 6657SOL    HW120870   5.410   2.185   3.651
 6657SOL    HW220871   5.296   2.274   3.574
 6658SOL     OW20872   6.739   5.725   5.335
 6658SOL    HW120873   6.785   5.806   5.298
 6658SOL    HW220874   6.705   5.668   5.260
 6659SOL     OW20875   0.857   5.508   2.096
 6659SOL    HW120876   0.902   5.421   2.077
 6659SOL    HW220877   0.905   5.554   2.171
 6660SOL     OW20878   6.608   6.508   3.911
 6660SOL    HW120879   6.533   6.532   3.972
 6660SOL    HW220880   6.688   6.565   3.931
 6661SOL     OW20881   3.826   5.757   4.270
 6661SOL    HW120882   3.862   5.850   4.281
 6661SOL    HW220883   3.774   5.752   4.184
 6662SOL     OW20884   4.074   6.649   2.131
 6662SOL    HW120885   3.979   6.621   2.146
 6662SOL    HW220886   4.133   6.569   2.134
 6663SOL     OW20887   1.264   3.687   6.066
 6663SOL    HW120888   1.188   3.746   6.039
 6663SOL    HW220889   1.350   3.730   6.040
 6664SOL     OW20890   2.878   0.169   1.135
 6664SOL    HW120891   2.949   0.216   1.082
 6664SOL    HW220892   2.864   0.077   1.099
 6665SOL     OW20893   2.278   0.856   6.275
 6665SOL    HW120894   2.254   0.824   6.183
 6665SOL    HW220895   2.305   0.952   6.271
 6666SOL     OW20896   4.083   6.568   5.394
 6666SOL    HW120897   4.065   6.595   5.489
 6666SOL    HW220898   4.167   6.613   5.362
 6667SOL     OW20899   0.238   6.203   6.672
 6667SOL    HW120900   0.263   6.164   6.760
 6667SOL    HW220901   0.251   6.136   6.600
 6668SOL     OW20902   0.190   5.122   0.731
 6668SOL    HW120903   0.287   5.129   0.706
 6668SOL    HW220904   0.151   5.040   0.689
 6669SOL     OW20905   1.563   1.191   3.321
 6669SOL    HW120906   1.496   1.167   3.391
 6669SOL    HW220907   1.515   1.219   3.238
 6670SOL     OW20908   4.130   2.276   0.921
 6670SOL    HW120909   4.220   2.259   0.961
 6670SOL    HW220910   4.093   2.361   0.958
 6671SOL     OW20911   5.021   5.532   0.449
 6671SOL    HW120912   5.116   5.543   0.418
 6671SOL    HW220913   4.982   5.622   0.470
 6672SOL     OW20914   1.910   2.549   1.275
 6672SOL    HW120915   1.973   2.518   1.346
 6672SOL    HW220916   1.939   2.512   1.186
 6673SOL     OW20917   5.994   3.302   3.856
 6673SOL    HW120918   5.938   3.357   3.917
 6673SOL    HW220919   6.069   3.260   3.909
 6674SOL     OW20920   0.619   1.527   0.462
 6674SOL    HW120921   0.644   1.619   0.491
 6674SOL    HW220922   0.691   1.463   0.487
 6675SOL     OW20923   5.541   1.474   6.608
 6675SOL    HW120924   5.616   1.441   6.551
 6675SOL    HW220925   5.457   1.480   6.554
 6676SOL     OW20926   1.114   3.680   3.759
 6676SOL    HW120927   1.057   3.759   3.739
 6676SOL    HW220928   1.056   3.602   3.781
 6677SOL     OW20929   0.718   1.797   0.283
 6677SOL    HW120930   0.752   1.714   0.239
 6677SOL    HW220931   0.698   1.778   0.379
 6678SOL     OW20932   2.032   4.096   6.777
 6678SOL    HW120933   2.044   4.037   6.857
 6678SOL    HW220934   1.935   4.110   6.760
 6679SOL     OW20935   1.922   0.849   3.906
 6679SOL    HW120936   2.022   0.857   3.907
 6679SOL    HW220937   1.888   0.861   3.999
 6680SOL     OW20938   6.064   6.786   1.443
 6680SOL    HW120939   6.115   6.700   1.437
 6680SOL    HW220940   5.973   6.774   1.404
 6681SOL     OW20941   3.470   5.913   1.877
 6681SOL    HW120942   3.430   5.833   1.920
 6681SOL    HW220943   3.535   5.884   1.806
 6682SOL     OW20944   3.419   5.082   5.918
 6682SOL    HW120945   3.339   5.142   5.926
 6682SOL    HW220946   3.496   5.121   5.968
 6683SOL     OW20947   6.794   4.117   6.367
 6683SOL    HW120948   6.818   4.210   6.340
 6683SOL    HW220949   6.877   4.063   6.378
 6684SOL     OW20950   2.848   6.235   0.261
 6684SOL    HW120951   2.803   6.318   0.293
 6684SOL    HW220952   2.879   6.181   0.340
 6685SOL     OW20953   5.081   3.245   6.909
 6685SOL    HW120954   5.122   3.333   6.884
 6685SOL    HW220955   5.145   3.194   6.966
 6686SOL     OW20956   4.770   5.334   4.525
 6686SOL    HW120957   4.750   5.411   4.465
 6686SOL    HW220958   4.847   5.282   4.487
 6687SOL     OW20959   6.392   2.135   1.966
 6687SOL    HW120960   6.451   2.054   1.971
 6687SOL    HW220961   6.390   2.180   2.055
 6688SOL     OW20962   4.577   5.168   0.579
 6688SOL    HW120963   4.620   5.213   0.656
 6688SOL    HW220964   4.627   5.190   0.495
 6689SOL     OW20965   1.979   4.417   5.924
 6689SOL    HW120966   2.063   4.447   5.879
 6689SOL    HW220967   1.918   4.495   5.935
 6690SOL     OW20968   0.778   6.676   5.730
 6690SOL    HW120969   0.815   6.647   5.641
 6690SOL    HW220970   0.837   6.747   5.769
 6691SOL     OW20971   2.508   2.369   2.487
 6691SOL    HW120972   2.578   2.348   2.554
 6691SOL    HW220973   2.436   2.299   2.490
 6692SOL     OW20974   4.676   4.970   1.960
 6692SOL    HW120975   4.646   4.924   2.043
 6692SOL    HW220976   4.755   5.028   1.981
 6693SOL     OW20977   4.148   1.451   4.662
 6693SOL    HW120978   4.090   1.485   4.735
 6693SOL    HW220979   4.212   1.522   4.633
 6694SOL     OW20980   3.481   4.189   1.923
 6694SOL    HW120981   3.393   4.226   1.891
 6694SOL    HW220982   3.556   4.242   1.884
 6695SOL     OW20983   1.751   2.177   6.554
 6695SOL    HW120984   1.777   2.146   6.463
 6695SOL    HW220985   1.670   2.236   6.547
 6696SOL     OW20986   3.956   3.497   4.121
 6696SOL    HW120987   3.934   3.593   4.104
 6696SOL    HW220988   3.906   3.466   4.202
 6697SOL     OW20989   4.002   2.203   2.776
 6697SOL    HW120990   3.908   2.238   2.780
 6697SOL    HW220991   4.001   2.110   2.741
 6698SOL     OW20992   3.428   4.033   1.349
 6698SOL    HW120993   3.473   4.037   1.438
 6698SOL    HW220994   3.484   4.082   1.281
 6699SOL     OW20995   1.000   4.261   5.730
 6699SOL    HW120996   1.095   4.232   5.716
 6699SOL    HW220997   0.940   4.181   5.723
 6700SOL     OW20998   5.840   0.114   6.955
 6700SOL    HW120999   5.766   0.162   7.003
 6700SOL    HW221000   5.844   0.019   6.988
 6701SOL     OW21001   5.908   0.536   1.362
 6701SOL    HW121002   5.995   0.492   1.337
 6701SOL    HW221003   5.907   0.629   1.326
 6702SOL     OW21004   3.341   2.669   1.221
 6702SOL    HW121005   3.257   2.617   1.202
 6702SOL    HW221006   3.408   2.651   1.150
 6703SOL     OW21007   0.218   1.245   0.088
 6703SOL    HW121008   0.275   1.307   0.036
 6703SOL    HW221009   0.274   1.171   0.125
 6704SOL     OW21010   3.137   0.038   6.224
 6704SOL    HW121011   3.221   0.012   6.176
 6704SOL    HW221012   3.091   6.980   6.257
 6705SOL     OW21013   6.424   3.829   2.493
 6705SOL    HW121014   6.403   3.760   2.561
 6705SOL    HW221015   6.364   3.817   2.414
 6706SOL     OW21016   0.257   6.820   1.738
 6706SOL    HW121017   0.179   6.803   1.798
 6706SOL    HW221018   0.248   6.763   1.656
 6707SOL     OW21019   5.274   0.746   2.158
 6707SOL    HW121020   5.236   0.723   2.247
 6707SOL    HW221021   5.249   0.676   2.092
 6708SOL     OW21022   0.877   4.118   1.448
 6708SOL    HW121023   0.946   4.171   1.399
 6708SOL    HW221024   0.792   4.169   1.452
 6709SOL     OW21025   1.880   4.698   2.658
 6709SOL    HW121026   1.804   4.704   2.594
 6709SOL    HW221027   1.856   4.635   2.732
 6710SOL     OW21028   4.475   1.158   0.449
 6710SOL    HW121029   4.509   1.106   0.528
 6710SOL    HW221030   4.455   1.252   0.477
 6711SOL     OW21031   3.516   5.713   6.561
 6711SOL    HW121032   3.445   5.645   6.544
 6711SOL    HW221033   3.570   5.728   6.478
 6712SOL     OW21034   6.094   3.563   1.702
 6712SOL    HW121035   6.033   3.484   1.704
 6712SOL    HW221036   6.069   3.621   1.625
 6713SOL     OW21037   2.020   5.986   4.771
 6713SOL    HW121038   2.026   5.985   4.672
 6713SOL    HW221039   1.936   5.941   4.800
 6714SOL     OW21040   4.855   1.554   1.307
 6714SOL    HW121041   4.955   1.554   1.308
 6714SOL    HW221042   4.823   1.603   1.226
 6715SOL     OW21043   1.258   0.977   0.123
 6715SOL    HW121044   1.331   1.001   0.187
 6715SOL    HW221045   1.198   0.910   0.166
 6716SOL     OW21046   0.001   5.608   3.000
 6716SOL    HW121047   0.057   5.670   3.055
 6716SOL    HW221048   6.959   5.661   2.946
 6717SOL     OW21049   4.943   2.227   5.421
 6717SOL    HW121050   5.016   2.247   5.357
 6717SOL    HW221051   4.859   2.274   5.393
 6718SOL     OW21052   3.707   1.285   1.635
 6718SOL    HW121053   3.794   1.236   1.631
 6718SOL    HW221054   3.632   1.219   1.646
 6719SOL     OW21055   2.009   1.027   0.149
 6719SOL    HW121056   1.934   0.970   0.116
 6719SOL    HW221057   1.973   1.099   0.208
 6720SOL     OW21058   1.950   0.531   6.350
 6720SOL    HW121059   1.885   0.605   6.340
 6720SOL    HW221060   2.023   0.558   6.414
 6721SOL     OW21061   6.295   1.617   0.362
 6721SOL    HW121062   6.196   1.605   0.355
 6721SOL    HW221063   6.319   1.643   0.456
 6722SOL     OW21064   5.891   3.512   0.346
 6722SOL    HW121065   5.840   3.453   0.284
 6722SOL    HW221066   5.935   3.456   0.416
 6723SOL     OW21067   1.078   2.467   6.038
 6723SOL    HW121068   1.020   2.386   6.029
 6723SOL    HW221069   1.100   2.482   6.134
 6724SOL     OW21070   2.017   3.722   5.239
 6724SOL    HW121071   1.931   3.727   5.188
 6724SOL    HW221072   2.094   3.736   5.176
 6725SOL     OW21073   5.156   3.028   3.835
 6725SOL    HW121074   5.067   2.985   3.847
 6725SOL    HW221075   5.226   2.958   3.821
 6726SOL     OW21076   0.199   0.779   5.739
 6726SOL    HW121077   0.193   0.762   5.641
 6726SOL    HW221078   0.107   0.799   5.776
 6727SOL     OW21079   1.032   4.874   5.286
 6727SOL    HW121080   1.064   4.835   5.372
 6727SOL    HW221081   1.074   4.824   5.210
 6728SOL     OW21082   3.175   2.198   3.618
 6728SOL    HW121083   3.251   2.212   3.681
 6728SOL    HW221084   3.210   2.185   3.525
 6729SOL     OW21085   4.496   1.207   2.212
 6729SOL    HW121086   4.414   1.171   2.256
 6729SOL    HW221087   4.469   1.265   2.135
 6730SOL     OW21088   0.594   1.534   1.674
 6730SOL    HW121089   0.638   1.457   1.721
 6730SOL    HW221090   0.586   1.513   1.576
 6731SOL     OW21091   3.998   6.548   6.755
 6731SOL    HW121092   3.985   6.631   6.701
 6731SOL    HW221093   3.941   6.475   6.718
 6732SOL     OW21094   0.162   5.741   4.511
 6732SOL    HW121095   0.189   5.646   4.494
 6732SOL    HW221096   0.177   5.762   4.608
 6733SOL     OW21097   4.936   5.141   6.574
 6733SOL    HW121098   4.948   5.048   6.608
 6733SOL    HW221099   4.918   5.138   6.476
 6734SOL     OW21100   6.651   1.426   4.142
 6734SOL    HW121101   6.647   1.526   4.138
 6734SOL    HW221102   6.589   1.393   4.213
 6735SOL     OW21103   6.184   2.782   3.490
 6735SOL    HW121104   6.153   2.852   3.426
 6735SOL    HW221105   6.184   2.820   3.583
 6736SOL     OW21106   3.287   3.978   0.643
 6736SOL    HW121107   3.211   3.995   0.706
 6736SOL    HW221108   3.254   3.925   0.565
 6737SOL     OW21109   0.370   3.686   0.489
 6737SOL    HW121110   0.466   3.704   0.512
 6737SOL    HW221111   0.357   3.694   0.391
 6738SOL     OW21112   1.340   5.481   3.733
 6738SOL    HW121113   1.380   5.433   3.810
 6738SOL    HW221114   1.411   5.504   3.666
 6739SOL     OW21115   6.238   0.252   4.729
 6739SOL    HW121116   6.221   0.162   4.689
 6739SOL    HW221117   6.189   0.321   4.677
 6740SOL     OW21118   0.459   6.952   3.920
 6740SOL    HW121119   0.366   6.918   3.933
 6740SOL    HW221120   0.524   6.877   3.932
 6741SOL     OW21121   4.524   1.833   6.444
 6741SOL    HW121122   4.571   1.804   6.528
 6741SOL    HW221123   4.437   1.786   6.436
 6742SOL     OW21124   5.464   4.798   3.633
 6742SOL    HW121125   5.477   4.810   3.731
 6742SOL    HW221126   5.455   4.701   3.612
 6743SOL     OW21127   4.286   4.061   0.625
 6743SOL    HW121128   4.252   4.132   0.686
 6743SOL    HW221129   4.386   4.063   0.624
 6744SOL     OW21130   0.445   6.163   6.023
 6744SOL    HW121131   0.403   6.232   5.965
 6744SOL    HW221132   0.377   6.128   6.088
 6745SOL     OW21133   6.988   5.501   4.864
 6745SOL    HW121134   6.910   5.438   4.861
 6745SOL    HW221135   7.001   5.532   4.958
 6746SOL     OW21136   1.442   2.047   2.403
 6746SOL    HW121137   1.390   1.995   2.336
 6746SOL    HW221138   1.381   2.108   2.453
 6747SOL     OW21139   1.650   6.307   6.004
 6747SOL    HW121140   1.681   6.333   5.912
 6747SOL    HW221141   1.729   6.294   6.063
 6748SOL     OW21142   1.942   1.096   4.711
 6748SOL    HW121143   2.023   1.044   4.684
 6748SOL    HW221144   1.861   1.039   4.702
 6749SOL     OW21145   3.749   5.025   1.329
 6749SOL    HW121146   3.753   5.103   1.391
 6749SOL    HW221147   3.818   4.957   1.355
 6750SOL     OW21148   3.434   1.126   5.487
 6750SOL    HW121149   3.368   1.145   5.414
 6750SOL    HW221150   3.397   1.056   5.548
 6751SOL     OW21151   4.423   0.226   4.159
 6751SOL    HW121152   4.412   0.134   4.197
 6751SOL    HW221153   4.333   0.270   4.153
 6752SOL     OW21154   2.215   5.668   2.438
 6752SOL    HW121155   2.121   5.677   2.403
 6752SOL    HW221156   2.227   5.577   2.477
 6753SOL     OW21157   3.973   3.180   5.627
 6753SOL    HW121158   3.992   3.090   5.589
 6753SOL    HW221159   4.056   3.217   5.669
 6754SOL     OW21160   5.929   2.054   1.091
 6754SOL    HW121161   5.861   2.032   1.160
 6754SOL    HW221162   6.020   2.042   1.129
 6755SOL     OW21163   2.608   5.506   6.304
 6755SOL    HW121164   2.589   5.408   6.295
 6755SOL    HW221165   2.652   5.523   6.392
 6756SOL     OW21166   2.689   2.237   5.321
 6756SOL    HW121167   2.756   2.245   5.246
 6756SOL    HW221168   2.622   2.311   5.313
 6757SOL     OW21169   3.420   6.775   0.207
 6757SOL    HW121170   3.385   6.693   0.252
 6757SOL    HW221171   3.368   6.793   0.124
 6758SOL     OW21172   6.128   2.168   2.816
 6758SOL    HW121173   6.133   2.261   2.853
 6758SOL    HW221174   6.065   2.167   2.739
 6759SOL     OW21175   1.070   2.764   2.736
 6759SOL    HW121176   1.103   2.761   2.642
 6759SOL    HW221177   0.995   2.699   2.747
 6760SOL     OW21178   5.541   2.366   3.009
 6760SOL    HW121179   5.483   2.312   3.070
 6760SOL    HW221180   5.587   2.437   3.062
 6761SOL     OW21181   4.125   2.030   4.908
 6761SOL    HW121182   4.042   2.071   4.871
 6761SOL    HW221183   4.123   1.931   4.893
 6762SOL     OW21184   6.961   5.777   4.057
 6762SOL    HW121185   0.022   5.798   4.009
 6762SOL    HW221186   6.974   5.791   4.155
 6763SOL     OW21187   5.052   5.426   4.876
 6763SOL    HW121188   5.090   5.364   4.945
 6763SOL    HW221189   5.084   5.397   4.785
 6764SOL     OW21190   1.900   5.121   1.152
 6764SOL    HW121191   1.995   5.152   1.160
 6764SOL    HW221192   1.862   5.105   1.243
 6765SOL     OW21193   6.800   5.450   2.819
 6765SOL    HW121194   6.725   5.395   2.856
 6765SOL    HW221195   6.820   5.421   2.725
 6766SOL     OW21196   5.553   0.587   0.433
 6766SOL    HW121197   5.489   0.511   0.417
 6766SOL    HW221198   5.538   0.657   0.363
 6767SOL     OW21199   3.070   0.196   0.952
 6767SOL    HW121200   3.084   0.133   0.876
 6767SOL    HW221201   3.159   0.223   0.990
 6768SOL     OW21202   1.552   0.589   1.166
 6768SOL    HW121203   1.524   0.615   1.074
 6768SOL    HW221204   1.557   0.671   1.224
 6769SOL     OW21205   4.213   2.700   1.564
 6769SOL    HW121206   4.172   2.785   1.598
 6769SOL    HW221207   4.202   2.628   1.631
 6770SOL     OW21208   6.835   0.529   1.659
 6770SOL    HW121209   6.916   0.555   1.606
 6770SOL    HW221210   6.864   0.493   1.748
 6771SOL     OW21211   3.666   2.055   3.388
 6771SOL    HW121212   3.672   2.154   3.376
 6771SOL    HW221213   3.716   2.029   3.470
 6772SOL     OW21214   2.911   1.766   2.532
 6772SOL    HW121215   2.862   1.845   2.569
 6772SOL    HW221216   2.926   1.779   2.434
 6773SOL     OW21217   0.037   4.456   2.514
 6773SOL    HW121218   0.080   4.451   2.424
 6773SOL    HW221219   0.092   4.514   2.574
 6774SOL     OW21220   0.646   1.993   6.958
 6774SOL    HW121221   0.551   2.024   6.955
 6774SOL    HW221222   0.685   2.013   0.023
 6775SOL     OW21223   2.601   4.819   1.065
 6775SOL    HW121224   2.538   4.783   0.996
 6775SOL    HW221225   2.630   4.911   1.039
 6776SOL     OW21226   6.234   5.235   0.238
 6776SOL    HW121227   6.169   5.223   0.313
 6776SOL    HW221228   6.226   5.328   0.201
 6777SOL     OW21229   4.356   4.564   6.455
 6777SOL    HW121230   4.313   4.636   6.401
 6777SOL    HW221231   4.294   4.486   6.462
 6778SOL     OW21232   0.745   5.495   2.997
 6778SOL    HW121233   0.724   5.590   3.018
 6778SOL    HW221234   0.840   5.488   2.966
 6779SOL     OW21235   0.079   5.117   0.336
 6779SOL    HW121236   0.118   5.208   0.323
 6779SOL    HW221237   0.106   5.058   0.261
 6780SOL     OW21238   0.184   2.558   2.443
 6780SOL    HW121239   0.237   2.475   2.459
 6780SOL    HW221240   0.225   2.634   2.494
 6781SOL     OW21241   5.046   5.928   6.029
 6781SOL    HW121242   5.029   5.836   6.065
 6781SOL    HW221243   5.140   5.955   6.051
 6782SOL     OW21244   6.780   1.766   2.757
 6782SOL    HW121245   6.720   1.833   2.801
 6782SOL    HW221246   6.753   1.674   2.784
 6783SOL     OW21247   0.064   6.313   6.463
 6783SOL    HW121248   0.159   6.313   6.433
 6783SOL    HW221249   0.060   6.304   6.563
 6784SOL     OW21250   3.503   3.476   0.419
 6784SOL    HW121251   3.475   3.474   0.515
 6784SOL    HW221252   3.489   3.385   0.379
 6785SOL     OW21253   5.394   6.011   2.080
 6785SOL    HW121254   5.369   6.082   2.145
 6785SOL    HW221255   5.353   5.924   2.107
 6786SOL     OW21256   1.747   2.571   6.074
 6786SOL    HW121257   1.721   2.628   5.997
 6786SOL    HW221258   1.846   2.575   6.087
 6787SOL     OW21259   1.426   3.543   2.192
 6787SOL    HW121260   1.448   3.479   2.265
 6787SOL    HW221261   1.466   3.510   2.106
 6788SOL     OW21262   3.049   3.853   1.075
 6788SOL    HW121263   3.086   3.921   1.138
 6788SOL    HW221264   2.998   3.784   1.125
 6789SOL     OW21265   0.804   6.751   2.273
 6789SOL    HW121266   0.807   6.652   2.282
 6789SOL    HW221267   0.892   6.790   2.301
 6790SOL     OW21268   1.912   3.141   6.726
 6790SOL    HW121269   1.894   3.065   6.788
 6790SOL    HW221270   1.878   3.119   6.635
 6791SOL     OW21271   4.420   3.045   6.379
 6791SOL    HW121272   4.413   2.955   6.337
 6791SOL    HW221273   4.512   3.058   6.417
 6792SOL     OW21274   6.503   6.219   0.623
 6792SOL    HW121275   6.569   6.292   0.604
 6792SOL    HW221276   6.551   6.133   0.641
 6793SOL     OW21277   1.204   2.753   1.328
 6793SOL    HW121278   1.240   2.700   1.405
 6793SOL    HW221279   1.105   2.738   1.321
 6794SOL     OW21280   5.151   1.142   5.097
 6794SOL    HW121281   5.151   1.241   5.109
 6794SOL    HW221282   5.226   1.102   5.150
 6795SOL     OW21283   2.950   5.648   0.556
 6795SOL    HW121284   2.858   5.680   0.577
 6795SOL    HW221285   2.952   5.611   0.463
 6796SOL     OW21286   4.663   1.468   2.749
 6796SOL    HW121287   4.676   1.525   2.667
 6796SOL    HW221288   4.615   1.521   2.818
 6797SOL     OW21289   5.847   3.397   2.044
 6797SOL    HW121290   5.842   3.310   1.995
 6797SOL    HW221291   5.862   3.471   1.979
 6798SOL     OW21292   4.830   5.814   2.671
 6798SOL    HW121293   4.749   5.758   2.689
 6798SOL    HW221294   4.813   5.907   2.703
 6799SOL     OW21295   5.334   5.968   0.439
 6799SOL    HW121296   5.309   5.957   0.535
 6799SOL    HW221297   5.405   5.902   0.415
 6800SOL     OW21298   2.050   4.516   0.333
 6800SOL    HW121299   2.015   4.527   0.426
 6800SOL    HW221300   1.977   4.483   0.273
 6801SOL     OW21301   1.699   2.590   2.144
 6801SOL    HW121302   1.724   2.600   2.048
 6801SOL    HW221303   1.674   2.496   2.163
 6802SOL     OW21304   2.414   6.368   1.810
 6802SOL    HW121305   2.315   6.370   1.800
 6802SOL    HW221306   2.457   6.378   1.721
 6803SOL     OW21307   5.360   2.009   6.766
 6803SOL    HW121308   5.295   2.082   6.745
 6803SOL    HW221309   5.312   1.922   6.775
 6804SOL     OW21310   1.854   5.742   3.332
 6804SOL    HW121311   1.866   5.780   3.423
 6804SOL    HW221312   1.790   5.799   3.280
 6805SOL     OW21313   5.968   0.584   4.972
 6805SOL    HW121314   6.034   0.616   4.903
 6805SOL    HW221315   5.875   0.601   4.939
 6806SOL     OW21316   4.020   0.916   5.331
 6806SOL    HW121317   3.973   0.984   5.388
 6806SOL    HW221318   4.037   0.955   5.240
 6807SOL     OW21319   3.308   2.711   0.170
 6807SOL    HW121320   3.300   2.612   0.182
 6807SOL    HW221321   3.286   2.735   0.075
 6808SOL     OW21322   0.666   2.854   5.692
 6808SOL    HW121323   0.581   2.830   5.646
 6808SOL    HW221324   0.668   2.814   5.783
 6809SOL     OW21325   2.404   3.951   6.674
 6809SOL    HW121326   2.454   3.864   6.673
 6809SOL    HW221327   2.434   4.007   6.750
 6810SOL     OW21328   0.280   0.808   2.356
 6810SOL    HW121329   0.267   0.873   2.431
 6810SOL    HW221330   0.194   0.798   2.305
 6811SOL     OW21331   5.920   4.965   1.324
 6811SOL    HW121332   5.913   5.044   1.262
 6811SOL    HW221333   5.997   4.979   1.387
 6812SOL     OW21334   3.751   3.321   3.528
 6812SOL    HW121335   3.850   3.317   3.522
 6812SOL    HW221336   3.711   3.240   3.485
 6813SOL     OW21337   4.465   2.531   0.640
 6813SOL    HW121338   4.432   2.571   0.725
 6813SOL    HW221339   4.431   2.437   0.632
 6814SOL     OW21340   2.656   3.924   1.116
 6814SOL    HW121341   2.684   3.884   1.202
 6814SOL    HW221342   2.620   3.853   1.055
 6815SOL     OW21343   2.031   0.591   1.389
 6815SOL    HW121344   2.017   0.685   1.421
 6815SOL    HW221345   1.973   0.529   1.442
 6816SOL     OW21346   6.542   4.787   6.981
 6816SOL    HW121347   6.471   4.726   7.017
 6816SOL    HW221348   6.593   4.739   6.909
 6817SOL     OW21349   0.080   1.501   5.793
 6817SOL    HW121350   0.171   1.543   5.799
 6817SOL    HW221351   0.067   1.440   5.871
 6818SOL     OW21352   3.749   6.326   2.587
 6818SOL    HW121353   3.783   6.344   2.495
 6818SOL    HW221354   3.654   6.354   2.594
 6819SOL     OW21355   3.311   0.519   4.175
 6819SOL    HW121356   3.333   0.593   4.239
 6819SOL    HW221357   3.393   0.465   4.157
 6820SOL     OW21358   1.127   4.350   3.109
 6820SOL    HW121359   1.071   4.267   3.111
 6820SOL    HW221360   1.214   4.333   3.155
 6821SOL     OW21361   2.491   2.361   4.670
 6821SOL    HW121362   2.416   2.313   4.717
 6821SOL    HW221363   2.558   2.393   4.737
 6822SOL     OW21364   5.776   2.035   5.793
 6822SOL    HW121365   5.804   1.996   5.705
 6822SOL    HW221366   5.776   2.135   5.787
 6823SOL     OW21367   2.988   3.196   2.960
 6823SOL    HW121368   2.996   3.234   2.868
 6823SOL    HW221369   2.935   3.111   2.957
 6824SOL     OW21370   0.838   4.114   6.602
 6824SOL    HW121371   0.794   4.137   6.689
 6824SOL    HW221372   0.785   4.153   6.527
 6825SOL     OW21373   4.861   0.078   2.317
 6825SOL    HW121374   4.871   0.028   2.403
 6825SOL    HW221375   4.922   0.156   2.316
 6826SOL     OW21376   2.057   3.517   2.745
 6826SOL    HW121377   2.070   3.457   2.666
 6826SOL    HW221378   2.041   3.610   2.713
 6827SOL     OW21379   5.549   5.993   6.483
 6827SOL    HW121380   5.585   5.977   6.575
 6827SOL    HW221381   5.449   5.993   6.486
 6828SOL     OW21382   0.980   2.465   1.484
 6828SOL    HW121383   0.956   2.380   1.437
 6828SOL    HW221384   1.079   2.478   1.480
 6829SOL     OW21385   5.131   6.147   3.778
 6829SOL    HW121386   5.093   6.179   3.692
 6829SOL    HW221387   5.085   6.062   3.805
 6830SOL     OW21388   5.467   1.771   3.674
 6830SOL    HW121389   5.552   1.792   3.721
 6830SOL    HW221390   5.401   1.732   3.739
 6831SOL     OW21391   0.491   0.685   5.579
 6831SOL    HW121392   0.496   0.633   5.664
 6831SOL    HW221393   0.554   0.646   5.512
 6832SOL     OW21394   3.238   5.199   2.444
 6832SOL    HW121395   3.139   5.212   2.446
 6832SOL    HW221396   3.261   5.126   2.379
 6833SOL     OW21397   3.771   4.839   0.081
 6833SOL    HW121398   3.843   4.823   0.149
 6833SOL    HW221399   3.711   4.912   0.112
 6834SOL     OW21400   4.196   6.157   1.971
 6834SOL    HW121401   4.107   6.194   1.944
 6834SOL    HW221402   4.190   6.119   2.063
 6835SOL     OW21403   3.885   6.787   4.867
 6835SOL    HW121404   3.930   6.753   4.949
 6835SOL    HW221405   3.906   6.884   4.856
 6836SOL     OW21406   3.653   6.603   6.643
 6836SOL    HW121407   3.732   6.550   6.612
 6836SOL    HW221408   3.625   6.569   6.734
 6837SOL     OW21409   1.830   3.560   1.782
 6837SOL    HW121410   1.817   3.574   1.683
 6837SOL    HW221411   1.921   3.523   1.798
 6838SOL     OW21412   2.402   1.387   6.996
 6838SOL    HW121413   2.420   1.448   0.049
 6838SOL    HW221414   2.306   1.358   6.999
 6839SOL     OW21415   4.230   0.954   0.382
 6839SOL    HW121416   4.197   0.972   0.290
 6839SOL    HW221417   4.295   1.025   0.409
 6840SOL     OW21418   1.799   1.392   6.290
 6840SOL    HW121419   1.767   1.337   6.367
 6840SOL    HW221420   1.813   1.486   6.320
 6841SOL     OW21421   6.612   2.763   6.145
 6841SOL    HW121422   6.526   2.767   6.195
 6841SOL    HW221423   6.607   2.821   6.063
 6842SOL     OW21424   2.098   5.044   2.465
 6842SOL    HW121425   2.086   5.122   2.403
 6842SOL    HW221426   2.093   5.076   2.559
 6843SOL     OW21427   4.671   6.739   6.880
 6843SOL    HW121428   4.615   6.656   6.883
 6843SOL    HW221429   4.694   6.767   6.974
 6844SOL     OW21430   5.238   0.626   5.225
 6844SOL    HW121431   5.223   0.710   5.277
 6844SOL    HW221432   5.212   0.547   5.281
 6845SOL     OW21433   5.012   2.193   2.727
 6845SOL    HW121434   4.987   2.272   2.784
 6845SOL    HW221435   4.930   2.141   2.704
 6846SOL     OW21436   2.828   3.642   0.344
 6846SOL    HW121437   2.855   3.549   0.368
 6846SOL    HW221438   2.872   3.707   0.406
 6847SOL     OW21439   5.882   3.471   4.028
 6847SOL    HW121440   5.878   3.566   4.060
 6847SOL    HW221441   5.805   3.420   4.067
 6848SOL     OW21442   5.595   5.185   3.301
 6848SOL    HW121443   5.538   5.129   3.241
 6848SOL    HW221444   5.674   5.218   3.249
 6849SOL     OW21445   3.694   4.029   6.654
 6849SOL    HW121446   3.726   4.115   6.695
 6849SOL    HW221447   3.609   4.045   6.605
 6850SOL     OW21448   4.144   1.289   3.677
 6850SOL    HW121449   4.171   1.364   3.737
 6850SOL    HW221450   4.045   1.274   3.684
 6851SOL     OW21451   1.918   2.833   3.390
 6851SOL    HW121452   1.975   2.758   3.423
 6851SOL    HW221453   1.954   2.920   3.423
 6852SOL     OW21454   2.597   5.197   0.326
 6852SOL    HW121455   2.530   5.256   0.371
 6852SOL    HW221456   2.573   5.101   0.344
 6853SOL     OW21457   4.833   3.172   6.839
 6853SOL    HW121458   4.773   3.248   6.813
 6853SOL    HW221459   4.927   3.204   6.847
 6854SOL     OW21460   5.288   6.411   5.995
 6854SOL    HW121461   5.333   6.347   6.057
 6854SOL    HW221462   5.357   6.469   5.952
 6855SOL     OW21463   4.063   5.237   3.822
 6855SOL    HW121464   4.022   5.328   3.831
 6855SOL    HW221465   4.132   5.238   3.750
 6856SOL     OW21466   1.167   2.077   0.088
 6856SOL    HW121467   1.238   2.025   0.137
 6856SOL    HW221468   1.123   2.018   0.021
 6857SOL     OW21469   1.099   3.956   5.617
 6857SOL    HW121470   1.174   3.924   5.558
 6857SOL    HW221471   1.023   3.987   5.561
 6858SOL     OW21472   2.861   4.118   1.686
 6858SOL    HW121473   2.900   4.207   1.706
 6858SOL    HW221474   2.903   4.082   1.602
 6859SOL     OW21475   1.003   0.963   2.543
 6859SOL    HW121476   1.095   0.999   2.532
 6859SOL    HW221477   0.940   1.011   2.482
 6860SOL     OW21478   1.036   6.907   2.046
 6860SOL    HW121479   1.008   6.917   2.142
 6860SOL    HW221480   1.062   6.812   2.029
 6861SOL     OW21481   4.860   2.217   5.105
 6861SOL    HW121482   4.779   2.275   5.098
 6861SOL    HW221483   4.838   2.125   5.073
 6862SOL     OW21484   0.623   4.492   5.345
 6862SOL    HW121485   0.697   4.547   5.382
 6862SOL    HW221486   0.656   4.443   5.264
 6863SOL     OW21487   6.726   6.991   5.400
 6863SOL    HW121488   6.628   7.010   5.400
 6863SOL    HW221489   6.749   6.931   5.324
 6864SOL     OW21490   1.492   3.814   5.994
 6864SOL    HW121491   1.563   3.831   6.061
 6864SOL    HW221492   1.532   3.774   5.911
 6865SOL     OW21493   2.062   0.016   4.206
 6865SOL    HW121494   2.093   6.946   4.199
 6865SOL    HW221495   2.053   0.055   4.115
 6866SOL     OW21496   0.618   4.136   1.673
 6866SOL    HW121497   0.614   4.046   1.629
 6866SOL    HW221498   0.673   4.129   1.757
 6867SOL     OW21499   2.363   3.587   6.812
 6867SOL    HW121500   2.340   3.663   6.873
 6867SOL    HW221501   2.368   3.502   6.864
 6868SOL     OW21502   2.485   4.935   4.568
 6868SOL    HW121503   2.510   5.031   4.574
 6868SOL    HW221504   2.406   4.925   4.507
 6869SOL     OW21505   4.072   0.661   6.051
 6869SOL    HW121506   4.154   0.656   5.993
 6869SOL    HW221507   4.036   0.569   6.066
 6870SOL     OW21508   6.934   2.883   0.653
 6870SOL    HW121509   6.989   2.966   0.645
 6870SOL    HW221510   6.848   2.904   0.699
 6871SOL     OW21511   0.623   3.793   2.677
 6871SOL    HW121512   0.648   3.703   2.712
 6871SOL    HW221513   0.669   3.809   2.589
 6872SOL     OW21514   2.709   3.368   0.834
 6872SOL    HW121515   2.800   3.337   0.859
 6872SOL    HW221516   2.645   3.290   0.836
 6873SOL     OW21517   0.873   4.219   4.539
 6873SOL    HW121518   0.947   4.262   4.591
 6873SOL    HW221519   0.905   4.197   4.447
 6874SOL     OW21520   5.513   6.410   3.247
 6874SOL    HW121521   5.537   6.318   3.277
 6874SOL    HW221522   5.499   6.469   3.326
 6875SOL     OW21523   1.374   2.660   0.877
 6875SOL    HW121524   1.369   2.562   0.896
 6875SOL    HW221525   1.352   2.711   0.960
 6876SOL     OW21526   4.327   5.717   3.445
 6876SOL    HW121527   4.348   5.781   3.371
 6876SOL    HW221528   4.238   5.739   3.483
 6877SOL     OW21529   1.493   3.498   2.503
 6877SOL    HW121530   1.466   3.437   2.577
 6877SOL    HW221531   1.591   3.486   2.483
 6878SOL     OW21532   1.839   0.281   4.280
 6878SOL    HW121533   1.914   0.256   4.341
 6878SOL    HW221534   1.792   0.362   4.314
 6879SOL     OW21535   1.901   2.133   0.648
 6879SOL    HW121536   1.895   2.033   0.653
 6879SOL    HW221537   1.815   2.172   0.680
 6880SOL     OW21538   1.324   5.362   6.617
 6880SOL    HW121539   1.374   5.306   6.684
 6880SOL    HW221540   1.344   5.329   6.525
 6881SOL     OW21541   1.053   3.060   0.453
 6881SOL    HW121542   1.149   3.089   0.459
 6881SOL    HW221543   1.041   2.974   0.503
 6882SOL     OW21544   2.946   6.098   6.367
 6882SOL    HW121545   2.875   6.134   6.308
 6882SOL    HW221546   3.033   6.095   6.318
 6883SOL     OW21547   4.940   0.343   0.005
 6883SOL    HW121548   5.008   0.273   0.024
 6883SOL    HW221549   4.954   0.379   6.937
 6884SOL     OW21550   1.783   3.945   3.061
 6884SOL    HW121551   1.804   3.885   2.984
 6884SOL    HW221552   1.801   3.897   3.147
 6885SOL     OW21553   5.613   5.966   4.127
 6885SOL    HW121554   5.639   6.009   4.041
 6885SOL    HW221555   5.690   5.969   4.190
 6886SOL     OW21556   4.871   1.941   6.695
 6886SOL    HW121557   4.912   1.868   6.640
 6886SOL    HW221558   4.943   1.997   6.737
 6887SOL     OW21559   5.276   6.017   6.471
 6887SOL    HW121560   5.251   6.013   6.374
 6887SOL    HW221561   5.204   6.064   6.522
 6888SOL     OW21562   5.974   5.012   6.661
 6888SOL    HW121563   5.948   5.101   6.624
 6888SOL    HW221564   5.976   4.945   6.587
 6889SOL     OW21565   0.447   2.431   6.778
 6889SOL    HW121566   0.355   2.393   6.763
 6889SOL    HW221567   0.467   2.432   6.876
 6890SOL     OW21568   4.594   5.407   2.786
 6890SOL    HW121569   4.562   5.359   2.704
 6890SOL    HW221570   4.598   5.344   2.863
 6891SOL     OW21571   1.748   1.106   0.957
 6891SOL    HW121572   1.676   1.128   1.024
 6891SOL    HW221573   1.713   1.122   0.865
 6892SOL     OW21574   3.048   1.112   4.518
 6892SOL    HW121575   2.965   1.060   4.500
 6892SOL    HW221576   3.084   1.088   4.608
 6893SOL     OW21577   6.795   3.285   0.123
 6893SOL    HW121578   6.860   3.209   0.114
 6893SOL    HW221579   6.708   3.250   0.156
 6894SOL     OW21580   5.479   5.041   0.567
 6894SOL    HW121581   5.486   5.138   0.593
 6894SOL    HW221582   5.396   5.027   0.514
 6895SOL     OW21583   0.827   6.311   1.627
 6895SOL    HW121584   0.742   6.270   1.663
 6895SOL    HW221585   0.805   6.396   1.580
 6896SOL     OW21586   4.286   2.358   4.604
 6896SOL    HW121587   4.374   2.405   4.600
 6896SOL    HW221588   4.252   2.360   4.698
 6897SOL     OW21589   4.924   3.520   5.297
 6897SOL    HW121590   4.836   3.512   5.251
 6897SOL    HW221591   4.977   3.594   5.255
 6898SOL     OW21592   2.492   1.097   1.158
 6898SOL    HW121593   2.576   1.063   1.115
 6898SOL    HW221594   2.499   1.088   1.257
 6899SOL     OW21595   5.749   6.218   2.725
 6899SOL    HW121596   5.830   6.160   2.712
 6899SOL    HW221597   5.765   6.308   2.685
 6900SOL     OW21598   6.403   4.081   5.459
 6900SOL    HW121599   6.421   4.126   5.372
 6900SOL    HW221600   6.333   4.132   5.509
 6901SOL     OW21601   4.673   4.631   0.249
 6901SOL    HW121602   4.664   4.605   0.152
 6901SOL    HW221603   4.608   4.703   0.270
 6902SOL     OW21604   0.826   5.734   6.558
 6902SOL    HW121605   0.860   5.699   6.645
 6902SOL    HW221606   0.795   5.658   6.501
 6903SOL     OW21607   2.103   5.447   4.156
 6903SOL    HW121608   2.194   5.488   4.165
 6903SOL    HW221609   2.098   5.365   4.213
 6904SOL     OW21610   6.936   6.985   5.020
 6904SOL    HW121611   6.952   0.050   4.979
 6904SOL    HW221612   6.963   6.913   4.956
 6905SOL     OW21613   4.609   5.866   5.999
 6905SOL    HW121614   4.636   5.915   5.916
 6905SOL    HW221615   4.682   5.802   6.024
 6906SOL     OW21616   3.723   1.729   3.801
 6906SOL    HW121617   3.752   1.699   3.710
 6906SOL    HW221618   3.768   1.673   3.870
 6907SOL     OW21619   6.276   1.772   0.912
 6907SOL    HW121620   6.255   1.852   0.856
 6907SOL    HW221621   6.374   1.767   0.927
 6908SOL     OW21622   2.697   4.404   6.790
 6908SOL    HW121623   2.657   4.362   6.871
 6908SOL    HW221624   2.772   4.348   6.757
 6909SOL     OW21625   6.035   6.141   2.652
 6909SOL    HW121626   6.056   6.075   2.724
 6909SOL    HW221627   6.080   6.113   2.567
 6910SOL     OW21628   1.577   2.841   3.615
 6910SOL    HW121629   1.601   2.808   3.523
 6910SOL    HW221630   1.626   2.787   3.683
 6911SOL     OW21631   2.881   6.783   5.867
 6911SOL    HW121632   2.858   6.747   5.777
 6911SOL    HW221633   2.828   6.866   5.884
 6912SOL     OW21634   2.548   3.698   6.268
 6912SOL    HW121635   2.634   3.745   6.290
 6912SOL    HW221636   2.477   3.726   6.333
 6913SOL     OW21637   4.812   6.452   5.899
 6913SOL    HW121638   4.908   6.469   5.878
 6913SOL    HW221639   4.788   6.496   5.986
 6914SOL     OW21640   6.557   3.126   1.887
 6914SOL    HW121641   6.466   3.115   1.849
 6914SOL    HW221642   6.624   3.136   1.814
 6915SOL     OW21643   0.905   3.033   2.711
 6915SOL    HW121644   0.872   3.025   2.805
 6915SOL    HW221645   0.992   2.986   2.702
 6916SOL     OW21646   4.647   6.150   0.101
 6916SOL    HW121647   4.592   6.173   0.020
 6916SOL    HW221648   4.734   6.110   0.073
 6917SOL     OW21649   5.317   5.226   1.301
 6917SOL    HW121650   5.404   5.197   1.340
 6917SOL    HW221651   5.242   5.177   1.346
 6918SOL     OW21652   2.097   3.403   1.753
 6918SOL    HW121653   2.061   3.316   1.788
 6918SOL    HW221654   2.156   3.445   1.821
 6919SOL     OW21655   6.483   6.343   3.436
 6919SOL    HW121656   6.448   6.329   3.343
 6919SOL    HW221657   6.580   6.369   3.430
 6920SOL     OW21658   5.943   0.783   5.450
 6920SOL    HW121659   5.969   0.837   5.530
 6920SOL    HW221660   6.024   0.737   5.413
 6921SOL     OW21661   3.908   0.303   4.496
 6921SOL    HW121662   3.904   0.394   4.537
 6921SOL    HW221663   4.003   0.278   4.480
 6922SOL     OW21664   1.311   5.081   5.594
 6922SOL    HW121665   1.241   5.141   5.632
 6922SOL    HW221666   1.308   5.085   5.494
 6923SOL     OW21667   5.915   6.908   2.632
 6923SOL    HW121668   5.968   6.846   2.574
 6923SOL    HW221669   5.967   6.930   2.714
 6924SOL     OW21670   3.393   6.184   1.047
 6924SOL    HW121671   3.399   6.278   1.014
 6924SOL    HW221672   3.359   6.125   0.973
 6925SOL     OW21673   5.922   6.472   6.570
 6925SOL    HW121674   5.950   6.426   6.486
 6925SOL    HW221675   6.000   6.475   6.633
 6926SOL     OW21676   2.965   2.452   0.081
 6926SOL    HW121677   2.931   2.482   7.016
 6926SOL    HW221678   2.912   2.373   0.111
 6927SOL     OW21679   4.850   0.605   0.711
 6927SOL    HW121680   4.939   0.602   0.667
 6927SOL    HW221681   4.781   0.565   0.651
 6928SOL     OW21682   4.326   5.257   1.177
 6928SOL    HW121683   4.297   5.195   1.104
 6928SOL    HW221684   4.421   5.239   1.201
 6929SOL     OW21685   6.433   5.428   1.241
 6929SOL    HW121686   6.501   5.485   1.194
 6929SOL    HW221687   6.411   5.469   1.330
 6930SOL     OW21688   1.165   6.964   0.423
 6930SOL    HW121689   1.243   7.002   0.473
 6930SOL    HW221690   1.184   6.868   0.401
 6931SOL     OW21691   3.026   3.045   0.846
 6931SOL    HW121692   3.013   3.144   0.838
 6931SOL    HW221693   3.101   3.026   0.910
 6932SOL     OW21694   4.650   5.654   6.998
 6932SOL    HW121695   4.606   5.569   6.970
 6932SOL    HW221696   4.736   5.632   0.020
 6933SOL     OW21697   3.227   5.126   6.338
 6933SOL    HW121698   3.236   5.030   6.313
 6933SOL    HW221699   3.246   5.137   6.436
 6934SOL     OW21700   5.315   4.073   6.827
 6934SOL    HW121701   5.263   3.990   6.806
 6934SOL    HW221702   5.338   4.074   6.925
 6935SOL     OW21703   5.293   5.491   1.406
 6935SOL    HW121704   5.347   5.485   1.489
 6935SOL    HW221705   5.307   5.408   1.351
 6936SOL     OW21706   0.961   2.176   4.977
 6936SOL    HW121707   1.005   2.089   4.956
 6936SOL    HW221708   1.029   2.250   4.971
 6937SOL     OW21709   5.174   5.888   0.207
 6937SOL    HW121710   5.130   5.812   0.254
 6937SOL    HW221711   5.231   5.939   0.271
 6938SOL     OW21712   1.650   0.382   5.121
 6938SOL    HW121713   1.588   0.382   5.042
 6938SOL    HW221714   1.598   0.370   5.205
 6939SOL     OW21715   5.775   4.049   3.500
 6939SOL    HW121716   5.857   3.992   3.502
 6939SOL    HW221717   5.780   4.118   3.572
 6940SOL     OW21718   3.113   6.347   0.818
 6940SOL    HW121719   3.210   6.343   0.841
 6940SOL    HW221720   3.103   6.377   0.723
 6941SOL     OW21721   3.492   3.529   2.473
 6941SOL    HW121722   3.503   3.445   2.528
 6941SOL    HW221723   3.564   3.533   2.404
 6942SOL     OW21724   5.998   6.822   2.006
 6942SOL    HW121725   6.085   6.867   1.985
 6942SOL    HW221726   5.933   6.891   2.040
 6943SOL     OW21727   4.705   5.007   6.301
 6943SOL    HW121728   4.702   5.085   6.363
 6943SOL    HW221729   4.631   5.014   6.234
 6944SOL     OW21730   1.092   4.451   5.321
 6944SOL    HW121731   1.181   4.483   5.287
 6944SOL    HW221732   1.082   4.353   5.301
 6945SOL     OW21733   5.774   2.511   0.873
 6945SOL    HW121734   5.747   2.585   0.935
 6945SOL    HW221735   5.768   2.542   0.779
 6946SOL     OW21736   4.266   5.769   3.001
 6946SOL    HW121737   4.315   5.683   2.987
 6946SOL    HW221738   4.202   5.783   2.925
 6947SOL     OW21739   5.136   5.262   5.067
 6947SOL    HW121740   5.061   5.320   5.098
 6947SOL    HW221741   5.101   5.170   5.049
 6948SOL     OW21742   0.164   4.975   0.101
 6948SOL    HW121743   0.246   4.920   0.087
 6948SOL    HW221744   0.097   4.955   0.030
 6949SOL     OW21745   2.606   1.146   3.799
 6949SOL    HW121746   2.705   1.142   3.785
 6949SOL    HW221747   2.580   1.238   3.830
 6950SOL     OW21748   0.505   0.646   4.672
 6950SOL    HW121749   0.580   0.666   4.609
 6950SOL    HW221750   0.518   0.554   4.711
 6951SOL     OW21751   0.233   5.031   6.026
 6951SOL    HW121752   0.265   4.961   6.089
 6951SOL    HW221753   0.153   4.998   5.976
 6952SOL     OW21754   4.109   5.778   3.595
 6952SOL    HW121755   4.097   5.847   3.523
 6952SOL    HW221756   4.021   5.737   3.617
 6953SOL     OW21757   4.922   1.374   0.941
 6953SOL    HW121758   4.965   1.293   0.901
 6953SOL    HW221759   4.993   1.432   0.982
 6954SOL     OW21760   6.087   3.858   0.232
 6954SOL    HW121761   6.015   3.850   0.300
 6954SOL    HW221762   6.124   3.767   0.212
 6955SOL     OW21763   5.008   6.809   2.010
 6955SOL    HW121764   5.048   6.900   2.012
 6955SOL    HW221765   4.954   6.794   2.093
 6956SOL     OW21766   5.640   5.477   2.630
 6956SOL    HW121767   5.641   5.576   2.644
 6956SOL    HW221768   5.551   5.441   2.656
 6957SOL     OW21769   5.332   5.988   6.035
 6957SOL    HW121770   5.335   5.903   6.088
 6957SOL    HW221771   5.351   5.967   5.938
 6958SOL     OW21772   2.915   3.661   3.722
 6958SOL    HW121773   2.830   3.660   3.775
 6958SOL    HW221774   2.924   3.576   3.670
 6959SOL     OW21775   0.887   3.965   2.980
 6959SOL    HW121776   0.886   4.047   3.038
 6959SOL    HW221777   0.982   3.940   2.960
 6960SOL     OW21778   2.943   4.550   0.303
 6960SOL    HW121779   2.913   4.584   0.214
 6960SOL    HW221780   2.937   4.451   0.305
 6961SOL     OW21781   4.744   1.661   5.366
 6961SOL    HW121782   4.753   1.758   5.386
 6961SOL    HW221783   4.823   1.630   5.313
 6962SOL     OW21784   2.499   6.540   6.504
 6962SOL    HW121785   2.576   6.518   6.444
 6962SOL    HW221786   2.438   6.605   6.459
 6963SOL     OW21787   4.861   6.267   0.850
 6963SOL    HW121788   4.913   6.351   0.835
 6963SOL    HW221789   4.910   6.189   0.811
 6964SOL     OW21790   1.768   0.151   5.515
 6964SOL    HW121791   1.684   0.180   5.562
 6964SOL    HW221792   1.745   0.119   5.423
 6965SOL     OW21793   0.713   2.055   0.201
 6965SOL    HW121794   0.715   1.963   0.239
 6965SOL    HW221795   0.799   2.102   0.220
 6966SOL     OW21796   1.262   6.774   1.556
 6966SOL    HW121797   1.222   6.744   1.469
 6966SOL    HW221798   1.347   6.824   1.538
 6967SOL     OW21799   4.466   1.418   6.337
 6967SOL    HW121800   4.503   1.492   6.281
 6967SOL    HW221801   4.429   1.347   6.278
 6968SOL     OW21802   3.895   6.371   2.362
 6968SOL    HW121803   3.980   6.410   2.396
 6968SOL    HW221804   3.866   6.420   2.280
 6969SOL     OW21805   1.945   1.765   1.938
 6969SOL    HW121806   1.885   1.746   1.860
 6969SOL    HW221807   1.897   1.823   2.004
 6970SOL     OW21808   3.374   4.914   5.724
 6970SOL    HW121809   3.460   4.869   5.698
 6970SOL    HW221810   3.391   4.976   5.801
 6971SOL     OW21811   6.739   4.551   0.376
 6971SOL    HW121812   6.729   4.465   0.427
 6971SOL    HW221813   6.662   4.611   0.396
 6972SOL     OW21814   5.322   3.815   1.820
 6972SOL    HW121815   5.318   3.837   1.917
 6972SOL    HW221816   5.405   3.855   1.780
 6973SOL     OW21817   1.462   3.329   3.058
 6973SOL    HW121818   1.520   3.398   3.102
 6973SOL    HW221819   1.463   3.245   3.112
 6974SOL     OW21820   3.571   4.161   3.022
 6974SOL    HW121821   3.588   4.182   3.118
 6974SOL    HW221822   3.533   4.069   3.014
 6975SOL     OW21823   3.062   5.225   4.470
 6975SOL    HW121824   3.046   5.269   4.558
 6975SOL    HW221825   3.136   5.273   4.423
 6976SOL     OW21826   4.504   4.075   6.123
 6976SOL    HW121827   4.574   4.005   6.140
 6976SOL    HW221828   4.414   4.036   6.141
 6977SOL     OW21829   4.207   4.872   0.939
 6977SOL    HW121830   4.188   4.970   0.938
 6977SOL    HW221831   4.297   4.855   0.980
 6978SOL     OW21832   5.840   3.483   1.472
 6978SOL    HW121833   5.902   3.441   1.406
 6978SOL    HW221834   5.747   3.485   1.433
 6979SOL     OW21835   1.133   3.821   1.601
 6979SOL    HW121836   1.122   3.748   1.670
 6979SOL    HW221837   1.230   3.837   1.586
 6980SOL     OW21838   1.853   5.986   2.952
 6980SOL    HW121839   1.905   5.987   2.866
 6980SOL    HW221840   1.914   5.964   3.028
 6981SOL     OW21841   3.817   3.006   6.831
 6981SOL    HW121842   3.818   2.920   6.780
 6981SOL    HW221843   3.910   3.041   6.838
 6982SOL     OW21844   1.802   1.065   3.229
 6982SOL    HW121845   1.871   1.045   3.299
 6982SOL    HW221846   1.716   1.089   3.274
 6983SOL     OW21847   4.918   0.672   4.336
 6983SOL    HW121848   4.966   0.586   4.355
 6983SOL    HW221849   4.981   0.749   4.347
 6984SOL     OW21850   0.806   2.471   3.363
 6984SOL    HW121851   0.784   2.556   3.315
 6984SOL    HW221852   0.800   2.486   3.462
 6985SOL     OW21853   6.123   3.585   0.166
 6985SOL    HW121854   6.202   3.525   0.177
 6985SOL    HW221855   6.044   3.544   0.211
 6986SOL     OW21856   4.858   5.059   5.469
 6986SOL    HW121857   4.843   4.995   5.544
 6986SOL    HW221858   4.938   5.031   5.415
 6987SOL     OW21859   0.664   1.584   6.381
 6987SOL    HW121860   0.720   1.578   6.298
 6987SOL    HW221861   0.568   1.595   6.355
 6988SOL     OW21862   3.499   1.747   6.139
 6988SOL    HW121863   3.511   1.713   6.046
 6988SOL    HW221864   3.426   1.815   6.141
 6989SOL     OW21865   0.689   5.144   2.408
 6989SOL    HW121866   0.721   5.055   2.440
 6989SOL    HW221867   0.736   5.216   2.459
 6990SOL     OW21868   3.793   2.361   0.877
 6990SOL    HW121869   3.740   2.378   0.960
 6990SOL    HW221870   3.877   2.414   0.879
 6991SOL     OW21871   6.247   3.264   2.054
 6991SOL    HW121872   6.154   3.301   2.052
 6991SOL    HW221873   6.313   3.337   2.033
 6992SOL     OW21874   0.873   5.974   0.009
 6992SOL    HW121875   0.971   5.995   0.006
 6992SOL    HW221876   0.827   6.042   0.067
 6993SOL     OW21877   4.368   1.351   1.489
 6993SOL    HW121878   4.355   1.260   1.448
 6993SOL    HW221879   4.456   1.388   1.461
 6994SOL     OW21880   2.561   0.475   3.566
 6994SOL    HW121881   2.464   0.469   3.590
 6994SOL    HW221882   2.575   0.435   3.475
 6995SOL     OW21883   0.261   4.069   1.167
 6995SOL    HW121884   0.228   4.021   1.248
 6995SOL    HW221885   0.186   4.084   1.103
 6996SOL     OW21886   1.377   0.993   0.439
 6996SOL    HW121887   1.334   0.914   0.484
 6996SOL    HW221888   1.321   1.075   0.455
 6997SOL     OW21889   5.695   5.468   5.743
 6997SOL    HW121890   5.595   5.464   5.734
 6997SOL    HW221891   5.732   5.532   5.675
 6998SOL     OW21892   6.499   1.319   0.087
 6998SOL    HW121893   6.516   1.256   0.163
 6998SOL    HW221894   6.431   1.278   0.025
 6999SOL     OW21895   0.278   3.216   0.454
 6999SOL    HW121896   0.315   3.212   0.361
 6999SOL    HW221897   0.323   3.147   0.511
 7000SOL     OW21898   6.850   6.592   3.483
 7000SOL    HW121899   6.826   6.645   3.402
 7000SOL    HW221900   6.768   6.576   3.538
 7001SOL     OW21901   0.579   1.950   4.293
 7001SOL    HW121902   0.520   1.933   4.372
 7001SOL    HW221903   0.544   1.899   4.214
 7002SOL     OW21904   0.797   4.851   2.717
 7002SOL    HW121905   0.777   4.837   2.620
 7002SOL    HW221906   0.737   4.922   2.754
 7003SOL     OW21907   6.839   4.543   1.348
 7003SOL    HW121908   6.936   4.542   1.371
 7003SOL    HW221909   6.810   4.452   1.320
 7004SOL     OW21910   2.044   6.402   0.593
 7004SOL    HW121911   2.075   6.307   0.592
 7004SOL    HW221912   1.976   6.416   0.521
 7005SOL     OW21913   0.896   5.951   0.702
 7005SOL    HW121914   0.926   6.027   0.761
 7005SOL    HW221915   0.976   5.901   0.669
 7006SOL     OW21916   1.430   0.121   4.677
 7006SOL    HW121917   1.430   0.221   4.688
 7006SOL    HW221918   1.367   0.096   4.604
 7007SOL     OW21919   2.738   7.000   5.639
 7007SOL    HW121920   2.795   0.044   5.685
 7007SOL    HW221921   2.751   7.008   5.540
 7008SOL     OW21922   5.489   3.995   3.537
 7008SOL    HW121923   5.581   4.020   3.506
 7008SOL    HW221924   5.443   3.942   3.466
 7009SOL     OW21925   4.453   5.151   1.927
 7009SOL    HW121926   4.542   5.104   1.928
 7009SOL    HW221927   4.441   5.196   1.839
 7010SOL     OW21928   5.411   4.126   1.776
 7010SOL    HW121929   5.425   4.062   1.700
 7010SOL    HW221930   5.323   4.107   1.820
 7011SOL     OW21931   3.285   6.090   0.009
 7011SOL    HW121932   3.381   6.114   0.024
 7011SOL    HW221933   3.228   6.145   0.070
 7012SOL     OW21934   6.561   2.330   0.430
 7012SOL    HW121935   6.577   2.284   0.343
 7012SOL    HW221936   6.463   2.347   0.440
 7013SOL     OW21937   2.690   1.317   0.341
 7013SOL    HW121938   2.779   1.273   0.358
 7013SOL    HW221939   2.679   1.395   0.402
 7014SOL     OW21940   6.310   2.643   1.129
 7014SOL    HW121941   6.403   2.615   1.106
 7014SOL    HW221942   6.251   2.631   1.049
 7015SOL     OW21943   5.199   6.093   1.097
 7015SOL    HW121944   5.246   6.179   1.077
 7015SOL    HW221945   5.207   6.072   1.194
 7016SOL     OW21946   3.072   4.567   0.666
 7016SOL    HW121947   3.040   4.642   0.608
 7016SOL    HW221948   3.086   4.485   0.610
 7017SOL     OW21949   5.136   5.367   4.628
 7017SOL    HW121950   5.201   5.433   4.590
 7017SOL    HW221951   5.103   5.307   4.555
 7018SOL     OW21952   4.917   3.239   4.538
 7018SOL    HW121953   4.977   3.196   4.605
 7018SOL    HW221954   4.884   3.170   4.474
 7019SOL     OW21955   4.416   5.297   2.282
 7019SOL    HW121956   4.356   5.303   2.202
 7019SOL    HW221957   4.437   5.201   2.301
 7020SOL     OW21958   0.735   2.705   6.630
 7020SOL    HW121959   0.774   2.662   6.711
 7020SOL    HW221960   0.796   2.690   6.552
 7021SOL     OW21961   1.089   1.792   5.273
 7021SOL    HW121962   1.088   1.824   5.367
 7021SOL    HW221963   1.175   1.818   5.230
 7022SOL     OW21964   3.452   2.031   0.530
 7022SOL    HW121965   3.519   1.968   0.568
 7022SOL    HW221966   3.372   1.980   0.497
 7023SOL     OW21967   0.742   1.915   0.915
 7023SOL    HW121968   0.671   1.950   0.853
 7023SOL    HW221969   0.831   1.949   0.886
 7024SOL     OW21970   3.432   3.289   3.780
 7024SOL    HW121971   3.519   3.241   3.772
 7024SOL    HW221972   3.394   3.275   3.871
 7025SOL     OW21973   3.846   6.381   0.625
 7025SOL    HW121974   3.881   6.417   0.711
 7025SOL    HW221975   3.763   6.328   0.643
 7026SOL     OW21976   3.477   2.499   1.419
 7026SOL    HW121977   3.398   2.443   1.393
 7026SOL    HW221978   3.447   2.593   1.435
 7027SOL     OW21979   2.139   5.201   2.676
 7027SOL    HW121980   2.056   5.249   2.705
 7027SOL    HW221981   2.209   5.212   2.746
 7028SOL     OW21982   2.976   0.428   3.306
 7028SOL    HW121983   3.034   0.484   3.246
 7028SOL    HW221984   2.880   0.442   3.282
 7029SOL     OW21985   3.254   3.738   4.888
 7029SOL    HW121986   3.178   3.683   4.922
 7029SOL    HW221987   3.239   3.834   4.913
 7030SOL     OW21988   6.373   1.289   5.363
 7030SOL    HW121989   6.321   1.357   5.414
 7030SOL    HW221990   6.368   1.310   5.265
 7031SOL     OW21991   4.071   6.825   0.594
 7031SOL    HW121992   4.118   6.765   0.530
 7031SOL    HW221993   4.087   6.794   0.688
 7032SOL     OW21994   3.965   6.195   4.491
 7032SOL    HW121995   4.047   6.177   4.545
 7032SOL    HW221996   3.946   6.293   4.490
 7033SOL     OW21997   1.834   2.059   4.991
 7033SOL    HW121998   1.840   2.148   5.035
 7033SOL    HW221999   1.769   2.001   5.040
 7034SOL     OW22000   6.758   1.028   3.432
 7034SOL    HW122001   6.819   1.087   3.485
 7034SOL    HW222002   6.713   1.082   3.361
 7035SOL     OW22003   1.665   0.532   0.689
 7035SOL    HW122004   1.674   0.515   0.591
 7035SOL    HW222005   1.694   0.450   0.739
 7036SOL     OW22006   6.867   1.316   1.845
 7036SOL    HW122007   6.956   1.355   1.822
 7036SOL    HW222008   6.869   1.281   1.939
 7037SOL     OW22009   1.381   0.675   6.268
 7037SOL    HW122010   1.342   0.651   6.179
 7037SOL    HW222011   1.469   0.721   6.254
 7038SOL     OW22012   1.602   3.804   6.886
 7038SOL    HW122013   1.636   3.710   6.895
 7038SOL    HW222014   1.578   3.822   6.791
 7039SOL     OW22015   0.777   6.098   2.755
 7039SOL    HW122016   0.741   6.063   2.841
 7039SOL    HW222017   0.722   6.176   2.725
 7040SOL     OW22018   4.766   2.957   4.911
 7040SOL    HW122019   4.834   2.957   4.985
 7040SOL    HW222020   4.675   2.976   4.950
 7041SOL     OW22021   1.624   0.106   3.852
 7041SOL    HW122022   1.611   0.179   3.919
 7041SOL    HW222023   1.697   0.045   3.883
 7042SOL     OW22024   4.571   5.783   5.410
 7042SOL    HW122025   4.652   5.769   5.352
 7042SOL    HW222026   4.601   5.796   5.505
 7043SOL     OW22027   2.025   4.926   1.777
 7043SOL    HW122028   2.026   5.023   1.750
 7043SOL    HW222029   1.950   4.879   1.731
 7044SOL     OW22030   4.921   6.263   4.173
 7044SOL    HW122031   5.013   6.226   4.187
 7044SOL    HW222032   4.898   6.324   4.249
 7045SOL     OW22033   6.448   6.103   2.470
 7045SOL    HW122034   6.547   6.089   2.471
 7045SOL    HW222035   6.416   6.121   2.564
 7046SOL     OW22036   2.947   2.074   4.396
 7046SOL    HW122037   2.871   2.010   4.382
 7046SOL    HW222038   2.911   2.162   4.426
 7047SOL     OW22039   1.073   6.221   0.568
 7047SOL    HW122040   1.125   6.219   0.654
 7047SOL    HW222041   1.011   6.299   0.569
 7048SOL     OW22042   6.843   6.170   4.860
 7048SOL    HW122043   6.756   6.146   4.815
 7048SOL    HW222044   6.874   6.092   4.914
 7049SOL     OW22045   3.772   0.922   2.952
 7049SOL    HW122046   3.742   0.934   3.046
 7049SOL    HW222047   3.692   0.908   2.893
 7050SOL     OW22048   3.933   4.114   1.182
 7050SOL    HW122049   3.945   4.079   1.090
 7050SOL    HW222050   3.985   4.058   1.246
 7051SOL     OW22051   0.536   1.062   1.318
 7051SOL    HW122052   0.622   1.017   1.297
 7051SOL    HW222053   0.460   1.007   1.284
 7052SOL     OW22054   5.121   0.103   2.632
 7052SOL    HW122055   5.204   0.052   2.608
 7052SOL    HW222056   5.042   0.042   2.623
 7053SOL     OW22057   2.130   3.202   3.089
 7053SOL    HW122058   2.054   3.140   3.109
 7053SOL    HW222059   2.216   3.151   3.097
 7054SOL     OW22060   6.476   0.648   0.371
 7054SOL    HW122061   6.453   0.565   0.320
 7054SOL    HW222062   6.454   0.634   0.468
 7055SOL     OW22063   2.170   1.121   6.715
 7055SOL    HW122064   2.190   1.028   6.746
 7055SOL    HW222065   2.151   1.180   6.794
 7056SOL     OW22066   0.252   5.554   1.399
 7056SOL    HW122067   0.272   5.630   1.460
 7056SOL    HW222068   0.231   5.589   1.307
 7057SOL     OW22069   3.054   4.876   4.678
 7057SOL    HW122070   2.971   4.826   4.705
 7057SOL    HW222071   3.067   4.954   4.740
 7058SOL     OW22072   5.151   2.958   5.789
 7058SOL    HW122073   5.248   2.969   5.810
 7058SOL    HW222074   5.121   2.867   5.817
 7059SOL     OW22075   1.976   0.262   5.365
 7059SOL    HW122076   2.042   0.321   5.413
 7059SOL    HW222077   1.914   0.221   5.431
 7060SOL     OW22078   3.683   1.088   1.805
 7060SOL    HW122079   3.583   1.092   1.816
 7060SOL    HW222080   3.726   1.089   1.895
 7061SOL     OW22081   0.509   2.003   1.835
 7061SOL    HW122082   0.596   1.971   1.796
 7061SOL    HW222083   0.450   2.034   1.761
 7062SOL     OW22084   3.736   0.944   3.229
 7062SOL    HW122085   3.637   0.949   3.235
 7062SOL    HW222086   3.767   0.858   3.270
 7063SOL     OW22087   0.971   0.745   1.809
 7063SOL    HW122088   0.935   0.825   1.762
 7063SOL    HW222089   1.042   0.772   1.873
 7064SOL     OW22090   4.360   1.381   5.337
 7064SOL    HW122091   4.372   1.467   5.386
 7064SOL    HW222092   4.370   1.396   5.239
 7065SOL     OW22093   3.937   4.906   5.678
 7065SOL    HW122094   3.869   4.938   5.745
 7065SOL    HW222095   3.921   4.809   5.658
 7066SOL     OW22096   3.698   0.491   6.832
 7066SOL    HW122097   3.656   0.456   6.749
 7066SOL    HW222098   3.798   0.489   6.822
 7067SOL     OW22099   1.962   3.744   6.727
 7067SOL    HW122100   2.019   3.794   6.662
 7067SOL    HW222101   1.992   3.764   6.820
 7068SOL     OW22102   5.143   3.472   4.447
 7068SOL    HW122103   5.091   3.468   4.361
 7068SOL    HW222104   5.082   3.454   4.524
 7069SOL     OW22105   5.985   0.251   6.431
 7069SOL    HW122106   6.041   0.247   6.348
 7069SOL    HW222107   5.966   0.159   6.463
 7070SOL     OW22108   0.279   6.926   4.934
 7070SOL    HW122109   0.256   6.845   4.989
 7070SOL    HW222110   0.199   6.986   4.927
 7071SOL     OW22111   4.946   6.037   6.706
 7071SOL    HW122112   4.890   5.998   6.633
 7071SOL    HW222113   4.969   5.965   6.772
 7072SOL     OW22114   0.241   3.795   6.151
 7072SOL    HW122115   0.204   3.778   6.242
 7072SOL    HW222116   0.193   3.872   6.109
 7073SOL     OW22117   5.353   1.215   3.414
 7073SOL    HW122118   5.411   1.214   3.496
 7073SOL    HW222119   5.331   1.310   3.391
 7074SOL     OW22120   5.870   4.291   2.924
 7074SOL    HW122121   5.970   4.288   2.927
 7074SOL    HW222122   5.840   4.344   2.845
 7075SOL     OW22123   3.381   5.423   3.933
 7075SOL    HW122124   3.423   5.413   4.023
 7075SOL    HW222125   3.282   5.411   3.941
 7076SOL     OW22126   5.561   2.347   2.466
 7076SOL    HW122127   5.473   2.303   2.450
 7076SOL    HW222128   5.592   2.329   2.560
 7077SOL     OW22129   3.529   5.538   1.298
 7077SOL    HW122130   3.578   5.506   1.379
 7077SOL    HW222131   3.496   5.631   1.313
 7078SOL     OW22132   5.247   0.409   6.958
 7078SOL    HW122133   5.186   0.452   0.002
 7078SOL    HW222134   5.340   0.406   6.994
 7079SOL     OW22135   1.554   6.579   4.919
 7079SOL    HW122136   1.479   6.577   4.853
 7079SOL    HW222137   1.576   6.674   4.941
 7080SOL     OW22138   4.402   2.083   5.622
 7080SOL    HW122139   4.457   2.036   5.554
 7080SOL    HW222140   4.396   2.180   5.598
 7081SOL     OW22141   1.689   0.467   0.419
 7081SOL    HW122142   1.783   0.495   0.400
 7081SOL    HW222143   1.636   0.473   0.335
 7082SOL     OW22144   6.505   4.781   2.961
 7082SOL    HW122145   6.511   4.843   2.883
 7082SOL    HW222146   6.551   4.821   3.040
 7083SOL     OW22147   6.073   2.786   2.798
 7083SOL    HW122148   6.055   2.690   2.778
 7083SOL    HW222149   6.147   2.819   2.739
 7084SOL     OW22150   0.331   6.451   0.041
 7084SOL    HW122151   0.412   6.459   0.099
 7084SOL    HW222152   0.327   6.359   0.002
 7085SOL     OW22153   0.613   3.299   1.818
 7085SOL    HW122154   0.672   3.227   1.781
 7085SOL    HW222155   0.632   3.385   1.771
 7086SOL     OW22156   5.940   1.358   4.249
 7086SOL    HW122157   5.903   1.276   4.291
 7086SOL    HW222158   6.038   1.347   4.233
 7087SOL     OW22159   5.135   3.443   2.989
 7087SOL    HW122160   5.060   3.433   2.924
 7087SOL    HW222161   5.102   3.423   3.081
 7088SOL     OW22162   6.503   1.775   4.704
 7088SOL    HW122163   6.502   1.850   4.769
 7088SOL    HW222164   6.570   1.794   4.632
 7089SOL     OW22165   3.142   6.138   1.981
 7089SOL    HW122166   3.144   6.068   1.910
 7089SOL    HW222167   3.047   6.161   2.003
 7090SOL     OW22168   4.462   2.111   1.198
 7090SOL    HW122169   4.414   2.167   1.130
 7090SOL    HW222170   4.447   2.148   1.289
 7091SOL     OW22171   6.742   6.359   6.514
 7091SOL    HW122172   6.809   6.290   6.541
 7091SOL    HW222173   6.714   6.411   6.595
 7092SOL     OW22174   4.037   1.506   6.273
 7092SOL    HW122175   3.952   1.510   6.326
 7092SOL    HW222176   4.098   1.437   6.312
 7093SOL     OW22177   3.194   3.082   1.542
 7093SOL    HW122178   3.209   2.984   1.545
 7093SOL    HW222179   3.108   3.104   1.588
 7094SOL     OW22180   3.073   0.118   5.545
 7094SOL    HW122181   3.161   0.072   5.556
 7094SOL    HW222182   3.070   0.199   5.603
 7095SOL     OW22183   2.467   4.534   4.858
 7095SOL    HW122184   2.475   4.588   4.774
 7095SOL    HW222185   2.512   4.446   4.846
 7096SOL     OW22186   0.316   0.913   1.252
 7096SOL    HW122187   0.246   0.920   1.180
 7096SOL    HW222188   0.283   0.852   1.324
 7097SOL     OW22189   4.118   0.935   1.722
 7097SOL    HW122190   4.169   0.891   1.796
 7097SOL    HW222191   4.121   0.877   1.640
 7098SOL     OW22192   1.401   6.595   4.126
 7098SOL    HW122193   1.493   6.576   4.093
 7098SOL    HW222194   1.346   6.632   4.051
 7099SOL     OW22195   2.605   2.384   3.760
 7099SOL    HW122196   2.665   2.354   3.834
 7099SOL    HW222197   2.535   2.314   3.744
 7100SOL     OW22198   5.789   4.076   1.397
 7100SOL    HW122199   5.828   4.068   1.489
 7100SOL    HW222200   5.843   4.022   1.333
 7101SOL     OW22201   2.669   6.057   5.690
 7101SOL    HW122202   2.751   6.013   5.653
 7101SOL    HW222203   2.616   5.991   5.743
 7102SOL     OW22204   5.321   0.693   1.821
 7102SOL    HW122205   5.252   0.708   1.749
 7102SOL    HW222206   5.345   0.781   1.862
 7103SOL     OW22207   4.857   3.783   3.054
 7103SOL    HW122208   4.854   3.790   3.153
 7103SOL    HW222209   4.811   3.862   3.014
 7104SOL     OW22210   5.180   3.818   3.248
 7104SOL    HW122211   5.200   3.784   3.156
 7104SOL    HW222212   5.258   3.799   3.308
 7105SOL     OW22213   3.298   4.156   3.647
 7105SOL    HW122214   3.310   4.143   3.549
 7105SOL    HW222215   3.261   4.247   3.664
 7106SOL     OW22216   3.191   2.385   0.959
 7106SOL    HW122217   3.277   2.433   0.939
 7106SOL    HW222218   3.146   2.428   1.038
 7107SOL     OW22219   3.477   0.664   6.180
 7107SOL    HW122220   3.415   0.585   6.179
 7107SOL    HW222221   3.455   0.725   6.105
 7108SOL     OW22222   4.727   0.760   1.847
 7108SOL    HW122223   4.825   0.756   1.868
 7108SOL    HW222224   4.686   0.670   1.862
 7109SOL     OW22225   2.718   5.590   6.538
 7109SOL    HW122226   2.701   5.523   6.611
 7109SOL    HW222227   2.709   5.682   6.575
 7110SOL     OW22228   3.227   6.392   4.337
 7110SOL    HW122229   3.312   6.406   4.286
 7110SOL    HW222230   3.221   6.296   4.365
 7111SOL     OW22231   6.735   0.489   4.975
 7111SOL    HW122232   6.703   0.455   5.064
 7111SOL    HW222233   6.790   0.419   4.931
 7112SOL     OW22234   1.347   4.925   5.032
 7112SOL    HW122235   1.389   5.005   5.076
 7112SOL    HW222236   1.404   4.845   5.047
 7113SOL     OW22237   3.724   6.257   5.501
 7113SOL    HW122238   3.796   6.217   5.558
 7113SOL    HW222239   3.762   6.284   5.413
 7114SOL     OW22240   5.238   4.744   0.457
 7114SOL    HW122241   5.302   4.698   0.395
 7114SOL    HW222242   5.222   4.686   0.537
 7115SOL     OW22243   6.249   3.631   6.491
 7115SOL    HW122244   6.270   3.590   6.580
 7115SOL    HW222245   6.296   3.719   6.482
 7116SOL     OW22246   6.265   3.866   4.253
 7116SOL    HW122247   6.177   3.841   4.294
 7116SOL    HW222248   6.297   3.791   4.196
 7117SOL     OW22249   6.028   0.063   3.069
 7117SOL    HW122250   5.966   0.114   3.009
 7117SOL    HW222251   6.119   0.103   3.065
 7118SOL     OW22252   4.332   4.282   5.388
 7118SOL    HW122253   4.251   4.334   5.361
 7118SOL    HW222254   4.354   4.300   5.483
 7119SOL     OW22255   3.611   6.707   4.929
 7119SOL    HW122256   3.596   6.731   5.025
 7119SOL    HW222257   3.696   6.751   4.898
 7120SOL     OW22258   4.885   0.489   0.232
 7120SOL    HW122259   4.844   0.436   0.306
 7120SOL    HW222260   4.886   0.433   0.149
 7121SOL     OW22261   1.798   5.907   2.537
 7121SOL    HW122262   1.752   5.850   2.606
 7121SOL    HW222263   1.741   5.913   2.456
 7122SOL     OW22264   2.880   1.196   6.787
 7122SOL    HW122265   2.965   1.159   6.825
 7122SOL    HW222266   2.902   1.268   6.721
 7123SOL     OW22267   5.246   5.393   5.925
 7123SOL    HW122268   5.220   5.418   6.018
 7123SOL    HW222269   5.164   5.370   5.872
 7124SOL     OW22270   1.373   2.171   1.801
 7124SOL    HW122271   1.372   2.120   1.887
 7124SOL    HW222272   1.326   2.259   1.814
 7125SOL     OW22273   0.722   6.540   1.500
 7125SOL    HW122274   0.710   6.627   1.549
 7125SOL    HW222275   0.634   6.512   1.461
 7126SOL     OW22276   3.059   5.285   0.970
 7126SOL    HW122277   3.120   5.338   1.028
 7126SOL    HW222278   3.067   5.188   0.993
 7127SOL     OW22279   2.576   6.758   5.549
 7127SOL    HW122280   2.592   6.845   5.595
 7127SOL    HW222281   2.499   6.768   5.485
 7128SOL     OW22282   4.287   3.925   6.205
 7128SOL    HW122283   4.205   3.877   6.236
 7128SOL    HW222284   4.367   3.891   6.256
 7129SOL     OW22285   0.537   7.006   0.725
 7129SOL    HW122286   0.571   0.017   0.812
 7129SOL    HW222287   0.604   6.942   0.687
 7130SOL     OW22288   3.370   6.549   3.919
 7130SOL    HW122289   3.391   6.514   4.010
 7130SOL    HW222290   3.429   6.627   3.898
 7131SOL     OW22291   3.454   1.374   2.771
 7131SOL    HW122292   3.359   1.406   2.772
 7131SOL    HW222293   3.502   1.408   2.852
 7132SOL     OW22294   5.345   4.660   0.697
 7132SOL    HW122295   5.357   4.571   0.741
 7132SOL    HW222296   5.435   4.702   0.683
 7133SOL     OW22297   5.182   5.593   2.841
 7133SOL    HW122298   5.149   5.516   2.788
 7133SOL    HW222299   5.154   5.679   2.797
 7134SOL     OW22300   5.456   5.150   0.900
 7134SOL    HW122301   5.433   5.052   0.904
 7134SOL    HW222302   5.554   5.162   0.919
 7135SOL     OW22303   1.528   2.414   0.986
 7135SOL    HW122304   1.625   2.435   0.971
 7135SOL    HW222305   1.505   2.430   1.082
 7136SOL     OW22306   1.972   1.827   1.617
 7136SOL    HW122307   2.051   1.768   1.630
 7136SOL    HW222308   1.900   1.800   1.680
 7137SOL     OW22309   3.037   2.078   1.425
 7137SOL    HW122310   3.010   1.982   1.430
 7137SOL    HW222311   3.134   2.087   1.446
 7138SOL     OW22312   1.059   2.789   0.590
 7138SOL    HW122313   0.978   2.828   0.634
 7138SOL    HW222314   1.061   2.691   0.605
 7139SOL     OW22315   6.293   6.189   0.798
 7139SOL    HW122316   6.364   6.232   0.742
 7139SOL    HW222317   6.227   6.143   0.738
 7140SOL     OW22318   6.488   3.612   0.128
 7140SOL    HW122319   6.513   3.600   0.032
 7140SOL    HW222320   6.429   3.537   0.156
 7141SOL     OW22321   3.497   0.546   0.977
 7141SOL    HW122322   3.472   0.642   0.959
 7141SOL    HW222323   3.594   0.533   0.956
 7142SOL     OW22324   3.235   0.181   4.738
 7142SOL    HW122325   3.314   0.159   4.795
 7142SOL    HW222326   3.230   0.279   4.723
 7143SOL     OW22327   3.069   4.397   6.671
 7143SOL    HW122328   3.070   4.380   6.770
 7143SOL    HW222329   3.146   4.349   6.629
 7144SOL     OW22330   6.644   0.612   5.792
 7144SOL    HW122331   6.655   0.600   5.693
 7144SOL    HW222332   6.710   0.555   5.840
 7145SOL     OW22333   5.300   2.396   6.591
 7145SOL    HW122334   5.367   2.404   6.517
 7145SOL    HW222335   5.231   2.329   6.566
 7146SOL     OW22336   1.758   2.299   5.121
 7146SOL    HW122337   1.669   2.344   5.118
 7146SOL    HW222338   1.777   2.268   5.214
 7147SOL     OW22339   6.296   6.712   1.982
 7147SOL    HW122340   6.321   6.717   2.079
 7147SOL    HW222341   6.292   6.805   1.944
 7148SOL     OW22342   6.191   0.071   1.004
 7148SOL    HW122343   6.221   7.008   0.966
 7148SOL    HW222344   6.166   0.059   1.100
 7149SOL     OW22345   5.940   4.965   5.756
 7149SOL    HW122346   6.033   4.989   5.729
 7149SOL    HW222347   5.914   4.878   5.715
 7150SOL     OW22348   3.505   3.077   6.891
 7150SOL    HW122349   3.492   3.175   6.904
 7150SOL    HW222350   3.545   3.060   6.801
 7151SOL     OW22351   3.128   1.103   1.080
 7151SOL    HW122352   3.077   1.163   1.141
 7151SOL    HW222353   3.184   1.159   1.018
 7152SOL     OW22354   6.411   1.323   6.177
 7152SOL    HW122355   6.388   1.333   6.273
 7152SOL    HW222356   6.467   1.401   6.147
 7153SOL     OW22357   3.646   5.556   0.793
 7153SOL    HW122358   3.708   5.479   0.803
 7153SOL    HW222359   3.600   5.574   0.880
 7154SOL     OW22360   4.091   2.183   1.716
 7154SOL    HW122361   4.116   2.175   1.812
 7154SOL    HW222362   4.005   2.234   1.708
 7155SOL     OW22363   1.976   1.057   2.036
 7155SOL    HW122364   1.946   0.986   2.099
 7155SOL    HW222365   2.014   1.014   1.954
 7156SOL     OW22366   5.861   3.293   6.220
 7156SOL    HW122367   5.846   3.337   6.308
 7156SOL    HW222368   5.825   3.352   6.147
 7157SOL     OW22369   6.645   4.245   6.029
 7157SOL    HW122370   6.597   4.176   5.974
 7157SOL    HW222371   6.609   4.243   6.123
 7158SOL     OW22372   4.227   6.932   4.042
 7158SOL    HW122373   4.246   6.959   4.136
 7158SOL    HW222374   4.286   6.983   3.979
 7159SOL     OW22375   0.949   6.302   3.251
 7159SOL    HW122376   0.897   6.342   3.176
 7159SOL    HW222377   0.993   6.375   3.304
 7160SOL     OW22378   6.891   6.997   3.674
 7160SOL    HW122379   6.861   0.054   3.723
 7160SOL    HW222380   6.970   7.019   3.617
 7161SOL     OW22381   3.790   3.168   3.022
 7161SOL    HW122382   3.749   3.128   3.104
 7161SOL    HW222383   3.889   3.154   3.024
 7162SOL     OW22384   0.203   5.495   1.931
 7162SOL    HW122385   0.104   5.496   1.919
 7162SOL    HW222386   0.227   5.426   2.000
 7163SOL     OW22387   6.520   1.771   1.538
 7163SOL    HW122388   6.454   1.826   1.590
 7163SOL    HW222389   6.587   1.732   1.602
 7164SOL     OW22390   2.021   1.241   6.510
 7164SOL    HW122391   2.074   1.206   6.588
 7164SOL    HW222392   2.008   1.340   6.521
 7165SOL     OW22393   5.624   1.231   0.743
 7165SOL    HW122394   5.679   1.313   0.727
 7165SOL    HW222395   5.670   1.151   0.702
 7166SOL     OW22396   6.416   5.841   6.302
 7166SOL    HW122397   6.407   5.893   6.217
 7166SOL    HW222398   6.366   5.755   6.294
 7167SOL     OW22399   5.880   2.723   4.851
 7167SOL    HW122400   5.949   2.712   4.779
 7167SOL    HW222401   5.923   2.710   4.940
 7168SOL     OW22402   2.733   1.170   1.771
 7168SOL    HW122403   2.713   1.102   1.700
 7168SOL    HW222404   2.826   1.157   1.804
 7169SOL     OW22405   1.844   3.883   6.455
 7169SOL    HW122406   1.936   3.898   6.490
 7169SOL    HW222407   1.834   3.787   6.427
 7170SOL     OW22408   3.717   1.041   0.548
 7170SOL    HW122409   3.731   1.002   0.639
 7170SOL    HW222410   3.800   1.029   0.494
 7171SOL     OW22411   6.934   4.499   0.910
 7171SOL    HW122412   6.861   4.557   0.946
 7171SOL    HW222413   6.896   4.410   0.882
 7172SOL     OW22414   1.389   1.973   4.100
 7172SOL    HW122415   1.412   1.890   4.151
 7172SOL    HW222416   1.432   2.052   4.143
 7173SOL     OW22417   4.758   5.588   5.945
 7173SOL    HW122418   4.713   5.563   5.859
 7173SOL    HW222419   4.751   5.513   6.010
 7174SOL     OW22420   6.361   4.480   2.103
 7174SOL    HW122421   6.369   4.521   2.012
 7174SOL    HW222422   6.425   4.525   2.166
 7175SOL     OW22423   6.323   3.279   6.073
 7175SOL    HW122424   6.307   3.251   6.168
 7175SOL    HW222425   6.245   3.332   6.041
 7176SOL     OW22426   0.931   0.540   5.203
 7176SOL    HW122427   1.018   0.538   5.153
 7176SOL    HW222428   0.864   0.486   5.153
 7177SOL     OW22429   1.251   5.640   3.151
 7177SOL    HW122430   1.234   5.680   3.241
 7177SOL    HW222431   1.179   5.669   3.088
 7178SOL     OW22432   2.232   0.095   5.162
 7178SOL    HW122433   2.303   0.165   5.155
 7178SOL    HW222434   2.271   0.006   5.140
 7179SOL     OW22435   3.249   5.357   6.184
 7179SOL    HW122436   3.160   5.391   6.152
 7179SOL    HW222437   3.235   5.278   6.243
 7180SOL     OW22438   1.808   3.483   0.980
 7180SOL    HW122439   1.782   3.539   1.058
 7180SOL    HW222440   1.741   3.409   0.969
 7181SOL     OW22441   2.466   1.648   5.913
 7181SOL    HW122442   2.525   1.710   5.861
 7181SOL    HW222443   2.463   1.559   5.867
 7182SOL     OW22444   1.857   1.925   4.505
 7182SOL    HW122445   1.797   1.943   4.582
 7182SOL    HW222446   1.924   1.999   4.497
 7183SOL     OW22447   0.577   6.817   1.716
 7183SOL    HW122448   0.485   6.793   1.748
 7183SOL    HW222449   0.639   6.740   1.731
 7184SOL     OW22450   6.441   0.350   4.006
 7184SOL    HW122451   6.353   0.321   4.043
 7184SOL    HW222452   6.483   0.273   3.957
 7185SOL     OW22453   4.357   1.041   4.647
 7185SOL    HW122454   4.350   1.140   4.658
 7185SOL    HW222455   4.279   0.997   4.692
 7186SOL     OW22456   0.226   0.399   6.461
 7186SOL    HW122457   0.139   0.376   6.417
 7186SOL    HW222458   0.223   0.370   6.557
 7187SOL     OW22459   3.082   3.108   4.147
 7187SOL    HW122460   3.136   3.043   4.201
 7187SOL    HW222461   3.131   3.131   4.064
 7188SOL     OW22462   4.275   4.661   0.371
 7188SOL    HW122463   4.231   4.615   0.294
 7188SOL    HW222464   4.374   4.653   0.364
 7189SOL     OW22465   6.736   2.476   5.889
 7189SOL    HW122466   6.725   2.508   5.795
 7189SOL    HW222467   6.829   2.494   5.920
 7190SOL     OW22468   5.645   5.168   1.290
 7190SOL    HW122469   5.672   5.169   1.386
 7190SOL    HW222470   5.621   5.074   1.264
 7191SOL     OW22471   0.146   5.016   4.393
 7191SOL    HW122472   0.140   4.962   4.309
 7191SOL    HW222473   0.201   5.098   4.375
 7192SOL     OW22474   2.457   4.700   6.465
 7192SOL    HW122475   2.384   4.713   6.398
 7192SOL    HW222476   2.469   4.784   6.518
 7193SOL     OW22477   2.804   2.198   2.950
 7193SOL    HW122478   2.899   2.193   2.919
 7193SOL    HW222479   2.743   2.175   2.874
 7194SOL     OW22480   3.312   2.772   5.830
 7194SOL    HW122481   3.261   2.839   5.776
 7194SOL    HW222482   3.337   2.695   5.771
 7195SOL     OW22483   0.643   4.622   4.920
 7195SOL    HW122484   0.563   4.631   4.861
 7195SOL    HW222485   0.616   4.585   5.008
 7196SOL     OW22486   3.313   3.981   1.934
 7196SOL    HW122487   3.387   4.042   1.906
 7196SOL    HW222488   3.258   3.957   1.854
 7197SOL     OW22489   2.975   4.223   6.042
 7197SOL    HW122490   2.947   4.269   5.958
 7197SOL    HW222491   2.964   4.124   6.033
 7198SOL     OW22492   0.686   0.622   1.939
 7198SOL    HW122493   0.624   0.578   2.004
 7198SOL    HW222494   0.633   0.667   1.867
 7199SOL     OW22495   6.902   0.961   2.211
 7199SOL    HW122496   6.846   0.959   2.294
 7199SOL    HW222497   6.968   1.037   2.218
 7200SOL     OW22498   1.222   2.383   0.756
 7200SOL    HW122499   1.145   2.432   0.715
 7200SOL    HW222500   1.262   2.322   0.688
 7201SOL     OW22501   5.529   5.399   3.899
 7201SOL    HW122502   5.535   5.497   3.883
 7201SOL    HW222503   5.435   5.368   3.882
 7202SOL     OW22504   4.812   0.931   5.714
 7202SOL    HW122505   4.791   0.908   5.809
 7202SOL    HW222506   4.789   1.027   5.698
 7203SOL     OW22507   0.208   1.370   1.307
 7203SOL    HW122508   0.116   1.334   1.321
 7203SOL    HW222509   0.221   1.450   1.366
 7204SOL     OW22510   5.955   0.204   1.939
 7204SOL    HW122511   5.988   0.266   1.867
 7204SOL    HW222512   6.030   0.145   1.968
 7205SOL     OW22513   2.776   1.989   3.974
 7205SOL    HW122514   2.708   2.063   3.973
 7205SOL    HW222515   2.866   2.026   3.951
 7206SOL     OW22516   2.118   3.659   0.661
 7206SOL    HW122517   2.146   3.674   0.756
 7206SOL    HW222518   2.187   3.696   0.599
 7207SOL     OW22519   1.890   1.283   3.922
 7207SOL    HW122520   1.984   1.257   3.943
 7207SOL    HW222521   1.828   1.212   3.954
 7208SOL     OW22522   2.898   0.396   4.622
 7208SOL    HW122523   2.809   0.367   4.586
 7208SOL    HW222524   2.971   0.359   4.564
 7209SOL     OW22525   3.353   1.860   2.282
 7209SOL    HW122526   3.268   1.913   2.286
 7209SOL    HW222527   3.418   1.905   2.221
 7210SOL     OW22528   2.575   1.571   3.111
 7210SOL    HW122529   2.552   1.494   3.052
 7210SOL    HW222530   2.554   1.548   3.206
 7211SOL     OW22531   4.159   5.763   4.864
 7211SOL    HW122532   4.237   5.747   4.925
 7211SOL    HW222533   4.103   5.838   4.900
 7212SOL     OW22534   6.803   4.191   5.799
 7212SOL    HW122535   6.764   4.269   5.848
 7212SOL    HW222536   6.762   4.107   5.833
 7213SOL     OW22537   3.461   1.888   7.011
 7213SOL    HW122538   3.550   1.903   0.031
 7213SOL    HW222539   3.476   1.850   6.920
 7214SOL     OW22540   6.961   0.642   6.174
 7214SOL    HW122541   6.924   0.626   6.266
 7214SOL    HW222542   6.916   0.722   6.134
 7215SOL     OW22543   6.705   2.311   2.802
 7215SOL    HW122544   6.688   2.299   2.704
 7215SOL    HW222545   6.627   2.356   2.844
 7216SOL     OW22546   3.219   6.726   2.959
 7216SOL    HW122547   3.224   6.782   3.042
 7216SOL    HW222548   3.182   6.636   2.981
 7217SOL     OW22549   1.657   2.750   3.384
 7217SOL    HW122550   1.649   2.651   3.379
 7217SOL    HW222551   1.753   2.777   3.380
 7218SOL     OW22552   6.330   4.122   4.392
 7218SOL    HW122553   6.334   4.030   4.354
 7218SOL    HW222554   6.246   4.167   4.362
 7219SOL     OW22555   3.408   5.748   2.602
 7219SOL    HW122556   3.325   5.725   2.550
 7219SOL    HW222557   3.455   5.824   2.558
 7220SOL     OW22558   6.035   4.705   4.715
 7220SOL    HW122559   6.017   4.803   4.703
 7220SOL    HW222560   5.955   4.661   4.755
 7221SOL     OW22561   3.523   5.365   4.223
 7221SOL    HW122562   3.568   5.319   4.146
 7221SOL    HW222563   3.590   5.378   4.297
 7222SOL     OW22564   0.424   5.833   4.464
 7222SOL    HW122565   0.433   5.868   4.558
 7222SOL    HW222566   0.328   5.811   4.446
 7223SOL     OW22567   0.062   3.673   1.963
 7223SOL    HW122568   0.094   3.686   1.869
 7223SOL    HW222569   0.137   3.640   2.019
 7224SOL     OW22570   3.991   1.474   3.329
 7224SOL    HW122571   3.987   1.568   3.295
 7224SOL    HW222572   4.071   1.463   3.389
 7225SOL     OW22573   1.604   6.061   0.782
 7225SOL    HW122574   1.515   6.066   0.826
 7225SOL    HW222575   1.594   6.026   0.689
 7226SOL     OW22576   5.848   6.163   0.696
 7226SOL    HW122577   5.863   6.112   0.781
 7226SOL    HW222578   5.936   6.175   0.649
 7227SOL     OW22579   2.492   0.871   1.853
 7227SOL    HW122580   2.436   0.951   1.878
 7227SOL    HW222581   2.435   0.805   1.803
 7228SOL     OW22582   6.922   3.159   2.516
 7228SOL    HW122583   6.898   3.062   2.509
 7228SOL    HW222584   6.864   3.213   2.455
 7229SOL     OW22585   6.688   0.878   5.160
 7229SOL    HW122586   6.600   0.834   5.178
 7229SOL    HW222587   6.749   0.813   5.114
 7230SOL     OW22588   2.011   4.672   4.283
 7230SOL    HW122589   2.068   4.602   4.327
 7230SOL    HW222590   1.966   4.727   4.353
 7231SOL     OW22591   4.713   1.273   6.356
 7231SOL    HW122592   4.658   1.356   6.363
 7231SOL    HW222593   4.762   1.258   6.441
 7232SOL     OW22594   5.232   6.883   3.125
 7232SOL    HW122595   5.187   6.819   3.064
 7232SOL    HW222596   5.286   6.833   3.193
 7233SOL     OW22597   6.708   1.323   4.686
 7233SOL    HW122598   6.747   1.241   4.728
 7233SOL    HW222599   6.747   1.335   4.594
 7234SOL     OW22600   5.333   4.089   2.676
 7234SOL    HW122601   5.255   4.127   2.725
 7234SOL    HW222602   5.306   4.003   2.632
 7235SOL     OW22603   0.014   5.966   1.480
 7235SOL    HW122604   7.022   5.880   1.528
 7235SOL    HW222605   7.002   5.960   1.387
 7236SOL     OW22606   1.784   2.669   2.781
 7236SOL    HW122607   1.812   2.575   2.799
 7236SOL    HW222608   1.760   2.714   2.867
 7237SOL     OW22609   5.444   0.936   0.209
 7237SOL    HW122610   5.388   0.908   0.287
 7237SOL    HW222611   5.512   0.865   0.191
 7238SOL     OW22612   3.888   3.223   0.597
 7238SOL    HW122613   3.910   3.142   0.651
 7238SOL    HW222614   3.969   3.280   0.586
 7239SOL     OW22615   0.033   2.609   2.715
 7239SOL    HW122616   0.097   2.685   2.706
 7239SOL    HW222617   6.992   2.612   2.639
 7240SOL     OW22618   7.009   2.188   6.285
 7240SOL    HW122619   6.986   2.286   6.287
 7240SOL    HW222620   6.930   2.136   6.252
 7241SOL     OW22621   2.721   1.418   1.789
 7241SOL    HW122622   2.720   1.325   1.754
 7241SOL    HW222623   2.813   1.441   1.820
 7242SOL     OW22624   6.448   5.485   4.745
 7242SOL    HW122625   6.504   5.528   4.674
 7242SOL    HW222626   6.366   5.446   4.704
 7243SOL     OW22627   6.090   4.275   6.635
 7243SOL    HW122628   5.993   4.253   6.624
 7243SOL    HW222629   6.112   4.358   6.583
 7244SOL     OW22630   0.067   6.590   6.699
 7244SOL    HW122631   0.160   6.562   6.675
 7244SOL    HW222632   0.071   6.660   6.770
 7245SOL     OW22633   1.048   3.388   0.088
 7245SOL    HW122634   1.020   3.394   7.016
 7245SOL    HW222635   1.054   3.480   0.126
 7246SOL     OW22636   3.502   6.780   3.905
 7246SOL    HW122637   3.515   6.876   3.930
 7246SOL    HW222638   3.578   6.725   3.941
 7247SOL     OW22639   3.210   3.267   5.850
 7247SOL    HW122640   3.170   3.359   5.858
 7247SOL    HW222641   3.276   3.266   5.774
 7248SOL     OW22642   3.149   0.726   4.822
 7248SOL    HW122643   3.243   0.711   4.793
 7248SOL    HW222644   3.139   0.701   4.918
 7249SOL     OW22645   3.976   5.270   1.901
 7249SOL    HW122646   3.963   5.369   1.911
 7249SOL    HW222647   3.908   5.222   1.958
 7250SOL     OW22648   5.063   5.712   5.434
 7250SOL    HW122649   5.028   5.766   5.510
 7250SOL    HW222650   4.988   5.691   5.371
 7251SOL     OW22651   0.024   5.728   5.617
 7251SOL    HW122652   6.957   5.767   5.601
 7251SOL    HW222653   0.042   5.658   5.549
 7252SOL     OW22654   3.451   4.085   2.278
 7252SOL    HW122655   3.467   3.990   2.305
 7252SOL    HW222656   3.441   4.090   2.179
 7253SOL     OW22657   1.548   5.848   5.393
 7253SOL    HW122658   1.578   5.905   5.317
 7253SOL    HW222659   1.500   5.906   5.460
 7254SOL     OW22660   5.176   4.111   3.875
 7254SOL    HW122661   5.207   4.188   3.930
 7254SOL    HW222662   5.211   4.026   3.913
 7255SOL     OW22663   5.382   3.431   6.355
 7255SOL    HW122664   5.317   3.482   6.299
 7255SOL    HW222665   5.460   3.490   6.377
 7256SOL     OW22666   3.665   6.699   5.744
 7256SOL    HW122667   3.677   6.737   5.836
 7256SOL    HW222668   3.610   6.616   5.750
 7257SOL     OW22669   0.842   1.470   4.597
 7257SOL    HW122670   0.775   1.545   4.607
 7257SOL    HW222671   0.932   1.502   4.626
 7258SOL     OW22672   6.124   1.734   3.382
 7258SOL    HW122673   6.151   1.674   3.307
 7258SOL    HW222674   6.086   1.679   3.456
 7259SOL     OW22675   1.042   4.679   3.184
 7259SOL    HW122676   1.010   4.774   3.185
 7259SOL    HW222677   0.973   4.619   3.224
 7260SOL     OW22678   5.643   3.389   1.012
 7260SOL    HW122679   5.554   3.412   0.972
 7260SOL    HW222680   5.690   3.473   1.038
 7261SOL     OW22681   6.935   4.275   6.852
 7261SOL    HW122682   6.998   4.208   6.812
 7261SOL    HW222683   6.862   4.295   6.786
 7262SOL     OW22684   6.511   2.148   5.761
 7262SOL    HW122685   6.432   2.184   5.811
 7262SOL    HW222686   6.491   2.055   5.729
 7263SOL     OW22687   0.652   5.344   0.091
 7263SOL    HW122688   0.630   5.438   0.117
 7263SOL    HW222689   0.631   5.282   0.167
 7264SOL     OW22690   5.788   1.417   1.000
 7264SOL    HW122691   5.770   1.501   1.050
 7264SOL    HW222692   5.789   1.436   0.902
 7265SOL     OW22693   4.133   5.537   5.325
 7265SOL    HW122694   4.148   5.540   5.226
 7265SOL    HW222695   4.220   5.553   5.372
 7266SOL     OW22696   0.374   0.594   3.757
 7266SOL    HW122697   0.391   0.590   3.658
 7266SOL    HW222698   0.359   0.690   3.784
 7267SOL     OW22699   6.291   5.699   4.439
 7267SOL    HW122700   6.255   5.606   4.442
 7267SOL    HW222701   6.310   5.724   4.344
 7268SOL     OW22702   6.336   6.400   3.648
 7268SOL    HW122703   6.266   6.459   3.607
 7268SOL    HW222704   6.403   6.375   3.578
 7269SOL     OW22705   2.285   5.098   5.316
 7269SOL    HW122706   2.345   5.153   5.375
 7269SOL    HW222707   2.341   5.045   5.253
 7270SOL     OW22708   0.454   1.686   3.870
 7270SOL    HW122709   0.484   1.767   3.820
 7270SOL    HW222710   0.372   1.648   3.826
 7271SOL     OW22711   0.783   4.224   3.789
 7271SOL    HW122712   0.752   4.316   3.813
 7271SOL    HW222713   0.800   4.172   3.873
 7272SOL     OW22714   6.210   5.547   2.970
 7272SOL    HW122715   6.203   5.611   2.894
 7272SOL    HW222716   6.288   5.570   3.027
 7273SOL     OW22717   0.313   2.828   5.425
 7273SOL    HW122718   0.408   2.804   5.443
 7273SOL    HW222719   0.271   2.862   5.509
 7274SOL     OW22720   0.619   4.514   6.906
 7274SOL    HW122721   0.674   4.579   6.853
 7274SOL    HW222722   0.526   4.549   6.914
 7275SOL     OW22723   6.442   6.998   3.386
 7275SOL    HW122724   6.414   6.903   3.390
 7275SOL    HW222725   6.400   0.019   3.308
 7276SOL     OW22726   4.537   6.896   3.620
 7276SOL    HW122727   4.635   6.876   3.624
 7276SOL    HW222728   4.511   6.908   3.524
 7277SOL     OW22729   4.645   0.201   5.773
 7277SOL    HW122730   4.703   0.283   5.772
 7277SOL    HW222731   4.569   0.215   5.837
 7278SOL     OW22732   3.250   3.655   2.506
 7278SOL    HW122733   3.347   3.634   2.492
 7278SOL    HW222734   3.194   3.594   2.450
 7279SOL     OW22735   3.799   5.661   6.856
 7279SOL    HW122736   3.872   5.606   6.816
 7279SOL    HW222737   3.715   5.607   6.859
 7280SOL     OW22738   4.423   0.305   5.895
 7280SOL    HW122739   4.444   0.388   5.947
 7280SOL    HW222740   4.327   0.307   5.867
 7281SOL     OW22741   4.429   1.396   6.621
 7281SOL    HW122742   4.436   1.441   6.531
 7281SOL    HW222743   4.483   1.447   6.688
 7282SOL     OW22744   6.043   5.166   1.993
 7282SOL    HW122745   5.946   5.163   1.970
 7282SOL    HW222746   6.072   5.077   2.029
 7283SOL     OW22747   2.591   0.761   3.574
 7283SOL    HW122748   2.596   0.665   3.548
 7283SOL    HW222749   2.512   0.804   3.531
 7284SOL     OW22750   6.878   3.853   5.349
 7284SOL    HW122751   6.967   3.896   5.331
 7284SOL    HW222752   6.810   3.924   5.365
 7285SOL     OW22753   5.355   5.776   2.249
 7285SOL    HW122754   5.396   5.697   2.205
 7285SOL    HW222755   5.418   5.813   2.318
 7286SOL     OW22756   2.737   2.992   1.045
 7286SOL    HW122757   2.815   3.052   1.062
 7286SOL    HW222758   2.769   2.897   1.035
 7287SOL     OW22759   6.521   0.911   6.614
 7287SOL    HW122760   6.477   0.993   6.650
 7287SOL    HW222761   6.462   0.868   6.546
 7288SOL     OW22762   3.946   0.187   6.285
 7288SOL    HW122763   4.017   0.234   6.232
 7288SOL    HW222764   3.891   0.254   6.334
 7289SOL     OW22765   5.426   1.985   3.068
 7289SOL    HW122766   5.329   2.008   3.068
 7289SOL    HW222767   5.437   1.887   3.080
 7290SOL     OW22768   2.321   5.235   4.837
 7290SOL    HW122769   2.272   5.152   4.864
 7290SOL    HW222770   2.387   5.213   4.765
 7291SOL     OW22771   2.236   6.260   1.479
 7291SOL    HW122772   2.303   6.321   1.521
 7291SOL    HW222773   2.152   6.310   1.460
 7292SOL     OW22774   2.588   6.742   3.601
 7292SOL    HW122775   2.601   6.717   3.697
 7292SOL    HW222776   2.618   6.836   3.587
 7293SOL     OW22777   1.935   1.814   4.777
 7293SOL    HW122778   2.008   1.826   4.710
 7293SOL    HW222779   1.975   1.807   4.869
 7294SOL     OW22780   2.742   4.869   0.267
 7294SOL    HW122781   2.801   4.937   0.311
 7294SOL    HW222782   2.655   4.864   0.315
 7295SOL     OW22783   0.253   1.582   0.750
 7295SOL    HW122784   0.190   1.570   0.827
 7295SOL    HW222785   0.205   1.565   0.664
 7296SOL     OW22786   2.778   4.773   0.666
 7296SOL    HW122787   2.820   4.746   0.753
 7296SOL    HW222788   2.830   4.850   0.627
 7297SOL     OW22789   4.674   6.386   0.672
 7297SOL    HW122790   4.634   6.468   0.713
 7297SOL    HW222791   4.752   6.356   0.727
 7298SOL     OW22792   5.681   3.921   4.492
 7298SOL    HW122793   5.664   4.020   4.491
 7298SOL    HW222794   5.766   3.903   4.541
 7299SOL     OW22795   6.474   3.051   0.665
 7299SOL    HW122796   6.470   3.010   0.574
 7299SOL    HW222797   6.469   3.150   0.657
 7300SOL     OW22798   5.225   5.497   0.916
 7300SOL    HW122799   5.220   5.530   1.010
 7300SOL    HW222800   5.236   5.397   0.916
 7301SOL     OW22801   6.826   6.750   5.728
 7301SOL    HW122802   6.762   6.708   5.663
 7301SOL    HW222803   6.845   6.686   5.802
 7302SOL     OW22804   6.953   0.850   6.993
 7302SOL    HW122805   6.855   0.832   6.995
 7302SOL    HW222806   6.990   0.841   0.062
 7303SOL     OW22807   3.517   0.666   6.925
 7303SOL    HW122808   3.427   0.654   6.884
 7303SOL    HW222809   3.584   0.610   6.877
 7304SOL     OW22810   3.940   3.722   5.876
 7304SOL    HW122811   3.998   3.691   5.800
 7304SOL    HW222812   3.961   3.668   5.957
 7305SOL     OW22813   5.144   1.688   0.032
 7305SOL    HW122814   5.183   1.751   0.099
 7305SOL    HW222815   5.091   1.617   0.078
 7306SOL     OW22816   4.895   4.297   1.447
 7306SOL    HW122817   4.832   4.221   1.461
 7306SOL    HW222818   4.849   4.370   1.396
 7307SOL     OW22819   3.425   6.544   1.807
 7307SOL    HW122820   3.402   6.456   1.848
 7307SOL    HW222821   3.369   6.558   1.725
 7308SOL     OW22822   6.606   3.507   4.182
 7308SOL    HW122823   6.626   3.600   4.154
 7308SOL    HW222824   6.645   3.491   4.273
 7309SOL     OW22825   5.030   6.626   0.568
 7309SOL    HW122826   5.073   6.548   0.521
 7309SOL    HW222827   5.052   6.623   0.665
 7310SOL     OW22828   2.659   5.597   1.232
 7310SOL    HW122829   2.732   5.544   1.189
 7310SOL    HW222830   2.685   5.619   1.326
 7311SOL     OW22831   2.894   2.151   1.825
 7311SOL    HW122832   2.833   2.084   1.867
 7311SOL    HW222833   2.909   2.227   1.888
 7312SOL     OW22834   0.035   2.320   5.761
 7312SOL    HW122835   0.071   2.413   5.760
 7312SOL    HW222836   0.074   2.268   5.685
 7313SOL     OW22837   4.247   2.191   6.424
 7313SOL    HW122838   4.198   2.278   6.422
 7313SOL    HW222839   4.306   2.184   6.344
 7314SOL     OW22840   0.085   3.622   5.011
 7314SOL    HW122841   0.146   3.627   5.090
 7314SOL    HW222842   7.015   3.641   5.041
 7315SOL     OW22843   6.807   0.220   4.023
 7315SOL    HW122844   6.838   0.246   3.931
 7315SOL    HW222845   6.742   0.288   4.056
 7316SOL     OW22846   3.789   3.550   5.555
 7316SOL    HW122847   3.789   3.451   5.567
 7316SOL    HW222848   3.854   3.575   5.483
 7317SOL     OW22849   3.479   0.985   3.109
 7317SOL    HW122850   3.404   0.966   3.171
 7317SOL    HW222851   3.453   1.060   3.047
 7318SOL     OW22852   1.138   2.181   1.588
 7318SOL    HW122853   1.161   2.094   1.633
 7318SOL    HW222854   1.214   2.209   1.530
 7319SOL     OW22855   5.933   4.862   6.434
 7319SOL    HW122856   5.907   4.766   6.427
 7319SOL    HW222857   6.027   4.873   6.403
 7320SOL     OW22858   0.617   3.358   2.286
 7320SOL    HW122859   0.555   3.409   2.226
 7320SOL    HW222860   0.700   3.411   2.301
 7321SOL     OW22861   2.217   1.482   4.353
 7321SOL    HW122862   2.181   1.396   4.388
 7321SOL    HW222863   2.233   1.545   4.429
 7322SOL     OW22864   0.748   3.802   3.149
 7322SOL    HW122865   0.738   3.874   3.218
 7322SOL    HW222866   0.803   3.837   3.074
 7323SOL     OW22867   1.883   2.122   3.345
 7323SOL    HW122868   1.898   2.213   3.308
 7323SOL    HW222869   1.911   2.119   3.441
 7324SOL     OW22870   5.756   1.005   3.613
 7324SOL    HW122871   5.723   0.964   3.529
 7324SOL    HW222872   5.686   1.067   3.650
 7325SOL     OW22873   3.619   6.601   6.020
 7325SOL    HW122874   3.533   6.569   5.980
 7325SOL    HW222875   3.615   6.591   6.120
 7326SOL     OW22876   2.868   6.349   5.703
 7326SOL    HW122877   2.785   6.405   5.706
 7326SOL    HW222878   2.909   6.346   5.793
 7327SOL     OW22879   1.137   2.792   6.182
 7327SOL    HW122880   1.219   2.736   6.167
 7327SOL    HW222881   1.159   2.866   6.245
 7328SOL     OW22882   3.212   6.838   6.433
 7328SOL    HW122883   3.214   6.738   6.430
 7328SOL    HW222884   3.135   6.868   6.489
 7329SOL     OW22885   4.361   3.465   0.654
 7329SOL    HW122886   4.461   3.461   0.648
 7329SOL    HW222887   4.335   3.530   0.725
 7330SOL     OW22888   3.374   1.516   6.523
 7330SOL    HW122889   3.376   1.492   6.426
 7330SOL    HW222890   3.297   1.578   6.540
 7331SOL     OW22891   4.903   0.626   2.576
 7331SOL    HW122892   4.871   0.630   2.670
 7331SOL    HW222893   4.915   0.719   2.541
 7332SOL     OW22894   2.715   5.979   0.108
 7332SOL    HW122895   2.743   5.902   0.051
 7332SOL    HW222896   2.674   5.944   0.193
 7333SOL     OW22897   0.782   4.555   2.805
 7333SOL    HW122898   0.731   4.483   2.852
 7333SOL    HW222899   0.724   4.635   2.794
 7334SOL     OW22900   3.887   6.142   5.144
 7334SOL    HW122901   3.841   6.063   5.184
 7334SOL    HW222902   3.932   6.194   5.217
 7335SOL     OW22903   1.946   2.449   2.869
 7335SOL    HW122904   1.928   2.357   2.905
 7335SOL    HW222905   2.006   2.442   2.789
 7336SOL     OW22906   1.391   5.817   4.158
 7336SOL    HW122907   1.441   5.827   4.072
 7336SOL    HW222908   1.438   5.749   4.216
 7337SOL     OW22909   0.692   2.862   2.614
 7337SOL    HW122910   0.723   2.804   2.539
 7337SOL    HW222911   0.764   2.926   2.639
 7338SOL     OW22912   6.839   2.493   1.599
 7338SOL    HW122913   6.902   2.480   1.676
 7338SOL    HW222914   6.890   2.519   1.517
 7339SOL     OW22915   6.640   6.084   4.244
 7339SOL    HW122916   6.594   6.041   4.166
 7339SOL    HW222917   6.577   6.148   4.288
 7340SOL     OW22918   2.407   0.230   0.077
 7340SOL    HW122919   2.394   0.165   0.002
 7340SOL    HW222920   2.327   0.289   0.084
 7341SOL     OW22921   6.217   2.164   0.224
 7341SOL    HW122922   6.196   2.080   0.274
 7341SOL    HW222923   6.132   2.214   0.207
 7342SOL     OW22924   0.127   6.417   2.823
 7342SOL    HW122925   0.109   6.374   2.911
 7342SOL    HW222926   0.042   6.426   2.772
 7343SOL     OW22927   5.382   3.500   0.676
 7343SOL    HW122928   5.331   3.421   0.642
 7343SOL    HW222929   5.360   3.516   0.772
 7344SOL     OW22930   1.229   5.890   6.256
 7344SOL    HW122931   1.251   5.918   6.163
 7344SOL    HW222932   1.201   5.969   6.310
 7345SOL     OW22933   3.693   3.722   5.937
 7345SOL    HW122934   3.786   3.742   5.906
 7345SOL    HW222935   3.642   3.677   5.863
 7346SOL     OW22936   3.850   5.540   2.924
 7346SOL    HW122937   3.839   5.637   2.944
 7346SOL    HW222938   3.920   5.527   2.854
 7347SOL     OW22939   6.381   2.199   0.007
 7347SOL    HW122940   6.416   2.112   6.997
 7347SOL    HW222941   6.332   2.185   0.093
 7348SOL     OW22942   1.679   4.323   2.546
 7348SOL    HW122943   1.667   4.225   2.533
 7348SOL    HW222944   1.749   4.340   2.615
 7349SOL     OW22945   3.777   0.977   0.852
 7349SOL    HW122946   3.790   0.889   0.895
 7349SOL    HW222947   3.682   1.007   0.864
 7350SOL     OW22948   2.801   0.438   5.698
 7350SOL    HW122949   2.824   0.535   5.697
 7350SOL    HW222950   2.754   0.414   5.613
 7351SOL     OW22951   4.227   5.079   4.099
 7351SOL    HW122952   4.140   5.120   4.073
 7351SOL    HW222953   4.289   5.079   4.021
 7352SOL     OW22954   0.209   2.824   3.260
 7352SOL    HW122955   0.199   2.861   3.352
 7352SOL    HW222956   0.185   2.727   3.260
 7353SOL     OW22957   6.356   0.801   6.931
 7353SOL    HW122958   6.269   0.816   6.978
 7353SOL    HW222959   6.347   0.727   6.864
 7354SOL     OW22960   1.354   1.702   2.950
 7354SOL    HW122961   1.438   1.726   2.900
 7354SOL    HW222962   1.351   1.603   2.963
 7355SOL     OW22963   0.259   2.176   6.316
 7355SOL    HW122964   0.162   2.161   6.296
 7355SOL    HW222965   0.272   2.270   6.348
 7356SOL     OW22966   4.181   3.543   6.237
 7356SOL    HW122967   4.209   3.456   6.197
 7356SOL    HW222968   4.130   3.596   6.170
 7357SOL     OW22969   5.230   5.980   1.856
 7357SOL    HW122970   5.255   5.921   1.779
 7357SOL    HW222971   5.300   5.971   1.928
 7358SOL     OW22972   5.877   1.882   2.983
 7358SOL    HW122973   5.966   1.926   2.986
 7358SOL    HW222974   5.889   1.783   2.985
 7359SOL     OW22975   4.496   0.202   6.610
 7359SOL    HW122976   4.558   0.152   6.671
 7359SOL    HW222977   4.432   0.256   6.666
 7360SOL     OW22978   2.693   3.353   5.505
 7360SOL    HW122979   2.746   3.275   5.537
 7360SOL    HW222980   2.617   3.321   5.448
 7361SOL     OW22981   4.932   0.449   2.200
 7361SOL    HW122982   4.966   0.539   2.227
 7361SOL    HW222983   4.996   0.379   2.230
 7362SOL     OW22984   3.421   5.186   6.540
 7362SOL    HW122985   3.516   5.186   6.571
 7362SOL    HW222986   3.375   5.103   6.572
 7363SOL     OW22987   3.832   0.514   1.060
 7363SOL    HW122988   3.833   0.458   1.143
 7363SOL    HW222989   3.806   0.608   1.084
 7364SOL     OW22990   4.783   0.099   1.817
 7364SOL    HW122991   4.767   0.124   1.913
 7364SOL    HW222992   4.782   7.024   1.808
 7365SOL     OW22993   5.956   4.647   2.479
 7365SOL    HW122994   5.959   4.583   2.402
 7365SOL    HW222995   5.890   4.719   2.460
 7366SOL     OW22996   2.786   1.375   3.906
 7366SOL    HW122997   2.699   1.374   3.956
 7366SOL    HW222998   2.788   1.453   3.844
 7367SOL     OW22999   4.726   1.000   6.442
 7367SOL    HW123000   4.642   0.946   6.437
 7367SOL    HW223001   4.729   1.065   6.366
 7368SOL     OW23002   4.036   3.704   2.970
 7368SOL    HW123003   4.017   3.700   3.068
 7368SOL    HW223004   3.949   3.707   2.920
 7369SOL     OW23005   5.396   2.591   0.656
 7369SOL    HW123006   5.422   2.688   0.661
 7369SOL    HW223007   5.358   2.571   0.565
 7370SOL     OW23008   2.313   1.619   4.603
 7370SOL    HW123009   2.247   1.694   4.610
 7370SOL    HW223010   2.286   1.546   4.666
 7371SOL     OW23011   3.899   0.294   3.744
 7371SOL    HW123012   3.916   0.267   3.650
 7371SOL    HW223013   3.985   0.299   3.794
 7372SOL     OW23014   4.484   6.916   4.469
 7372SOL    HW123015   4.391   6.916   4.505
 7372SOL    HW223016   4.543   6.863   4.530
 7373SOL     OW23017   4.997   2.777   4.556
 7373SOL    HW123018   4.918   2.802   4.500
 7373SOL    HW223019   5.001   2.836   4.636
 7374SOL     OW23020   0.476   1.639   5.248
 7374SOL    HW123021   0.438   1.705   5.183
 7374SOL    HW223022   0.402   1.603   5.305
 7375SOL     OW23023   2.093   3.382   2.228
 7375SOL    HW123024   2.008   3.336   2.203
 7375SOL    HW223025   2.151   3.391   2.146
 7376SOL     OW23026   0.124   4.243   0.515
 7376SOL    HW123027   0.202   4.181   0.511
 7376SOL    HW223028   0.139   4.312   0.584
 7377SOL     OW23029   2.988   5.734   0.269
 7377SOL    HW123030   2.953   5.819   0.308
 7377SOL    HW223031   2.979   5.736   0.170
 7378SOL     OW23032   1.594   6.113   3.752
 7378SOL    HW123033   1.632   6.090   3.662
 7378SOL    HW223034   1.653   6.180   3.797
 7379SOL     OW23035   4.074   0.650   0.783
 7379SOL    HW123036   4.122   0.582   0.838
 7379SOL    HW223037   4.105   0.742   0.809
 7380SOL     OW23038   5.611   3.647   3.489
 7380SOL    HW123039   5.699   3.616   3.526
 7380SOL    HW223040   5.560   3.696   3.559
 7381SOL     OW23041   3.695   0.983   0.082
 7381SOL    HW123042   3.627   0.976   0.155
 7381SOL    HW223043   3.695   1.076   0.045
 7382SOL     OW23044   6.917   1.307   6.297
 7382SOL    HW123045   6.834   1.292   6.244
 7382SOL    HW223046   6.895   1.359   6.380
 7383SOL     OW23047   1.943   6.291   1.445
 7383SOL    HW123048   1.859   6.323   1.488
 7383SOL    HW223049   1.921   6.233   1.366
 7384SOL     OW23050   0.045   6.857   1.007
 7384SOL    HW123051   0.051   6.837   1.105
 7384SOL    HW223052   7.006   6.934   0.993
 7385SOL     OW23053   4.661   4.778   2.507
 7385SOL    HW123054   4.702   4.867   2.526
 7385SOL    HW223055   4.733   4.709   2.501
 7386SOL     OW23056   6.270   3.418   0.628
 7386SOL    HW123057   6.366   3.413   0.598
 7386SOL    HW223058   6.265   3.399   0.726
 7387SOL     OW23059   6.598   5.106   5.417
 7387SOL    HW123060   6.569   5.131   5.509
 7387SOL    HW223061   6.526   5.053   5.372
 7388SOL     OW23062   1.789   6.379   2.269
 7388SOL    HW123063   1.693   6.395   2.245
 7388SOL    HW223064   1.842   6.463   2.254
 7389SOL     OW23065   6.131   2.922   0.410
 7389SOL    HW123066   6.159   2.979   0.333
 7389SOL    HW223067   6.210   2.871   0.445
 7390SOL     OW23068   2.672   1.628   2.430
 7390SOL    HW123069   2.674   1.681   2.345
 7390SOL    HW223070   2.747   1.658   2.489
 7391SOL     OW23071   3.630   3.386   3.024
 7391SOL    HW123072   3.640   3.461   2.960
 7391SOL    HW223073   3.667   3.302   2.984
 7392SOL     OW23074   3.356   5.449   6.574
 7392SOL    HW123075   3.358   5.475   6.671
 7392SOL    HW223076   3.372   5.350   6.566
 7393SOL     OW23077   5.693   5.601   4.469
 7393SOL    HW123078   5.686   5.592   4.569
 7393SOL    HW223079   5.620   5.661   4.436
 7394SOL     OW23080   2.630   2.253   5.919
 7394SOL    HW123081   2.664   2.321   5.855
 7394SOL    HW223082   2.606   2.297   6.005
 7395SOL     OW23083   2.944   4.777   0.909
 7395SOL    HW123084   2.951   4.755   1.006
 7395SOL    HW223085   3.031   4.758   0.864
 7396SOL     OW23086   2.293   5.212   1.838
 7396SOL    HW123087   2.392   5.198   1.841
 7396SOL    HW223088   2.250   5.163   1.914
 7397SOL     OW23089   5.400   4.454   3.915
 7397SOL    HW123090   5.464   4.530   3.901
 7397SOL    HW223091   5.450   4.375   3.952
 7398SOL     OW23092   1.940   4.352   2.690
 7398SOL    HW123093   2.037   4.328   2.696
 7398SOL    HW223094   1.921   4.391   2.600
 7399SOL     OW23095   5.127   2.059   4.934
 7399SOL    HW123096   5.059   1.992   4.963
 7399SOL    HW223097   5.082   2.144   4.910
 7400SOL     OW23098   5.080   3.219   5.553
 7400SOL    HW123099   5.127   3.133   5.531
 7400SOL    HW223100   5.095   3.240   5.650
 7401SOL     OW23101   0.819   2.866   3.685
 7401SOL    HW123102   0.723   2.866   3.714
 7401SOL    HW223103   0.823   2.863   3.585
 7402SOL     OW23104   3.310   6.223   5.256
 7402SOL    HW123105   3.330   6.128   5.235
 7402SOL    HW223106   3.289   6.232   5.354
 7403SOL     OW23107   1.489   3.117   4.845
 7403SOL    HW123108   1.477   3.155   4.753
 7403SOL    HW223109   1.450   3.180   4.912
 7404SOL     OW23110   3.101   4.030   0.853
 7404SOL    HW123111   3.126   3.964   0.924
 7404SOL    HW223112   3.075   4.117   0.896
 7405SOL     OW23113   3.476   5.980   5.014
 7405SOL    HW123114   3.410   5.949   5.082
 7405SOL    HW223115   3.476   6.080   5.010
 7406SOL     OW23116   0.754   1.385   5.012
 7406SOL    HW123117   0.729   1.481   5.023
 7406SOL    HW223118   0.849   1.379   4.982
 7407SOL     OW23119   1.054   6.155   5.472
 7407SOL    HW123120   1.071   6.251   5.494
 7407SOL    HW223121   1.069   6.100   5.554
 7408SOL     OW23122   3.647   4.112   5.135
 7408SOL    HW123123   3.551   4.132   5.156
 7408SOL    HW223124   3.703   4.193   5.155
 7409SOL     OW23125   6.162   4.192   0.478
 7409SOL    HW123126   6.240   4.134   0.457
 7409SOL    HW223127   6.193   4.278   0.519
 7410SOL     OW23128   7.005   0.264   1.309
 7410SOL    HW123129   6.975   0.342   1.255
 7410SOL    HW223130   6.953   0.261   1.394
 7411SOL     OW23131   1.455   2.054   5.069
 7411SOL    HW123132   1.487   2.116   4.997
 7411SOL    HW223133   1.532   2.003   5.106
 7412SOL     OW23134   4.197   6.322   7.023
 7412SOL    HW123135   4.279   6.327   0.056
 7412SOL    HW223136   4.161   6.415   7.009
 7413SOL     OW23137   4.172   6.726   2.912
 7413SOL    HW123138   4.153   6.667   2.990
 7413SOL    HW223139   4.086   6.746   2.864
 7414SOL     OW23140   2.458   2.010   3.799
 7414SOL    HW123141   2.476   2.065   3.880
 7414SOL    HW223142   2.393   2.056   3.739
 7415SOL     OW23143   4.077   6.113   6.165
 7415SOL    HW123144   4.171   6.138   6.142
 7415SOL    HW223145   4.029   6.193   6.200
 7416SOL     OW23146   1.205   1.627   2.353
 7416SOL    HW123147   1.287   1.584   2.391
 7416SOL    HW223148   1.123   1.583   2.392
 7417SOL     OW23149   0.545   1.762   3.505
 7417SOL    HW123150   0.593   1.788   3.421
 7417SOL    HW223151   0.487   1.683   3.487
 7418SOL     OW23152   2.096   4.141   6.226
 7418SOL    HW123153   2.021   4.077   6.206
 7418SOL    HW223154   2.180   4.090   6.245
 7419SOL     OW23155   6.653   3.833   4.127
 7419SOL    HW123156   6.685   3.927   4.140
 7419SOL    HW223157   6.731   3.774   4.103
 7420SOL     OW23158   6.250   6.954   1.896
 7420SOL    HW123159   6.237   0.013   1.950
 7420SOL    HW223160   6.210   6.966   1.806
 7421SOL     OW23161   4.746   4.070   1.509
 7421SOL    HW123162   4.677   4.062   1.436
 7421SOL    HW223163   4.701   4.058   1.597
 7422SOL     OW23164   5.556   2.660   2.028
 7422SOL    HW123165   5.492   2.731   1.999
 7422SOL    HW223166   5.530   2.626   2.118
 7423SOL     OW23167   5.914   1.936   6.010
 7423SOL    HW123168   5.849   1.958   5.938
 7423SOL    HW223169   5.869   1.942   6.099
 7424SOL     OW23170   0.877   1.621   4.135
 7424SOL    HW123171   0.808   1.622   4.207
 7424SOL    HW223172   0.836   1.592   4.049
 7425SOL     OW23173   6.048   1.065   0.163
 7425SOL    HW123174   6.032   1.163   0.174
 7425SOL    HW223175   5.978   1.014   0.213
 7426SOL     OW23176   3.445   3.105   5.960
 7426SOL    HW123177   3.352   3.134   5.938
 7426SOL    HW223178   3.484   3.166   6.029
 7427SOL     OW23179   3.481   1.547   4.095
 7427SOL    HW123180   3.388   1.584   4.098
 7427SOL    HW223181   3.478   1.449   4.116
 7428SOL     OW23182   4.127   5.724   5.608
 7428SOL    HW123183   4.190   5.668   5.554
 7428SOL    HW223184   4.140   5.820   5.584
 7429SOL     OW23185   1.890   0.238   2.643
 7429SOL    HW123186   1.809   0.181   2.657
 7429SOL    HW223187   1.940   0.206   2.562
 7430SOL     OW23188   6.584   5.184   2.552
 7430SOL    HW123189   6.534   5.100   2.531
 7430SOL    HW223190   6.545   5.227   2.633
 7431SOL     OW23191   1.356   2.021   4.529
 7431SOL    HW123192   1.279   1.957   4.532
 7431SOL    HW223193   1.408   2.007   4.445
 7432SOL     OW23194   1.790   0.016   3.153
 7432SOL    HW123195   1.807   0.067   3.238
 7432SOL    HW223196   1.743   6.954   3.175
 7433SOL     OW23197   2.605   0.249   0.257
 7433SOL    HW123198   2.534   0.245   0.187
 7433SOL    HW223199   2.677   0.312   0.227
 7434SOL     OW23200   4.135   6.026   5.863
 7434SOL    HW123201   4.219   5.976   5.881
 7434SOL    HW223202   4.150   6.124   5.874
 7435SOL     OW23203   4.867   5.596   2.948
 7435SOL    HW123204   4.798   5.659   2.911
 7435SOL    HW223205   4.945   5.649   2.981
 7436SOL     OW23206   5.294   3.163   6.367
 7436SOL    HW123207   5.328   3.255   6.382
 7436SOL    HW223208   5.369   3.104   6.335
 7437SOL     OW23209   4.191   6.331   0.992
 7437SOL    HW123210   4.241   6.254   1.031
 7437SOL    HW223211   4.244   6.415   1.005
 7438SOL     OW23212   2.241   0.402   0.434
 7438SOL    HW123213   2.166   0.461   0.465
 7438SOL    HW223214   2.322   0.418   0.490
 7439SOL     OW23215   0.862   4.728   6.078
 7439SOL    HW123216   0.958   4.710   6.062
 7439SOL    HW223217   0.819   4.649   6.123
 7440SOL     OW23218   5.239   3.208   4.334
 7440SOL    HW123219   5.167   3.174   4.394
 7440SOL    HW223220   5.215   3.299   4.300
 7441SOL     OW23221   5.889   5.984   1.569
 7441SOL    HW123222   5.964   5.972   1.635
 7441SOL    HW223223   5.824   5.910   1.580
 7442SOL     OW23224   4.884   0.598   5.319
 7442SOL    HW123225   4.828   0.598   5.236
 7442SOL    HW223226   4.826   0.590   5.399
 7443SOL     OW23227   0.182   0.506   2.127
 7443SOL    HW123228   0.137   0.594   2.141
 7443SOL    HW223229   0.173   0.479   2.031
 7444SOL     OW23230   1.091   6.294   6.613
 7444SOL    HW123231   1.093   6.278   6.712
 7444SOL    HW223232   1.178   6.266   6.573
 7445SOL     OW23233   4.046   6.124   1.287
 7445SOL    HW123234   4.015   6.140   1.194
 7445SOL    HW223235   4.087   6.208   1.324
 7446SOL     OW23236   5.352   3.960   0.258
 7446SOL    HW123237   5.368   3.959   0.357
 7446SOL    HW223238   5.255   3.942   0.240
 7447SOL     OW23239   0.577   4.803   1.713
 7447SOL    HW123240   0.598   4.783   1.617
 7447SOL    HW223241   0.632   4.744   1.772
 7448SOL     OW23242   4.469   4.851   6.552
 7448SOL    HW123243   4.404   4.868   6.478
 7448SOL    HW223244   4.475   4.753   6.570
 7449SOL     OW23245   0.426   4.422   6.606
 7449SOL    HW123246   0.521   4.451   6.620
 7449SOL    HW223247   0.398   4.443   6.512
 7450SOL     OW23248   5.048   1.959   5.634
 7450SOL    HW123249   5.046   2.045   5.583
 7450SOL    HW223250   5.143   1.937   5.658
 7451SOL     OW23251   5.486   5.161   2.869
 7451SOL    HW123252   5.529   5.087   2.921
 7451SOL    HW223253   5.386   5.154   2.877
 7452SOL     OW23254   6.230   5.174   5.117
 7452SOL    HW123255   6.221   5.263   5.072
 7452SOL    HW223256   6.327   5.150   5.124
 7453SOL     OW23257   3.800   5.785   0.101
 7453SOL    HW123258   3.863   5.744   0.167
 7453SOL    HW223259   3.791   5.726   0.021
 7454SOL     OW23260   3.851   2.262   0.611
 7454SOL    HW123261   3.867   2.333   0.542
 7454SOL    HW223262   3.825   2.304   0.698
 7455SOL     OW23263   6.764   2.860   3.328
 7455SOL    HW123264   6.731   2.804   3.252
 7455SOL    HW223265   6.846   2.909   3.300
 7456SOL     OW23266   3.230   2.066   5.544
 7456SOL    HW123267   3.236   1.971   5.512
 7456SOL    HW223268   3.252   2.128   5.468
 7457SOL     OW23269   2.892   0.371   2.956
 7457SOL    HW123270   2.825   0.353   2.885
 7457SOL    HW223271   2.962   0.433   2.921
 7458SOL     OW23272   1.249   5.817   5.140
 7458SOL    HW123273   1.335   5.826   5.091
 7458SOL    HW223274   1.174   5.806   5.075
 7459SOL     OW23275   5.856   0.474   2.807
 7459SOL    HW123276   5.820   0.491   2.899
 7459SOL    HW223277   5.787   0.498   2.739
 7460SOL     OW23278   1.455   6.581   0.690
 7460SOL    HW123279   1.536   6.562   0.745
 7460SOL    HW223280   1.433   6.502   0.633
 7461SOL     OW23281   1.113   4.991   6.155
 7461SOL    HW123282   1.029   5.033   6.188
 7461SOL    HW223283   1.109   4.982   6.055
 7462SOL     OW23284   1.143   5.069   0.361
 7462SOL    HW123285   1.053   5.054   0.402
 7462SOL    HW223286   1.208   5.002   0.397
 7463SOL     OW23287   3.567   4.723   0.875
 7463SOL    HW123288   3.545   4.748   0.780
 7463SOL    HW223289   3.502   4.654   0.906
 7464SOL     OW23290   6.277   6.251   5.218
 7464SOL    HW123291   6.348   6.184   5.238
 7464SOL    HW223292   6.188   6.205   5.214
 7465SOL     OW23293   1.916   4.834   0.293
 7465SOL    HW123294   1.856   4.900   0.339
 7465SOL    HW223295   1.867   4.747   0.284
 7466SOL     OW23296   0.567   6.645   4.993
 7466SOL    HW123297   0.509   6.628   4.913
 7466SOL    HW223298   0.510   6.680   5.067
 7467SOL     OW23299   0.423   3.050   5.829
 7467SOL    HW123300   0.478   3.043   5.912
 7467SOL    HW223301   0.396   3.145   5.815
 7468SOL     OW23302   5.956   3.422   5.609
 7468SOL    HW123303   6.023   3.481   5.565
 7468SOL    HW223304   6.000   3.337   5.637
 7469SOL     OW23305   6.816   2.328   1.120
 7469SOL    HW123306   6.728   2.345   1.164
 7469SOL    HW223307   6.816   2.235   1.082
 7470SOL     OW23308   5.257   3.295   3.951
 7470SOL    HW123309   5.213   3.206   3.942
 7470SOL    HW223310   5.297   3.321   3.862
 7471SOL     OW23311   5.117   6.004   5.763
 7471SOL    HW123312   5.075   5.996   5.854
 7471SOL    HW223313   5.053   5.970   5.694
 7472SOL     OW23314   6.021   6.142   5.258
 7472SOL    HW123315   5.952   6.070   5.265
 7472SOL    HW223316   6.046   6.173   5.350
 7473SOL     OW23317   4.056   6.149   4.057
 7473SOL    HW123318   4.124   6.081   4.085
 7473SOL    HW223319   4.037   6.140   3.959
 7474SOL     OW23320   6.913   1.844   5.671
 7474SOL    HW123321   6.986   1.835   5.738
 7474SOL    HW223322   6.940   1.910   5.601
 7475SOL     OW23323   4.757   2.679   0.665
 7475SOL    HW123324   4.835   2.634   0.621
 7475SOL    HW223325   4.747   2.644   0.758
 7476SOL     OW23326   1.680   0.943   2.436
 7476SOL    HW123327   1.740   1.009   2.481
 7476SOL    HW223328   1.726   0.903   2.357
 7477SOL     OW23329   0.999   4.218   4.936
 7477SOL    HW123330   0.908   4.178   4.930
 7477SOL    HW223331   1.030   4.243   4.844
 7478SOL     OW23332   0.686   1.508   5.874
 7478SOL    HW123333   0.763   1.526   5.814
 7478SOL    HW223334   0.622   1.445   5.829
 7479SOL     OW23335   6.139   3.222   7.009
 7479SOL    HW123336   6.055   3.208   0.037
 7479SOL    HW223337   6.120   3.213   6.911
 7480SOL     OW23338   3.975   4.910   2.476
 7480SOL    HW123339   3.902   4.920   2.543
 7480SOL    HW223340   3.943   4.853   2.400
 7481SOL     OW23341   0.336   3.934   6.442
 7481SOL    HW123342   0.349   3.996   6.518
 7481SOL    HW223343   0.353   3.982   6.356
 7482SOL     OW23344   3.859   1.972   2.635
 7482SOL    HW123345   3.769   1.984   2.593
 7482SOL    HW223346   3.926   1.948   2.565
 7483SOL     OW23347   4.776   1.914   6.012
 7483SOL    HW123348   4.714   1.933   6.088
 7483SOL    HW223349   4.734   1.943   5.926
 7484SOL     OW23350   2.907   6.608   4.169
 7484SOL    HW123351   2.973   6.556   4.224
 7484SOL    HW223352   2.912   6.705   4.193
 7485SOL     OW23353   2.874   0.049   4.937
 7485SOL    HW123354   2.810   0.112   4.893
 7485SOL    HW223355   2.918   7.017   4.866
 7486SOL     OW23356   2.336   6.437   1.172
 7486SOL    HW123357   2.336   6.338   1.184
 7486SOL    HW223358   2.264   6.463   1.109
 7487SOL     OW23359   4.327   6.462   3.923
 7487SOL    HW123360   4.371   6.500   3.842
 7487SOL    HW223361   4.292   6.537   3.980
 7488SOL     OW23362   0.919   5.315   3.802
 7488SOL    HW123363   0.921   5.387   3.733
 7488SOL    HW223364   0.857   5.342   3.876
 7489SOL     OW23365   6.489   3.410   6.494
 7489SOL    HW123366   6.536   3.476   6.553
 7489SOL    HW223367   6.547   3.330   6.481
 7490SOL     OW23368   1.210   2.271   2.097
 7490SOL    HW123369   1.273   2.196   2.074
 7490SOL    HW223370   1.187   2.265   2.194
 7491SOL     OW23371   4.363   3.057   0.316
 7491SOL    HW123372   4.408   3.079   0.403
 7491SOL    HW223373   4.351   2.958   0.309
 7492SOL     OW23374   1.513   0.526   4.277
 7492SOL    HW123375   1.607   0.545   4.306
 7492SOL    HW223376   1.457   0.607   4.289
 7493SOL     OW23377   6.847   4.199   4.774
 7493SOL    HW123378   6.889   4.274   4.824
 7493SOL    HW223379   6.895   4.186   4.687
 7494SOL     OW23380   5.957   1.234   2.711
 7494SOL    HW123381   5.931   1.162   2.775
 7494SOL    HW223382   5.972   1.195   2.620
 7495SOL     OW23383   1.639   3.854   5.494
 7495SOL    HW123384   1.612   3.797   5.571
 7495SOL    HW223385   1.738   3.847   5.481
 7496SOL     OW23386   5.832   4.093   2.598
 7496SOL    HW123387   5.884   4.179   2.592
 7496SOL    HW223388   5.747   4.102   2.546
 7497SOL     OW23389   0.251   6.872   0.316
 7497SOL    HW123390   0.260   6.772   0.322
 7497SOL    HW223391   0.155   6.896   0.304
 7498SOL     OW23392   3.024   0.477   2.723
 7498SOL    HW123393   2.963   0.552   2.697
 7498SOL    HW223394   2.995   0.393   2.678
 7499SOL     OW23395   4.260   1.889   3.674
 7499SOL    HW123396   4.321   1.830   3.620
 7499SOL    HW223397   4.177   1.838   3.697
 7500SOL     OW23398   3.804   6.986   2.938
 7500SOL    HW123399   3.832   7.010   3.031
 7500SOL    HW223400   3.724   0.016   2.912
 7501SOL     OW23401   5.937   2.276   5.030
 7501SOL    HW123402   6.017   2.285   4.972
 7501SOL    HW223403   5.872   2.212   4.989
 7502SOL     OW23404   4.019   0.640   4.317
 7502SOL    HW123405   4.034   0.617   4.220
 7502SOL    HW223406   3.921   0.649   4.334
 7503SOL     OW23407   1.750   6.395   1.608
 7503SOL    HW123408   1.656   6.426   1.589
 7503SOL    HW223409   1.756   6.366   1.704
 7504SOL     OW23410   6.497   6.679   3.349
 7504SOL    HW123411   6.587   6.688   3.307
 7504SOL    HW223412   6.506   6.684   3.449
 7505SOL     OW23413   0.869   6.704   5.449
 7505SOL    HW123414   0.892   6.798   5.427
 7505SOL    HW223415   0.872   6.648   5.366
 7506SOL     OW23416   2.824   1.671   2.979
 7506SOL    HW123417   2.744   1.650   3.034
 7506SOL    HW223418   2.840   1.598   2.913
 7507SOL     OW23419   6.303   4.186   4.670
 7507SOL    HW123420   6.278   4.153   4.579
 7507SOL    HW223421   6.250   4.136   4.739
 7508SOL     OW23422   1.871   6.001   6.518
 7508SOL    HW123423   1.939   5.957   6.576
 7508SOL    HW223424   1.824   6.072   6.571
 7509SOL     OW23425   5.321   4.334   0.391
 7509SOL    HW123426   5.411   4.292   0.401
 7509SOL    HW223427   5.250   4.264   0.399
 7510SOL     OW23428   3.696   3.846   3.638
 7510SOL    HW123429   3.645   3.932   3.631
 7510SOL    HW223430   3.792   3.865   3.656
 7511SOL     OW23431   3.697   6.384   3.521
 7511SOL    HW123432   3.771   6.368   3.456
 7511SOL    HW223433   3.736   6.425   3.605
 7512SOL     OW23434   3.738   0.005   5.909
 7512SOL    HW123435   3.645   7.023   5.945
 7512SOL    HW223436   3.741   0.074   5.836
 7513SOL     OW23437   0.772   2.230   2.126
 7513SOL    HW123438   0.678   2.228   2.161
 7513SOL    HW223439   0.813   2.318   2.146
 7514SOL     OW23440   1.437   4.153   2.406
 7514SOL    HW123441   1.477   4.212   2.337
 7514SOL    HW223442   1.348   4.189   2.433
 7515SOL     OW23443   0.182   4.498   3.930
 7515SOL    HW123444   0.101   4.490   3.872
 7515SOL    HW223445   0.178   4.584   3.980
 7516SOL     OW23446   1.101   6.444   5.220
 7516SOL    HW123447   1.129   6.369   5.280
 7516SOL    HW223448   1.173   6.513   5.217
 7517SOL     OW23449   0.415   1.421   7.021
 7517SOL    HW123450   0.476   1.395   6.946
 7517SOL    HW223451   0.470   1.445   0.077
 7518SOL     OW23452   4.818   3.117   3.707
 7518SOL    HW123453   4.845   3.052   3.778
 7518SOL    HW223454   4.720   3.137   3.714
 7519SOL     OW23455   3.881   6.473   4.548
 7519SOL    HW123456   3.825   6.523   4.482
 7519SOL    HW223457   3.831   6.463   4.634
 7520SOL     OW23458   1.634   2.216   0.695
 7520SOL    HW123459   1.587   2.183   0.778
 7520SOL    HW223460   1.574   2.279   0.646
 7521SOL     OW23461   3.900   1.334   5.637
 7521SOL    HW123462   4.000   1.334   5.636
 7521SOL    HW223463   3.867   1.402   5.571
 7522SOL     OW23464   1.792   0.069   3.437
 7522SOL    HW123465   1.851   0.003   3.484
 7522SOL    HW223466   1.753   0.133   3.504
 7523SOL     OW23467   5.644   1.102   6.456
 7523SOL    HW123468   5.603   1.039   6.523
 7523SOL    HW223469   5.573   1.163   6.421
 7524SOL     OW23470   0.482   3.287   4.950
 7524SOL    HW123471   0.563   3.230   4.938
 7524SOL    HW223472   0.505   3.367   5.006
 7525SOL     OW23473   4.383   5.725   6.488
 7525SOL    HW123474   4.295   5.768   6.504
 7525SOL    HW223475   4.455   5.795   6.489
 7526SOL     OW23476   2.491   3.281   1.601
 7526SOL    HW123477   2.444   3.291   1.688
 7526SOL    HW223478   2.465   3.355   1.540
 7527SOL     OW23479   4.238   5.599   3.773
 7527SOL    HW123480   4.283   5.514   3.747
 7527SOL    HW223481   4.194   5.639   3.693
 7528SOL     OW23482   6.745   2.937   6.683
 7528SOL    HW123483   6.794   2.871   6.740
 7528SOL    HW223484   6.722   3.017   6.737
 7529SOL     OW23485   6.624   2.960   4.530
 7529SOL    HW123486   6.610   2.920   4.439
 7529SOL    HW223487   6.577   2.905   4.598
 7530SOL     OW23488   6.833   2.027   1.885
 7530SOL    HW123489   6.795   2.052   1.796
 7530SOL    HW223490   6.807   2.097   1.952
 7531SOL     OW23491   4.364   2.081   3.831
 7531SOL    HW123492   4.336   2.001   3.778
 7531SOL    HW223493   4.319   2.162   3.795
 7532SOL     OW23494   4.459   5.183   6.261
 7532SOL    HW123495   4.361   5.174   6.276
 7532SOL    HW223496   4.506   5.194   6.348
 7533SOL     OW23497   4.507   3.808   1.706
 7533SOL    HW123498   4.555   3.896   1.707
 7533SOL    HW223499   4.574   3.735   1.694
 7534SOL     OW23500   4.582   6.944   4.221
 7534SOL    HW123501   4.549   6.955   4.315
 7534SOL    HW223502   4.543   6.861   4.182
 7535SOL     OW23503   0.376   5.936   3.512
 7535SOL    HW123504   0.440   5.978   3.447
 7535SOL    HW223505   0.397   5.969   3.604
 7536SOL     OW23506   4.965   6.153   4.802
 7536SOL    HW123507   4.937   6.077   4.744
 7536SOL    HW223508   5.054   6.133   4.844
 7537SOL     OW23509   3.360   6.559   3.301
 7537SOL    HW123510   3.374   6.540   3.398
 7537SOL    HW223511   3.411   6.640   3.275
 7538SOL     OW23512   0.565   4.305   0.754
 7538SOL    HW123513   0.603   4.294   0.662
 7538SOL    HW223514   0.569   4.402   0.781
 7539SOL     OW23515   0.413   6.059   3.740
 7539SOL    HW123516   0.396   6.156   3.721
 7539SOL    HW223517   0.390   6.039   3.835
 7540SOL     OW23518   6.329   5.238   3.575
 7540SOL    HW123519   6.262   5.165   3.591
 7540SOL    HW223520   6.292   5.303   3.508
 7541SOL     OW23521   1.926   4.401   0.113
 7541SOL    HW123522   1.837   4.362   0.090
 7541SOL    HW223523   1.957   4.461   0.039
 7542SOL     OW23524   5.807   5.781   5.800
 7542SOL    HW123525   5.764   5.735   5.878
 7542SOL    HW223526   5.754   5.863   5.776
 7543SOL     OW23527   2.447   0.732   6.477
 7543SOL    HW123528   2.476   0.804   6.540
 7543SOL    HW223529   2.392   0.772   6.403
 7544SOL     OW23530   0.159   2.753   4.336
 7544SOL    HW123531   0.164   2.653   4.329
 7544SOL    HW223532   0.067   2.780   4.364
 7545SOL     OW23533   0.976   5.017   0.032
 7545SOL    HW123534   0.930   4.983   0.114
 7545SOL    HW223535   1.014   4.940   7.004
 7546SOL     OW23536   3.221   2.794   1.851
 7546SOL    HW123537   3.233   2.801   1.950
 7546SOL    HW223538   3.238   2.700   1.822
 7547SOL     OW23539   4.622   0.479   1.944
 7547SOL    HW123540   4.580   0.475   2.035
 7547SOL    HW223541   4.561   0.435   1.878
 7548SOL     OW23542   3.988   2.062   6.458
 7548SOL    HW123543   3.941   2.068   6.370
 7548SOL    HW223544   4.075   2.112   6.452
 7549SOL     OW23545   4.919   2.596   4.771
 7549SOL    HW123546   4.829   2.621   4.736
 7549SOL    HW223547   4.936   2.499   4.756
 7550SOL     OW23548   2.398   4.323   4.276
 7550SOL    HW123549   2.411   4.224   4.273
 7550SOL    HW223550   2.301   4.344   4.262
 7551SOL     OW23551   5.816   2.558   5.830
 7551SOL    HW123552   5.766   2.637   5.795
 7551SOL    HW223553   5.913   2.567   5.805
 7552SOL     OW23554   2.579   5.766   5.133
 7552SOL    HW123555   2.549   5.860   5.119
 7552SOL    HW223556   2.627   5.759   5.221
 7553SOL     OW23557   5.740   6.465   5.975
 7553SOL    HW123558   5.807   6.466   5.900
 7553SOL    HW223559   5.785   6.434   6.059
 7554SOL     OW23560   5.047   0.757   1.031
 7554SOL    HW123561   5.112   0.832   1.017
 7554SOL    HW223562   4.966   0.791   1.079
 7555SOL     OW23563   3.213   4.922   5.523
 7555SOL    HW123564   3.278   4.912   5.598
 7555SOL    HW223565   3.257   4.893   5.437
 7556SOL     OW23566   6.877   0.062   1.010
 7556SOL    HW123567   6.804   0.121   0.978
 7556SOL    HW223568   6.854   0.023   1.099
 7557SOL     OW23569   4.606   7.023   0.161
 7557SOL    HW123570   4.567   0.082   0.121
 7557SOL    HW223571   4.643   0.020   0.252
 7558SOL     OW23572   1.139   2.185   4.668
 7558SOL    HW123573   1.090   2.099   4.650
 7558SOL    HW223574   1.235   2.173   4.642
 7559SOL     OW23575   3.628   2.022   4.650
 7559SOL    HW123576   3.721   2.027   4.614
 7559SOL    HW223577   3.590   1.932   4.632
 7560SOL     OW23578   0.613   0.799   6.044
 7560SOL    HW123579   0.653   0.788   6.135
 7560SOL    HW223580   0.533   0.741   6.035
 7561SOL     OW23581   5.579   2.050   5.157
 7561SOL    HW123582   5.676   2.029   5.174
 7561SOL    HW223583   5.537   2.083   5.241
 7562SOL     OW23584   1.243   4.288   4.030
 7562SOL    HW123585   1.190   4.368   4.059
 7562SOL    HW223586   1.311   4.266   4.100
 7563SOL     OW23587   3.665   5.615   2.584
 7563SOL    HW123588   3.575   5.658   2.581
 7563SOL    HW223589   3.676   5.552   2.507
 7564SOL     OW23590   4.383   1.768   5.003
 7564SOL    HW123591   4.430   1.732   5.083
 7564SOL    HW223592   4.448   1.818   4.946
 7565SOL     OW23593   5.641   4.257   6.456
 7565SOL    HW123594   5.552   4.283   6.419
 7565SOL    HW223595   5.630   4.220   6.548
 7566SOL     OW23596   4.282   4.216   1.315
 7566SOL    HW123597   4.223   4.141   1.345
 7566SOL    HW223598   4.295   4.280   1.391
 7567SOL     OW23599   1.918   0.702   4.608
 7567SOL    HW123600   1.935   0.603   4.614
 7567SOL    HW223601   1.999   0.751   4.641
 7568SOL     OW23602   6.025   5.241   1.649
 7568SOL    HW123603   5.970   5.191   1.583
 7568SOL    HW223604   5.977   5.324   1.676
 7569SOL     OW23605   4.399   4.022   0.171
 7569SOL    HW123606   4.479   4.052   0.118
 7569SOL    HW223607   4.325   4.087   0.159
 7570SOL     OW23608   6.528   2.792   2.936
 7570SOL    HW123609   6.586   2.724   2.981
 7570SOL    HW223610   6.473   2.839   3.005
 7571SOL     OW23611   4.446   2.470   2.955
 7571SOL    HW123612   4.349   2.451   2.941
 7571SOL    HW223613   4.501   2.403   2.905
 7572SOL     OW23614   4.791   6.398   2.108
 7572SOL    HW123615   4.706   6.450   2.115
 7572SOL    HW223616   4.797   6.334   2.185
 7573SOL     OW23617   4.993   6.431   5.513
 7573SOL    HW123618   4.943   6.345   5.509
 7573SOL    HW223619   4.941   6.497   5.568
 7574SOL     OW23620   0.241   1.256   3.846
 7574SOL    HW123621   0.188   1.339   3.828
 7574SOL    HW223622   0.195   1.200   3.914
 7575SOL     OW23623   6.983   6.850   2.623
 7575SOL    HW123624   6.982   6.950   2.618
 7575SOL    HW223625   6.894   6.815   2.592
 7576SOL     OW23626   5.613   3.308   0.604
 7576SOL    HW123627   5.680   3.364   0.653
 7576SOL    HW223628   5.522   3.346   0.615
 7577SOL     OW23629   1.222   6.578   0.875
 7577SOL    HW123630   1.220   6.650   0.945
 7577SOL    HW223631   1.298   6.595   0.813
 7578SOL     OW23632   6.837   6.062   3.525
 7578SOL    HW123633   6.824   6.161   3.532
 7578SOL    HW223634   6.896   6.030   3.599
 7579SOL     OW23635   6.760   1.421   0.055
 7579SOL    HW123636   6.669   1.382   0.043
 7579SOL    HW223637   6.829   1.351   0.038
 7580SOL     OW23638   2.372   4.820   3.657
 7580SOL    HW123639   2.397   4.748   3.592
 7580SOL    HW223640   2.313   4.782   3.728
 7581SOL     OW23641   6.844   0.839   2.648
 7581SOL    HW123642   6.858   0.790   2.562
 7581SOL    HW223643   6.928   0.887   2.673
 7582SOL     OW23644   3.283   1.115   5.262
 7582SOL    HW123645   3.202   1.170   5.284
 7582SOL    HW223646   3.257   1.039   5.203
 7583SOL     OW23647   5.087   2.880   2.659
 7583SOL    HW123648   5.133   2.799   2.624
 7583SOL    HW223649   5.149   2.958   2.658
 7584SOL     OW23650   7.010   0.928   3.025
 7584SOL    HW123651   0.009   0.898   3.118
 7584SOL    HW223652   0.070   0.935   2.971
 7585SOL     OW23653   1.062   1.653   0.119
 7585SOL    HW123654   1.121   1.576   0.143
 7585SOL    HW223655   1.118   1.734   0.100
 7586SOL     OW23656   1.283   1.790   2.684
 7586SOL    HW123657   1.307   1.754   2.775
 7586SOL    HW223658   1.239   1.879   2.694
 7587SOL     OW23659   3.448   0.807   0.956
 7587SOL    HW123660   3.491   0.880   0.903
 7587SOL    HW223661   3.397   0.847   1.032
 7588SOL     OW23662   1.995   2.259   4.576
 7588SOL    HW123663   2.055   2.336   4.599
 7588SOL    HW223664   1.903   2.294   4.554
 7589SOL     OW23665   0.728   0.903   3.002
 7589SOL    HW123666   0.796   0.976   2.998
 7589SOL    HW223667   0.750   0.840   3.076
 7590SOL     OW23668   0.319   1.846   6.877
 7590SOL    HW123669   0.413   1.817   6.858
 7590SOL    HW223670   0.266   1.770   6.913
 7591SOL     OW23671   4.117   3.353   5.263
 7591SOL    HW123672   4.107   3.255   5.274
 7591SOL    HW223673   4.102   3.378   5.167
 7592SOL     OW23674   6.729   6.624   4.714
 7592SOL    HW123675   6.687   6.534   4.719
 7592SOL    HW223676   6.811   6.620   4.657
 7593SOL     OW23677   1.133   1.417   6.002
 7593SOL    HW123678   1.114   1.333   6.054
 7593SOL    HW223679   1.219   1.457   6.033
 7594SOL     OW23680   0.095   4.491   6.922
 7594SOL    HW123681   0.032   4.566   6.942
 7594SOL    HW223682   0.047   4.420   6.871
 7595SOL     OW23683   0.360   3.001   6.315
 7595SOL    HW123684   0.284   3.008   6.251
 7595SOL    HW223685   0.325   3.001   6.409
 7596SOL     OW23686   3.070   1.074   5.506
 7596SOL    HW123687   3.029   1.159   5.472
 7596SOL    HW223688   3.076   1.077   5.606
 7597SOL     OW23689   1.280   4.541   2.280
 7597SOL    HW123690   1.213   4.469   2.298
 7597SOL    HW223691   1.336   4.516   2.201
 7598SOL     OW23692   6.173   1.214   2.936
 7598SOL    HW123693   6.102   1.283   2.925
 7598SOL    HW223694   6.262   1.259   2.948
 7599SOL     OW23695   4.163   3.207   0.993
 7599SOL    HW123696   4.075   3.196   0.946
 7599SOL    HW223697   4.154   3.278   1.063
 7600SOL     OW23698   1.860   7.012   4.608
 7600SOL    HW123699   1.912   6.978   4.530
 7600SOL    HW223700   1.918   7.008   4.690
 7601SOL     OW23701   3.804   5.647   2.268
 7601SOL    HW123702   3.857   5.619   2.349
 7601SOL    HW223703   3.807   5.746   2.259
 7602SOL     OW23704   6.896   1.422   0.724
 7602SOL    HW123705   6.842   1.464   0.651
 7602SOL    HW223706   6.843   1.349   0.767
 7603SOL     OW23707   2.831   0.461   5.126
 7603SOL    HW123708   2.766   0.499   5.059
 7603SOL    HW223709   2.895   0.400   5.080
 7604SOL     OW23710   0.724   2.740   4.539
 7604SOL    HW123711   0.626   2.734   4.553
 7604SOL    HW223712   0.743   2.775   4.447
 7605SOL     OW23713   2.302   6.480   0.112
 7605SOL    HW123714   2.351   6.527   0.039
 7605SOL    HW223715   2.336   6.386   0.121
 7606SOL     OW23716   6.404   1.407   3.113
 7606SOL    HW123717   6.408   1.330   3.178
 7606SOL    HW223718   6.498   1.435   3.091
 7607SOL     OW23719   2.494   5.922   5.848
 7607SOL    HW123720   2.520   5.916   5.945
 7607SOL    HW223721   2.495   5.830   5.808
 7608SOL     OW23722   6.249   2.526   6.388
 7608SOL    HW123723   6.219   2.619   6.409
 7608SOL    HW223724   6.348   2.519   6.398
 7609SOL     OW23725   0.620   2.206   4.687
 7609SOL    HW123726   0.705   2.228   4.639
 7609SOL    HW223727   0.586   2.287   4.735
 7610SOL     OW23728   3.689   5.092   5.387
 7610SOL    HW123729   3.754   5.163   5.360
 7610SOL    HW223730   3.617   5.086   5.318
 7611SOL     OW23731   4.940   3.458   1.139
 7611SOL    HW123732   4.930   3.391   1.212
 7611SOL    HW223733   4.898   3.422   1.055
 7612SOL     OW23734   3.068   1.715   3.100
 7612SOL    HW123735   3.030   1.714   3.192
 7612SOL    HW223736   2.995   1.696   3.034
 7613SOL     OW23737   0.366   1.135   2.308
 7613SOL    HW123738   0.323   1.223   2.330
 7613SOL    HW223739   0.303   1.080   2.254
 7614SOL     OW23740   5.476   4.084   1.073
 7614SOL    HW123741   5.539   4.067   0.997
 7614SOL    HW223742   5.382   4.088   1.039
 7615SOL     OW23743   5.810   3.654   4.829
 7615SOL    HW123744   5.717   3.660   4.864
 7615SOL    HW223745   5.807   3.642   4.729
 7616SOL     OW23746   6.103   6.891   3.557
 7616SOL    HW123747   6.161   6.860   3.482
 7616SOL    HW223748   6.089   6.990   3.550
 7617SOL     OW23749   5.236   5.370   3.802
 7617SOL    HW123750   5.292   5.423   3.739
 7617SOL    HW223751   5.144   5.410   3.806
 7618SOL     OW23752   2.469   2.730   0.117
 7618SOL    HW123753   2.412   2.663   0.068
 7618SOL    HW223754   2.464   2.712   0.215
 7619SOL     OW23755   0.822   2.274   4.498
 7619SOL    HW123756   0.767   2.335   4.441
 7619SOL    HW223757   0.838   2.188   4.450
 7620SOL     OW23758   4.104   4.048   1.421
 7620SOL    HW123759   4.121   4.074   1.516
 7620SOL    HW223760   4.087   3.949   1.416
 7621SOL     OW23761   6.743   4.185   0.259
 7621SOL    HW123762   6.666   4.247   0.242
 7621SOL    HW223763   6.746   4.163   0.356
 7622SOL     OW23764   3.018   3.573   1.239
 7622SOL    HW123765   3.005   3.617   1.328
 7622SOL    HW223766   3.003   3.475   1.247
 7623SOL     OW23767   4.470   4.830   1.026
 7623SOL    HW123768   4.559   4.849   0.984
 7623SOL    HW223769   4.452   4.732   1.022
 7624SOL     OW23770   0.592   2.928   2.188
 7624SOL    HW123771   0.687   2.925   2.221
 7624SOL    HW223772   0.542   3.000   2.236
 7625SOL     OW23773   5.217   1.182   1.233
 7625SOL    HW123774   5.309   1.217   1.217
 7625SOL    HW223775   5.205   1.163   1.331
 7626SOL     OW23776   5.389   1.341   5.411
 7626SOL    HW123777   5.374   1.304   5.502
 7626SOL    HW223778   5.478   1.386   5.408
 7627SOL     OW23779   3.767   2.509   6.569
 7627SOL    HW123780   3.812   2.419   6.567
 7627SOL    HW223781   3.668   2.496   6.579
 7628SOL     OW23782   3.300   2.573   6.781
 7628SOL    HW123783   3.327   2.540   6.872
 7628SOL    HW223784   3.287   2.672   6.784
 7629SOL     OW23785   6.120   2.821   3.999
 7629SOL    HW123786   6.066   2.877   3.936
 7629SOL    HW223787   6.078   2.822   4.090
 7630SOL     OW23788   1.449   6.897   5.509
 7630SOL    HW123789   1.404   6.810   5.528
 7630SOL    HW223790   1.489   6.895   5.417
 7631SOL     OW23791   1.689   6.916   5.921
 7631SOL    HW123792   1.611   6.928   5.859
 7631SOL    HW223793   1.673   6.968   6.005
 7632SOL     OW23794   5.216   5.242   0.287
 7632SOL    HW123795   5.234   5.144   0.288
 7632SOL    HW223796   5.179   5.270   0.375
 7633SOL     OW23797   6.403   1.201   1.311
 7633SOL    HW123798   6.451   1.256   1.380
 7633SOL    HW223799   6.355   1.262   1.248
 7634SOL     OW23800   6.850   2.090   0.492
 7634SOL    HW123801   6.859   2.175   0.439
 7634SOL    HW223802   6.927   2.030   0.470
 7635SOL     OW23803   2.248   4.403   5.818
 7635SOL    HW123804   2.301   4.321   5.795
 7635SOL    HW223805   2.270   4.432   5.911
 7636SOL     OW23806   0.442   3.514   4.514
 7636SOL    HW123807   0.464   3.612   4.509
 7636SOL    HW223808   0.498   3.470   4.584
 7637SOL     OW23809   0.760   6.650   4.662
 7637SOL    HW123810   0.814   6.634   4.579
 7637SOL    HW223811   0.755   6.566   4.716
 7638SOL     OW23812   0.613   5.961   1.764
 7638SOL    HW123813   0.661   5.937   1.848
 7638SOL    HW223814   0.675   5.952   1.686
 7639SOL     OW23815   1.646   0.936   0.134
 7639SOL    HW123816   1.561   0.884   0.125
 7639SOL    HW223817   1.720   0.887   0.089
 7640SOL     OW23818   3.105   0.667   0.096
 7640SOL    HW123819   3.012   0.688   0.067
 7640SOL    HW223820   3.108   0.576   0.137
 7641SOL     OW23821   0.376   4.088   3.482
 7641SOL    HW123822   0.468   4.127   3.484
 7641SOL    HW223823   0.352   4.062   3.389
 7642SOL     OW23824   6.046   0.733   3.575
 7642SOL    HW123825   6.058   0.765   3.669
 7642SOL    HW223826   6.107   0.655   3.559
 7643SOL     OW23827   5.536   4.061   2.879
 7643SOL    HW123828   5.562   4.145   2.926
 7643SOL    HW223829   5.500   4.083   2.788
 7644SOL     OW23830   5.375   3.492   0.984
 7644SOL    HW123831   5.331   3.575   1.019
 7644SOL    HW223832   5.307   3.420   0.976
 7645SOL     OW23833   3.567   4.271   5.861
 7645SOL    HW123834   3.492   4.208   5.876
 7645SOL    HW223835   3.641   4.252   5.926
 7646SOL     OW23836   0.261   2.328   1.825
 7646SOL    HW123837   0.339   2.391   1.834
 7646SOL    HW223838   0.181   2.379   1.794
 7647SOL     OW23839   6.487   2.862   4.986
 7647SOL    HW123840   6.520   2.840   5.078
 7647SOL    HW223841   6.472   2.961   4.980
 7648SOL     OW23842   2.747   1.973   1.637
 7648SOL    HW123843   2.652   2.000   1.654
 7648SOL    HW223844   2.808   2.048   1.658
 7649SOL     OW23845   4.814   1.219   5.680
 7649SOL    HW123846   4.816   1.279   5.599
 7649SOL    HW223847   4.908   1.205   5.712
 7650SOL     OW23848   4.523   1.567   0.785
 7650SOL    HW123849   4.572   1.485   0.814
 7650SOL    HW223850   4.572   1.648   0.817
 7651SOL     OW23851   2.462   5.091   5.773
 7651SOL    HW123852   2.547   5.106   5.823
 7651SOL    HW223853   2.468   5.135   5.683
 7652SOL     OW23854   0.082   1.037   3.962
 7652SOL    HW123855   0.005   1.003   3.907
 7652SOL    HW223856   0.165   0.989   3.936
 7653SOL     OW23857   0.593   1.352   6.546
 7653SOL    HW123858   0.653   1.428   6.518
 7653SOL    HW223859   0.590   1.284   6.473
 7654SOL     OW23860   5.514   2.415   6.453
 7654SOL    HW123861   5.531   2.335   6.511
 7654SOL    HW223862   5.573   2.490   6.482
 7655SOL     OW23863   2.798   1.277   3.290
 7655SOL    HW123864   2.881   1.320   3.326
 7655SOL    HW223865   2.724   1.288   3.355
 7656SOL     OW23866   0.091   3.184   6.461
 7656SOL    HW123867   0.136   3.105   6.503
 7656SOL    HW223868   7.019   3.163   6.444
 7657SOL     OW23869   0.925   3.863   4.412
 7657SOL    HW123870   0.835   3.823   4.426
 7657SOL    HW223871   0.992   3.791   4.395
 7658SOL     OW23872   2.503   1.652   0.798
 7658SOL    HW123873   2.468   1.733   0.752
 7658SOL    HW223874   2.576   1.677   0.860
 7659SOL     OW23875   4.427   3.907   5.622
 7659SOL    HW123876   4.425   3.817   5.664
 7659SOL    HW223877   4.334   3.944   5.617
 7660SOL     OW23878   0.389   5.580   4.764
 7660SOL    HW123879   0.483   5.569   4.796
 7660SOL    HW223880   0.343   5.649   4.819
 7661SOL     OW23881   4.593   1.978   5.804
 7661SOL    HW123882   4.622   1.897   5.753
 7661SOL    HW223883   4.501   2.004   5.775
 7662SOL     OW23884   0.449   1.308   1.187
 7662SOL    HW123885   0.353   1.331   1.204
 7662SOL    HW223886   0.462   1.210   1.199
 7663SOL     OW23887   6.776   5.471   5.418
 7663SOL    HW123888   6.756   5.565   5.389
 7663SOL    HW223889   6.707   5.442   5.485
 7664SOL     OW23890   3.981   1.888   2.194
 7664SOL    HW123891   3.915   1.951   2.153
 7664SOL    HW223892   4.055   1.869   2.129
 7665SOL     OW23893   4.231   0.760   5.401
 7665SOL    HW123894   4.148   0.800   5.363
 7665SOL    HW223895   4.299   0.749   5.328
 7666SOL     OW23896   5.434   4.749   4.173
 7666SOL    HW123897   5.485   4.663   4.182
 7666SOL    HW223898   5.450   4.805   4.255
 7667SOL     OW23899   4.374   5.790   1.314
 7667SOL    HW123900   4.451   5.769   1.253
 7667SOL    HW223901   4.409   5.826   1.401
 7668SOL     OW23902   2.133   5.279   1.223
 7668SOL    HW123903   2.223   5.308   1.190
 7668SOL    HW223904   2.139   5.258   1.321
 7669SOL     OW23905   2.868   6.706   5.572
 7669SOL    HW123906   2.783   6.755   5.549
 7669SOL    HW223907   2.936   6.723   5.501
 7670SOL     OW23908   0.554   6.492   0.205
 7670SOL    HW123909   0.614   6.423   0.163
 7670SOL    HW223910   0.591   6.583   0.187
 7671SOL     OW23911   4.125   6.749   0.861
 7671SOL    HW123912   4.208   6.803   0.873
 7671SOL    HW223913   4.055   6.780   0.926
 7672SOL     OW23914   4.693   5.016   2.936
 7672SOL    HW123915   4.755   5.046   3.008
 7672SOL    HW223916   4.681   4.917   2.942
 7673SOL     OW23917   1.102   5.722   4.805
 7673SOL    HW123918   1.071   5.640   4.757
 7673SOL    HW223919   1.065   5.722   4.898
 7674SOL     OW23920   3.933   6.012   4.285
 7674SOL    HW123921   3.933   6.080   4.359
 7674SOL    HW223922   4.024   6.006   4.246
 7675SOL     OW23923   4.594   6.843   3.185
 7675SOL    HW123924   4.661   6.782   3.226
 7675SOL    HW223925   4.642   6.919   3.139
 7676SOL     OW23926   3.126   2.886   5.414
 7676SOL    HW123927   3.049   2.893   5.350
 7676SOL    HW223928   3.206   2.849   5.367
 7677SOL     OW23929   5.551   4.746   1.087
 7677SOL    HW123930   5.631   4.692   1.112
 7677SOL    HW223931   5.473   4.685   1.073
 7678SOL     OW23932   1.502   0.441   5.377
 7678SOL    HW123933   1.517   0.480   5.468
 7678SOL    HW223934   1.436   0.366   5.383
 7679SOL     OW23935   2.194   5.712   5.262
 7679SOL    HW123936   2.201   5.741   5.358
 7679SOL    HW223937   2.206   5.613   5.256
 7680SOL     OW23938   2.238   0.163   5.471
 7680SOL    HW123939   2.209   0.247   5.518
 7680SOL    HW223940   2.183   0.151   5.388
 7681SOL     OW23941   2.844   3.702   6.472
 7681SOL    HW123942   2.808   3.782   6.425
 7681SOL    HW223943   2.773   3.632   6.479
 7682SOL     OW23944   3.232   1.513   2.594
 7682SOL    HW123945   3.215   1.418   2.622
 7682SOL    HW223946   3.265   1.565   2.673
 7683SOL     OW23947   0.796   0.644   4.822
 7683SOL    HW123948   0.828   0.631   4.728
 7683SOL    HW223949   0.729   0.572   4.844
 7684SOL     OW23950   4.171   2.478   1.754
 7684SOL    HW123951   4.267   2.461   1.733
 7684SOL    HW223952   4.118   2.395   1.741
 7685SOL     OW23953   2.444   0.655   0.208
 7685SOL    HW123954   2.428   0.750   0.234
 7685SOL    HW223955   2.385   0.595   0.261
 7686SOL     OW23956   6.139   0.319   4.315
 7686SOL    HW123957   6.098   0.235   4.349
 7686SOL    HW223958   6.143   0.387   4.389
 7687SOL     OW23959   5.496   4.913   4.793
 7687SOL    HW123960   5.437   4.888   4.870
 7687SOL    HW223961   5.548   4.995   4.817
 7688SOL     OW23962   0.486   4.783   6.588
 7688SOL    HW123963   0.497   4.789   6.489
 7688SOL    HW223964   0.565   4.735   6.627
 7689SOL     OW23965   4.693   0.666   1.365
 7689SOL    HW123966   4.637   0.707   1.437
 7689SOL    HW223967   4.707   0.569   1.385
 7690SOL     OW23968   6.376   5.580   1.478
 7690SOL    HW123969   6.380   5.676   1.450
 7690SOL    HW223970   6.382   5.573   1.578
 7691SOL     OW23971   4.658   4.390   2.847
 7691SOL    HW123972   4.675   4.404   2.749
 7691SOL    HW223973   4.564   4.416   2.867
 7692SOL     OW23974   2.373   6.963   2.107
 7692SOL    HW123975   2.347   0.003   2.035
 7692SOL    HW223976   2.333   6.873   2.088
 7693SOL     OW23977   2.018   1.834   0.852
 7693SOL    HW123978   2.079   1.906   0.883
 7693SOL    HW223979   2.071   1.750   0.837
 7694SOL     OW23980   5.876   1.975   5.540
 7694SOL    HW123981   5.948   1.912   5.567
 7694SOL    HW223982   5.825   1.936   5.463
 7695SOL     OW23983   4.789   7.006   3.098
 7695SOL    HW123984   4.876   7.022   3.143
 7695SOL    HW223985   4.746   0.069   3.075
 7696SOL     OW23986   0.908   2.963   6.273
 7696SOL    HW123987   0.811   2.990   6.277
 7696SOL    HW223988   0.914   2.863   6.270
 7697SOL     OW23989   4.327   6.677   2.574
 7697SOL    HW123990   4.287   6.768   2.565
 7697SOL    HW223991   4.352   6.660   2.669
 7698SOL     OW23992   6.645   2.565   0.308
 7698SOL    HW123993   6.651   2.490   0.375
 7698SOL    HW223994   6.693   2.645   0.344
 7699SOL     OW23995   4.162   5.571   6.020
 7699SOL    HW123996   4.139   5.559   6.116
 7699SOL    HW223997   4.097   5.633   5.977
 7700SOL     OW23998   5.127   5.829   2.672
 7700SOL    HW123999   5.030   5.809   2.654
 7700SOL    HW224000   5.135   5.916   2.721
 7701SOL     OW24001   0.406   2.639   5.976
 7701SOL    HW124002   0.501   2.673   5.976
 7701SOL    HW224003   0.403   2.550   5.932
 7702SOL     OW24004   4.450   0.226   4.502
 7702SOL    HW124005   4.514   0.158   4.536
 7702SOL    HW224006   4.499   0.310   4.477
 7703SOL     OW24007   6.281   6.816   5.067
 7703SOL    HW124008   6.320   6.862   4.987
 7703SOL    HW224009   6.327   6.728   5.080
 7704SOL     OW24010   0.042   1.668   4.279
 7704SOL    HW124011   0.082   1.610   4.349
 7704SOL    HW224012   0.042   1.763   4.310
 7705SOL     OW24013   1.086   4.775   0.226
 7705SOL    HW124014   1.057   4.865   0.259
 7705SOL    HW224015   1.028   4.705   0.268
 7706SOL     OW24016   3.781   2.984   2.407
 7706SOL    HW124017   3.715   2.966   2.334
 7706SOL    HW224018   3.787   2.904   2.467
 7707SOL     OW24019   6.227   4.436   6.136
 7707SOL    HW124020   6.225   4.341   6.106
 7707SOL    HW224021   6.169   4.491   6.076
 7708SOL     OW24022   2.527   0.067   4.748
 7708SOL    HW124023   2.560   0.011   4.672
 7708SOL    HW224024   2.574   0.155   4.748
 7709SOL     OW24025   0.044   4.868   1.636
 7709SOL    HW124026   0.050   4.792   1.701
 7709SOL    HW224027   0.101   4.849   1.557
 7710SOL     OW24028   0.263   3.368   0.894
 7710SOL    HW124029   0.166   3.370   0.919
 7710SOL    HW224030   0.290   3.457   0.858
 7711SOL     OW24031   0.193   4.736   5.070
 7711SOL    HW124032   0.264   4.748   5.000
 7711SOL    HW224033   0.190   4.817   5.128
 7712SOL     OW24034   0.005   4.709   5.591
 7712SOL    HW124035   7.006   4.627   5.642
 7712SOL    HW224036   6.958   4.779   5.606
 7713SOL     OW24037   2.156   4.658   0.064
 7713SOL    HW124038   2.110   4.610   7.013
 7713SOL    HW224039   2.253   4.668   0.042
 7714SOL     OW24040   6.435   0.790   5.433
 7714SOL    HW124041   6.380   0.867   5.401
 7714SOL    HW224042   6.406   0.707   5.385
 7715SOL     OW24043   3.149   2.768   6.062
 7715SOL    HW124044   3.221   2.738   6.000
 7715SOL    HW224045   3.119   2.860   6.037
 7716SOL     OW24046   1.177   5.817   5.520
 7716SOL    HW124047   1.163   5.741   5.457
 7716SOL    HW224048   1.088   5.848   5.555
 7717SOL     OW24049   0.832   1.789   6.910
 7717SOL    HW124050   0.817   1.711   6.972
 7717SOL    HW224051   0.752   1.849   6.914
 7718SOL     OW24052   1.267   3.510   2.954
 7718SOL    HW124053   1.299   3.421   2.986
 7718SOL    HW224054   1.334   3.580   2.979
 7719SOL     OW24055   2.247   4.152   4.664
 7719SOL    HW124056   2.282   4.062   4.687
 7719SOL    HW224057   2.261   4.215   4.740
 7720SOL     OW24058   5.352   1.259   7.002
 7720SOL    HW124059   5.257   1.230   7.018
 7720SOL    HW224060   5.380   1.322   0.049
 7721SOL     OW24061   0.699   0.484   2.331
 7721SOL    HW124062   0.725   0.572   2.370
 7721SOL    HW224063   0.616   0.496   2.276
 7722SOL     OW24064   1.994   6.161   3.285
 7722SOL    HW124065   1.994   6.223   3.207
 7722SOL    HW224066   1.900   6.145   3.316
 7723SOL     OW24067   5.119   4.088   0.510
 7723SOL    HW124068   5.139   4.003   0.558
 7723SOL    HW224069   5.077   4.067   0.422
 7724SOL     OW24070   2.125   4.012   1.663
 7724SOL    HW124071   2.171   4.099   1.642
 7724SOL    HW224072   2.169   3.970   1.743
 7725SOL     OW24073   5.273   3.499   3.346
 7725SOL    HW124074   5.274   3.408   3.305
 7725SOL    HW224075   5.240   3.494   3.440
 7726SOL     OW24076   0.993   2.974   6.608
 7726SOL    HW124077   1.078   3.026   6.605
 7726SOL    HW224078   0.932   3.014   6.677
 7727SOL     OW24079   4.716   1.307   2.358
 7727SOL    HW124080   4.675   1.290   2.448
 7727SOL    HW224081   4.659   1.267   2.287
 7728SOL     OW24082   2.162   3.264   4.471
 7728SOL    HW124083   2.162   3.364   4.477
 7728SOL    HW224084   2.150   3.226   4.563
 7729SOL     OW24085   6.879   2.096   4.052
 7729SOL    HW124086   6.957   2.096   4.114
 7729SOL    HW224087   6.811   2.162   4.085
 7730SOL     OW24088   6.446   4.424   5.109
 7730SOL    HW124089   6.401   4.493   5.166
 7730SOL    HW224090   6.402   4.421   5.019
 7731SOL     OW24091   6.557   6.809   6.603
 7731SOL    HW124092   6.648   6.777   6.578
 7731SOL    HW224093   6.544   6.902   6.569
 7732SOL     OW24094   4.188   0.700   6.537
 7732SOL    HW124095   4.166   0.747   6.451
 7732SOL    HW224096   4.258   0.751   6.586
 7733SOL     OW24097   5.927   5.873   2.212
 7733SOL    HW124098   6.021   5.842   2.195
 7733SOL    HW224099   5.885   5.816   2.283
 7734SOL     OW24100   3.173   3.857   4.590
 7734SOL    HW124101   3.178   3.838   4.688
 7734SOL    HW224102   3.205   3.777   4.539
 7735SOL     OW24103   7.008   6.311   0.691
 7735SOL    HW124104   0.012   6.272   0.779
 7735SOL    HW224105   0.014   6.407   0.686
 7736SOL     OW24106   2.448   2.868   0.478
 7736SOL    HW124107   2.354   2.899   0.495
 7736SOL    HW224108   2.513   2.931   0.520
 7737SOL     OW24109   3.849   4.979   0.943
 7737SOL    HW124110   3.891   5.030   0.868
 7737SOL    HW224111   3.775   5.034   0.983
 7738SOL     OW24112   2.309   6.716   6.367
 7738SOL    HW124113   2.221   6.762   6.357
 7738SOL    HW224114   2.379   6.764   6.314
 7739SOL     OW24115   1.428   1.793   0.450
 7739SOL    HW124116   1.466   1.862   0.511
 7739SOL    HW224117   1.353   1.745   0.495
 7740SOL     OW24118   1.756   0.618   4.830
 7740SOL    HW124119   1.833   0.633   4.891
 7740SOL    HW224120   1.779   0.651   4.738
 7741SOL     OW24121   1.545   4.390   6.093
 7741SOL    HW124122   1.578   4.360   6.183
 7741SOL    HW224123   1.495   4.316   6.049
 7742SOL     OW24124   4.131   1.534   4.139
 7742SOL    HW124125   4.040   1.542   4.098
 7742SOL    HW224126   4.195   1.593   4.089
 7743SOL     OW24127   5.189   2.423   5.545
 7743SOL    HW124128   5.226   2.384   5.461
 7743SOL    HW224129   5.101   2.467   5.525
 7744SOL     OW24130   0.390   6.578   4.814
 7744SOL    HW124131   0.411   6.604   4.720
 7744SOL    HW224132   0.302   6.531   4.818
 7745SOL     OW24133   2.198   6.836   0.748
 7745SOL    HW124134   2.190   6.928   0.787
 7745SOL    HW224135   2.256   6.840   0.666
 7746SOL     OW24136   1.243   6.081   1.111
 7746SOL    HW124137   1.238   5.997   1.166
 7746SOL    HW224138   1.176   6.146   1.143
 7747SOL     OW24139   1.330   6.035   0.027
 7747SOL    HW124140   1.335   5.962   6.983
 7747SOL    HW224141   1.235   6.055   0.049
 7748SOL     OW24142   4.244   2.187   5.882
 7748SOL    HW124143   4.268   2.141   5.796
 7748SOL    HW224144   4.145   2.193   5.889
 7749SOL     OW24145   4.001   3.607   3.830
 7749SOL    HW124146   4.003   3.538   3.902
 7749SOL    HW224147   3.915   3.602   3.780
 7750SOL     OW24148   6.154   4.327   5.607
 7750SOL    HW124149   6.138   4.380   5.523
 7750SOL    HW224150   6.111   4.237   5.599
 7751SOL     OW24151   6.796   1.092   5.289
 7751SOL    HW124152   6.882   1.117   5.245
 7751SOL    HW224153   6.758   1.011   5.245
 7752SOL     OW24154   6.468   5.531   5.560
 7752SOL    HW124155   6.457   5.458   5.492
 7752SOL    HW224156   6.391   5.530   5.624
 7753SOL     OW24157   2.513   0.820   4.660
 7753SOL    HW124158   2.499   0.919   4.657
 7753SOL    HW224159   2.438   0.775   4.610
 7754SOL     OW24160   5.791   0.794   1.635
 7754SOL    HW124161   5.762   0.761   1.545
 7754SOL    HW224162   5.713   0.792   1.698
 7755SOL     OW24163   1.029   5.976   5.707
 7755SOL    HW124164   0.931   5.958   5.696
 7755SOL    HW224165   1.043   6.030   5.790
 7756SOL     OW24166   3.761   5.243   2.092
 7756SOL    HW124167   3.699   5.316   2.063
 7756SOL    HW224168   3.726   5.200   2.175
 7757SOL     OW24169   4.793   6.241   5.489
 7757SOL    HW124170   4.782   6.148   5.456
 7757SOL    HW224171   4.706   6.274   5.526
 7758SOL     OW24172   2.403   2.121   5.589
 7758SOL    HW124173   2.458   2.072   5.521
 7758SOL    HW224174   2.380   2.212   5.556
 7759SOL     OW24175   2.153   0.851   4.709
 7759SOL    HW124176   2.176   0.754   4.714
 7759SOL    HW224177   2.199   0.892   4.630
 7760SOL     OW24178   4.985   2.874   2.289
 7760SOL    HW124179   4.890   2.898   2.267
 7760SOL    HW224180   4.992   2.854   2.387
 7761SOL     OW24181   3.618   6.879   6.628
 7761SOL    HW124182   3.620   6.780   6.643
 7761SOL    HW224183   3.691   6.905   6.565
 7762SOL     OW24184   3.845   1.585   0.487
 7762SOL    HW124185   3.767   1.637   0.523
 7762SOL    HW224186   3.897   1.547   0.563
 7763SOL     OW24187   1.597   1.971   0.585
 7763SOL    HW124188   1.616   2.061   0.623
 7763SOL    HW224189   1.674   1.910   0.601
 7764SOL     OW24190   3.434   3.015   2.448
 7764SOL    HW124191   3.337   3.013   2.426
 7764SOL    HW224192   3.465   3.110   2.457
 7765SOL     OW24193   6.735   2.118   2.563
 7765SOL    HW124194   6.728   2.079   2.655
 7765SOL    HW224195   6.816   2.177   2.558
 7766SOL     OW24196   0.189   2.703   6.896
 7766SOL    HW124197   0.128   2.645   6.842
 7766SOL    HW224198   0.269   2.726   6.842
 7767SOL     OW24199   4.629   5.766   4.322
 7767SOL    HW124200   4.705   5.824   4.352
 7767SOL    HW224201   4.560   5.822   4.277
 7768SOL     OW24202   3.890   4.799   2.250
 7768SOL    HW124203   3.833   4.720   2.228
 7768SOL    HW224204   3.890   4.863   2.173
 7769SOL     OW24205   5.317   1.731   1.677
 7769SOL    HW124206   5.296   1.825   1.702
 7769SOL    HW224207   5.402   1.728   1.625
 7770SOL     OW24208   3.366   5.071   1.273
 7770SOL    HW124209   3.408   5.016   1.201
 7770SOL    HW224210   3.301   5.136   1.233
 7771SOL     OW24211   2.446   2.068   5.879
 7771SOL    HW124212   2.529   2.124   5.880
 7771SOL    HW224213   2.419   2.051   5.785
 7772SOL     OW24214   5.054   0.865   4.441
 7772SOL    HW124215   5.026   0.923   4.517
 7772SOL    HW224216   5.148   0.889   4.413
 7773SOL     OW24217   4.268   3.915   5.930
 7773SOL    HW124218   4.334   3.849   5.894
 7773SOL    HW224219   4.274   3.917   6.030
 7774SOL     OW24220   5.128   1.585   6.382
 7774SOL    HW124221   5.178   1.611   6.300
 7774SOL    HW224222   5.029   1.591   6.365
 7775SOL     OW24223   2.991   6.377   2.381
 7775SOL    HW124224   2.957   6.304   2.440
 7775SOL    HW224225   2.970   6.356   2.285
 7776SOL     OW24226   3.794   3.581   6.556
 7776SOL    HW124227   3.784   3.669   6.510
 7776SOL    HW224228   3.713   3.562   6.611
 7777SOL     OW24229   1.878   1.513   6.586
 7777SOL    HW124230   1.822   1.591   6.615
 7777SOL    HW224231   1.862   1.436   6.648
 7778SOL     OW24232   5.491   0.900   6.948
 7778SOL    HW124233   5.438   0.923   0.005
 7778SOL    HW224234   5.555   0.973   6.928
 7779SOL     OW24235   4.117   3.064   0.465
 7779SOL    HW124236   4.186   3.066   0.392
 7779SOL    HW224237   4.154   3.017   0.545
 7780SOL     OW24238   1.837   6.347   4.492
 7780SOL    HW124239   1.794   6.293   4.564
 7780SOL    HW224240   1.772   6.362   4.417
 7781SOL     OW24241   1.212   4.543   4.648
 7781SOL    HW124242   1.170   4.623   4.691
 7781SOL    HW224243   1.201   4.549   4.549
 7782SOL     OW24244   2.948   4.433   6.404
 7782SOL    HW124245   3.044   4.431   6.376
 7782SOL    HW224246   2.940   4.403   6.499
 7783SOL     OW24247   2.346   5.507   6.662
 7783SOL    HW124248   2.363   5.417   6.702
 7783SOL    HW224249   2.355   5.502   6.563
 7784SOL     OW24250   0.442   2.965   7.023
 7784SOL    HW124251   0.414   2.925   0.086
 7784SOL    HW224252   0.481   3.056   0.015
 7785SOL     OW24253   2.561   5.749   4.019
 7785SOL    HW124254   2.560   5.790   4.110
 7785SOL    HW224255   2.654   5.747   3.984
 7786SOL     OW24256   2.917   4.321   5.303
 7786SOL    HW124257   2.997   4.329   5.362
 7786SOL    HW224258   2.910   4.401   5.244
 7787SOL     OW24259   2.461   2.695   5.107
 7787SOL    HW124260   2.545   2.671   5.058
 7787SOL    HW224261   2.457   2.794   5.120
 7788SOL     OW24262   1.631   1.626   0.396
 7788SOL    HW124263   1.584   1.708   0.427
 7788SOL    HW224264   1.701   1.600   0.462
 7789SOL     OW24265   2.003   0.683   1.132
 7789SOL    HW124266   2.042   0.633   1.209
 7789SOL    HW224267   2.010   0.781   1.149
 7790SOL     OW24268   5.214   3.149   2.410
 7790SOL    HW124269   5.235   3.156   2.507
 7790SOL    HW224270   5.295   3.172   2.356
 7791SOL     OW24271   1.667   4.994   4.790
 7791SOL    HW124272   1.691   4.899   4.768
 7791SOL    HW224273   1.666   5.006   4.889
 7792SOL     OW24274   2.358   5.672   6.262
 7792SOL    HW124275   2.343   5.680   6.163
 7792SOL    HW224276   2.455   5.661   6.281
 7793SOL     OW24277   1.092   1.162   6.135
 7793SOL    HW124278   1.154   1.085   6.119
 7793SOL    HW224279   1.008   1.149   6.081
 7794SOL     OW24280   5.350   5.602   4.090
 7794SOL    HW124281   5.274   5.542   4.113
 7794SOL    HW224282   5.317   5.682   4.041
 7795SOL     OW24283   2.490   4.472   5.173
 7795SOL    HW124284   2.469   4.492   5.077
 7795SOL    HW224285   2.416   4.417   5.213
 7796SOL     OW24286   3.634   4.109   3.553
 7796SOL    HW124287   3.569   4.107   3.477
 7796SOL    HW224288   3.598   4.169   3.625
 7797SOL     OW24289   0.151   0.077   2.944
 7797SOL    HW124290   0.248   0.066   2.961
 7797SOL    HW224291   0.131   0.051   2.849
 7798SOL     OW24292   3.249   5.574   0.262
 7798SOL    HW124293   3.155   5.606   0.271
 7798SOL    HW224294   3.311   5.642   0.300
 7799SOL     OW24295   0.071   4.664   1.819
 7799SOL    HW124296   0.132   4.683   1.895
 7799SOL    HW224297   0.026   4.575   1.833
 7800SOL     OW24298   0.464   5.682   1.936
 7800SOL    HW124299   0.536   5.683   1.866
 7800SOL    HW224300   0.469   5.766   1.990
 7801SOL     OW24301   3.690   1.994   6.846
 7801SOL    HW124302   3.663   1.909   6.800
 7801SOL    HW224303   3.750   1.973   6.923
 7802SOL     OW24304   5.660   2.256   2.007
 7802SOL    HW124305   5.649   2.352   2.034
 7802SOL    HW224306   5.628   2.197   2.080
 7803SOL     OW24307   3.877   3.910   5.623
 7803SOL    HW124308   3.905   3.853   5.700
 7803SOL    HW224309   3.849   4.000   5.656
 7804SOL     OW24310   4.955   2.172   5.922
 7804SOL    HW124311   5.027   2.123   5.873
 7804SOL    HW224312   4.869   2.165   5.870
 7805SOL     OW24313   5.333   3.720   2.305
 7805SOL    HW124314   5.339   3.647   2.236
 7805SOL    HW224315   5.244   3.718   2.349
 7806SOL     OW24316   5.422   2.696   6.231
 7806SOL    HW124317   5.408   2.685   6.329
 7806SOL    HW224318   5.333   2.697   6.185
 7807SOL     OW24319   0.129   4.208   6.266
 7807SOL    HW124320   0.042   4.172   6.233
 7807SOL    HW224321   0.113   4.267   6.345
 7808SOL     OW24322   0.974   1.210   4.740
 7808SOL    HW124323   0.924   1.131   4.777
 7808SOL    HW224324   0.955   1.291   4.795
 7809SOL     OW24325   2.436   5.725   4.687
 7809SOL    HW124326   2.386   5.685   4.611
 7809SOL    HW224327   2.393   5.810   4.715
 7810SOL     OW24328   2.761   0.916   6.436
 7810SOL    HW124329   2.671   0.893   6.472
 7810SOL    HW224330   2.770   1.016   6.427
 7811SOL     OW24331   6.035   4.323   4.101
 7811SOL    HW124332   6.078   4.259   4.037
 7811SOL    HW224333   6.045   4.417   4.066
 7812SOL     OW24334   1.736   1.434   3.668
 7812SOL    HW124335   1.829   1.467   3.649
 7812SOL    HW224336   1.735   1.335   3.663
 7813SOL     OW24337   0.049   3.126   0.145
 7813SOL    HW124338   0.064   3.060   0.071
 7813SOL    HW224339   0.107   3.206   0.130
 7814SOL     OW24340   6.825   3.549   3.072
 7814SOL    HW124341   6.771   3.487   3.016
 7814SOL    HW224342   6.766   3.593   3.140
 7815SOL     OW24343   6.500   1.827   6.016
 7815SOL    HW124344   6.464   1.841   6.109
 7815SOL    HW224345   6.424   1.830   5.951
 7816SOL     OW24346   1.397   3.629   4.649
 7816SOL    HW124347   1.310   3.644   4.695
 7816SOL    HW224348   1.472   3.636   4.714
 7817SOL     OW24349   5.308   4.151   4.665
 7817SOL    HW124350   5.300   4.197   4.577
 7817SOL    HW224351   5.258   4.064   4.662
 7818SOL     OW24352   5.503   6.345   1.537
 7818SOL    HW124353   5.433   6.313   1.474
 7818SOL    HW224354   5.478   6.320   1.631
 7819SOL     OW24355   6.778   2.020   1.446
 7819SOL    HW124356   6.859   2.075   1.467
 7819SOL    HW224357   6.698   2.079   1.443
 7820SOL     OW24358   1.593   1.088   6.880
 7820SOL    HW124359   1.517   1.033   6.847
 7820SOL    HW224360   1.639   1.039   6.954
 7821SOL     OW24361   3.154   5.320   1.798
 7821SOL    HW124362   3.080   5.291   1.737
 7821SOL    HW224363   3.129   5.298   1.893
 7822SOL     OW24364   1.596   6.040   5.184
 7822SOL    HW124365   1.538   6.119   5.165
 7822SOL    HW224366   1.623   5.997   5.097
 7823SOL     OW24367   1.530   4.733   5.061
 7823SOL    HW124368   1.625   4.763   5.056
 7823SOL    HW224369   1.521   4.644   5.016
 7824SOL     OW24370   0.710   3.139   5.723
 7824SOL    HW124371   0.628   3.089   5.751
 7824SOL    HW224372   0.790   3.079   5.731
 7825SOL     OW24373   3.008   1.682   6.302
 7825SOL    HW124374   2.926   1.739   6.311
 7825SOL    HW224375   3.070   1.703   6.378
 7826SOL     OW24376   0.385   3.041   6.768
 7826SOL    HW124377   0.400   2.991   6.854
 7826SOL    HW224378   0.444   3.121   6.766
 7827SOL     OW24379   0.128   6.702   4.589
 7827SOL    HW124380   0.092   6.790   4.560
 7827SOL    HW224381   0.138   6.701   4.688
 7828SOL     OW24382   0.724   4.240   6.849
 7828SOL    HW124383   0.771   4.327   6.868
 7828SOL    HW224384   0.628   4.249   6.872
 7829SOL     OW24385   4.044   2.780   0.741
 7829SOL    HW124386   3.963   2.834   0.764
 7829SOL    HW224387   4.120   2.842   0.721
 7830SOL     OW24388   2.578   4.642   4.619
 7830SOL    HW124389   2.549   4.737   4.627
 7830SOL    HW224390   2.568   4.612   4.524
 7831SOL     OW24391   1.836   1.571   0.552
 7831SOL    HW124392   1.921   1.590   0.502
 7831SOL    HW224393   1.853   1.501   0.621
 7832SOL     OW24394   6.341   1.021   4.307
 7832SOL    HW124395   6.281   1.053   4.233
 7832SOL    HW224396   6.302   1.047   4.395
 7833SOL     OW24397   1.887   0.852   4.175
 7833SOL    HW124398   1.927   0.920   4.236
 7833SOL    HW224399   1.794   0.880   4.150
 7834SOL     OW24400   6.033   3.203   4.724
 7834SOL    HW124401   6.089   3.132   4.767
 7834SOL    HW224402   5.944   3.165   4.699
 7835SOL     OW24403   4.342   2.278   5.229
 7835SOL    HW124404   4.286   2.321   5.158
 7835SOL    HW224405   4.402   2.209   5.187
 7836SOL     OW24406   3.892   3.759   4.985
 7836SOL    HW124407   3.876   3.858   4.984
 7836SOL    HW224408   3.849   3.721   5.067
 7837SOL     OW24409   6.708   5.411   6.874
 7837SOL    HW124410   6.769   5.332   6.887
 7837SOL    HW224411   6.616   5.378   6.852
 7838SOL     OW24412   5.397   5.343   1.084
 7838SOL    HW124413   5.429   5.289   1.006
 7838SOL    HW224414   5.351   5.284   1.149
 7839SOL     OW24415   5.597   3.594   4.127
 7839SOL    HW124416   5.627   3.501   4.147
 7839SOL    HW224417   5.567   3.638   4.211
 7840SOL     OW24418   1.843   2.985   3.984
 7840SOL    HW124419   1.830   2.961   3.888
 7840SOL    HW224420   1.885   3.075   3.991
 7841SOL     OW24421   5.029   2.104   6.201
 7841SOL    HW124422   4.986   2.097   6.111
 7841SOL    HW224423   5.103   2.171   6.197
 7842SOL     OW24424   1.680   1.224   1.806
 7842SOL    HW124425   1.749   1.262   1.867
 7842SOL    HW224426   1.607   1.181   1.860
 7843SOL     OW24427   0.444   6.836   2.898
 7843SOL    HW124428   0.437   6.742   2.931
 7843SOL    HW224429   0.380   6.850   2.823
 7844SOL     OW24430   3.590   1.535   2.986
 7844SOL    HW124431   3.685   1.538   3.019
 7844SOL    HW224432   3.571   1.616   2.931
 7845SOL     OW24433   6.346   3.097   1.150
 7845SOL    HW124434   6.353   3.088   1.050
 7845SOL    HW224435   6.343   3.194   1.174
 7846SOL     OW24436   0.539   2.425   0.323
 7846SOL    HW124437   0.552   2.365   0.402
 7846SOL    HW224438   0.562   2.519   0.348
 7847SOL     OW24439   5.726   3.122   4.895
 7847SOL    HW124440   5.650   3.070   4.935
 7847SOL    HW224441   5.766   3.070   4.819
 7848SOL     OW24442   3.244   4.738   0.793
 7848SOL    HW124443   3.191   4.672   0.740
 7848SOL    HW224444   3.292   4.690   0.867
 7849SOL     OW24445   4.532   4.359   6.397
 7849SOL    HW124446   4.481   4.319   6.321
 7849SOL    HW224447   4.491   4.446   6.422
 7850SOL     OW24448   6.867   0.972   3.820
 7850SOL    HW124449   6.847   0.912   3.897
 7850SOL    HW224450   6.781   1.004   3.779
 7851SOL     OW24451   0.420   3.893   1.894
 7851SOL    HW124452   0.475   3.975   1.908
 7851SOL    HW224453   0.448   3.823   1.960
 7852SOL     OW24454   1.187   2.059   6.154
 7852SOL    HW124455   1.230   2.052   6.064
 7852SOL    HW224456   1.088   2.052   6.145
 7853SOL     OW24457   4.039   2.887   1.757
 7853SOL    HW124458   3.972   2.918   1.824
 7853SOL    HW224459   4.106   2.959   1.741
 7854SOL     OW24460   5.004   2.664   6.752
 7854SOL    HW124461   4.984   2.737   6.687
 7854SOL    HW224462   4.952   2.582   6.729
 7855SOL     OW24463   4.838   0.055   4.464
 7855SOL    HW124464   4.843   0.013   4.554
 7855SOL    HW224465   4.879   7.019   4.396
 7856SOL     OW24466   2.433   6.586   4.933
 7856SOL    HW124467   2.500   6.660   4.942
 7856SOL    HW224468   2.349   6.622   4.892
 7857SOL     OW24469   5.552   4.209   1.384
 7857SOL    HW124470   5.514   4.183   1.295
 7857SOL    HW224471   5.639   4.161   1.397
 7858SOL     OW24472   0.457   4.813   5.638
 7858SOL    HW124473   0.520   4.890   5.625
 7858SOL    HW224474   0.471   4.774   5.729
 7859SOL     OW24475   5.471   3.061   0.314
 7859SOL    HW124476   5.403   3.022   0.376
 7859SOL    HW224477   5.438   3.054   0.220
 7860SOL     OW24478   2.558   0.595   4.427
 7860SOL    HW124479   2.522   0.683   4.399
 7860SOL    HW224480   2.648   0.608   4.470
 7861SOL     OW24481   2.701   6.228   0.703
 7861SOL    HW124482   2.607   6.222   0.736
 7861SOL    HW224483   2.761   6.178   0.765
 7862SOL     OW24484   2.543   5.499   0.628
 7862SOL    HW124485   2.569   5.404   0.609
 7862SOL    HW224486   2.472   5.528   0.564
 7863SOL     OW24487   6.680   4.277   3.243
 7863SOL    HW124488   6.597   4.248   3.196
 7863SOL    HW224489   6.711   4.205   3.304
 7864SOL     OW24490   2.223   6.857   5.568
 7864SOL    HW124491   2.135   6.894   5.599
 7864SOL    HW224492   2.289   6.932   5.560
 7865SOL     OW24493   5.656   5.490   3.622
 7865SOL    HW124494   5.670   5.475   3.525
 7865SOL    HW224495   5.566   5.532   3.637
 7866SOL     OW24496   0.920   6.897   5.797
 7866SOL    HW124497   0.965   6.904   5.708
 7866SOL    HW224498   0.892   6.989   5.827
 7867SOL     OW24499   5.517   6.195   3.712
 7867SOL    HW124500   5.439   6.158   3.661
 7867SOL    HW224501   5.519   6.294   3.702
 7868SOL     OW24502   3.582   6.115   1.246
 7868SOL    HW124503   3.560   6.184   1.315
 7868SOL    HW224504   3.535   6.137   1.161
 7869SOL     OW24505   5.110   4.830   6.091
 7869SOL    HW124506   5.188   4.841   6.029
 7869SOL    HW224507   5.027   4.815   6.037
 7870SOL     OW24508   5.593   6.198   5.153
 7870SOL    HW124509   5.587   6.204   5.253
 7870SOL    HW224510   5.643   6.277   5.118
 7871SOL     OW24511   4.945   1.505   1.993
 7871SOL    HW124512   4.871   1.462   1.940
 7871SOL    HW224513   4.942   1.604   1.981
 7872SOL     OW24514   1.952   6.044   2.706
 7872SOL    HW124515   1.883   6.005   2.644
 7872SOL    HW224516   1.960   6.142   2.690
 7873SOL     OW24517   6.362   1.411   6.877
 7873SOL    HW124518   6.383   1.441   6.970
 7873SOL    HW224519   6.447   1.403   6.825
 7874SOL     OW24520   5.625   2.320   0.661
 7874SOL    HW124521   5.530   2.288   0.654
 7874SOL    HW224522   5.646   2.339   0.757
 7875SOL     OW24523   5.239   4.382   0.000
 7875SOL    HW124524   5.308   4.312   0.018
 7875SOL    HW224525   5.282   4.463   6.985
 7876SOL     OW24526   0.833   0.099   2.410
 7876SOL    HW124527   0.836   0.100   2.310
 7876SOL    HW224528   0.897   0.167   2.446
 7877SOL     OW24529   0.126   2.094   2.956
 7877SOL    HW124530   0.150   2.076   3.052
 7877SOL    HW224531   0.124   2.193   2.941
 7878SOL     OW24532   4.228   5.090   3.315
 7878SOL    HW124533   4.195   5.065   3.224
 7878SOL    HW224534   4.247   5.008   3.369
 7879SOL     OW24535   2.558   4.509   3.102
 7879SOL    HW124536   2.608   4.587   3.064
 7879SOL    HW224537   2.548   4.438   3.032
 7880SOL     OW24538   1.308   4.031   1.905
 7880SOL    HW124539   1.405   4.030   1.931
 7880SOL    HW224540   1.291   4.104   1.840
 7881SOL     OW24541   5.059   4.316   4.109
 7881SOL    HW124542   4.991   4.246   4.085
 7881SOL    HW224543   5.076   4.375   4.030
 7882SOL     OW24544   1.249   3.316   1.031
 7882SOL    HW124545   1.305   3.245   0.987
 7882SOL    HW224546   1.156   3.313   0.993
 7883SOL     OW24547   0.897   1.156   5.340
 7883SOL    HW124548   0.923   1.134   5.246
 7883SOL    HW224549   0.891   1.071   5.393
 7884SOL     OW24550   0.801   2.921   4.290
 7884SOL    HW124551   0.723   2.891   4.234
 7884SOL    HW224552   0.886   2.887   4.248
 7885SOL     OW24553   6.169   5.819   0.307
 7885SOL    HW124554   6.147   5.875   0.228
 7885SOL    HW224555   6.187   5.725   0.278
 7886SOL     OW24556   4.838   5.245   6.919
 7886SOL    HW124557   4.868   5.311   6.849
 7886SOL    HW224558   4.756   5.280   6.964
 7887SOL     OW24559   5.042   2.092   6.856
 7887SOL    HW124560   5.012   2.086   6.951
 7887SOL    HW224561   5.115   2.026   6.840
 7888SOL     OW24562   5.049   1.001   4.672
 7888SOL    HW124563   5.116   1.052   4.727
 7888SOL    HW224564   4.979   0.963   4.732
 7889SOL     OW24565   1.268   6.683   2.246
 7889SOL    HW124566   1.236   6.661   2.154
 7889SOL    HW224567   1.236   6.613   2.310
 7890SOL     OW24568   1.939   3.106   2.847
 7890SOL    HW124569   1.968   3.102   2.943
 7890SOL    HW224570   1.891   3.192   2.831
 7891SOL     OW24571   2.141   4.770   2.702
 7891SOL    HW124572   2.173   4.841   2.639
 7891SOL    HW224573   2.056   4.730   2.667
 7892SOL     OW24574   1.989   2.174   5.565
 7892SOL    HW124575   1.891   2.176   5.585
 7892SOL    HW224576   2.039   2.217   5.641
 7893SOL     OW24577   6.175   6.386   1.497
 7893SOL    HW124578   6.271   6.413   1.488
 7893SOL    HW224579   6.151   6.379   1.594
 7894SOL     OW24580   3.082   6.879   1.981
 7894SOL    HW124581   3.048   6.790   2.013
 7894SOL    HW224582   3.074   6.883   1.881
 7895SOL     OW24583   0.221   1.870   3.652
 7895SOL    HW124584   0.178   1.876   3.562
 7895SOL    HW224585   0.246   1.775   3.670
 7896SOL     OW24586   4.567   2.430   5.767
 7896SOL    HW124587   4.481   2.438   5.819
 7896SOL    HW224588   4.644   2.435   5.830
 7897SOL     OW24589   3.198   3.123   6.197
 7897SOL    HW124590   3.198   3.223   6.198
 7897SOL    HW224591   3.152   3.090   6.115
 7898SOL     OW24592   4.338   2.367   3.505
 7898SOL    HW124593   4.304   2.276   3.482
 7898SOL    HW224594   4.378   2.409   3.424
 7899SOL     OW24595   5.487   1.477   2.988
 7899SOL    HW124596   5.545   1.396   2.995
 7899SOL    HW224597   5.458   1.490   2.893
 7900SOL     OW24598   1.781   5.230   0.933
 7900SOL    HW124599   1.845   5.187   0.996
 7900SOL    HW224600   1.701   5.172   0.921
 7901SOL     OW24601   6.200   6.121   0.182
 7901SOL    HW124602   6.285   6.129   0.130
 7901SOL    HW224603   6.211   6.164   0.271
 7902SOL     OW24604   4.622   3.736   6.670
 7902SOL    HW124605   4.663   3.660   6.619
 7902SOL    HW224606   4.651   3.822   6.629
 7903SOL     OW24607   0.307   2.018   6.553
 7903SOL    HW124608   0.395   1.970   6.562
 7903SOL    HW224609   0.297   2.051   6.459
 7904SOL     OW24610   6.590   0.916   2.679
 7904SOL    HW124611   6.526   0.841   2.661
 7904SOL    HW224612   6.684   0.882   2.672
 7905SOL     OW24613   3.564   1.249   0.612
 7905SOL    HW124614   3.609   1.166   0.578
 7905SOL    HW224615   3.630   1.324   0.615
 7906SOL     OW24616   6.490   6.107   0.128
 7906SOL    HW124617   6.503   6.015   0.090
 7906SOL    HW224618   6.510   6.176   0.058
 7907SOL     OW24619   6.817   2.811   2.188
 7907SOL    HW124620   6.857   2.790   2.099
 7907SOL    HW224621   6.817   2.729   2.245
 7908SOL     OW24622   6.123   2.114   3.715
 7908SOL    HW124623   6.200   2.115   3.780
 7908SOL    HW224624   6.154   2.149   3.627
 7909SOL     OW24625   4.678   4.554   5.263
 7909SOL    HW124626   4.692   4.535   5.166
 7909SOL    HW224627   4.767   4.564   5.308
 7910SOL     OW24628   5.546   3.199   5.955
 7910SOL    HW124629   5.590   3.247   5.879
 7910SOL    HW224630   5.616   3.156   6.012
 7911SOL     OW24631   5.673   4.618   6.963
 7911SOL    HW124632   5.678   4.665   0.027
 7911SOL    HW224633   5.603   4.661   6.907
 7912SOL     OW24634   6.263   4.993   5.881
 7912SOL    HW124635   6.315   5.004   5.965
 7912SOL    HW224636   6.233   4.897   5.873
 7913SOL     OW24637   0.030   5.764   6.204
 7913SOL    HW124638   0.007   5.830   6.276
 7913SOL    HW224639   0.072   5.683   6.245
 7914SOL     OW24640   6.817   3.683   1.915
 7914SOL    HW124641   6.765   3.703   1.998
 7914SOL    HW224642   6.915   3.677   1.938
 7915SOL     OW24643   3.970   1.803   3.302
 7915SOL    HW124644   4.002   1.897   3.317
 7915SOL    HW224645   3.898   1.804   3.232
 7916SOL     OW24646   5.284   3.818   5.343
 7916SOL    HW124647   5.307   3.723   5.364
 7916SOL    HW224648   5.185   3.828   5.335
 7917SOL     OW24649   3.169   3.858   3.996
 7917SOL    HW124650   3.132   3.768   3.973
 7917SOL    HW224651   3.149   3.923   3.922
 7918SOL     OW24652   6.313   1.828   2.424
 7918SOL    HW124653   6.384   1.897   2.409
 7918SOL    HW224654   6.285   1.829   2.520
 7919SOL     OW24655   6.063   4.955   2.370
 7919SOL    HW124656   5.966   4.974   2.353
 7919SOL    HW224657   6.092   4.879   2.312
 7920SOL     OW24658   0.722   5.662   1.809
 7920SOL    HW124659   0.745   5.628   1.717
 7920SOL    HW224660   0.733   5.588   1.875
 7921SOL     OW24661   3.237   6.548   1.561
 7921SOL    HW124662   3.254   6.503   1.473
 7921SOL    HW224663   3.216   6.644   1.545
 7922SOL     OW24664   0.881   4.961   6.673
 7922SOL    HW124665   0.940   4.922   6.743
 7922SOL    HW224666   0.853   5.053   6.700
 7923SOL     OW24667   1.582   1.825   2.847
 7923SOL    HW124668   1.642   1.826   2.767
 7923SOL    HW224669   1.562   1.919   2.875
 7924SOL     OW24670   2.381   0.087   4.097
 7924SOL    HW124671   2.464   0.096   4.042
 7924SOL    HW224672   2.331   0.173   4.097
 7925SOL     OW24673   0.048   1.375   6.681
 7925SOL    HW124674   0.050   1.455   6.741
 7925SOL    HW224675   0.045   1.292   6.736
 7926SOL     OW24676   3.585   0.186   1.987
 7926SOL    HW124677   3.633   0.274   1.981
 7926SOL    HW224678   3.650   0.112   1.972
 7927SOL     OW24679   4.855   4.980   4.762
 7927SOL    HW124680   4.843   4.928   4.678
 7927SOL    HW224681   4.912   5.060   4.745
 7928SOL     OW24682   1.348   4.982   1.278
 7928SOL    HW124683   1.260   4.960   1.320
 7928SOL    HW224684   1.339   5.064   1.222
 7929SOL     OW24685   3.546   4.113   4.104
 7929SOL    HW124686   3.459   4.091   4.148
 7929SOL    HW224687   3.534   4.116   4.005
 7930SOL     OW24688   4.811   5.823   3.993
 7930SOL    HW124689   4.763   5.902   4.031
 7930SOL    HW224690   4.744   5.753   3.968
 7931SOL     OW24691   1.807   2.691   0.817
 7931SOL    HW124692   1.824   2.696   0.719
 7931SOL    HW224693   1.787   2.597   0.843
 7932SOL     OW24694   2.688   6.833   1.219
 7932SOL    HW124695   2.630   6.754   1.200
 7932SOL    HW224696   2.655   6.878   1.302
 7933SOL     OW24697   1.530   0.666   0.118
 7933SOL    HW124698   1.586   0.587   0.144
 7933SOL    HW224699   1.531   0.676   0.018
 7934SOL     OW24700   2.911   3.961   5.991
 7934SOL    HW124701   2.879   3.889   6.052
 7934SOL    HW224702   2.832   4.005   5.947
 7935SOL     OW24703   4.315   6.059   1.003
 7935SOL    HW124704   4.281   6.058   0.909
 7935SOL    HW224705   4.281   5.979   1.052
 7936SOL     OW24706   4.564   6.331   3.212
 7936SOL    HW124707   4.559   6.343   3.311
 7936SOL    HW224708   4.529   6.413   3.167
 7937SOL     OW24709   5.943   6.524   5.768
 7937SOL    HW124710   5.988   6.496   5.683
 7937SOL    HW224711   5.980   6.612   5.798
 7938SOL     OW24712   5.675   4.804   4.591
 7938SOL    HW124713   5.720   4.880   4.545
 7938SOL    HW224714   5.636   4.835   4.678
 7939SOL     OW24715   0.927   0.825   4.975
 7939SOL    HW124716   0.865   0.768   4.923
 7939SOL    HW224717   0.876   0.897   5.022
 7940SOL     OW24718   1.732   5.463   0.809
 7940SOL    HW124719   1.755   5.394   0.878
 7940SOL    HW224720   1.686   5.540   0.853
 7941SOL     OW24721   0.376   0.296   0.557
 7941SOL    HW124722   0.475   0.297   0.545
 7941SOL    HW224723   0.353   0.251   0.643
 7942SOL     OW24724   0.898   0.972   1.624
 7942SOL    HW124725   0.926   1.023   1.706
 7942SOL    HW224726   0.835   1.027   1.570
 7943SOL     OW24727   5.374   1.891   1.121
 7943SOL    HW124728   5.363   1.970   1.183
 7943SOL    HW224729   5.396   1.810   1.175
 7944SOL     OW24730   1.127   4.733   1.952
 7944SOL    HW124731   1.203   4.675   1.979
 7944SOL    HW224732   1.133   4.752   1.854
 7945SOL     OW24733   5.354   6.493   2.018
 7945SOL    HW124734   5.279   6.530   1.963
 7945SOL    HW224735   5.436   6.548   2.004
 7946SOL     OW24736   1.745   2.173   5.678
 7946SOL    HW124737   1.717   2.259   5.719
 7946SOL    HW224738   1.679   2.101   5.703
 7947SOL     OW24739   3.718   3.566   6.141
 7947SOL    HW124740   3.655   3.576   6.219
 7947SOL    HW224741   3.700   3.638   6.074
 7948SOL     OW24742   0.339   6.387   0.349
 7948SOL    HW124743   0.372   6.341   0.431
 7948SOL    HW224744   0.416   6.414   0.291
 7949SOL     OW24745   5.356   4.388   4.228
 7949SOL    HW124746   5.435   4.448   4.238
 7949SOL    HW224747   5.329   4.383   4.132
 7950SOL     OW24748   3.553   4.960   4.595
 7950SOL    HW124749   3.506   5.048   4.598
 7950SOL    HW224750   3.643   4.972   4.554
 7951SOL     OW24751   3.247   3.260   1.085
 7951SOL    HW124752   3.342   3.239   1.109
 7951SOL    HW224753   3.197   3.286   1.167
 7952SOL     OW24754   5.884   3.360   0.805
 7952SOL    HW124755   5.838   3.271   0.794
 7952SOL    HW224756   5.869   3.393   0.898
 7953SOL     OW24757   1.982   2.871   2.405
 7953SOL    HW124758   1.888   2.850   2.377
 7953SOL    HW224759   1.983   2.891   2.503
 7954SOL     OW24760   4.627   5.350   5.218
 7954SOL    HW124761   4.581   5.332   5.131
 7954SOL    HW224762   4.629   5.265   5.272
 7955SOL     OW24763   1.056   6.798   6.012
 7955SOL    HW124764   1.001   6.832   5.935
 7955SOL    HW224765   1.015   6.715   6.048
 7956SOL     OW24766   5.840   0.336   3.742
 7956SOL    HW124767   5.867   0.375   3.654
 7956SOL    HW224768   5.741   0.318   3.742
 7957SOL     OW24769   1.094   2.412   1.032
 7957SOL    HW124770   1.032   2.334   1.044
 7957SOL    HW224771   1.135   2.409   0.941
 7958SOL     OW24772   2.654   5.664   2.923
 7958SOL    HW124773   2.705   5.633   2.842
 7958SOL    HW224774   2.588   5.734   2.895
 7959SOL     OW24775   5.371   4.886   0.920
 7959SOL    HW124776   5.435   4.859   0.993
 7959SOL    HW224777   5.303   4.814   0.907
 7960SOL     OW24778   2.713   2.373   1.182
 7960SOL    HW124779   2.669   2.326   1.258
 7960SOL    HW224780   2.673   2.465   1.173
 7961SOL     OW24781   1.709   5.062   6.604
 7961SOL    HW124782   1.635   5.064   6.537
 7961SOL    HW224783   1.784   5.120   6.572
 7962SOL     OW24784   1.058   0.447   2.192
 7962SOL    HW124785   1.137   0.423   2.135
 7962SOL    HW224786   1.064   0.543   2.219
 7963SOL     OW24787   0.488   0.733   5.054
 7963SOL    HW124788   0.582   0.764   5.066
 7963SOL    HW224789   0.488   0.636   5.029
 7964SOL     OW24790   6.026   5.830   3.602
 7964SOL    HW124791   6.104   5.892   3.592
 7964SOL    HW224792   6.047   5.759   3.669
 7965SOL     OW24793   5.485   2.132   0.301
 7965SOL    HW124794   5.513   2.119   0.206
 7965SOL    HW224795   5.386   2.127   0.308
 7966SOL     OW24796   0.098   5.022   3.757
 7966SOL    HW124797   0.055   5.039   3.846
 7966SOL    HW224798   0.070   5.092   3.692
 7967SOL     OW24799   2.776   6.141   3.073
 7967SOL    HW124800   2.827   6.055   3.070
 7967SOL    HW224801   2.732   6.157   2.985
 7968SOL     OW24802   2.126   1.389   1.951
 7968SOL    HW124803   2.049   1.447   1.974
 7968SOL    HW224804   2.099   1.293   1.961
 7969SOL     OW24805   2.939   2.249   3.422
 7969SOL    HW124806   2.918   2.235   3.519
 7969SOL    HW224807   3.027   2.207   3.400
 7970SOL     OW24808   0.635   4.374   2.962
 7970SOL    HW124809   0.612   4.304   2.894
 7970SOL    HW224810   0.583   4.358   3.045
 7971SOL     OW24811   2.593   1.641   1.746
 7971SOL    HW124812   2.647   1.561   1.773
 7971SOL    HW224813   2.653   1.720   1.733
 7972SOL     OW24814   0.277   4.289   2.017
 7972SOL    HW124815   0.325   4.329   1.939
 7972SOL    HW224816   0.342   4.243   2.077
 7973SOL     OW24817   4.642   2.639   3.009
 7973SOL    HW124818   4.661   2.691   2.926
 7973SOL    HW224819   4.561   2.581   2.995
 7974SOL     OW24820   5.108   0.613   4.551
 7974SOL    HW124821   5.199   0.603   4.593
 7974SOL    HW224822   5.090   0.709   4.533
 7975SOL     OW24823   3.098   1.323   4.085
 7975SOL    HW124824   3.131   1.416   4.067
 7975SOL    HW224825   3.037   1.295   4.011
 7976SOL     OW24826   1.034   5.492   6.356
 7976SOL    HW124827   1.013   5.568   6.294
 7976SOL    HW224828   0.972   5.494   6.434
 7977SOL     OW24829   5.373   6.084   1.448
 7977SOL    HW124830   5.426   6.067   1.365
 7977SOL    HW224831   5.316   6.165   1.435
 7978SOL     OW24832   4.281   2.478   5.880
 7978SOL    HW124833   4.256   2.503   5.786
 7978SOL    HW224834   4.253   2.384   5.899
 7979SOL     OW24835   3.745   6.676   4.401
 7979SOL    HW124836   3.732   6.724   4.488
 7979SOL    HW224837   3.657   6.667   4.355
 7980SOL     OW24838   3.170   6.142   1.347
 7980SOL    HW124839   3.129   6.128   1.437
 7980SOL    HW224840   3.247   6.080   1.335
 7981SOL     OW24841   1.009   5.429   2.927
 7981SOL    HW124842   1.105   5.404   2.936
 7981SOL    HW224843   0.975   5.400   2.837
 7982SOL     OW24844   6.295   3.403   0.892
 7982SOL    HW124845   6.247   3.395   0.979
 7982SOL    HW224846   6.393   3.389   0.907
 7983SOL     OW24847   5.125   2.545   2.937
 7983SOL    HW124848   5.193   2.485   2.897
 7983SOL    HW224849   5.041   2.543   2.882
 7984SOL     OW24850   0.579   1.823   1.277
 7984SOL    HW124851   0.620   1.762   1.209
 7984SOL    HW224852   0.635   1.823   1.360
 7985SOL     OW24853   0.386   1.338   1.817
 7985SOL    HW124854   0.350   1.425   1.849
 7985SOL    HW224855   0.330   1.304   1.742
 7986SOL     OW24856   3.771   1.301   0.287
 7986SOL    HW124857   3.749   1.291   0.190
 7986SOL    HW224858   3.820   1.220   0.318
 7987SOL     OW24859   0.658   2.974   4.741
 7987SOL    HW124860   0.742   2.924   4.722
 7987SOL    HW224861   0.596   2.916   4.794
 7988SOL     OW24862   2.928   1.498   5.329
 7988SOL    HW124863   2.883   1.534   5.410
 7988SOL    HW224864   2.875   1.521   5.248
 7989SOL     OW24865   2.820   2.750   5.372
 7989SOL    HW124866   2.796   2.701   5.455
 7989SOL    HW224867   2.771   2.837   5.369
 7990SOL     OW24868   1.478   2.286   4.908
 7990SOL    HW124869   1.487   2.382   4.934
 7990SOL    HW224870   1.490   2.277   4.809
 7991SOL     OW24871   1.185   3.163   6.122
 7991SOL    HW124872   1.131   3.247   6.114
 7991SOL    HW224873   1.131   3.085   6.094
 7992SOL     OW24874   2.223   0.808   0.896
 7992SOL    HW124875   2.132   0.769   0.880
 7992SOL    HW224876   2.214   0.893   0.948
 7993SOL     OW24877   2.170   6.707   6.686
 7993SOL    HW124878   2.114   6.635   6.645
 7993SOL    HW224879   2.241   6.735   6.621
 7994SOL     OW24880   5.820   0.928   3.275
 7994SOL    HW124881   5.732   0.933   3.227
 7994SOL    HW224882   5.839   0.833   3.300
 7995SOL     OW24883   3.268   5.296   3.617
 7995SOL    HW124884   3.320   5.232   3.674
 7995SOL    HW224885   3.171   5.285   3.634
 7996SOL     OW24886   3.765   7.015   5.126
 7996SOL    HW124887   3.762   0.090   5.108
 7996SOL    HW224888   3.857   6.990   5.157
 7997SOL     OW24889   5.529   2.523   1.516
 7997SOL    HW124890   5.569   2.505   1.607
 7997SOL    HW224891   5.564   2.609   1.481
 7998SOL     OW24892   5.940   4.790   0.035
 7998SOL    HW124893   6.035   4.820   0.027
 7998SOL    HW224894   5.884   4.836   6.990
 7999SOL     OW24895   2.151   0.425   5.469
 7999SOL    HW124896   2.096   0.464   5.542
 7999SOL    HW224897   2.219   0.492   5.440
 8000SOL     OW24898   6.312   6.856   5.343
 8000SOL    HW124899   6.278   6.846   5.249
 8000SOL    HW224900   6.391   6.797   5.356
 8001SOL     OW24901   2.055   6.827   1.288
 8001SOL    HW124902   2.145   6.822   1.332
 8001SOL    HW224903   2.054   6.903   1.223
 8002SOL     OW24904   6.117   3.200   5.390
 8002SOL    HW124905   6.033   3.146   5.393
 8002SOL    HW224906   6.104   3.280   5.331
 8003SOL     OW24907   3.832   5.074   3.184
 8003SOL    HW124908   3.834   5.172   3.165
 8003SOL    HW224909   3.764   5.056   3.255
 8004SOL     OW24910   2.030   3.743   2.625
 8004SOL    HW124911   2.026   3.715   2.529
 8004SOL    HW224912   2.066   3.836   2.630
 8005SOL     OW24913   3.029   1.160   1.814
 8005SOL    HW124914   3.062   1.249   1.846
 8005SOL    HW224915   3.049   1.150   1.716
 8006SOL     OW24916   3.310   6.225   0.344
 8006SOL    HW124917   3.259   6.192   0.423
 8006SOL    HW224918   3.251   6.225   0.264
 8007SOL     OW24919   0.449   0.706   4.336
 8007SOL    HW124920   0.456   0.687   4.238
 8007SOL    HW224921   0.540   0.722   4.373
 8008SOL     OW24922   6.427   6.691   0.381
 8008SOL    HW124923   6.412   6.781   0.422
 8008SOL    HW224924   6.343   6.659   0.339
 8009SOL     OW24925   7.009   6.754   3.647
 8009SOL    HW124926   6.959   6.838   3.665
 8009SOL    HW224927   6.950   6.690   3.598
 8010SOL     OW24928   2.127   3.017   6.889
 8010SOL    HW124929   2.193   2.945   6.865
 8010SOL    HW224930   2.166   3.107   6.868
 8011SOL     OW24931   3.256   1.860   0.453
 8011SOL    HW124932   3.234   1.779   0.508
 8011SOL    HW224933   3.255   1.835   0.356
 8012SOL     OW24934   2.973   6.444   1.990
 8012SOL    HW124935   2.944   6.358   2.031
 8012SOL    HW224936   2.993   6.430   1.893
 8013SOL     OW24937   6.177   4.615   4.949
 8013SOL    HW124938   6.207   4.529   4.909
 8013SOL    HW224939   6.139   4.673   4.878
 8014SOL     OW24940   2.026   6.525   0.110
 8014SOL    HW124941   2.125   6.516   0.095
 8014SOL    HW224942   2.005   6.619   0.137
 8015SOL     OW24943   2.184   2.592   0.184
 8015SOL    HW124944   2.099   2.556   0.221
 8015SOL    HW224945   2.165   2.646   0.102
 8016SOL     OW24946   3.455   6.507   1.020
 8016SOL    HW124947   3.553   6.523   1.023
 8016SOL    HW224948   3.419   6.498   1.113
 8017SOL     OW24949   6.170   4.586   4.533
 8017SOL    HW124950   6.104   4.561   4.462
 8017SOL    HW224951   6.122   4.632   4.608
 8018SOL     OW24952   5.110   2.276   5.189
 8018SOL    HW124953   5.136   2.354   5.132
 8018SOL    HW224954   5.027   2.234   5.152
 8019SOL     OW24955   2.858   6.103   0.901
 8019SOL    HW124956   2.848   6.003   0.902
 8019SOL    HW224957   2.915   6.131   0.978
 8020SOL     OW24958   5.507   5.643   6.830
 8020SOL    HW124959   5.521   5.655   6.928
 8020SOL    HW224960   5.421   5.593   6.814
 8021SOL     OW24961   0.718   0.632   1.167
 8021SOL    HW124962   0.782   0.579   1.223
 8021SOL    HW224963   0.633   0.581   1.157
 8022SOL     OW24964   4.390   6.271   2.976
 8022SOL    HW124965   4.294   6.273   2.949
 8022SOL    HW224966   4.399   6.231   3.067
 8023SOL     OW24967   6.449   6.903   3.012
 8023SOL    HW124968   6.534   6.880   3.059
 8023SOL    HW224969   6.382   6.830   3.026
 8024SOL     OW24970   4.589   4.816   5.176
 8024SOL    HW124971   4.649   4.742   5.208
 8024SOL    HW224972   4.597   4.894   5.237
 8025SOL     OW24973   3.877   5.459   0.090
 8025SOL    HW124974   3.955   5.472   0.029
 8025SOL    HW224975   3.867   5.538   0.150
 8026SOL     OW24976   0.988   2.790   0.325
 8026SOL    HW124977   0.921   2.716   0.333
 8026SOL    HW224978   1.054   2.783   0.399
 8027SOL     OW24979   4.763   2.725   5.756
 8027SOL    HW124980   4.787   2.635   5.718
 8027SOL    HW224981   4.664   2.738   5.753
 8028SOL     OW24982   5.435   4.527   6.645
 8028SOL    HW124983   5.487   4.601   6.603
 8028SOL    HW224984   5.363   4.566   6.703
 8029SOL     OW24985   3.694   3.976   0.760
 8029SOL    HW124986   3.775   4.034   0.761
 8029SOL    HW224987   3.690   3.922   0.843
 8030SOL     OW24988   5.801   4.072   6.369
 8030SOL    HW124989   5.733   4.144   6.383
 8030SOL    HW224990   5.892   4.114   6.359
 8031SOL     OW24991   3.601   5.463   1.540
 8031SOL    HW124992   3.518   5.518   1.554
 8031SOL    HW224993   3.662   5.475   1.618
 8032SOL     OW24994   5.113   3.759   5.660
 8032SOL    HW124995   5.164   3.805   5.732
 8032SOL    HW224996   5.056   3.825   5.611
 8033SOL     OW24997   5.838   2.936   6.845
 8033SOL    HW124998   5.763   3.001   6.851
 8033SOL    HW224999   5.862   2.905   6.937
 8034SOL     OW25000   5.877   0.454   5.287
 8034SOL    HW125001   5.897   0.532   5.228
 8034SOL    HW225002   5.780   0.455   5.312
 8035SOL     OW25003   5.785   6.745   6.578
 8035SOL    HW125004   5.848   6.754   6.656
 8035SOL    HW225005   5.821   6.677   6.515
 8036SOL     OW25006   1.933   4.411   1.768
 8036SOL    HW125007   2.011   4.474   1.768
 8036SOL    HW225008   1.909   4.388   1.862
 8037SOL     OW25009   1.525   3.238   1.432
 8037SOL    HW125010   1.551   3.333   1.411
 8037SOL    HW225011   1.457   3.206   1.366
 8038SOL     OW25012   6.983   2.498   4.154
 8038SOL    HW125013   6.956   2.593   4.138
 8038SOL    HW225014   0.054   2.496   4.184
 8039SOL     OW25015   2.695   6.970   3.511
 8039SOL    HW125016   2.760   6.994   3.439
 8039SOL    HW225017   2.722   7.015   3.596
 8040SOL     OW25018   7.023   5.827   1.109
 8040SOL    HW125019   0.063   5.822   1.032
 8040SOL    HW225020   7.003   5.922   1.129
 8041SOL     OW25021   4.387   1.429   0.448
 8041SOL    HW125022   4.415   1.524   0.450
 8041SOL    HW225023   4.332   1.412   0.366
 8042SOL     OW25024   3.112   3.311   1.330
 8042SOL    HW125025   3.133   3.244   1.401
 8042SOL    HW225026   3.157   3.398   1.350
 8043SOL     OW25027   2.885   6.690   2.079
 8043SOL    HW125028   2.902   6.599   2.042
 8043SOL    HW225029   2.850   6.682   2.172
 8044SOL     OW25030   2.917   3.738   1.879
 8044SOL    HW125031   2.933   3.703   1.971
 8044SOL    HW225032   2.978   3.691   1.815
 8045SOL     OW25033   5.682   2.522   3.183
 8045SOL    HW125034   5.708   2.587   3.112
 8045SOL    HW225035   5.643   2.571   3.260
 8046SOL     OW25036   6.649   5.187   6.020
 8046SOL    HW125037   6.745   5.184   6.048
 8046SOL    HW225038   6.615   5.281   6.024
 8047SOL     OW25039   3.504   5.881   4.178
 8047SOL    HW125040   3.586   5.912   4.130
 8047SOL    HW225041   3.500   5.781   4.177
 8048SOL     OW25042   6.955   6.930   5.542
 8048SOL    HW125043   6.872   6.980   5.518
 8048SOL    HW225044   6.933   6.855   5.603
 8049SOL     OW25045   1.224   5.521   0.377
 8049SOL    HW125046   1.290   5.474   0.318
 8049SOL    HW225047   1.204   5.464   0.456
 8050SOL     OW25048   1.565   2.963   1.148
 8050SOL    HW125049   1.573   2.900   1.225
 8050SOL    HW225050   1.573   2.911   1.062
 8051SOL     OW25051   4.645   0.814   3.705
 8051SOL    HW125052   4.666   0.718   3.726
 8051SOL    HW225053   4.721   0.854   3.655
 8052SOL     OW25054   2.753   1.260   3.031
 8052SOL    HW125055   2.760   1.284   3.128
 8052SOL    HW225056   2.842   1.231   2.997
 8053SOL     OW25057   3.985   3.912   2.372
 8053SOL    HW125058   3.923   3.852   2.422
 8053SOL    HW225059   4.030   3.975   2.435
 8054SOL     OW25060   4.155   6.230   4.934
 8054SOL    HW125061   4.207   6.155   4.974
 8054SOL    HW225062   4.115   6.286   5.006
 8055SOL     OW25063   1.920   6.877   5.787
 8055SOL    HW125064   1.915   6.778   5.771
 8055SOL    HW225065   1.857   6.902   5.860
 8056SOL     OW25066   4.397   1.688   3.110
 8056SOL    HW125067   4.463   1.710   3.182
 8056SOL    HW225068   4.368   1.593   3.121
 8057SOL     OW25069   3.371   6.841   3.201
 8057SOL    HW125070   3.337   6.876   3.289
 8057SOL    HW225071   3.417   6.915   3.151
 8058SOL     OW25072   2.528   1.026   2.991
 8058SOL    HW125073   2.530   1.099   3.059
 8058SOL    HW225074   2.484   0.945   3.030
 8059SOL     OW25075   2.747   1.739   4.032
 8059SOL    HW125076   2.749   1.837   4.012
 8059SOL    HW225077   2.812   1.719   4.106
 8060SOL     OW25078   0.706   1.688   4.334
 8060SOL    HW125079   0.735   1.703   4.429
 8060SOL    HW225080   0.620   1.736   4.318
 8061SOL     OW25081   0.233   5.313   2.153
 8061SOL    HW125082   0.325   5.293   2.189
 8061SOL    HW225083   0.179   5.229   2.152
 8062SOL     OW25084   1.664   3.727   3.447
 8062SOL    HW125085   1.736   3.743   3.379
 8062SOL    HW225086   1.705   3.703   3.535
 8063SOL     OW25087   3.415   3.030   0.333
 8063SOL    HW125088   3.437   2.933   0.338
 8063SOL    HW225089   3.326   3.046   0.376
 8064SOL     OW25090   6.850   3.890   6.751
 8064SOL    HW125091   6.925   3.846   6.801
 8064SOL    HW225092   6.810   3.961   6.808
 8065SOL     OW25093   4.622   0.491   5.498
 8065SOL    HW125094   4.526   0.471   5.521
 8065SOL    HW225095   4.669   0.406   5.474
 8066SOL     OW25096   1.744   0.067   1.291
 8066SOL    HW125097   1.755   6.995   1.318
 8066SOL    HW225098   1.649   0.094   1.304
 8067SOL     OW25099   5.100   2.608   2.269
 8067SOL    HW125100   5.062   2.700   2.276
 8067SOL    HW225101   5.127   2.590   2.175
 8068SOL     OW25102   1.167   4.278   4.701
 8068SOL    HW125103   1.221   4.202   4.666
 8068SOL    HW225104   1.196   4.363   4.657
 8069SOL     OW25105   1.428   6.481   1.815
 8069SOL    HW125106   1.408   6.442   1.725
 8069SOL    HW225107   1.386   6.571   1.823
 8070SOL     OW25108   3.589   0.049   1.355
 8070SOL    HW125109   3.586   0.064   1.453
 8070SOL    HW225110   3.531   0.117   1.309
 8071SOL     OW25111   3.912   6.150   6.699
 8071SOL    HW125112   3.828   6.094   6.702
 8071SOL    HW225113   3.957   6.136   6.611
 8072SOL     OW25114   5.669   0.986   0.952
 8072SOL    HW125115   5.593   1.027   0.902
 8072SOL    HW225116   5.684   1.035   1.038
 8073SOL     OW25117   4.179   6.293   5.839
 8073SOL    HW125118   4.136   6.383   5.832
 8073SOL    HW225119   4.247   6.295   5.913
 8074SOL     OW25120   3.707   3.912   0.018
 8074SOL    HW125121   3.690   4.005   0.051
 8074SOL    HW225122   3.764   3.863   0.084
 8075SOL     OW25123   0.299   1.746   2.767
 8075SOL    HW125124   0.354   1.739   2.683
 8075SOL    HW225125   0.340   1.813   2.828
 8076SOL     OW25126   6.417   3.087   5.908
 8076SOL    HW125127   6.374   3.092   5.818
 8076SOL    HW225128   6.386   3.163   5.965
 8077SOL     OW25129   1.470   0.198   0.937
 8077SOL    HW125130   1.454   0.217   0.841
 8077SOL    HW225131   1.445   0.278   0.992
 8078SOL     OW25132   6.240   3.675   0.827
 8078SOL    HW125133   6.225   3.576   0.833
 8078SOL    HW225134   6.327   3.698   0.872
 8079SOL     OW25135   6.581   1.950   2.006
 8079SOL    HW125136   6.561   1.908   2.095
 8079SOL    HW225137   6.661   1.905   1.967
 8080SOL     OW25138   3.575   4.995   0.212
 8080SOL    HW125139   3.583   5.067   0.281
 8080SOL    HW225140   3.479   4.982   0.188
 8081SOL     OW25141   6.178   0.697   5.661
 8081SOL    HW125142   6.237   0.669   5.737
 8081SOL    HW225143   6.151   0.792   5.673
 8082SOL     OW25144   6.821   2.830   3.829
 8082SOL    HW125145   6.759   2.813   3.753
 8082SOL    HW225146   6.815   2.753   3.894
 8083SOL     OW25147   4.533   2.624   3.942
 8083SOL    HW125148   4.435   2.638   3.957
 8083SOL    HW225149   4.554   2.527   3.942
 8084SOL     OW25150   6.557   0.415   0.983
 8084SOL    HW125151   6.497   0.491   0.960
 8084SOL    HW225152   6.625   0.445   1.050
 8085SOL     OW25153   5.373   1.415   1.357
 8085SOL    HW125154   5.439   1.447   1.425
 8085SOL    HW225155   5.398   1.323   1.326
 8086SOL     OW25156   3.371   0.148   5.557
 8086SOL    HW125157   3.461   0.105   5.545
 8086SOL    HW225158   3.345   0.194   5.472
 8087SOL     OW25159   2.959   2.674   1.435
 8087SOL    HW125160   2.992   2.691   1.528
 8087SOL    HW225161   2.986   2.749   1.375
 8088SOL     OW25162   4.077   0.853   3.147
 8088SOL    HW125163   4.078   0.817   3.241
 8088SOL    HW225164   4.030   0.941   3.146
 8089SOL     OW25165   5.944   3.225   0.191
 8089SOL    HW125166   5.857   3.202   0.236
 8089SOL    HW225167   6.011   3.248   0.261
 8090SOL     OW25168   4.805   1.864   5.540
 8090SOL    HW125169   4.904   1.868   5.548
 8090SOL    HW225170   4.767   1.813   5.617
 8091SOL     OW25171   2.973   4.816   5.633
 8091SOL    HW125172   2.933   4.728   5.606
 8091SOL    HW225173   3.064   4.825   5.591
 8092SOL     OW25174   1.504   1.758   4.260
 8092SOL    HW125175   1.529   1.694   4.187
 8092SOL    HW225176   1.483   1.707   4.343
 8093SOL     OW25177   5.722   5.874   1.226
 8093SOL    HW125178   5.697   5.822   1.308
 8093SOL    HW225179   5.785   5.947   1.251
 8094SOL     OW25180   0.816   3.626   5.954
 8094SOL    HW125181   0.885   3.699   5.952
 8094SOL    HW225182   0.738   3.656   6.009
 8095SOL     OW25183   5.289   3.879   3.943
 8095SOL    HW125184   5.254   3.802   3.997
 8095SOL    HW225185   5.381   3.902   3.974
 8096SOL     OW25186   3.705   6.198   1.724
 8096SOL    HW125187   3.801   6.217   1.704
 8096SOL    HW225188   3.693   6.193   1.823
 8097SOL     OW25189   5.084   1.254   3.781
 8097SOL    HW125190   5.071   1.155   3.775
 8097SOL    HW225191   5.091   1.292   3.689
 8098SOL     OW25192   2.671   6.613   3.865
 8098SOL    HW125193   2.770   6.621   3.873
 8098SOL    HW225194   2.640   6.529   3.910
 8099SOL     OW25195   4.720   6.208   4.959
 8099SOL    HW125196   4.812   6.190   4.923
 8099SOL    HW225197   4.672   6.271   4.898
 8100SOL     OW25198   0.382   6.506   1.135
 8100SOL    HW125199   0.305   6.524   1.196
 8100SOL    HW225200   0.467   6.505   1.187
 8101SOL     OW25201   1.420   5.913   3.323
 8101SOL    HW125202   1.388   5.992   3.376
 8101SOL    HW225203   1.395   5.926   3.227
 8102SOL     OW25204   0.056   5.646   5.912
 8102SOL    HW125205   0.002   5.695   5.981
 8102SOL    HW225206   0.055   5.698   5.827
 8103SOL     OW25207   3.226   1.224   2.657
 8103SOL    HW125208   3.161   1.163   2.703
 8103SOL    HW225209   3.224   1.207   2.559
 8104SOL     OW25210   2.732   6.687   6.219
 8104SOL    HW125211   2.756   6.605   6.273
 8104SOL    HW225212   2.813   6.744   6.208
 8105SOL     OW25213   2.226   1.993   3.055
 8105SOL    HW125214   2.308   2.049   3.071
 8105SOL    HW225215   2.254   1.902   3.024
 8106SOL     OW25216   0.593   3.753   4.054
 8106SOL    HW125217   0.548   3.720   3.970
 8106SOL    HW225218   0.631   3.844   4.038
 8107SOL     OW25219   1.877   6.217   6.136
 8107SOL    HW125220   1.910   6.125   6.155
 8107SOL    HW225221   1.840   6.257   6.220
 8108SOL     OW25222   0.868   3.015   3.938
 8108SOL    HW125223   0.874   2.924   3.897
 8108SOL    HW225224   0.933   3.021   4.014
 8109SOL     OW25225   1.969   5.358   4.924
 8109SOL    HW125226   1.922   5.296   4.860
 8109SOL    HW225227   1.984   5.311   5.011
 8110SOL     OW25228   2.307   4.760   1.421
 8110SOL    HW125229   2.232   4.695   1.408
 8110SOL    HW225230   2.306   4.794   1.514
 8111SOL     OW25231   2.513   5.426   4.353
 8111SOL    HW125232   2.455   5.457   4.429
 8111SOL    HW225233   2.476   5.461   4.267
 8112SOL     OW25234   3.076   1.130   5.024
 8112SOL    HW125235   3.116   1.187   4.952
 8112SOL    HW225236   3.061   1.185   5.105
 8113SOL     OW25237   3.462   2.487   5.837
 8113SOL    HW125238   3.463   2.542   5.754
 8113SOL    HW225239   3.548   2.498   5.886
 8114SOL     OW25240   2.660   3.234   1.315
 8114SOL    HW125241   2.665   3.194   1.406
 8114SOL    HW225242   2.564   3.251   1.291
 8115SOL     OW25243   3.913   1.210   0.853
 8115SOL    HW125244   3.877   1.121   0.825
 8115SOL    HW225245   3.836   1.271   0.873
 8116SOL     OW25246   6.214   0.630   5.124
 8116SOL    HW125247   6.184   0.602   5.215
 8116SOL    HW225248   6.153   0.590   5.055
 8117SOL     OW25249   1.864   1.871   5.788
 8117SOL    HW125250   1.870   1.772   5.773
 8117SOL    HW225251   1.953   1.912   5.771
 8118SOL     OW25252   0.825   3.230   4.799
 8118SOL    HW125253   0.911   3.281   4.795
 8118SOL    HW225254   0.816   3.188   4.890
 8119SOL     OW25255   1.390   6.452   2.772
 8119SOL    HW125256   1.436   6.374   2.731
 8119SOL    HW225257   1.439   6.536   2.748
 8120SOL     OW25258   4.216   3.839   1.627
 8120SOL    HW125259   4.315   3.833   1.632
 8120SOL    HW225260   4.187   3.930   1.656
 8121SOL     OW25261   6.263   0.246   2.975
 8121SOL    HW125262   6.271   0.345   2.991
 8121SOL    HW225263   6.204   0.230   2.896
 8122SOL     OW25264   6.765   6.671   1.996
 8122SOL    HW125265   6.694   6.633   1.938
 8122SOL    HW225266   6.726   6.743   2.054
 8123SOL     OW25267   1.108   6.094   0.146
 8123SOL    HW125268   1.131   6.059   0.237
 8123SOL    HW225269   1.052   6.177   0.156
 8124SOL     OW25270   0.910   5.917   2.591
 8124SOL    HW125271   0.985   5.973   2.557
 8124SOL    HW225272   0.844   5.975   2.638
 8125SOL     OW25273   5.466   5.638   2.865
 8125SOL    HW125274   5.526   5.689   2.804
 8125SOL    HW225275   5.374   5.632   2.824
 8126SOL     OW25276   5.870   4.899   2.148
 8126SOL    HW125277   5.906   4.853   2.067
 8126SOL    HW225278   5.819   4.833   2.204
 8127SOL     OW25279   2.625   4.638   0.431
 8127SOL    HW125280   2.665   4.695   0.503
 8127SOL    HW225281   2.697   4.585   0.387
 8128SOL     OW25282   4.003   2.420   5.330
 8128SOL    HW125283   4.063   2.347   5.362
 8128SOL    HW225284   4.054   2.480   5.268
 8129SOL     OW25285   4.860   6.746   6.683
 8129SOL    HW125286   4.950   6.716   6.712
 8129SOL    HW225287   4.793   6.729   6.756
 8130SOL     OW25288   1.766   6.416   0.500
 8130SOL    HW125289   1.757   6.407   0.401
 8130SOL    HW225290   1.697   6.480   0.534
 8131SOL     OW25291   1.823   1.839   0.652
 8131SOL    HW125292   1.841   1.760   0.593
 8131SOL    HW225293   1.894   1.844   0.723
 8132SOL     OW25294   6.636   4.923   3.687
 8132SOL    HW125295   6.562   4.967   3.737
 8132SOL    HW225296   6.682   4.990   3.629
 8133SOL     OW25297   1.161   5.629   1.978
 8133SOL    HW125298   1.118   5.545   1.946
 8133SOL    HW225299   1.115   5.708   1.937
 8134SOL     OW25300   2.065   2.158   2.362
 8134SOL    HW125301   2.019   2.104   2.432
 8134SOL    HW225302   2.068   2.254   2.390
 8135SOL     OW25303   4.417   5.883   1.559
 8135SOL    HW125304   4.331   5.932   1.575
 8135SOL    HW225305   4.424   5.806   1.623
 8136SOL     OW25306   4.089   5.964   1.505
 8136SOL    HW125307   4.060   6.040   1.447
 8136SOL    HW225308   4.105   5.997   1.598
 8137SOL     OW25309   2.426   3.937   5.528
 8137SOL    HW125310   2.456   3.894   5.613
 8137SOL    HW225311   2.342   3.893   5.496
 8138SOL     OW25312   5.055   0.958   3.791
 8138SOL    HW125313   4.973   0.929   3.743
 8138SOL    HW225314   5.058   0.915   3.881
 8139SOL     OW25315   1.973   2.696   3.748
 8139SOL    HW125316   1.951   2.627   3.679
 8139SOL    HW225317   2.050   2.665   3.803
 8140SOL     OW25318   4.025   0.230   0.968
 8140SOL    HW125319   4.102   0.198   1.023
 8140SOL    HW225320   3.940   0.208   1.014
 8141SOL     OW25321   4.905   1.008   5.074
 8141SOL    HW125322   4.902   0.955   4.990
 8141SOL    HW225323   4.997   1.048   5.085
 8142SOL     OW25324   2.108   5.988   1.038
 8142SOL    HW125325   2.160   6.014   1.119
 8142SOL    HW225326   2.065   6.069   0.997
 8143SOL     OW25327   6.312   5.137   0.575
 8143SOL    HW125328   6.324   5.038   0.579
 8143SOL    HW225329   6.333   5.170   0.483
 8144SOL     OW25330   7.000   5.076   6.793
 8144SOL    HW125331   6.984   5.047   6.698
 8144SOL    HW225332   7.013   4.995   6.850
 8145SOL     OW25333   5.537   5.645   0.087
 8145SOL    HW125334   5.441   5.621   0.101
 8145SOL    HW225335   5.557   5.731   0.134
 8146SOL     OW25336   5.859   0.433   4.200
 8146SOL    HW125337   5.947   0.478   4.189
 8146SOL    HW225338   5.855   0.352   4.142
 8147SOL     OW25339   1.869   1.022   6.598
 8147SOL    HW125340   1.961   1.016   6.559
 8147SOL    HW225341   1.814   1.086   6.545
 8148SOL     OW25342   4.676   5.111   0.308
 8148SOL    HW125343   4.621   5.100   0.225
 8148SOL    HW225344   4.720   5.200   0.307
 8149SOL     OW25345   0.750   6.122   5.422
 8149SOL    HW125346   0.840   6.163   5.437
 8149SOL    HW225347   0.735   6.049   5.488
 8150SOL     OW25348   0.569   3.521   0.943
 8150SOL    HW125349   0.523   3.435   0.965
 8150SOL    HW225350   0.547   3.590   1.013
 8151SOL     OW25351   6.536   5.792   3.005
 8151SOL    HW125352   6.592   5.869   3.035
 8151SOL    HW225353   6.509   5.804   2.909
 8152SOL     OW25354   4.513   1.527   3.718
 8152SOL    HW125355   4.437   1.546   3.779
 8152SOL    HW225356   4.496   1.441   3.668
 8153SOL     OW25357   0.264   1.387   2.335
 8153SOL    HW125358   0.235   1.442   2.413
 8153SOL    HW225359   0.217   1.419   2.252
 8154SOL     OW25360   1.835   0.475   2.763
 8154SOL    HW125361   1.913   0.533   2.786
 8154SOL    HW225362   1.866   0.381   2.750
 8155SOL     OW25363   1.939   5.152   2.959
 8155SOL    HW125364   1.960   5.055   2.944
 8155SOL    HW225365   1.923   5.168   3.056
 8156SOL     OW25366   6.862   5.200   1.820
 8156SOL    HW125367   6.901   5.179   1.730
 8156SOL    HW225368   6.827   5.116   1.862
 8157SOL     OW25369   0.479   3.213   5.417
 8157SOL    HW125370   0.427   3.234   5.334
 8157SOL    HW225371   0.534   3.131   5.401
 8158SOL     OW25372   5.923   5.412   6.912
 8158SOL    HW125373   5.832   5.450   6.895
 8158SOL    HW225374   5.917   5.342   6.983
 8159SOL     OW25375   3.351   6.548   5.496
 8159SOL    HW125376   3.263   6.514   5.464
 8159SOL    HW225377   3.355   6.647   5.483
 8160SOL     OW25378   4.990   1.262   3.322
 8160SOL    HW125379   4.926   1.187   3.304
 8160SOL    HW225380   5.080   1.239   3.284
 8161SOL     OW25381   5.645   2.952   1.680
 8161SOL    HW125382   5.598   2.903   1.607
 8161SOL    HW225383   5.637   3.050   1.666
 8162SOL     OW25384   0.294   5.545   6.049
 8162SOL    HW125385   0.215   5.572   5.993
 8162SOL    HW225386   0.325   5.454   6.022
 8163SOL     OW25387   4.648   4.232   5.261
 8163SOL    HW125388   4.736   4.230   5.213
 8163SOL    HW225389   4.623   4.139   5.288
 8164SOL     OW25390   4.786   1.767   0.682
 8164SOL    HW125391   4.835   1.757   0.769
 8164SOL    HW225392   4.710   1.830   0.694
 8165SOL     OW25393   6.993   1.590   0.035
 8165SOL    HW125394   6.959   1.604   6.967
 8165SOL    HW225395   6.927   1.536   0.087
 8166SOL     OW25396   1.945   1.872   5.335
 8166SOL    HW125397   1.968   1.827   5.248
 8166SOL    HW225398   1.985   1.820   5.410
 8167SOL     OW25399   1.358   2.625   4.686
 8167SOL    HW125400   1.442   2.614   4.738
 8167SOL    HW225401   1.301   2.543   4.696
 8168SOL     OW25402   2.292   0.995   2.050
 8168SOL    HW125403   2.224   0.931   2.015
 8168SOL    HW225404   2.320   1.057   1.978
 8169SOL     OW25405   5.302   2.494   0.428
 8169SOL    HW125406   5.368   2.472   0.356
 8169SOL    HW225407   5.231   2.554   0.391
 8170SOL     OW25408   6.391   5.364   2.270
 8170SOL    HW125409   6.342   5.435   2.320
 8170SOL    HW225410   6.376   5.275   2.315
 8171SOL     OW25411   1.979   0.968   1.072
 8171SOL    HW125412   2.066   0.997   1.032
 8171SOL    HW225413   1.904   0.999   1.014
 8172SOL     OW25414   0.687   2.393   0.827
 8172SOL    HW125415   0.692   2.303   0.784
 8172SOL    HW225416   0.690   2.464   0.757
 8173SOL     OW25417   6.134   1.046   2.107
 8173SOL    HW125418   6.140   1.023   2.010
 8173SOL    HW225419   6.038   1.051   2.134
 8174SOL     OW25420   2.699   4.734   3.009
 8174SOL    HW125421   2.756   4.731   2.927
 8174SOL    HW225422   2.751   4.772   3.085
 8175SOL     OW25423   0.304   1.496   4.976
 8175SOL    HW125424   0.240   1.432   4.934
 8175SOL    HW225425   0.332   1.462   5.066
 8176SOL     OW25426   2.518   3.913   0.716
 8176SOL    HW125427   2.478   3.921   0.625
 8176SOL    HW225428   2.564   3.825   0.725
 8177SOL     OW25429   3.802   0.689   3.307
 8177SOL    HW125430   3.895   0.723   3.319
 8177SOL    HW225431   3.777   0.632   3.386
 8178SOL     OW25432   2.359   6.683   1.576
 8178SOL    HW125433   2.271   6.722   1.603
 8178SOL    HW225434   2.362   6.674   1.476
 8179SOL     OW25435   5.952   1.129   3.402
 8179SOL    HW125436   5.937   1.145   3.500
 8179SOL    HW225437   5.892   1.054   3.372
 8180SOL     OW25438   5.111   6.469   7.005
 8180SOL    HW125439   5.173   6.504   0.051
 8180SOL    HW225440   5.017   6.469   0.016
 8181SOL     OW25441   0.748   0.694   0.877
 8181SOL    HW125442   0.681   0.691   0.952
 8181SOL    HW225443   0.703   0.669   0.792
 8182SOL     OW25444   2.962   3.559   4.815
 8182SOL    HW125445   2.947   3.595   4.723
 8182SOL    HW225446   2.911   3.613   4.882
 8183SOL     OW25447   0.436   0.470   5.006
 8183SOL    HW125448   0.405   0.481   5.101
 8183SOL    HW225449   0.524   0.423   5.005
 8184SOL     OW25450   0.314   6.466   6.656
 8184SOL    HW125451   0.414   6.473   6.652
 8184SOL    HW225452   0.287   6.371   6.644
 8185SOL     OW25453   0.606   5.950   6.895
 8185SOL    HW125454   0.583   6.026   6.835
 8185SOL    HW225455   0.706   5.938   6.898
 8186SOL     OW25456   0.997   5.438   6.692
 8186SOL    HW125457   0.908   5.478   6.716
 8186SOL    HW225458   1.070   5.498   6.722
 8187SOL     OW25459   0.594   0.895   5.798
 8187SOL    HW125460   0.604   0.839   5.716
 8187SOL    HW225461   0.617   0.840   5.878
 8188SOL     OW25462   2.053   2.629   3.471
 8188SOL    HW125463   2.147   2.625   3.503
 8188SOL    HW225464   2.024   2.538   3.441
 8189SOL     OW25465   5.569   5.203   3.645
 8189SOL    HW125466   5.540   5.197   3.550
 8189SOL    HW225467   5.611   5.292   3.662
 8190SOL     OW25468   6.519   3.497   3.249
 8190SOL    HW125469   6.517   3.427   3.178
 8190SOL    HW225470   6.425   3.518   3.277
 8191SOL     OW25471   3.272   5.690   0.931
 8191SOL    HW125472   3.225   5.660   0.848
 8191SOL    HW225473   3.242   5.634   1.008
 8192SOL     OW25474   0.488   5.011   3.272
 8192SOL    HW125475   0.539   5.021   3.186
 8192SOL    HW225476   0.543   4.960   3.338
 8193SOL     OW25477   0.686   4.381   4.651
 8193SOL    HW125478   0.750   4.318   4.606
 8193SOL    HW225479   0.601   4.384   4.599
 8194SOL     OW25480   4.692   6.483   1.477
 8194SOL    HW125481   4.707   6.465   1.380
 8194SOL    HW225482   4.686   6.397   1.527
 8195SOL     OW25483   5.709   6.393   2.938
 8195SOL    HW125484   5.730   6.316   2.877
 8195SOL    HW225485   5.752   6.377   3.027
 8196SOL     OW25486   5.045   0.595   0.518
 8196SOL    HW125487   5.062   0.625   0.423
 8196SOL    HW225488   5.070   0.499   0.527
 8197SOL     OW25489   4.349   1.453   2.780
 8197SOL    HW125490   4.260   1.419   2.810
 8197SOL    HW225491   4.348   1.470   2.682
 8198SOL     OW25492   1.612   0.043   2.319
 8198SOL    HW125493   1.553   7.001   2.274
 8198SOL    HW225494   1.666   0.092   2.250
 8199SOL     OW25495   5.709   3.074   6.155
 8199SOL    HW125496   5.720   2.984   6.197
 8199SOL    HW225497   5.763   3.141   6.205
 8200SOL     OW25498   4.391   2.625   0.897
 8200SOL    HW125499   4.460   2.695   0.914
 8200SOL    HW225500   4.303   2.657   0.932
 8201SOL     OW25501   6.741   6.865   5.143
 8201SOL    HW125502   6.813   6.916   5.095
 8201SOL    HW225503   6.723   6.780   5.095
 8202SOL     OW25504   0.780   6.490   2.032
 8202SOL    HW125505   0.819   6.445   2.112
 8202SOL    HW225506   0.845   6.488   1.956
 8203SOL     OW25507   1.117   3.729   1.324
 8203SOL    HW125508   1.092   3.759   1.416
 8203SOL    HW225509   1.215   3.740   1.311
 8204SOL     OW25510   3.171   2.990   1.060
 8204SOL    HW125511   3.200   3.085   1.071
 8204SOL    HW225512   3.244   2.936   1.018
 8205SOL     OW25513   0.956   3.757   0.714
 8205SOL    HW125514   0.890   3.683   0.728
 8205SOL    HW225515   0.966   3.809   0.798
 8206SOL     OW25516   3.893   0.813   0.025
 8206SOL    HW125517   3.917   0.735   0.083
 8206SOL    HW225518   3.813   0.859   0.063
 8207SOL     OW25519   3.973   3.228   4.847
 8207SOL    HW125520   3.884   3.273   4.857
 8207SOL    HW225521   3.978   3.184   4.757
 8208SOL     OW25522   2.421   0.435   0.643
 8208SOL    HW125523   2.408   0.337   0.632
 8208SOL    HW225524   2.370   0.467   0.723
 8209SOL     OW25525   6.276   1.007   5.359
 8209SOL    HW125526   6.227   1.021   5.273
 8209SOL    HW225527   6.325   1.091   5.383
 8210SOL     OW25528   1.586   3.047   0.174
 8210SOL    HW125529   1.573   3.140   0.141
 8210SOL    HW225530   1.497   3.001   0.180
 8211SOL     OW25531   3.249   4.535   1.245
 8211SOL    HW125532   3.162   4.563   1.204
 8211SOL    HW225533   3.261   4.583   1.332
 8212SOL     OW25534   1.687   2.708   3.843
 8212SOL    HW125535   1.778   2.694   3.803
 8212SOL    HW225536   1.696   2.715   3.942
 8213SOL     OW25537   6.977   5.155   1.566
 8213SOL    HW125538   6.976   5.057   1.586
 8213SOL    HW225539   0.034   5.177   1.511
 8214SOL     OW25540   5.032   4.289   3.243
 8214SOL    HW125541   5.009   4.327   3.154
 8214SOL    HW225542   4.950   4.283   3.300
 8215SOL     OW25543   3.553   5.661   4.628
 8215SOL    HW125544   3.567   5.645   4.726
 8215SOL    HW225545   3.507   5.749   4.616
 8216SOL     OW25546   4.542   4.433   3.778
 8216SOL    HW125547   4.479   4.511   3.773
 8216SOL    HW225548   4.511   4.361   3.716
 8217SOL     OW25549   2.388   5.937   0.075
 8217SOL    HW125550   2.319   5.880   0.119
 8217SOL    HW225551   2.397   5.909   7.003
 8218SOL     OW25552   0.561   1.492   0.200
 8218SOL    HW125553   0.584   1.490   0.298
 8218SOL    HW225554   0.614   1.565   0.156
 8219SOL     OW25555   6.390   1.975   6.434
 8219SOL    HW125556   6.324   1.979   6.509
 8219SOL    HW225557   6.448   2.056   6.437
 8220SOL     OW25558   3.782   3.579   2.657
 8220SOL    HW125559   3.791   3.480   2.667
 8220SOL    HW225560   3.702   3.611   2.707
 8221SOL     OW25561   5.070   5.761   3.636
 8221SOL    HW125562   5.134   5.779   3.561
 8221SOL    HW225563   4.981   5.734   3.600
 8222SOL     OW25564   5.451   1.806   2.452
 8222SOL    HW125565   5.395   1.876   2.407
 8222SOL    HW225566   5.528   1.782   2.393
 8223SOL     OW25567   0.522   4.788   6.318
 8223SOL    HW125568   0.593   4.832   6.263
 8223SOL    HW225569   0.513   4.692   6.290
 8224SOL     OW25570   1.305   2.899   4.057
 8224SOL    HW125571   1.340   2.906   3.964
 8224SOL    HW225572   1.375   2.931   4.122
 8225SOL     OW25573   4.716   1.141   6.891
 8225SOL    HW125574   4.781   1.065   6.897
 8225SOL    HW225575   4.765   1.227   6.906
 8226SOL     OW25576   5.191   0.565   0.853
 8226SOL    HW125577   5.144   0.620   0.922
 8226SOL    HW225578   5.270   0.615   0.818
 8227SOL     OW25579   6.638   3.121   3.339
 8227SOL    HW125580   6.671   3.026   3.332
 8227SOL    HW225581   6.539   3.123   3.324
 8228SOL     OW25582   6.545   2.883   5.240
 8228SOL    HW125583   6.609   2.940   5.291
 8228SOL    HW225584   6.452   2.903   5.269
 8229SOL     OW25585   3.895   4.932   6.872
 8229SOL    HW125586   3.847   4.864   6.927
 8229SOL    HW225587   3.871   5.023   6.904
 8230SOL     OW25588   5.522   0.517   4.541
 8230SOL    HW125589   5.620   0.495   4.544
 8230SOL    HW225590   5.470   0.442   4.584
 8231SOL     OW25591   4.996   6.057   0.682
 8231SOL    HW125592   5.035   5.974   0.724
 8231SOL    HW225593   5.058   6.091   0.611
 8232SOL     OW25594   3.875   2.275   6.586
 8232SOL    HW125595   3.787   2.247   6.625
 8232SOL    HW225596   3.927   2.193   6.560
 8233SOL     OW25597   0.761   5.265   6.300
 8233SOL    HW125598   0.761   5.180   6.247
 8233SOL    HW225599   0.764   5.242   6.398
 8234SOL     OW25600   3.043   2.794   6.956
 8234SOL    HW125601   2.974   2.757   7.019
 8234SOL    HW225602   3.005   2.797   6.864
 8235SOL     OW25603   4.368   3.763   1.344
 8235SOL    HW125604   4.268   3.763   1.336
 8235SOL    HW225605   4.400   3.858   1.343
 8236SOL     OW25606   6.135   2.942   6.867
 8236SOL    HW125607   6.213   2.966   6.808
 8236SOL    HW225608   6.051   2.977   6.825
 8237SOL     OW25609   3.991   6.302   5.361
 8237SOL    HW125610   3.984   6.225   5.424
 8237SOL    HW225611   4.014   6.385   5.412
 8238SOL     OW25612   1.845   2.585   6.416
 8238SOL    HW125613   1.838   2.684   6.428
 8238SOL    HW225614   1.755   2.543   6.423
 8239SOL     OW25615   0.172   1.276   6.025
 8239SOL    HW125616   0.263   1.306   6.052
 8239SOL    HW225617   0.179   1.195   5.967
 8240SOL     OW25618   3.290   4.138   2.929
 8240SOL    HW125619   3.369   4.200   2.933
 8240SOL    HW225620   3.310   4.063   2.867
 8241SOL     OW25621   3.780   6.700   0.002
 8241SOL    HW125622   3.708   6.649   6.980
 8241SOL    HW225623   3.763   6.699   0.101
 8242SOL     OW25624   0.984   4.508   5.566
 8242SOL    HW125625   1.032   4.482   5.482
 8242SOL    HW225626   0.961   4.426   5.618
 8243SOL     OW25627   1.128   3.629   5.722
 8243SOL    HW125628   1.225   3.612   5.740
 8243SOL    HW225629   1.104   3.596   5.631
 8244SOL     OW25630   0.572   6.466   4.070
 8244SOL    HW125631   0.563   6.367   4.074
 8244SOL    HW225632   0.490   6.510   4.106
 8245SOL     OW25633   3.955   2.050   0.912
 8245SOL    HW125634   4.026   1.983   0.889
 8245SOL    HW225635   3.983   2.141   0.881
 8246SOL     OW25636   5.628   3.446   6.099
 8246SOL    HW125637   5.545   3.398   6.073
 8246SOL    HW225638   5.614   3.492   6.187
 8247SOL     OW25639   0.654   0.033   1.595
 8247SOL    HW125640   0.622   6.969   1.632
 8247SOL    HW225641   0.694   0.018   1.505
 8248SOL     OW25642   5.141   4.560   3.517
 8248SOL    HW125643   5.109   4.478   3.564
 8248SOL    HW225644   5.063   4.620   3.496
 8249SOL     OW25645   1.868   4.919   3.863
 8249SOL    HW125646   1.900   5.012   3.843
 8249SOL    HW225647   1.929   4.853   3.818
 8250SOL     OW25648   4.105   3.784   2.665
 8250SOL    HW125649   4.036   3.850   2.635
 8250SOL    HW225650   4.112   3.787   2.765
 8251SOL     OW25651   5.589   1.953   4.717
 8251SOL    HW125652   5.648   1.874   4.734
 8251SOL    HW225653   5.584   1.971   4.619
 8252SOL     OW25654   2.208   2.580   5.502
 8252SOL    HW125655   2.209   2.655   5.569
 8252SOL    HW225656   2.169   2.614   5.416
 8253SOL     OW25657   3.251   2.756   5.210
 8253SOL    HW125658   3.224   2.838   5.160
 8253SOL    HW225659   3.260   2.679   5.147
 8254SOL     OW25660   4.171   4.906   3.722
 8254SOL    HW125661   4.254   4.902   3.777
 8254SOL    HW225662   4.091   4.893   3.781
 8255SOL     OW25663   4.175   5.910   4.187
 8255SOL    HW125664   4.263   5.957   4.196
 8255SOL    HW225665   4.175   5.827   4.243
 8256SOL     OW25666   6.555   1.499   4.868
 8256SOL    HW125667   6.480   1.562   4.849
 8256SOL    HW225668   6.579   1.450   4.785
 8257SOL     OW25669   5.841   5.082   3.414
 8257SOL    HW125670   5.764   5.145   3.404
 8257SOL    HW225671   5.812   5.003   3.469
 8258SOL     OW25672   4.108   1.682   0.123
 8258SOL    HW125673   4.119   1.746   0.199
 8258SOL    HW225674   4.020   1.634   0.133
 8259SOL     OW25675   3.425   2.058   3.250
 8259SOL    HW125676   3.504   2.063   3.311
 8259SOL    HW225677   3.411   1.963   3.222
 8260SOL     OW25678   3.327   6.552   0.322
 8260SOL    HW125679   3.267   6.496   0.265
 8260SOL    HW225680   3.340   6.508   0.411
 8261SOL     OW25681   5.131   1.150   1.491
 8261SOL    HW125682   5.081   1.236   1.504
 8261SOL    HW225683   5.148   1.108   1.580
 8262SOL     OW25684   1.295   3.177   1.844
 8262SOL    HW125685   1.356   3.219   1.911
 8262SOL    HW225686   1.295   3.077   1.858
 8263SOL     OW25687   6.144   1.461   1.282
 8263SOL    HW125688   6.172   1.391   1.217
 8263SOL    HW225689   6.225   1.501   1.325
 8264SOL     OW25690   1.601   5.303   2.702
 8264SOL    HW125691   1.562   5.388   2.740
 8264SOL    HW225692   1.628   5.243   2.777
 8265SOL     OW25693   1.862   0.567   1.930
 8265SOL    HW125694   1.946   0.514   1.941
 8265SOL    HW225695   1.833   0.602   2.019
 8266SOL     OW25696   3.443   6.448   2.563
 8266SOL    HW125697   3.390   6.371   2.527
 8266SOL    HW225698   3.382   6.514   2.606
 8267SOL     OW25699   1.554   3.496   1.314
 8267SOL    HW125700   1.621   3.555   1.269
 8267SOL    HW225701   1.466   3.506   1.268
 8268SOL     OW25702   2.615   6.490   5.717
 8268SOL    HW125703   2.569   6.570   5.680
 8268SOL    HW225704   2.621   6.497   5.817
 8269SOL     OW25705   5.696   1.554   1.386
 8269SOL    HW125706   5.692   1.508   1.475
 8269SOL    HW225707   5.791   1.565   1.358
 8270SOL     OW25708   3.419   6.076   4.009
 8270SOL    HW125709   3.424   6.045   3.914
 8270SOL    HW225710   3.455   6.005   4.069
 8271SOL     OW25711   0.046   1.789   3.002
 8271SOL    HW125712   0.101   1.717   3.043
 8271SOL    HW225713   0.103   1.846   2.943
 8272SOL     OW25714   3.937   1.005   2.784
 8272SOL    HW125715   3.894   1.088   2.750
 8272SOL    HW225716   3.881   0.965   2.856
 8273SOL     OW25717   2.835   6.956   1.009
 8273SOL    HW125718   2.844   6.889   0.935
 8273SOL    HW225719   2.763   6.927   1.072
 8274SOL     OW25720   5.104   5.351   2.692
 8274SOL    HW125721   5.016   5.380   2.655
 8274SOL    HW225722   5.095   5.261   2.733
 8275SOL     OW25723   5.064   1.905   5.954
 8275SOL    HW125724   5.104   1.872   6.040
 8275SOL    HW225725   4.965   1.915   5.964
 8276SOL     OW25726   0.987   2.175   4.003
 8276SOL    HW125727   0.943   2.098   4.050
 8276SOL    HW225728   1.035   2.142   3.922
 8277SOL     OW25729   6.970   0.044   6.797
 8277SOL    HW125730   0.007   7.015   6.855
 8277SOL    HW225731   6.944   0.128   6.845
 8278SOL     OW25732   2.297   2.326   0.723
 8278SOL    HW125733   2.366   2.308   0.652
 8278SOL    HW225734   2.342   2.325   0.813
 8279SOL     OW25735   0.758   6.533   4.397
 8279SOL    HW125736   0.779   6.437   4.378
 8279SOL    HW225737   0.781   6.588   4.317
 8280SOL     OW25738   3.422   2.629   5.610
 8280SOL    HW125739   3.323   2.627   5.597
 8280SOL    HW225740   3.467   2.650   5.523
 8281SOL     OW25741   0.157   6.163   1.654
 8281SOL    HW125742   0.091   6.099   1.614
 8281SOL    HW225743   0.212   6.116   1.722
 8282SOL     OW25744   5.386   2.558   5.977
 8282SOL    HW125745   5.445   2.548   6.057
 8282SOL    HW225746   5.306   2.499   5.987
 8283SOL     OW25747   1.895   3.844   5.793
 8283SOL    HW125748   1.921   3.812   5.702
 8283SOL    HW225749   1.962   3.911   5.825
 8284SOL     OW25750   6.704   4.359   2.202
 8284SOL    HW125751   6.629   4.296   2.221
 8284SOL    HW225752   6.695   4.440   2.261
 8285SOL     OW25753   3.725   3.388   4.926
 8285SOL    HW125754   3.678   3.316   4.876
 8285SOL    HW225755   3.672   3.413   5.007
 8286SOL     OW25756   6.291   2.453   5.946
 8286SOL    HW125757   6.375   2.498   5.973
 8286SOL    HW225758   6.307   2.354   5.938
 8287SOL     OW25759   1.364   5.643   4.737
 8287SOL    HW125760   1.388   5.698   4.658
 8287SOL    HW225761   1.269   5.662   4.764
 8288SOL     OW25762   2.195   2.896   2.743
 8288SOL    HW125763   2.103   2.908   2.706
 8288SOL    HW225764   2.255   2.858   2.672
 8289SOL     OW25765   0.760   6.948   0.267
 8289SOL    HW125766   0.789   6.983   0.356
 8289SOL    HW225767   0.794   7.010   0.195
 8290SOL     OW25768   5.998   1.663   0.651
 8290SOL    HW125769   6.098   1.666   0.657
 8290SOL    HW225770   5.962   1.755   0.641
 8291SOL     OW25771   4.224   6.918   6.052
 8291SOL    HW125772   4.276   6.969   5.983
 8291SOL    HW225773   4.127   6.924   6.031
 8292SOL     OW25774   3.359   6.622   6.763
 8292SOL    HW125775   3.339   6.533   6.803
 8292SOL    HW225776   3.349   6.617   6.663
 8293SOL     OW25777   4.907   6.129   6.158
 8293SOL    HW125778   4.901   6.035   6.124
 8293SOL    HW225779   4.966   6.183   6.097
 8294SOL     OW25780   5.679   2.570   6.633
 8294SOL    HW125781   5.768   2.589   6.591
 8294SOL    HW225782   5.620   2.650   6.624
 8295SOL     OW25783   5.292   4.185   1.483
 8295SOL    HW125784   5.305   4.112   1.550
 8295SOL    HW225785   5.381   4.213   1.447
 8296SOL     OW25786   1.494   5.815   6.789
 8296SOL    HW125787   1.463   5.906   6.760
 8296SOL    HW225788   1.475   5.748   6.717
 8297SOL     OW25789   6.235   2.234   3.481
 8297SOL    HW125790   6.206   2.209   3.389
 8297SOL    HW225791   6.233   2.334   3.491
 8298SOL     OW25792   4.801   1.194   1.445
 8298SOL    HW125793   4.723   1.168   1.502
 8298SOL    HW225794   4.847   1.272   1.486
 8299SOL     OW25795   6.455   2.629   2.070
 8299SOL    HW125796   6.500   2.695   2.010
 8299SOL    HW225797   6.511   2.546   2.077
 8300SOL     OW25798   0.477   4.453   4.481
 8300SOL    HW125799   0.392   4.504   4.495
 8300SOL    HW225800   0.515   4.474   4.391
 8301SOL     OW25801   4.398   3.130   1.145
 8301SOL    HW125802   4.344   3.145   1.228
 8301SOL    HW225803   4.336   3.112   1.068
 8302SOL     OW25804   6.277   6.030   6.735
 8302SOL    HW125805   6.308   6.077   6.652
 8302SOL    HW225806   6.347   6.037   6.806
 8303SOL     OW25807   0.229   0.581   4.732
 8303SOL    HW125808   0.313   0.633   4.720
 8303SOL    HW225809   0.157   0.640   4.769
 8304SOL     OW25810   0.742   3.732   6.344
 8304SOL    HW125811   0.685   3.724   6.426
 8304SOL    HW225812   0.683   3.740   6.263
 8305SOL     OW25813   3.637   5.286   3.992
 8305SOL    HW125814   3.656   5.360   3.927
 8305SOL    HW225815   3.651   5.198   3.946
 8306SOL     OW25816   0.777   3.215   5.113
 8306SOL    HW125817   0.865   3.174   5.138
 8306SOL    HW225818   0.703   3.149   5.128
 8307SOL     OW25819   3.771   5.576   0.475
 8307SOL    HW125820   3.808   5.631   0.550
 8307SOL    HW225821   3.672   5.589   0.470
 8308SOL     OW25822   3.782   6.603   2.175
 8308SOL    HW125823   3.724   6.645   2.244
 8308SOL    HW225824   3.741   6.616   2.084
 8309SOL     OW25825   5.859   6.177   2.362
 8309SOL    HW125826   5.828   6.137   2.276
 8309SOL    HW225827   5.859   6.108   2.434
 8310SOL     OW25828   0.110   4.902   0.539
 8310SOL    HW125829   0.064   4.980   0.496
 8310SOL    HW225830   0.045   4.827   0.551
 8311SOL     OW25831   6.946   1.184   0.078
 8311SOL    HW125832   0.016   1.183   0.112
 8311SOL    HW225833   6.891   1.120   0.131
 8312SOL     OW25834   5.442   6.627   1.510
 8312SOL    HW125835   5.376   6.629   1.435
 8312SOL    HW225836   5.482   6.536   1.517
 8313SOL     OW25837   3.889   1.599   3.047
 8313SOL    HW125838   3.987   1.590   3.029
 8313SOL    HW225839   3.868   1.692   3.076
 8314SOL     OW25840   5.861   6.997   2.195
 8314SOL    HW125841   5.779   0.018   2.161
 8314SOL    HW225842   5.890   0.015   2.281
 8315SOL     OW25843   4.520   3.080   0.574
 8315SOL    HW125844   4.553   2.998   0.621
 8315SOL    HW225845   4.455   3.128   0.632
 8316SOL     OW25846   0.973   4.250   0.611
 8316SOL    HW125847   1.001   4.154   0.602
 8316SOL    HW225848   1.052   4.306   0.636
 8317SOL     OW25849   2.318   4.283   2.472
 8317SOL    HW125850   2.364   4.358   2.425
 8317SOL    HW225851   2.265   4.230   2.406
 8318SOL     OW25852   4.035   1.157   4.758
 8318SOL    HW125853   4.060   1.221   4.686
 8318SOL    HW225854   3.935   1.156   4.768
 8319SOL     OW25855   3.325   0.947   5.679
 8319SOL    HW125856   3.398   0.886   5.649
 8319SOL    HW225857   3.284   0.912   5.763
 8320SOL     OW25858   3.018   4.685   1.194
 8320SOL    HW125859   2.943   4.636   1.239
 8320SOL    HW225860   3.011   4.782   1.215
 8321SOL     OW25861   0.950   0.269   0.538
 8321SOL    HW125862   0.856   0.290   0.510
 8321SOL    HW225863   1.013   0.295   0.465
 8322SOL     OW25864   0.092   0.408   6.744
 8322SOL    HW125865   0.092   0.467   6.825
 8322SOL    HW225866   0.154   0.330   6.760
 8323SOL     OW25867   0.587   1.241   2.759
 8323SOL    HW125868   0.682   1.255   2.787
 8323SOL    HW225869   0.582   1.236   2.659
 8324SOL     OW25870   6.070   0.650   2.333
 8324SOL    HW125871   6.001   0.719   2.312
 8324SOL    HW225872   6.043   0.599   2.415
 8325SOL     OW25873   3.282   2.963   4.291
 8325SOL    HW125874   3.332   2.946   4.206
 8325SOL    HW225875   3.332   2.923   4.368
 8326SOL     OW25876   4.213   2.786   5.744
 8326SOL    HW125877   4.196   2.712   5.679
 8326SOL    HW225878   4.132   2.800   5.801
 8327SOL     OW25879   5.683   2.152   6.118
 8327SOL    HW125880   5.709   2.248   6.107
 8327SOL    HW225881   5.739   2.111   6.190
 8328SOL     OW25882   2.184   2.773   6.163
 8328SOL    HW125883   2.281   2.781   6.184
 8328SOL    HW225884   2.144   2.864   6.152
 8329SOL     OW25885   6.968   2.905   5.261
 8329SOL    HW125886   6.896   2.933   5.324
 8329SOL    HW225887   6.962   2.806   5.245
 8330SOL     OW25888   1.930   5.991   0.380
 8330SOL    HW125889   1.846   6.021   0.335
 8330SOL    HW225890   1.948   6.048   0.460
 8331SOL     OW25891   2.931   0.521   1.388
 8331SOL    HW125892   2.897   0.505   1.481
 8331SOL    HW225893   2.871   0.476   1.322
 8332SOL     OW25894   4.635   5.295   2.114
 8332SOL    HW125895   4.587   5.316   2.199
 8332SOL    HW225896   4.569   5.263   2.046
 8333SOL     OW25897   0.591   5.967   0.405
 8333SOL    HW125898   0.505   6.014   0.384
 8333SOL    HW225899   0.664   6.035   0.417
 8334SOL     OW25900   6.536   2.023   4.051
 8334SOL    HW125901   6.482   1.938   4.056
 8334SOL    HW225902   6.489   2.088   3.992
 8335SOL     OW25903   6.135   5.759   5.882
 8335SOL    HW125904   6.065   5.774   5.812
 8335SOL    HW225905   6.224   5.748   5.838
 8336SOL     OW25906   0.738   1.739   1.466
 8336SOL    HW125907   0.808   1.684   1.421
 8336SOL    HW225908   0.753   1.739   1.564
 8337SOL     OW25909   0.899   6.549   2.458
 8337SOL    HW125910   0.943   6.520   2.543
 8337SOL    HW225911   0.828   6.617   2.479
 8338SOL     OW25912   1.672   4.482   1.278
 8338SOL    HW125913   1.704   4.486   1.373
 8338SOL    HW225914   1.579   4.520   1.273
 8339SOL     OW25915   5.535   1.260   2.410
 8339SOL    HW125916   5.631   1.288   2.409
 8339SOL    HW225917   5.478   1.336   2.379
 8340SOL     OW25918   4.936   3.897   0.820
 8340SOL    HW125919   4.878   3.825   0.782
 8340SOL    HW225920   4.879   3.961   0.872
 8341SOL     OW25921   2.143   6.620   0.995
 8341SOL    HW125922   2.060   6.656   0.953
 8341SOL    HW225923   2.164   6.672   1.078
 8342SOL     OW25924   3.854   0.715   0.378
 8342SOL    HW125925   3.867   0.686   0.472
 8342SOL    HW225926   3.881   0.811   0.368
 8343SOL     OW25927   1.195   5.340   6.085
 8343SOL    HW125928   1.268   5.309   6.025
 8343SOL    HW225929   1.221   5.427   6.128
 8344SOL     OW25930   4.470   6.489   6.042
 8344SOL    HW125931   4.519   6.483   5.955
 8344SOL    HW225932   4.536   6.499   6.117
 8345SOL     OW25933   5.903   1.556   2.864
 8345SOL    HW125934   5.824   1.543   2.804
 8345SOL    HW225935   5.987   1.537   2.814
 8346SOL     OW25936   2.562   5.051   1.183
 8346SOL    HW125937   2.560   4.957   1.218
 8346SOL    HW225938   2.476   5.097   1.206
 8347SOL     OW25939   3.161   6.959   5.322
 8347SOL    HW125940   3.235   6.933   5.261
 8347SOL    HW225941   3.154   0.034   5.326
 8348SOL     OW25942   1.168   0.777   1.233
 8348SOL    HW125943   1.138   0.700   1.176
 8348SOL    HW225944   1.098   0.798   1.301
 8349SOL     OW25945   5.994   3.756   0.973
 8349SOL    HW125946   6.007   3.786   1.068
 8349SOL    HW225947   6.082   3.724   0.936
 8350SOL     OW25948   6.246   1.456   5.570
 8350SOL    HW125949   6.173   1.518   5.599
 8350SOL    HW225950   6.263   1.388   5.641
 8351SOL     OW25951   2.895   6.011   3.984
 8351SOL    HW125952   2.935   5.966   4.063
 8351SOL    HW225953   2.930   5.969   3.900
 8352SOL     OW25954   6.724   6.251   2.728
 8352SOL    HW125955   6.810   6.298   2.750
 8352SOL    HW225956   6.741   6.181   2.658
 8353SOL     OW25957   6.554   3.279   2.130
 8353SOL    HW125958   6.543   3.207   2.062
 8353SOL    HW225959   6.526   3.244   2.220
 8354SOL     OW25960   3.153   1.356   6.798
 8354SOL    HW125961   3.231   1.314   6.844
 8354SOL    HW225962   3.148   1.324   6.704
 8355SOL     OW25963   3.594   0.054   6.828
 8355SOL    HW125964   3.606   7.020   6.747
 8355SOL    HW225965   3.529   0.127   6.807
 8356SOL     OW25966   1.779   5.606   0.285
 8356SOL    HW125967   1.716   5.543   0.240
 8356SOL    HW225968   1.869   5.563   0.293
 8357SOL     OW25969   3.938   5.582   4.934
 8357SOL    HW125970   3.979   5.669   4.963
 8357SOL    HW225971   3.859   5.562   4.992
 8358SOL     OW25972   2.002   2.727   5.800
 8358SOL    HW125973   2.097   2.741   5.772
 8358SOL    HW225974   1.946   2.804   5.771
 8359SOL     OW25975   4.410   5.459   4.367
 8359SOL    HW125976   4.330   5.485   4.313
 8359SOL    HW225977   4.472   5.403   4.311
 8360SOL     OW25978   5.113   6.783   2.842
 8360SOL    HW125979   5.164   6.698   2.830
 8360SOL    HW225980   5.017   6.767   2.819
 8361SOL     OW25981   1.545   0.774   2.640
 8361SOL    HW125982   1.595   0.841   2.586
 8361SOL    HW225983   1.450   0.770   2.609
 8362SOL     OW25984   2.785   2.278   0.169
 8362SOL    HW125985   2.710   2.314   0.225
 8362SOL    HW225986   2.769   2.181   0.152
 8363SOL     OW25987   0.336   2.959   0.563
 8363SOL    HW125988   0.302   2.953   0.657
 8363SOL    HW225989   0.295   2.886   0.509
 8364SOL     OW25990   6.110   3.702   3.106
 8364SOL    HW125991   6.016   3.727   3.125
 8364SOL    HW225992   6.112   3.614   3.058
 8365SOL     OW25993   1.800   3.274   0.157
 8365SOL    HW125994   1.704   3.298   0.167
 8365SOL    HW225995   1.832   3.229   0.240
 8366SOL     OW25996   4.401   6.264   2.285
 8366SOL    HW125997   4.340   6.231   2.357
 8366SOL    HW225998   4.486   6.211   2.287
 8367SOL     OW25999   4.980   6.396   3.929
 8367SOL    HW126000   4.969   6.351   4.018
 8367SOL    HW226001   5.077   6.402   3.906
 8368SOL     OW26002   2.528   5.469   5.999
 8368SOL    HW126003   2.524   5.379   6.043
 8368SOL    HW226004   2.468   5.533   6.048
 8369SOL     OW26005   2.445   1.565   0.181
 8369SOL    HW126006   2.455   1.542   0.278
 8369SOL    HW226007   2.365   1.624   0.169
 8370SOL     OW26008   1.351   1.734   6.486
 8370SOL    HW126009   1.262   1.776   6.471
 8370SOL    HW226010   1.408   1.795   6.540
 8371SOL     OW26011   1.385   3.131   0.871
 8371SOL    HW126012   1.469   3.146   0.819
 8371SOL    HW226013   1.332   3.056   0.829
 8372SOL     OW26014   0.070   0.925   2.720
 8372SOL    HW126015   0.069   0.843   2.777
 8372SOL    HW226016   0.165   0.951   2.702
 8373SOL     OW26017   1.171   6.066   5.259
 8373SOL    HW126018   1.102   6.085   5.330
 8373SOL    HW226019   1.197   5.970   5.264
 8374SOL     OW26020   6.649   0.468   0.140
 8374SOL    HW126021   6.679   0.399   0.075
 8374SOL    HW226022   6.658   0.559   0.099
 8375SOL     OW26023   3.503   0.229   6.097
 8375SOL    HW126024   3.591   0.267   6.071
 8375SOL    HW226025   3.501   0.131   6.076
 8376SOL     OW26026   2.729   0.552   4.004
 8376SOL    HW126027   2.811   0.557   4.060
 8376SOL    HW226028   2.679   0.638   4.010
 8377SOL     OW26029   5.670   4.915   1.644
 8377SOL    HW126030   5.651   4.874   1.734
 8377SOL    HW226031   5.645   4.850   1.572
 8378SOL     OW26032   5.289   3.228   3.207
 8378SOL    HW126033   5.219   3.241   3.137
 8378SOL    HW226034   5.379   3.232   3.165
 8379SOL     OW26035   6.347   3.011   1.573
 8379SOL    HW126036   6.286   3.065   1.515
 8379SOL    HW226037   6.304   2.923   1.593
 8380SOL     OW26038   5.238   1.326   3.008
 8380SOL    HW126039   5.328   1.328   3.053
 8380SOL    HW226040   5.189   1.243   3.034
 8381SOL     OW26041   1.506   5.455   4.871
 8381SOL    HW126042   1.453   5.501   4.799
 8381SOL    HW226043   1.456   5.463   4.958
 8382SOL     OW26044   1.163   2.736   2.490
 8382SOL    HW126045   1.140   2.661   2.428
 8382SOL    HW226046   1.234   2.793   2.449
 8383SOL     OW26047   2.852   2.566   6.732
 8383SOL    HW126048   2.848   2.636   6.661
 8383SOL    HW226049   2.789   2.590   6.806
 8384SOL     OW26050   6.939   6.899   2.263
 8384SOL    HW126051   6.940   6.800   2.249
 8384SOL    HW226052   0.008   6.930   2.283
 8385SOL     OW26053   5.017   2.323   2.360
 8385SOL    HW126054   5.029   2.402   2.299
 8385SOL    HW226055   4.958   2.350   2.437
 8386SOL     OW26056   0.891   4.027   2.660
 8386SOL    HW126057   0.879   3.947   2.601
 8386SOL    HW226058   0.881   3.999   2.756
 8387SOL     OW26059   0.813   2.090   1.306
 8387SOL    HW126060   0.824   2.119   1.401
 8387SOL    HW226061   0.716   2.091   1.282
 8388SOL     OW26062   2.715   0.329   1.906
 8388SOL    HW126063   2.752   0.237   1.918
 8388SOL    HW226064   2.615   0.325   1.908
 8389SOL     OW26065   5.165   2.977   2.075
 8389SOL    HW126066   5.243   3.014   2.126
 8389SOL    HW226067   5.115   2.913   2.133
 8390SOL     OW26068   5.010   1.937   5.301
 8390SOL    HW126069   4.962   1.936   5.213
 8390SOL    HW226070   4.976   2.012   5.357
 8391SOL     OW26071   6.191   1.007   1.245
 8391SOL    HW126072   6.098   1.039   1.228
 8391SOL    HW226073   6.256   1.077   1.216
 8392SOL     OW26074   5.831   3.258   4.420
 8392SOL    HW126075   5.799   3.168   4.449
 8392SOL    HW226076   5.924   3.250   4.384
 8393SOL     OW26077   5.029   0.531   1.476
 8393SOL    HW126078   4.939   0.490   1.459
 8393SOL    HW226079   5.083   0.530   1.392
 8394SOL     OW26080   6.100   4.001   2.187
 8394SOL    HW126081   6.058   4.084   2.151
 8394SOL    HW226082   6.179   3.976   2.130
 8395SOL     OW26083   2.500   1.284   5.212
 8395SOL    HW126084   2.425   1.291   5.279
 8395SOL    HW226085   2.470   1.227   5.135
 8396SOL     OW26086   4.294   5.469   5.107
 8396SOL    HW126087   4.302   5.569   5.103
 8396SOL    HW226088   4.342   5.429   5.029
 8397SOL     OW26089   6.208   0.860   3.350
 8397SOL    HW126090   6.152   0.850   3.433
 8397SOL    HW226091   6.202   0.954   3.317
 8398SOL     OW26092   5.668   2.316   5.757
 8398SOL    HW126093   5.721   2.395   5.789
 8398SOL    HW226094   5.577   2.346   5.729
 8399SOL     OW26095   0.151   5.927   0.626
 8399SOL    HW126096   0.082   5.900   0.693
 8399SOL    HW226097   0.162   5.854   0.558
 8400SOL     OW26098   1.400   2.358   4.386
 8400SOL    HW126099   1.303   2.345   4.406
 8400SOL    HW226100   1.424   2.454   4.401
 8401SOL     OW26101   3.292   0.431   5.765
 8401SOL    HW126102   3.258   0.495   5.833
 8401SOL    HW226103   3.251   0.341   5.779
 8402SOL     OW26104   3.825   0.824   6.129
 8402SOL    HW126105   3.904   0.785   6.081
 8402SOL    HW226106   3.809   0.917   6.095
 8403SOL     OW26107   5.985   5.207   4.301
 8403SOL    HW126108   5.968   5.244   4.210
 8403SOL    HW226109   5.932   5.258   4.368
 8404SOL     OW26110   1.747   2.037   6.777
 8404SOL    HW126111   1.748   2.093   6.694
 8404SOL    HW226112   1.836   1.995   6.791
 8405SOL     OW26113   4.192   1.210   5.560
 8405SOL    HW126114   4.145   1.134   5.605
 8405SOL    HW226115   4.176   1.205   5.462
 8406SOL     OW26116   5.108   0.924   6.535
 8406SOL    HW126117   5.117   0.972   6.448
 8406SOL    HW226118   5.138   0.829   6.524
 8407SOL     OW26119   3.464   6.525   4.180
 8407SOL    HW126120   3.493   6.610   4.224
 8407SOL    HW226121   3.544   6.471   4.153
 8408SOL     OW26122   4.887   0.871   1.300
 8408SOL    HW126123   4.816   0.803   1.320
 8408SOL    HW226124   4.846   0.962   1.300
 8409SOL     OW26125   4.929   2.563   2.529
 8409SOL    HW126126   4.877   2.495   2.581
 8409SOL    HW226127   4.874   2.596   2.452
 8410SOL     OW26128   6.903   1.816   1.582
 8410SOL    HW126129   6.976   1.869   1.625
 8410SOL    HW226130   6.837   1.878   1.539
 8411SOL     OW26131   1.812   5.403   0.557
 8411SOL    HW126132   1.912   5.405   0.548
 8411SOL    HW226133   1.783   5.471   0.625
 8412SOL     OW26134   2.954   2.701   0.178
 8412SOL    HW126135   2.966   2.602   0.180
 8412SOL    HW226136   2.914   2.732   0.264
 8413SOL     OW26137   4.350   5.313   5.438
 8413SOL    HW126138   4.269   5.260   5.413
 8413SOL    HW226139   4.404   5.331   5.356
 8414SOL     OW26140   0.794   1.426   2.610
 8414SOL    HW126141   0.697   1.449   2.595
 8414SOL    HW226142   0.810   1.411   2.707
 8415SOL     OW26143   2.481   0.635   5.572
 8415SOL    HW126144   2.516   0.725   5.597
 8415SOL    HW226145   2.555   0.578   5.536
 8416SOL     OW26146   6.402   1.652   5.435
 8416SOL    HW126147   6.355   1.586   5.493
 8416SOL    HW226148   6.451   1.718   5.493
 8417SOL     OW26149   1.537   3.762   4.861
 8417SOL    HW126150   1.623   3.728   4.898
 8417SOL    HW226151   1.527   3.859   4.884
 8418SOL     OW26152   1.023   6.302   2.787
 8418SOL    HW126153   0.927   6.316   2.812
 8418SOL    HW226154   1.078   6.292   2.870
 8419SOL     OW26155   5.375   1.007   4.023
 8419SOL    HW126156   5.460   1.049   3.990
 8419SOL    HW226157   5.301   1.074   4.016
 8420SOL     OW26158   2.984   0.129   1.955
 8420SOL    HW126159   3.015   0.194   2.024
 8420SOL    HW226160   3.049   0.052   1.951
 8421SOL     OW26161   4.057   5.772   5.879
 8421SOL    HW126162   4.090   5.739   5.791
 8421SOL    HW226163   4.082   5.868   5.890
 8422SOL     OW26164   4.863   2.542   3.155
 8422SOL    HW126165   4.934   2.597   3.112
 8422SOL    HW226166   4.773   2.570   3.120
 8423SOL     OW26167   5.656   5.035   6.419
 8423SOL    HW126168   5.731   4.978   6.385
 8423SOL    HW226169   5.572   4.980   6.425
 8424SOL     OW26170   2.006   0.151   3.964
 8424SOL    HW126171   2.064   0.186   3.891
 8424SOL    HW226172   1.921   0.205   3.969
 8425SOL     OW26173   3.458   2.867   2.948
 8425SOL    HW126174   3.518   2.893   2.873
 8425SOL    HW226175   3.379   2.929   2.951
 8426SOL     OW26176   3.566   2.915   2.202
 8426SOL    HW126177   3.516   2.926   2.288
 8426SOL    HW226178   3.511   2.861   2.138
 8427SOL     OW26179   3.181   3.594   3.444
 8427SOL    HW126180   3.089   3.556   3.446
 8427SOL    HW226181   3.211   3.614   3.537
 8428SOL     OW26182   0.002   0.291   0.963
 8428SOL    HW126183   6.990   0.275   0.871
 8428SOL    HW226184   7.019   0.206   1.016
 8429SOL     OW26185   1.407   5.640   6.606
 8429SOL    HW126186   1.347   5.560   6.610
 8429SOL    HW226187   1.467   5.632   6.526
 8430SOL     OW26188   4.209   6.518   4.895
 8430SOL    HW126189   4.156   6.499   4.978
 8430SOL    HW226190   4.264   6.438   4.871
 8431SOL     OW26191   3.235   3.821   5.561
 8431SOL    HW126192   3.300   3.750   5.534
 8431SOL    HW226193   3.150   3.809   5.509
 8432SOL     OW26194   6.379   5.750   6.766
 8432SOL    HW126195   6.387   5.698   6.681
 8432SOL    HW226196   6.294   5.802   6.765
 8433SOL     OW26197   5.045   2.447   0.636
 8433SOL    HW126198   5.136   2.487   0.627
 8433SOL    HW226199   5.002   2.442   0.545
 8434SOL     OW26200   2.021   5.412   5.372
 8434SOL    HW126201   1.937   5.426   5.320
 8434SOL    HW226202   2.100   5.420   5.311
 8435SOL     OW26203   4.936   1.178   2.958
 8435SOL    HW126204   4.847   1.137   2.938
 8435SOL    HW226205   4.928   1.277   2.959
 8436SOL     OW26206   2.356   6.787   2.643
 8436SOL    HW126207   2.358   6.865   2.706
 8436SOL    HW226208   2.279   6.727   2.666
 8437SOL     OW26209   2.085   3.685   2.356
 8437SOL    HW126210   2.156   3.640   2.410
 8437SOL    HW226211   2.086   3.650   2.262
 8438SOL     OW26212   1.700   4.062   2.526
 8438SOL    HW126213   1.741   4.036   2.613
 8438SOL    HW226214   1.609   4.021   2.519
 8439SOL     OW26215   5.823   5.898   3.779
 8439SOL    HW126216   5.827   5.807   3.821
 8439SOL    HW226217   5.896   5.907   3.711
 8440SOL     OW26218   1.725   1.112   2.749
 8440SOL    HW126219   1.651   1.173   2.721
 8440SOL    HW226220   1.688   1.037   2.804
 8441SOL     OW26221   5.823   0.990   5.030
 8441SOL    HW126222   5.737   1.032   5.057
 8441SOL    HW226223   5.830   0.898   5.070
 8442SOL     OW26224   3.569   1.647   5.277
 8442SOL    HW126225   3.541   1.714   5.347
 8442SOL    HW226226   3.549   1.555   5.310
 8443SOL     OW26227   1.778   4.483   2.891
 8443SOL    HW126228   1.844   4.430   2.837
 8443SOL    HW226229   1.689   4.482   2.845
 8444SOL     OW26230   4.985   5.518   3.815
 8444SOL    HW126231   5.000   5.596   3.754
 8444SOL    HW226232   4.891   5.518   3.847
 8445SOL     OW26233   4.385   6.375   6.337
 8445SOL    HW126234   4.433   6.461   6.322
 8445SOL    HW226235   4.299   6.393   6.384
 8446SOL     OW26236   0.331   6.281   4.794
 8446SOL    HW126237   0.314   6.199   4.850
 8446SOL    HW226238   0.423   6.275   4.756
 8447SOL     OW26239   4.138   1.677   3.511
 8447SOL    HW126240   4.232   1.712   3.507
 8447SOL    HW226241   4.081   1.727   3.446
 8448SOL     OW26242   4.892   6.717   3.065
 8448SOL    HW126243   4.830   6.638   3.059
 8448SOL    HW226244   4.840   6.801   3.048
 8449SOL     OW26245   1.562   2.132   2.992
 8449SOL    HW126246   1.645   2.123   2.937
 8449SOL    HW226247   1.585   2.123   3.089
 8450SOL     OW26248   6.717   0.748   0.286
 8450SOL    HW126249   6.632   0.701   0.309
 8450SOL    HW226250   6.782   0.740   0.362
 8451SOL     OW26251   4.651   1.910   1.217
 8451SOL    HW126252   4.567   1.956   1.186
 8451SOL    HW226253   4.688   1.959   1.296
 8452SOL     OW26254   5.182   1.742   5.350
 8452SOL    HW126255   5.114   1.816   5.344
 8452SOL    HW226256   5.234   1.738   5.266
 8453SOL     OW26257   0.333   5.982   0.346
 8453SOL    HW126258   0.331   5.894   0.394
 8453SOL    HW226259   0.276   6.048   0.395
 8454SOL     OW26260   7.016   4.109   0.290
 8454SOL    HW126261   0.054   4.128   0.366
 8454SOL    HW226262   6.938   4.171   0.295
 8455SOL     OW26263   0.613   0.532   2.821
 8455SOL    HW126264   0.699   0.575   2.796
 8455SOL    HW226265   0.615   0.508   2.918
 8456SOL     OW26266   6.048   1.221   3.818
 8456SOL    HW126267   6.111   1.222   3.895
 8456SOL    HW226268   6.009   1.129   3.809
 8457SOL     OW26269   6.199   6.145   4.648
 8457SOL    HW126270   6.245   6.057   4.651
 8457SOL    HW226271   6.206   6.190   4.737
 8458SOL     OW26272   0.268   0.203   6.701
 8458SOL    HW126273   0.318   0.146   6.765
 8458SOL    HW226274   0.193   0.151   6.661
 8459SOL     OW26275   1.618   5.245   3.159
 8459SOL    HW126276   1.700   5.221   3.211
 8459SOL    HW226277   1.629   5.214   3.064
 8460SOL     OW26278   3.410   4.097   4.887
 8460SOL    HW126279   3.462   4.022   4.928
 8460SOL    HW226280   3.439   4.111   4.793
 8461SOL     OW26281   6.196   3.925   3.596
 8461SOL    HW126282   6.183   3.986   3.674
 8461SOL    HW226283   6.265   3.857   3.618
 8462SOL     OW26284   1.980   2.888   1.688
 8462SOL    HW126285   1.920   2.863   1.612
 8462SOL    HW226286   2.061   2.935   1.653
 8463SOL     OW26287   5.536   0.976   2.624
 8463SOL    HW126288   5.498   0.959   2.533
 8463SOL    HW226289   5.590   0.897   2.653
 8464SOL     OW26290   5.990   2.607   5.083
 8464SOL    HW126291   5.997   2.627   5.181
 8464SOL    HW226292   5.936   2.524   5.070
 8465SOL     OW26293   1.585   3.140   0.470
 8465SOL    HW126294   1.612   3.163   0.563
 8465SOL    HW226295   1.663   3.153   0.409
 8466SOL     OW26296   1.295   6.136   3.402
 8466SOL    HW126297   1.340   6.223   3.385
 8466SOL    HW226298   1.217   6.149   3.463
 8467SOL     OW26299   2.850   5.791   0.865
 8467SOL    HW126300   2.914   5.755   0.797
 8467SOL    HW226301   2.778   5.723   0.882
 8468SOL     OW26302   4.419   2.002   0.009
 8468SOL    HW126303   4.405   1.971   6.940
 8468SOL    HW226304   4.468   2.090   0.008
 8469SOL     OW26305   3.506   2.432   6.633
 8469SOL    HW126306   3.495   2.357   6.699
 8469SOL    HW226307   3.427   2.493   6.640
 8470SOL     OW26308   2.476   2.951   6.204
 8470SOL    HW126309   2.437   2.986   6.119
 8470SOL    HW226310   2.575   2.944   6.196
 8471SOL     OW26311   3.597   0.922   4.449
 8471SOL    HW126312   3.624   0.937   4.354
 8471SOL    HW226313   3.533   0.994   4.478
 8472SOL     OW26314   1.484   6.104   4.165
 8472SOL    HW126315   1.457   6.030   4.227
 8472SOL    HW226316   1.455   6.192   4.203
 8473SOL     OW26317   6.436   5.120   0.049
 8473SOL    HW126318   6.426   5.022   0.032
 8473SOL    HW226319   6.368   5.149   0.117
 8474SOL     OW26320   3.533   3.963   1.608
 8474SOL    HW126321   3.504   4.040   1.665
 8474SOL    HW226322   3.624   3.933   1.638
 8475SOL     OW26323   5.485   1.538   2.524
 8475SOL    HW126324   5.484   1.638   2.514
 8475SOL    HW226325   5.391   1.505   2.531
 8476SOL     OW26326   4.519   0.666   2.190
 8476SOL    HW126327   4.539   0.675   2.092
 8476SOL    HW226328   4.575   0.594   2.229
 8477SOL     OW26329   3.143   1.386   1.376
 8477SOL    HW126330   3.221   1.439   1.343
 8477SOL    HW226331   3.058   1.431   1.349
 8478SOL     OW26332   1.281   0.074   5.869
 8478SOL    HW126333   1.253   0.170   5.878
 8478SOL    HW226334   1.308   0.039   5.959
 8479SOL     OW26335   5.427   0.918   1.264
 8479SOL    HW126336   5.351   0.903   1.327
 8479SOL    HW226337   5.441   1.016   1.252
 8480SOL     OW26338   2.347   1.526   1.170
 8480SOL    HW126339   2.311   1.610   1.129
 8480SOL    HW226340   2.356   1.539   1.269
 8481SOL     OW26341   3.749   0.596   4.347
 8481SOL    HW126342   3.773   0.517   4.292
 8481SOL    HW226343   3.689   0.657   4.295
 8482SOL     OW26344   1.532   6.725   2.404
 8482SOL    HW126345   1.464   6.716   2.331
 8482SOL    HW226346   1.569   6.635   2.426
 8483SOL     OW26347   4.161   5.800   1.149
 8483SOL    HW126348   4.243   5.819   1.202
 8483SOL    HW226349   4.082   5.798   1.210
 8484SOL     OW26350   0.851   5.145   4.358
 8484SOL    HW126351   0.785   5.159   4.432
 8484SOL    HW226352   0.808   5.090   4.286
 8485SOL     OW26353   2.600   3.388   6.824
 8485SOL    HW126354   2.669   3.316   6.810
 8485SOL    HW226355   2.598   3.448   6.744
 8486SOL     OW26356   5.099   0.855   2.754
 8486SOL    HW126357   5.154   0.937   2.746
 8486SOL    HW226358   5.009   0.879   2.791
 8487SOL     OW26359   4.403   6.950   0.883
 8487SOL    HW126360   4.469   7.004   0.935
 8487SOL    HW226361   4.446   6.917   0.799
 8488SOL     OW26362   5.274   2.851   4.166
 8488SOL    HW126363   5.193   2.805   4.131
 8488SOL    HW226364   5.260   2.874   4.263
 8489SOL     OW26365   4.007   4.877   1.874
 8489SOL    HW126366   4.002   4.793   1.820
 8489SOL    HW226367   3.924   4.885   1.930
 8490SOL     OW26368   4.158   5.264   2.653
 8490SOL    HW126369   4.191   5.181   2.697
 8490SOL    HW226370   4.079   5.243   2.595
 8491SOL     OW26371   2.477   0.601   2.022
 8491SOL    HW126372   2.486   0.548   2.106
 8491SOL    HW226373   2.504   0.696   2.040
 8492SOL     OW26374   6.038   3.614   4.985
 8492SOL    HW126375   6.085   3.557   4.918
 8492SOL    HW226376   5.958   3.657   4.942
 8493SOL     OW26377   4.396   2.038   0.332
 8493SOL    HW126378   4.443   2.035   0.244
 8493SOL    HW226379   4.363   2.131   0.350
 8494SOL     OW26380   3.828   5.591   6.582
 8494SOL    HW126381   3.847   5.689   6.572
 8494SOL    HW226382   3.731   5.578   6.601
 8495SOL     OW26383   0.100   2.759   1.095
 8495SOL    HW126384   0.077   2.749   0.998
 8495SOL    HW226385   0.064   2.846   1.129
 8496SOL     OW26386   0.076   2.741   3.727
 8496SOL    HW126387   0.141   2.760   3.801
 8496SOL    HW226388   7.017   2.795   3.741
 8497SOL     OW26389   6.034   5.925   2.873
 8497SOL    HW126390   5.934   5.924   2.877
 8497SOL    HW226391   6.071   5.881   2.955
 8498SOL     OW26392   0.456   0.639   0.873
 8498SOL    HW126393   0.514   0.629   0.791
 8498SOL    HW226394   0.374   0.584   0.862
 8499SOL     OW26395   3.743   3.835   6.445
 8499SOL    HW126396   3.732   3.903   6.518
 8499SOL    HW226397   3.709   3.873   6.359
 8500SOL     OW26398   3.173   6.914   5.806
 8500SOL    HW126399   3.087   6.894   5.853
 8500SOL    HW226400   3.185   6.852   5.729
 8501SOL     OW26401   1.639   4.118   6.528
 8501SOL    HW126402   1.544   4.089   6.518
 8501SOL    HW226403   1.699   4.048   6.489
 8502SOL     OW26404   6.147   6.985   1.644
 8502SOL    HW126405   6.137   6.910   1.579
 8502SOL    HW226406   6.101   0.042   1.609
 8503SOL     OW26407   2.746   5.072   3.379
 8503SOL    HW126408   2.771   5.003   3.447
 8503SOL    HW226409   2.828   5.107   3.334
 8504SOL     OW26410   1.336   5.188   3.139
 8504SOL    HW126411   1.433   5.213   3.139
 8504SOL    HW226412   1.323   5.106   3.195
 8505SOL     OW26413   4.921   3.379   3.392
 8505SOL    HW126414   4.979   3.442   3.444
 8505SOL    HW226415   4.905   3.416   3.301
 8506SOL     OW26416   1.239   6.330   0.348
 8506SOL    HW126417   1.238   6.255   0.282
 8506SOL    HW226418   1.169   6.313   0.418
 8507SOL     OW26419   1.146   1.040   5.558
 8507SOL    HW126420   1.062   1.081   5.592
 8507SOL    HW226421   1.130   0.942   5.541
 8508SOL     OW26422   0.567   1.886   6.158
 8508SOL    HW126423   0.547   1.795   6.120
 8508SOL    HW226424   0.566   1.953   6.084
 8509SOL     OW26425   6.734   1.851   4.962
 8509SOL    HW126426   6.760   1.757   4.983
 8509SOL    HW226427   6.776   1.913   5.028
 8510SOL     OW26428   5.626   6.359   2.391
 8510SOL    HW126429   5.669   6.271   2.369
 8510SOL    HW226430   5.659   6.391   2.480
 8511SOL     OW26431   6.401   4.623   1.865
 8511SOL    HW126432   6.470   4.691   1.890
 8511SOL    HW226433   6.445   4.548   1.816
 8512SOL     OW26434   5.308   2.721   0.085
 8512SOL    HW126435   5.377   2.720   0.158
 8512SOL    HW226436   5.349   2.752   7.024
 8513SOL     OW26437   6.535   4.764   1.276
 8513SOL    HW126438   6.448   4.717   1.291
 8513SOL    HW226439   6.607   4.719   1.330
 8514SOL     OW26440   2.818   1.820   4.977
 8514SOL    HW126441   2.891   1.877   5.015
 8514SOL    HW226442   2.729   1.855   5.007
 8515SOL     OW26443   1.104   0.410   1.237
 8515SOL    HW126444   1.136   0.463   1.159
 8515SOL    HW226445   1.034   0.462   1.286
 8516SOL     OW26446   6.183   2.340   2.481
 8516SOL    HW126447   6.245   2.362   2.406
 8516SOL    HW226448   6.107   2.286   2.447
 8517SOL     OW26449   1.872   2.665   4.774
 8517SOL    HW126450   1.959   2.699   4.807
 8517SOL    HW226451   1.831   2.605   4.842
 8518SOL     OW26452   5.164   4.998   6.800
 8518SOL    HW126453   5.193   5.082   6.846
 8518SOL    HW226454   5.245   4.950   6.766
 8519SOL     OW26455   1.297   3.799   0.428
 8519SOL    HW126456   1.342   3.722   0.472
 8519SOL    HW226457   1.313   3.882   0.481
 8520SOL     OW26458   4.163   3.734   5.053
 8520SOL    HW126459   4.073   3.755   5.014
 8520SOL    HW226460   4.219   3.690   4.983
 8521SOL     OW26461   1.531   6.147   5.696
 8521SOL    HW126462   1.472   6.071   5.668
 8521SOL    HW226463   1.481   6.207   5.759
 8522SOL     OW26464   1.572   5.874   0.588
 8522SOL    HW126465   1.651   5.814   0.599
 8522SOL    HW226466   1.549   5.880   0.491
 8523SOL     OW26467   2.595   0.567   7.018
 8523SOL    HW126468   2.548   0.586   0.080
 8523SOL    HW226469   2.535   0.594   6.942
 8524SOL     OW26470   1.763   5.742   4.711
 8524SOL    HW126471   1.768   5.694   4.799
 8524SOL    HW226472   1.669   5.742   4.679
 8525SOL     OW26473   0.421   4.940   1.327
 8525SOL    HW126474   0.359   5.011   1.295
 8525SOL    HW226475   0.372   4.877   1.386
 8526SOL     OW26476   2.353   6.155   0.477
 8526SOL    HW126477   2.334   6.144   0.379
 8526SOL    HW226478   2.408   6.238   0.491
 8527SOL     OW26479   3.333   0.430   6.167
 8527SOL    HW126480   3.263   0.396   6.230
 8527SOL    HW226481   3.384   0.354   6.129
 8528SOL     OW26482   5.206   2.485   7.003
 8528SOL    HW126483   5.295   2.463   6.965
 8528SOL    HW226484   5.214   2.562   0.043
 8529SOL     OW26485   1.549   6.388   6.640
 8529SOL    HW126486   1.610   6.445   6.586
 8529SOL    HW226487   1.471   6.443   6.672
 8530SOL     OW26488   3.439   4.122   4.610
 8530SOL    HW126489   3.494   4.141   4.529
 8530SOL    HW226490   3.381   4.043   4.594
 8531SOL     OW26491   6.577   5.710   3.768
 8531SOL    HW126492   6.616   5.720   3.860
 8531SOL    HW226493   6.620   5.776   3.706
 8532SOL     OW26494   2.689   5.851   4.827
 8532SOL    HW126495   2.597   5.812   4.824
 8532SOL    HW226496   2.683   5.950   4.817
 8533SOL     OW26497   1.185   6.516   5.914
 8533SOL    HW126498   1.238   6.432   5.904
 8533SOL    HW226499   1.239   6.584   5.964
 8534SOL     OW26500   4.224   2.313   4.039
 8534SOL    HW126501   4.308   2.294   4.092
 8534SOL    HW226502   4.248   2.327   3.943
 8535SOL     OW26503   5.824   1.079   2.906
 8535SOL    HW126504   5.761   1.020   2.854
 8535SOL    HW226505   5.906   1.027   2.930
 8536SOL     OW26506   0.316   0.989   4.343
 8536SOL    HW126507   0.370   1.038   4.412
 8536SOL    HW226508   0.327   0.890   4.357
 8537SOL     OW26509   6.818   1.133   2.850
 8537SOL    HW126510   6.754   1.079   2.905
 8537SOL    HW226511   6.912   1.111   2.877
 8538SOL     OW26512   1.065   2.757   6.902
 8538SOL    HW126513   1.059   2.810   6.987
 8538SOL    HW226514   1.091   2.817   6.827
 8539SOL     OW26515   6.678   2.637   3.095
 8539SOL    HW126516   6.750   2.602   3.034
 8539SOL    HW226517   6.690   2.597   3.186
 8540SOL     OW26518   4.393   6.975   0.447
 8540SOL    HW126519   4.343   6.898   0.407
 8540SOL    HW226520   4.360   0.036   0.408
 8541SOL     OW26521   2.093   2.340   3.467
 8541SOL    HW126522   2.057   2.331   3.374
 8541SOL    HW226523   2.192   2.331   3.465
 8542SOL     OW26524   4.322   3.738   6.645
 8542SOL    HW126525   4.371   3.727   6.559
 8542SOL    HW226526   4.244   3.799   6.631
 8543SOL     OW26527   1.781   2.770   6.864
 8543SOL    HW126528   1.748   2.677   6.883
 8543SOL    HW226529   1.762   2.828   6.943
 8544SOL     OW26530   5.716   2.749   4.557
 8544SOL    HW126531   5.665   2.746   4.643
 8544SOL    HW226532   5.776   2.670   4.551
 8545SOL     OW26533   5.147   6.481   4.478
 8545SOL    HW126534   5.172   6.397   4.430
 8545SOL    HW226535   5.065   6.520   4.436
 8546SOL     OW26536   4.756   1.605   4.724
 8546SOL    HW126537   4.786   1.550   4.802
 8546SOL    HW226538   4.771   1.554   4.640
 8547SOL     OW26539   0.931   4.162   3.178
 8547SOL    HW126540   0.970   4.217   3.252
 8547SOL    HW226541   0.864   4.098   3.215
 8548SOL     OW26542   5.735   1.160   5.499
 8548SOL    HW126543   5.702   1.252   5.476
 8548SOL    HW226544   5.762   1.157   5.595
 8549SOL     OW26545   6.383   3.345   4.735
 8549SOL    HW126546   6.385   3.319   4.639
 8549SOL    HW226547   6.428   3.433   4.747
 8550SOL     OW26548   1.270   4.456   6.805
 8550SOL    HW126549   1.261   4.392   6.729
 8550SOL    HW226550   1.315   4.539   6.772
 8551SOL     OW26551   3.395   4.186   0.057
 8551SOL    HW126552   3.404   4.091   0.025
 8551SOL    HW226553   3.367   4.244   7.005
 8552SOL     OW26554   2.028   6.339   3.966
 8552SOL    HW126555   2.040   6.285   4.050
 8552SOL    HW226556   2.107   6.328   3.907
 8553SOL     OW26557   5.382   0.107   0.385
 8553SOL    HW126558   5.418   0.040   0.450
 8553SOL    HW226559   5.399   0.076   0.291
 8554SOL     OW26560   6.583   3.781   6.715
 8554SOL    HW126561   6.667   3.835   6.721
 8554SOL    HW226562   6.517   3.815   6.782
 8555SOL     OW26563   1.248   6.700   3.656
 8555SOL    HW126564   1.321   6.763   3.628
 8555SOL    HW226565   1.254   6.686   3.755
 8556SOL     OW26566   6.221   0.502   3.526
 8556SOL    HW126567   6.177   0.448   3.598
 8556SOL    HW226568   6.307   0.540   3.560
 8557SOL     OW26569   0.051   0.502   1.523
 8557SOL    HW126570   0.093   0.549   1.445
 8557SOL    HW226571   0.119   0.446   1.570
 8558SOL     OW26572   1.016   5.288   2.008
 8558SOL    HW126573   1.023   5.342   1.924
 8558SOL    HW226574   1.076   5.209   2.002
 8559SOL     OW26575   1.086   7.000   0.971
 8559SOL    HW126576   1.091   0.033   1.053
 8559SOL    HW226577   1.117   0.028   0.892
 8560SOL     OW26578   6.428   1.849   0.272
 8560SOL    HW126579   6.395   1.898   0.191
 8560SOL    HW226580   6.372   1.767   0.286
 8561SOL     OW26581   4.493   6.529   3.501
 8561SOL    HW126582   4.506   6.576   3.414
 8561SOL    HW226583   4.580   6.487   3.529
 8562SOL     OW26584   3.118   6.406   3.857
 8562SOL    HW126585   3.129   6.390   3.759
 8562SOL    HW226586   3.201   6.447   3.894
 8563SOL     OW26587   2.761   2.779   6.506
 8563SOL    HW126588   2.848   2.797   6.460
 8563SOL    HW226589   2.721   2.866   6.535
 8564SOL     OW26590   1.267   0.155   3.781
 8564SOL    HW126591   1.362   0.179   3.799
 8564SOL    HW226592   1.210   0.184   3.858
 8565SOL     OW26593   3.664   6.556   1.367
 8565SOL    HW126594   3.759   6.569   1.339
 8565SOL    HW226595   3.626   6.645   1.394
 8566SOL     OW26596   1.814   2.501   3.628
 8566SOL    HW126597   1.823   2.404   3.651
 8566SOL    HW226598   1.765   2.509   3.541
 8567SOL     OW26599   5.157   0.889   1.394
 8567SOL    HW126600   5.094   0.858   1.323
 8567SOL    HW226601   5.124   0.975   1.433
 8568SOL     OW26602   5.335   1.351   0.256
 8568SOL    HW126603   5.394   1.420   0.297
 8568SOL    HW226604   5.348   1.263   0.303
 8569SOL     OW26605   4.166   1.328   4.314
 8569SOL    HW126606   4.237   1.339   4.384
 8569SOL    HW226607   4.145   1.418   4.274
 8570SOL     OW26608   0.141   4.279   0.094
 8570SOL    HW126609   0.100   4.189   0.108
 8570SOL    HW226610   0.075   4.338   0.048
 8571SOL     OW26611   6.803   4.141   5.295
 8571SOL    HW126612   6.748   4.155   5.213
 8571SOL    HW226613   6.897   4.170   5.278
 8572SOL     OW26614   2.503   4.994   5.059
 8572SOL    HW126615   2.573   5.042   5.006
 8572SOL    HW226616   2.506   4.897   5.037
 8573SOL     OW26617   3.135   5.942   5.541
 8573SOL    HW126618   3.176   5.890   5.467
 8573SOL    HW226619   3.158   5.899   5.629
 8574SOL     OW26620   0.773   3.703   5.415
 8574SOL    HW126621   0.800   3.738   5.326
 8574SOL    HW226622   0.836   3.631   5.443
 8575SOL     OW26623   3.472   2.774   0.349
 8575SOL    HW126624   3.415   2.738   0.277
 8575SOL    HW226625   3.481   2.707   0.422
 8576SOL     OW26626   1.495   6.908   1.478
 8576SOL    HW126627   1.492   6.956   1.391
 8576SOL    HW226628   1.548   6.823   1.467
 8577SOL     OW26629   6.469   6.037   3.440
 8577SOL    HW126630   6.419   6.088   3.510
 8577SOL    HW226631   6.508   6.101   3.374
 8578SOL     OW26632   4.187   6.874   3.626
 8578SOL    HW126633   4.229   6.965   3.631
 8578SOL    HW226634   4.196   6.839   3.532
 8579SOL     OW26635   1.309   4.642   3.100
 8579SOL    HW126636   1.222   4.604   3.130
 8579SOL    HW226637   1.331   4.723   3.156
 8580SOL     OW26638   2.231   4.960   6.923
 8580SOL    HW126639   2.230   5.030   6.995
 8580SOL    HW226640   2.157   4.977   6.859
 8581SOL     OW26641   3.370   1.595   1.348
 8581SOL    HW126642   3.340   1.628   1.438
 8581SOL    HW226643   3.425   1.512   1.359
 8582SOL     OW26644   4.218   4.148   1.654
 8582SOL    HW126645   4.281   4.162   1.731
 8582SOL    HW226646   4.179   4.236   1.627
 8583SOL     OW26647   6.021   7.004   6.203
 8583SOL    HW126648   6.118   6.999   6.228
 8583SOL    HW226649   5.989   6.913   6.176
 8584SOL     OW26650   6.789   5.975   0.553
 8584SOL    HW126651   6.843   6.044   0.506
 8584SOL    HW226652   6.850   5.910   0.599
 8585SOL     OW26653   0.378   1.272   0.363
 8585SOL    HW126654   0.350   1.361   0.326
 8585SOL    HW226655   0.396   1.280   0.461
 8586SOL     OW26656   3.879   5.718   3.406
 8586SOL    HW126657   3.935   5.690   3.328
 8586SOL    HW226658   3.905   5.811   3.434
 8587SOL     OW26659   0.207   1.932   1.580
 8587SOL    HW126660   0.268   2.007   1.608
 8587SOL    HW226661   0.235   1.900   1.490
 8588SOL     OW26662   4.802   3.000   0.026
 8588SOL    HW126663   4.870   2.931   7.024
 8588SOL    HW226664   4.815   3.081   6.993
 8589SOL     OW26665   3.285   2.119   4.629
 8589SOL    HW126666   3.333   2.046   4.677
 8589SOL    HW226667   3.213   2.157   4.688
 8590SOL     OW26668   6.214   5.125   5.523
 8590SOL    HW126669   6.154   5.052   5.554
 8590SOL    HW226670   6.163   5.211   5.517
 8591SOL     OW26671   1.175   3.307   6.657
 8591SOL    HW126672   1.272   3.292   6.638
 8591SOL    HW226673   1.159   3.404   6.675
 8592SOL     OW26674   5.928   4.533   6.984
 8592SOL    HW126675   5.949   4.618   0.009
 8592SOL    HW226676   5.829   4.524   6.974
 8593SOL     OW26677   1.255   0.386   2.662
 8593SOL    HW126678   1.299   0.307   2.704
 8593SOL    HW226679   1.180   0.355   2.602
 8594SOL     OW26680   3.427   3.556   4.436
 8594SOL    HW126681   3.454   3.648   4.464
 8594SOL    HW226682   3.331   3.557   4.407
 8595SOL     OW26683   1.748   1.800   2.603
 8595SOL    HW126684   1.658   1.782   2.563
 8595SOL    HW226685   1.794   1.871   2.550
 8596SOL     OW26686   6.282   5.233   1.673
 8596SOL    HW126687   6.306   5.167   1.745
 8596SOL    HW226688   6.183   5.230   1.657
 8597SOL     OW26689   2.426   1.331   1.012
 8597SOL    HW126690   2.460   1.254   1.066
 8597SOL    HW226691   2.399   1.405   1.073
 8598SOL     OW26692   5.715   5.221   1.004
 8598SOL    HW126693   5.717   5.282   1.083
 8598SOL    HW226694   5.728   5.127   1.035
 8599SOL     OW26695   1.914   2.908   2.678
 8599SOL    HW126696   1.893   2.972   2.752
 8599SOL    HW226697   1.857   2.826   2.687
 8600SOL     OW26698   6.467   4.295   6.606
 8600SOL    HW126699   6.389   4.283   6.667
 8600SOL    HW226700   6.437   4.289   6.511
 8601SOL     OW26701   0.232   0.143   4.558
 8601SOL    HW126702   0.282   0.186   4.483
 8601SOL    HW226703   0.295   0.085   4.611
 8602SOL     OW26704   2.961   5.253   2.409
 8602SOL    HW126705   2.924   5.336   2.367
 8602SOL    HW226706   2.929   5.173   2.358
 8603SOL     OW26707   3.976   3.535   1.036
 8603SOL    HW126708   3.925   3.526   0.950
 8603SOL    HW226709   4.007   3.444   1.066
 8604SOL     OW26710   5.134   2.981   3.471
 8604SOL    HW126711   5.047   3.028   3.459
 8604SOL    HW226712   5.208   3.048   3.466
 8605SOL     OW26713   2.341   5.961   2.459
 8605SOL    HW126714   2.251   5.923   2.481
 8605SOL    HW226715   2.367   5.932   2.367
 8606SOL     OW26716   3.821   4.636   5.663
 8606SOL    HW126717   3.728   4.664   5.686
 8606SOL    HW226718   3.837   4.544   5.700
 8607SOL     OW26719   4.655   5.684   1.208
 8607SOL    HW126720   4.732   5.720   1.155
 8607SOL    HW226721   4.663   5.715   1.303
 8608SOL     OW26722   4.794   5.922   1.777
 8608SOL    HW126723   4.830   5.840   1.732
 8608SOL    HW226724   4.696   5.932   1.756
 8609SOL     OW26725   3.466   0.785   5.254
 8609SOL    HW126726   3.374   0.806   5.222
 8609SOL    HW226727   3.498   0.702   5.207
 8610SOL     OW26728   0.588   6.194   4.123
 8610SOL    HW126729   0.585   6.100   4.089
 8610SOL    HW226730   0.529   6.203   4.202
 8611SOL     OW26731   2.059   1.716   3.792
 8611SOL    HW126732   2.122   1.784   3.829
 8611SOL    HW226733   2.111   1.649   3.738
 8612SOL     OW26734   4.351   3.002   5.332
 8612SOL    HW126735   4.389   3.019   5.423
 8612SOL    HW226736   4.261   3.045   5.325
 8613SOL     OW26737   1.656   1.515   1.166
 8613SOL    HW126738   1.717   1.591   1.145
 8613SOL    HW226739   1.580   1.514   1.100
 8614SOL     OW26740   0.893   1.979   3.488
 8614SOL    HW126741   0.934   2.067   3.464
 8614SOL    HW226742   0.905   1.915   3.412
 8615SOL     OW26743   4.414   2.624   5.208
 8615SOL    HW126744   4.451   2.549   5.264
 8615SOL    HW226745   4.315   2.613   5.200
 8616SOL     OW26746   1.011   4.407   0.329
 8616SOL    HW126747   1.087   4.471   0.320
 8616SOL    HW226748   0.932   4.454   0.368
 8617SOL     OW26749   6.040   2.421   1.264
 8617SOL    HW126750   5.945   2.392   1.249
 8617SOL    HW226751   6.096   2.341   1.286
 8618SOL     OW26752   4.856   0.139   3.595
 8618SOL    HW126753   4.806   0.103   3.517
 8618SOL    HW226754   4.939   0.084   3.609
 8619SOL     OW26755   4.604   5.357   6.990
 8619SOL    HW126756   4.559   5.375   0.053
 8619SOL    HW226757   4.535   5.341   6.919
 8620SOL     OW26758   6.529   6.150   3.204
 8620SOL    HW126759   6.596   6.100   3.149
 8620SOL    HW226760   6.484   6.219   3.148
 8621SOL     OW26761   5.838   0.700   3.404
 8621SOL    HW126762   5.782   0.623   3.435
 8621SOL    HW226763   5.900   0.728   3.478
 8622SOL     OW26764   4.776   5.390   0.477
 8622SOL    HW126765   4.709   5.454   0.515
 8622SOL    HW226766   4.863   5.436   0.465
 8623SOL     OW26767   6.711   3.414   2.878
 8623SOL    HW126768   6.754   3.324   2.869
 8623SOL    HW226769   6.722   3.465   2.793
 8624SOL     OW26770   0.531   4.172   2.780
 8624SOL    HW126771   0.540   4.081   2.821
 8624SOL    HW226772   0.561   4.168   2.684
 8625SOL     OW26773   3.544   0.051   4.588
 8625SOL    HW126774   3.517   0.005   4.672
 8625SOL    HW226775   3.464   0.067   4.531
 8626SOL     OW26776   2.917   3.581   3.341
 8626SOL    HW126777   2.921   3.677   3.315
 8626SOL    HW226778   2.923   3.524   3.259
 8627SOL     OW26779   1.794   6.865   0.008
 8627SOL    HW126780   1.791   6.818   0.096
 8627SOL    HW226781   1.761   6.959   0.018
 8628SOL     OW26782   5.282   0.838   6.779
 8628SOL    HW126783   5.199   0.814   6.829
 8628SOL    HW226784   5.360   0.841   6.842
 8629SOL     OW26785   1.417   3.915   4.127
 8629SOL    HW126786   1.390   3.889   4.034
 8629SOL    HW226787   1.487   3.987   4.122
 8630SOL     OW26788   5.597   4.692   3.880
 8630SOL    HW126789   5.626   4.655   3.792
 8630SOL    HW226790   5.643   4.643   3.954
 8631SOL     OW26791   3.697   5.735   5.077
 8631SOL    HW126792   3.663   5.790   5.154
 8631SOL    HW226793   3.675   5.781   4.991
 8632SOL     OW26794   4.055   0.168   3.516
 8632SOL    HW126795   4.085   0.245   3.460
 8632SOL    HW226796   4.135   0.118   3.550
 8633SOL     OW26797   6.385   1.124   3.580
 8633SOL    HW126798   6.352   1.214   3.608
 8633SOL    HW226799   6.327   1.053   3.620
 8634SOL     OW26800   6.583   5.185   1.816
 8634SOL    HW126801   6.527   5.230   1.886
 8634SOL    HW226802   6.651   5.250   1.781
 8635SOL     OW26803   5.960   3.865   5.426
 8635SOL    HW126804   5.916   3.838   5.340
 8635SOL    HW226805   5.891   3.874   5.497
 8636SOL     OW26806   6.522   5.652   1.080
 8636SOL    HW126807   6.498   5.747   1.098
 8636SOL    HW226808   6.443   5.605   1.040
 8637SOL     OW26809   2.277   0.660   1.223
 8637SOL    HW126810   2.231   0.741   1.186
 8637SOL    HW226811   2.309   0.680   1.316
 8638SOL     OW26812   3.561   4.473   0.202
 8638SOL    HW126813   3.514   4.421   0.273
 8638SOL    HW226814   3.530   4.568   0.204
 8639SOL     OW26815   6.439   3.474   1.978
 8639SOL    HW126816   6.500   3.401   2.009
 8639SOL    HW226817   6.456   3.557   2.033
 8640SOL     OW26818   5.051   5.691   0.799
 8640SOL    HW126819   5.113   5.754   0.845
 8640SOL    HW226820   5.097   5.603   0.787
 8641SOL     OW26821   5.995   4.465   3.236
 8641SOL    HW126822   6.000   4.418   3.149
 8641SOL    HW226823   5.933   4.416   3.297
 8642SOL     OW26824   4.124   1.655   1.401
 8642SOL    HW126825   4.118   1.710   1.484
 8642SOL    HW226826   4.120   1.558   1.424
 8643SOL     OW26827   5.086   0.395   6.093
 8643SOL    HW126828   5.137   0.385   6.007
 8643SOL    HW226829   4.988   0.392   6.074
 8644SOL     OW26830   6.458   3.279   5.301
 8644SOL    HW126831   6.549   3.258   5.337
 8644SOL    HW226832   6.429   3.368   5.334
 8645SOL     OW26833   5.960   4.749   1.649
 8645SOL    HW126834   6.016   4.815   1.597
 8645SOL    HW226835   5.875   4.731   1.599
 8646SOL     OW26836   5.315   0.920   0.565
 8646SOL    HW126837   5.326   1.019   0.578
 8646SOL    HW226838   5.250   0.885   0.631
 8647SOL     OW26839   4.371   5.144   0.407
 8647SOL    HW126840   4.389   5.122   0.311
 8647SOL    HW226841   4.457   5.157   0.455
 8648SOL     OW26842   5.473   1.368   3.981
 8648SOL    HW126843   5.571   1.382   3.995
 8648SOL    HW226844   5.458   1.315   3.898
 8649SOL     OW26845   6.358   4.447   5.754
 8649SOL    HW126846   6.416   4.367   5.763
 8649SOL    HW226847   6.274   4.422   5.705
 8650SOL     OW26848   2.022   4.812   3.162
 8650SOL    HW126849   2.121   4.811   3.172
 8650SOL    HW226850   1.997   4.867   3.082
 8651SOL     OW26851   3.270   1.471   0.534
 8651SOL    HW126852   3.365   1.461   0.504
 8651SOL    HW226853   3.259   1.559   0.580
 8652SOL     OW26854   1.814   3.511   3.891
 8652SOL    HW126855   1.759   3.462   3.823
 8652SOL    HW226856   1.766   3.510   3.979
 8653SOL     OW26857   0.464   3.251   0.026
 8653SOL    HW126858   0.471   3.303   6.965
 8653SOL    HW226859   0.373   3.263   0.066
 8654SOL     OW26860   0.649   0.209   3.473
 8654SOL    HW126861   0.685   0.212   3.380
 8654SOL    HW226862   0.644   0.114   3.504
 8655SOL     OW26863   6.328   6.429   4.598
 8655SOL    HW126864   6.256   6.481   4.644
 8655SOL    HW226865   6.291   6.342   4.567
 8656SOL     OW26866   6.041   1.632   0.962
 8656SOL    HW126867   6.117   1.683   0.920
 8656SOL    HW226868   6.075   1.581   1.041
 8657SOL     OW26869   4.117   3.901   6.595
 8657SOL    HW126870   4.030   3.897   6.644
 8657SOL    HW226871   4.145   3.996   6.583
 8658SOL     OW26872   6.462   5.309   6.803
 8658SOL    HW126873   6.430   5.241   6.869
 8658SOL    HW226874   6.394   5.319   6.730
 8659SOL     OW26875   5.291   0.851   4.288
 8659SOL    HW126876   5.318   0.910   4.212
 8659SOL    HW226877   5.360   0.780   4.301
 8660SOL     OW26878   5.578   3.851   1.180
 8660SOL    HW126879   5.572   3.949   1.160
 8660SOL    HW226880   5.561   3.799   1.096
 8661SOL     OW26881   6.963   3.918   1.440
 8661SOL    HW126882   7.018   3.882   1.365
 8661SOL    HW226883   7.010   3.905   1.527
 8662SOL     OW26884   0.125   6.943   0.755
 8662SOL    HW126885   0.128   6.877   0.831
 8662SOL    HW226886   0.203   6.927   0.695
 8663SOL     OW26887   2.377   5.323   0.433
 8663SOL    HW126888   2.353   5.420   0.433
 8663SOL    HW226889   2.322   5.276   0.501
 8664SOL     OW26890   4.501   5.847   0.075
 8664SOL    HW126891   4.543   5.923   0.027
 8664SOL    HW226892   4.556   5.764   0.061
 8665SOL     OW26893   5.263   5.589   5.554
 8665SOL    HW126894   5.179   5.625   5.514
 8665SOL    HW226895   5.342   5.633   5.511
 8666SOL     OW26896   5.262   2.812   4.438
 8666SOL    HW126897   5.314   2.869   4.501
 8666SOL    HW226898   5.168   2.804   4.470
 8667SOL     OW26899   4.860   1.290   4.186
 8667SOL    HW126900   4.882   1.386   4.168
 8667SOL    HW226901   4.840   1.243   4.100
 8668SOL     OW26902   3.772   2.003   4.380
 8668SOL    HW126903   3.681   2.046   4.374
 8668SOL    HW226904   3.811   1.994   4.288
 8669SOL     OW26905   4.207   0.551   5.596
 8669SOL    HW126906   4.112   0.543   5.626
 8669SOL    HW226907   4.211   0.607   5.513
 8670SOL     OW26908   3.849   5.472   4.167
 8670SOL    HW126909   3.813   5.470   4.260
 8670SOL    HW226910   3.782   5.514   4.106
 8671SOL     OW26911   5.816   6.867   3.621
 8671SOL    HW126912   5.800   6.773   3.652
 8671SOL    HW226913   5.914   6.881   3.607
 8672SOL     OW26914   3.809   4.970   4.507
 8672SOL    HW126915   3.878   4.948   4.576
 8672SOL    HW226916   3.776   4.885   4.466
 8673SOL     OW26917   5.958   1.980   0.502
 8673SOL    HW126918   6.007   1.980   0.414
 8673SOL    HW226919   5.861   1.994   0.486
 8674SOL     OW26920   7.006   6.888   3.102
 8674SOL    HW126921   0.033   6.963   3.060
 8674SOL    HW226922   6.963   6.833   3.031
 8675SOL     OW26923   2.166   1.101   2.578
 8675SOL    HW126924   2.193   1.086   2.483
 8675SOL    HW226925   2.240   1.073   2.639
 8676SOL     OW26926   4.854   6.744   2.753
 8676SOL    HW126927   4.838   6.647   2.734
 8676SOL    HW226928   4.775   6.783   2.800
 8677SOL     OW26929   2.486   4.717   5.534
 8677SOL    HW126930   2.558   4.681   5.475
 8677SOL    HW226931   2.406   4.656   5.529
 8678SOL     OW26932   0.915   6.952   6.502
 8678SOL    HW126933   0.934   6.960   6.404
 8678SOL    HW226934   0.832   7.004   6.524
 8679SOL     OW26935   6.594   2.609   5.259
 8679SOL    HW126936   6.584   2.709   5.260
 8679SOL    HW226937   6.516   2.568   5.306
 8680SOL     OW26938   1.637   4.049   7.013
 8680SOL    HW126939   1.543   4.081   7.009
 8680SOL    HW226940   1.641   3.954   6.980
 8681SOL     OW26941   3.482   4.130   0.513
 8681SOL    HW126942   3.425   4.080   0.578
 8681SOL    HW226943   3.576   4.131   0.545
 8682SOL     OW26944   2.466   6.414   2.923
 8682SOL    HW126945   2.534   6.407   2.996
 8682SOL    HW226946   2.483   6.497   2.870
 8683SOL     OW26947   6.848   3.279   0.510
 8683SOL    HW126948   6.906   3.327   0.445
 8683SOL    HW226949   6.906   3.224   0.572
 8684SOL     OW26950   5.930   3.748   4.523
 8684SOL    HW126951   6.013   3.731   4.470
 8684SOL    HW226952   5.869   3.670   4.516
 8685SOL     OW26953   0.597   2.382   6.005
 8685SOL    HW126954   0.583   2.387   6.104
 8685SOL    HW226955   0.694   2.367   5.986
 8686SOL     OW26956   6.701   2.169   3.246
 8686SOL    HW126957   6.608   2.164   3.210
 8686SOL    HW226958   6.765   2.187   3.172
 8687SOL     OW26959   3.538   0.071   2.844
 8687SOL    HW126960   3.527   0.020   2.758
 8687SOL    HW226961   3.543   0.169   2.825
 8688SOL     OW26962   2.590   0.364   1.592
 8688SOL    HW126963   2.600   0.443   1.652
 8688SOL    HW226964   2.576   0.282   1.647
 8689SOL     OW26965   4.894   5.824   0.244
 8689SOL    HW126966   4.918   5.905   0.189
 8689SOL    HW226967   4.850   5.853   0.328
 8690SOL     OW26968   0.241   1.081   3.165
 8690SOL    HW126969   0.193   1.160   3.204
 8690SOL    HW226970   0.282   1.107   3.077
 8691SOL     OW26971   5.542   2.139   7.009
 8691SOL    HW126972   5.494   2.189   6.937
 8691SOL    HW226973   5.554   2.044   6.981
 8692SOL     OW26974   2.342   1.615   3.988
 8692SOL    HW126975   2.347   1.679   4.064
 8692SOL    HW226976   2.278   1.649   3.919
 8693SOL     OW26977   5.567   1.981   0.931
 8693SOL    HW126978   5.660   1.944   0.942
 8693SOL    HW226979   5.508   1.940   1.001
 8694SOL     OW26980   4.797   6.963   5.906
 8694SOL    HW126981   4.710   6.915   5.911
 8694SOL    HW226982   4.793   0.020   5.964
 8695SOL     OW26983   4.711   4.573   5.621
 8695SOL    HW126984   4.784   4.622   5.671
 8695SOL    HW226985   4.740   4.479   5.605
 8696SOL     OW26986   2.476   5.775   1.660
 8696SOL    HW126987   2.543   5.711   1.623
 8696SOL    HW226988   2.513   5.820   1.741
 8697SOL     OW26989   6.391   4.076   0.349
 8697SOL    HW126990   6.453   4.000   0.368
 8697SOL    HW226991   6.438   4.145   0.293
 8698SOL     OW26992   5.528   6.055   4.566
 8698SOL    HW126993   5.534   6.002   4.481
 8698SOL    HW226994   5.548   5.995   4.644
 8699SOL     OW26995   1.378   1.643   5.350
 8699SOL    HW126996   1.450   1.588   5.393
 8699SOL    HW226997   1.304   1.657   5.415
 8700SOL     OW26998   3.019   1.368   5.597
 8700SOL    HW126999   2.923   1.359   5.624
 8700SOL    HW227000   3.067   1.423   5.665
 8701SOL     OW27001   0.549   1.600   4.845
 8701SOL    HW127002   0.611   1.596   4.922
 8701SOL    HW227003   0.454   1.602   4.878
 8702SOL     OW27004   5.477   5.333   0.228
 8702SOL    HW127005   5.535   5.296   0.300
 8702SOL    HW227006   5.383   5.304   0.243
 8703SOL     OW27007   2.676   5.558   0.888
 8703SOL    HW127008   2.649   5.503   0.809
 8703SOL    HW227009   2.594   5.593   0.934
 8704SOL     OW27010   0.107   4.703   2.235
 8704SOL    HW127011   0.133   4.743   2.323
 8704SOL    HW227012   0.079   4.608   2.248
 8705SOL     OW27013   4.982   0.178   6.241
 8705SOL    HW127014   5.025   0.258   6.197
 8705SOL    HW227015   4.897   0.157   6.194
 8706SOL     OW27016   5.251   1.887   0.181
 8706SOL    HW127017   5.221   1.972   0.137
 8706SOL    HW227018   5.198   1.873   0.265
 8707SOL     OW27019   5.169   2.730   6.132
 8707SOL    HW127020   5.169   2.828   6.154
 8707SOL    HW227021   5.160   2.718   6.033
 8708SOL     OW27022   3.991   1.202   1.113
 8708SOL    HW127023   4.082   1.242   1.122
 8708SOL    HW227024   3.954   1.223   1.022
 8709SOL     OW27025   6.483   4.152   1.120
 8709SOL    HW127026   6.520   4.073   1.071
 8709SOL    HW227027   6.453   4.122   1.211
 8710SOL     OW27028   2.253   3.019   3.603
 8710SOL    HW127029   2.195   2.971   3.668
 8710SOL    HW227030   2.243   2.979   3.512
 8711SOL     OW27031   6.775   0.810   3.238
 8711SOL    HW127032   6.770   0.846   3.145
 8711SOL    HW227033   6.766   0.885   3.303
 8712SOL     OW27034   3.311   1.466   5.107
 8712SOL    HW127035   3.371   1.506   5.038
 8712SOL    HW227036   3.364   1.442   5.188
 8713SOL     OW27037   6.742   4.707   3.917
 8713SOL    HW127038   6.729   4.774   3.843
 8713SOL    HW227039   6.780   4.623   3.880
 8714SOL     OW27040   1.820   0.788   5.462
 8714SOL    HW127041   1.795   0.698   5.427
 8714SOL    HW227042   1.739   0.847   5.464
 8715SOL     OW27043   6.316   2.093   1.512
 8715SOL    HW127044   6.295   2.138   1.598
 8715SOL    HW227045   6.302   1.994   1.521
 8716SOL     OW27046   1.234   1.423   1.430
 8716SOL    HW127047   1.218   1.497   1.364
 8716SOL    HW227048   1.161   1.355   1.422
 8717SOL     OW27049   4.176   3.584   1.656
 8717SOL    HW127050   4.182   3.677   1.619
 8717SOL    HW227051   4.139   3.587   1.748
 8718SOL     OW27052   6.343   3.057   5.389
 8718SOL    HW127053   6.401   3.134   5.363
 8718SOL    HW227054   6.253   3.068   5.347
 8719SOL     OW27055   0.725   0.316   5.360
 8719SOL    HW127056   0.670   0.242   5.398
 8719SOL    HW227057   0.816   0.281   5.336
 8720SOL     OW27058   5.528   4.530   5.411
 8720SOL    HW127059   5.594   4.534   5.336
 8720SOL    HW227060   5.457   4.463   5.388
 8721SOL     OW27061   0.008   2.170   4.573
 8721SOL    HW127062   6.955   2.114   4.543
 8721SOL    HW227063   0.021   2.160   4.671
 8722SOL     OW27064   3.812   2.641   0.477
 8722SOL    HW127065   3.715   2.618   0.469
 8722SOL    HW227066   3.821   2.723   0.533
 8723SOL     OW27067   6.965   5.445   1.559
 8723SOL    HW127068   6.929   5.478   1.472
 8723SOL    HW227069   6.964   5.345   1.560
 8724SOL     OW27070   5.586   0.311   5.475
 8724SOL    HW127071   5.619   0.229   5.428
 8724SOL    HW227072   5.492   0.298   5.505
 8725SOL     OW27073   2.242   6.638   0.343
 8725SOL    HW127074   2.250   6.602   0.436
 8725SOL    HW227075   2.275   6.570   0.278
 8726SOL     OW27076   5.997   0.349   1.703
 8726SOL    HW127077   5.906   0.382   1.680
 8726SOL    HW227078   6.018   0.268   1.650
 8727SOL     OW27079   6.533   6.430   1.282
 8727SOL    HW127080   6.532   6.356   1.349
 8727SOL    HW227081   6.469   6.502   1.311
 8728SOL     OW27082   2.800   6.703   4.957
 8728SOL    HW127083   2.812   6.771   5.030
 8728SOL    HW227084   2.728   6.733   4.895
 8729SOL     OW27085   4.723   5.858   3.572
 8729SOL    HW127086   4.787   5.918   3.619
 8729SOL    HW227087   4.679   5.907   3.497
 8730SOL     OW27088   0.144   6.013   2.153
 8730SOL    HW127089   0.143   5.932   2.212
 8730SOL    HW227090   0.060   6.016   2.099
 8731SOL     OW27091   1.032   1.505   2.883
 8731SOL    HW127092   1.110   1.452   2.849
 8731SOL    HW227093   1.011   1.578   2.819
 8732SOL     OW27094   5.880   3.737   1.564
 8732SOL    HW127095   5.801   3.791   1.536
 8732SOL    HW227096   5.867   3.642   1.536
 8733SOL     OW27097   1.221   6.148   1.529
 8733SOL    HW127098   1.282   6.203   1.472
 8733SOL    HW227099   1.127   6.158   1.496
 8734SOL     OW27100   6.975   6.083   1.231
 8734SOL    HW127101   0.030   6.135   1.200
 8734SOL    HW227102   6.908   6.144   1.272
 8735SOL     OW27103   6.964   2.150   6.569
 8735SOL    HW127104   6.994   2.156   6.474
 8735SOL    HW227105   6.886   2.089   6.576
 8736SOL     OW27106   0.715   4.691   6.716
 8736SOL    HW127107   0.764   4.670   6.632
 8736SOL    HW227108   0.729   4.786   6.740
 8737SOL     OW27109   3.661   5.815   6.287
 8737SOL    HW127110   3.562   5.824   6.280
 8737SOL    HW227111   3.704   5.851   6.204
 8738SOL     OW27112   1.329   3.721   3.946
 8738SOL    HW127113   1.356   3.625   3.953
 8738SOL    HW227114   1.247   3.729   3.889
 8739SOL     OW27115   0.227   3.604   5.526
 8739SOL    HW127116   0.188   3.637   5.612
 8739SOL    HW227117   0.296   3.534   5.545
 8740SOL     OW27118   3.057   6.661   0.744
 8740SOL    HW127119   2.978   6.721   0.762
 8740SOL    HW227120   3.133   6.688   0.803
 8741SOL     OW27121   1.800   3.319   2.772
 8741SOL    HW127122   1.795   3.378   2.852
 8741SOL    HW227123   1.818   3.375   2.690
 8742SOL     OW27124   4.417   0.029   1.550
 8742SOL    HW127125   4.339   0.062   1.603
 8742SOL    HW227126   4.421   6.953   1.556
 8743SOL     OW27127   2.417   5.131   2.596
 8743SOL    HW127128   2.402   5.125   2.497
 8743SOL    HW227129   2.331   5.116   2.644
 8744SOL     OW27130   4.068   2.159   6.150
 8744SOL    HW127131   4.142   2.224   6.133
 8744SOL    HW227132   3.986   2.207   6.180
 8745SOL     OW27133   6.108   2.657   5.925
 8745SOL    HW127134   6.190   2.601   5.937
 8745SOL    HW227135   6.135   2.749   5.896
 8746SOL     OW27136   5.212   5.077   5.826
 8746SOL    HW127137   5.294   5.072   5.883
 8746SOL    HW227138   5.221   5.013   5.750
 8747SOL     OW27139   1.873   2.083   3.964
 8747SOL    HW127140   1.933   2.008   3.937
 8747SOL    HW227141   1.780   2.063   3.932
 8748SOL     OW27142   1.430   0.342   6.967
 8748SOL    HW127143   1.368   0.290   6.907
 8748SOL    HW227144   1.483   0.406   6.913
 8749SOL     OW27145   4.172   0.457   3.624
 8749SOL    HW127146   4.179   0.478   3.526
 8749SOL    HW227147   4.123   0.531   3.670
 8750SOL     OW27148   2.030   1.595   5.439
 8750SOL    HW127149   2.091   1.552   5.372
 8750SOL    HW227150   1.940   1.609   5.398
 8751SOL     OW27151   1.463   0.089   2.538
 8751SOL    HW127152   1.522   0.105   2.458
 8751SOL    HW227153   1.487   0.154   2.610
 8752SOL     OW27154   1.674   2.361   6.302
 8752SOL    HW127155   1.708   2.416   6.226
 8752SOL    HW227156   1.708   2.267   6.294
 8753SOL     OW27157   5.115   1.780   4.695
 8753SOL    HW127158   5.188   1.847   4.702
 8753SOL    HW227159   5.056   1.786   4.775
 8754SOL     OW27160   1.812   1.754   6.039
 8754SOL    HW127161   1.731   1.762   6.095
 8754SOL    HW227162   1.816   1.831   5.975
 8755SOL     OW27163   2.332   1.665   0.509
 8755SOL    HW127164   2.388   1.584   0.494
 8755SOL    HW227165   2.301   1.667   0.605
 8756SOL     OW27166   2.244   2.943   4.158
 8756SOL    HW127167   2.329   2.891   4.167
 8756SOL    HW227168   2.214   2.942   4.063
 8757SOL     OW27169   4.423   6.319   4.818
 8757SOL    HW127170   4.398   6.227   4.849
 8757SOL    HW227171   4.381   6.337   4.730
 8758SOL     OW27172   6.162   6.639   1.129
 8758SOL    HW127173   6.218   6.635   1.212
 8758SOL    HW227174   6.126   6.547   1.109
 8759SOL     OW27175   4.982   0.521   5.640
 8759SOL    HW127176   5.075   0.484   5.643
 8759SOL    HW227177   4.983   0.612   5.599
 8760SOL     OW27178   1.640   1.568   4.066
 8760SOL    HW127179   1.728   1.562   4.020
 8760SOL    HW227180   1.589   1.483   4.052
 8761SOL     OW27181   4.363   6.817   6.971
 8761SOL    HW127182   4.270   6.785   6.957
 8761SOL    HW227183   4.361   6.906   7.017
 8762SOL     OW27184   0.990   4.288   1.106
 8762SOL    HW127185   0.944   4.369   1.071
 8762SOL    HW227186   0.952   4.207   1.062
 8763SOL     OW27187   0.289   6.463   6.171
 8763SOL    HW127188   0.249   6.538   6.223
 8763SOL    HW227189   0.338   6.402   6.234
 8764SOL     OW27190   4.136   1.764   4.873
 8764SOL    HW127191   4.226   1.727   4.897
 8764SOL    HW227192   4.067   1.693   4.882
 8765SOL     OW27193   5.800   0.511   4.479
 8765SOL    HW127194   5.792   0.608   4.499
 8765SOL    HW227195   5.837   0.499   4.386
 8766SOL     OW27196   1.750   4.590   2.395
 8766SOL    HW127197   1.661   4.553   2.422
 8766SOL    HW227198   1.821   4.521   2.407
 8767SOL     OW27199   4.327   0.834   3.769
 8767SOL    HW127200   4.353   0.795   3.857
 8767SOL    HW227201   4.334   0.933   3.773
 8768SOL     OW27202   2.044   3.334   0.126
 8768SOL    HW127203   1.947   3.321   0.144
 8768SOL    HW227204   2.094   3.250   0.149
 8769SOL     OW27205   1.976   0.176   5.817
 8769SOL    HW127206   1.886   0.193   5.858
 8769SOL    HW227207   1.969   0.100   5.753
 8770SOL     OW27208   5.316   3.167   1.507
 8770SOL    HW127209   5.383   3.134   1.574
 8770SOL    HW227210   5.250   3.227   1.552
 8771SOL     OW27211   0.978   1.709   6.219
 8771SOL    HW127212   1.062   1.705   6.165
 8771SOL    HW227213   0.925   1.625   6.205
 8772SOL     OW27214   5.861   1.349   6.665
 8772SOL    HW127215   5.960   1.339   6.661
 8772SOL    HW227216   5.827   1.384   6.577
 8773SOL     OW27217   2.401   2.561   2.868
 8773SOL    HW127218   2.304   2.578   2.884
 8773SOL    HW227219   2.418   2.554   2.769
 8774SOL     OW27220   1.489   1.129   1.122
 8774SOL    HW127221   1.471   1.130   1.221
 8774SOL    HW227222   1.452   1.046   1.082
 8775SOL     OW27223   6.376   6.985   3.662
 8775SOL    HW127224   6.404   7.021   3.572
 8775SOL    HW227225   6.385   6.886   3.662
 8776SOL     OW27226   3.559   2.869   4.996
 8776SOL    HW127227   3.564   2.949   5.057
 8776SOL    HW227228   3.465   2.856   4.966
 8777SOL     OW27229   6.332   6.109   1.764
 8777SOL    HW127230   6.380   6.027   1.732
 8777SOL    HW227231   6.354   6.124   1.860
 8778SOL     OW27232   0.312   2.396   3.919
 8778SOL    HW127233   0.371   2.336   3.973
 8778SOL    HW227234   0.229   2.346   3.892
 8779SOL     OW27235   0.708   5.129   0.679
 8779SOL    HW127236   0.781   5.098   0.741
 8779SOL    HW227237   0.655   5.200   0.724
 8780SOL     OW27238   1.197   5.543   4.304
 8780SOL    HW127239   1.293   5.568   4.310
 8780SOL    HW227240   1.188   5.456   4.254
 8781SOL     OW27241   0.648   2.014   2.645
 8781SOL    HW127242   0.727   2.001   2.705
 8781SOL    HW227243   0.663   2.093   2.586
 8782SOL     OW27244   4.649   1.299   3.200
 8782SOL    HW127245   4.674   1.340   3.288
 8782SOL    HW227246   4.685   1.356   3.126
 8783SOL     OW27247   5.790   3.521   4.513
 8783SOL    HW127248   5.830   3.450   4.455
 8783SOL    HW227249   5.719   3.481   4.570
 8784SOL     OW27250   5.270   5.077   5.434
 8784SOL    HW127251   5.190   5.045   5.384
 8784SOL    HW227252   5.274   5.177   5.430
 8785SOL     OW27253   6.225   4.868   6.474
 8785SOL    HW127254   6.274   4.829   6.552
 8785SOL    HW227255   6.252   4.821   6.390
 8786SOL     OW27256   2.070   6.825   0.235
 8786SOL    HW127257   2.148   6.781   0.280
 8786SOL    HW227258   1.987   6.775   0.257
 8787SOL     OW27259   1.495   3.757   0.854
 8787SOL    HW127260   1.481   3.760   0.755
 8787SOL    HW227261   1.590   3.780   0.875
 8788SOL     OW27262   1.166   1.639   5.534
 8788SOL    HW127263   1.116   1.563   5.491
 8788SOL    HW227264   1.102   1.714   5.552
 8789SOL     OW27265   6.835   0.565   6.401
 8789SOL    HW127266   6.817   0.479   6.448
 8789SOL    HW227267   6.755   0.625   6.409
 8790SOL     OW27268   5.752   1.860   7.022
 8790SOL    HW127269   5.655   1.839   0.014
 8790SOL    HW227270   5.760   1.946   6.972
 8791SOL     OW27271   4.810   6.584   5.655
 8791SOL    HW127272   4.729   6.625   5.612
 8791SOL    HW227273   4.785   6.548   5.745
 8792SOL     OW27274   5.078   0.272   2.863
 8792SOL    HW127275   5.091   0.217   2.781
 8792SOL    HW227276   5.110   0.366   2.847
 8793SOL     OW27277   1.186   5.764   3.571
 8793SOL    HW127278   1.202   5.666   3.555
 8793SOL    HW227279   1.270   5.807   3.601
 8794SOL     OW27280   1.908   0.167   2.364
 8794SOL    HW127281   1.843   0.099   2.398
 8794SOL    HW227282   1.868   0.217   2.287
 8795SOL     OW27283   1.775   6.133   5.798
 8795SOL    HW127284   1.821   6.221   5.786
 8795SOL    HW227285   1.687   6.135   5.750
 8796SOL     OW27286   4.732   2.464   5.300
 8796SOL    HW127287   4.689   2.441   5.212
 8796SOL    HW227288   4.661   2.492   5.364
 8797SOL     OW27289   0.134   6.960   6.968
 8797SOL    HW127290   0.166   0.031   6.978
 8797SOL    HW227291   0.212   6.899   6.969
 8798SOL     OW27292   4.775   3.823   5.595
 8798SOL    HW127293   4.746   3.856   5.505
 8798SOL    HW227294   4.786   3.724   5.591
 8799SOL     OW27295   2.981   5.122   3.267
 8799SOL    HW127296   2.979   5.219   3.242
 8799SOL    HW227297   3.076   5.091   3.269
 8800SOL     OW27298   4.445   4.833   0.043
 8800SOL    HW127299   4.432   4.735   0.060
 8800SOL    HW227300   4.410   4.856   6.976
 8801SOL     OW27301   2.667   1.070   4.916
 8801SOL    HW127302   2.743   1.104   4.860
 8801SOL    HW227303   2.588   1.052   4.857
 8802SOL     OW27304   2.946   6.160   2.547
 8802SOL    HW127305   3.025   6.176   2.606
 8802SOL    HW227306   2.963   6.080   2.490
 8803SOL     OW27307   3.403   5.599   0.620
 8803SOL    HW127308   3.489   5.600   0.671
 8803SOL    HW227309   3.397   5.516   0.565
 8804SOL     OW27310   4.667   0.270   0.932
 8804SOL    HW127311   4.589   0.327   0.905
 8804SOL    HW227312   4.729   0.260   0.854
 8805SOL     OW27313   0.489   0.479   3.086
 8805SOL    HW127314   0.512   0.511   3.178
 8805SOL    HW227315   0.421   0.540   3.045
 8806SOL     OW27316   1.775   4.578   6.696
 8806SOL    HW127317   1.795   4.500   6.636
 8806SOL    HW227318   1.758   4.544   6.789
 8807SOL     OW27319   1.061   6.100   6.118
 8807SOL    HW127320   0.985   6.118   6.056
 8807SOL    HW227321   1.035   6.126   6.211
 8808SOL     OW27322   5.070   1.552   1.034
 8808SOL    HW127323   5.047   1.524   1.128
 8808SOL    HW227324   5.168   1.569   1.027
 8809SOL     OW27325   6.104   4.158   1.506
 8809SOL    HW127326   6.023   4.145   1.563
 8809SOL    HW227327   6.186   4.156   1.563
 8810SOL     OW27328   3.741   1.320   4.419
 8810SOL    HW127329   3.722   1.303   4.322
 8810SOL    HW227330   3.741   1.418   4.436
 8811SOL     OW27331   1.079   1.225   2.721
 8811SOL    HW127332   1.131   1.206   2.637
 8811SOL    HW227333   0.991   1.177   2.717
 8812SOL     OW27334   1.977   0.714   0.875
 8812SOL    HW127335   1.981   0.697   0.973
 8812SOL    HW227336   1.885   0.743   0.850
 8813SOL     OW27337   2.125   6.380   1.754
 8813SOL    HW127338   2.061   6.397   1.679
 8813SOL    HW227339   2.081   6.402   1.841
 8814SOL     OW27340   6.185   0.958   6.088
 8814SOL    HW127341   6.165   0.872   6.041
 8814SOL    HW227342   6.125   0.967   6.168
 8815SOL     OW27343   0.347   6.365   2.682
 8815SOL    HW127344   0.267   6.381   2.739
 8815SOL    HW227345   0.322   6.306   2.605
 8816SOL     OW27346   1.052   5.642   1.558
 8816SOL    HW127347   1.044   5.702   1.638
 8816SOL    HW227348   1.140   5.658   1.513
 8817SOL     OW27349   1.222   5.136   5.336
 8817SOL    HW127350   1.159   5.059   5.332
 8817SOL    HW227351   1.174   5.220   5.315
 8818SOL     OW27352   0.267   5.701   4.152
 8818SOL    HW127353   0.202   5.719   4.078
 8818SOL    HW227354   0.345   5.763   4.145
 8819SOL     OW27355   4.490   6.344   4.548
 8819SOL    HW127356   4.481   6.250   4.518
 8819SOL    HW227357   4.403   6.392   4.536
 8820SOL     OW27358   1.581   2.072   3.889
 8820SOL    HW127359   1.549   2.165   3.906
 8820SOL    HW227360   1.511   2.007   3.919
 8821SOL     OW27361   2.183   0.644   6.486
 8821SOL    HW127362   2.277   0.612   6.502
 8821SOL    HW227363   2.183   0.713   6.414
 8822SOL     OW27364   0.521   2.309   3.391
 8822SOL    HW127365   0.483   2.233   3.444
 8822SOL    HW227366   0.517   2.393   3.445
 8823SOL     OW27367   1.880   5.949   1.387
 8823SOL    HW127368   1.848   5.893   1.463
 8823SOL    HW227369   1.967   5.992   1.412
 8824SOL     OW27370   3.679   3.889   1.034
 8824SOL    HW127371   3.601   3.827   1.041
 8824SOL    HW227372   3.656   3.976   1.078
 8825SOL     OW27373   0.893   1.080   2.336
 8825SOL    HW127374   0.874   1.178   2.339
 8825SOL    HW227375   0.942   1.058   2.251
 8826SOL     OW27376   5.071   1.791   6.582
 8826SOL    HW127377   5.132   1.855   6.536
 8826SOL    HW227378   5.068   1.705   6.532
 8827SOL     OW27379   1.390   1.528   3.271
 8827SOL    HW127380   1.459   1.508   3.341
 8827SOL    HW227381   1.417   1.610   3.221
 8828SOL     OW27382   2.721   0.290   2.763
 8828SOL    HW127383   2.763   0.211   2.717
 8828SOL    HW227384   2.697   0.359   2.695
 8829SOL     OW27385   0.012   1.928   0.387
 8829SOL    HW127386   0.064   1.953   0.306
 8829SOL    HW227387   0.068   1.868   0.445
 8830SOL     OW27388   0.437   2.181   0.901
 8830SOL    HW127389   0.384   2.100   0.927
 8830SOL    HW227390   0.519   2.187   0.957
 8831SOL     OW27391   6.917   0.576   2.704
 8831SOL    HW127392   6.825   0.542   2.688
 8831SOL    HW227393   6.913   0.663   2.753
 8832SOL     OW27394   6.420   0.706   2.598
 8832SOL    HW127395   6.479   0.681   2.522
 8832SOL    HW227396   6.408   0.627   2.658
 8833SOL     OW27397   2.012   4.531   3.543
 8833SOL    HW127398   2.049   4.553   3.452
 8833SOL    HW227399   1.937   4.594   3.564
 8834SOL     OW27400   5.880   3.864   5.134
 8834SOL    HW127401   5.820   3.786   5.150
 8834SOL    HW227402   5.841   3.922   5.062
 8835SOL     OW27403   6.896   6.905   6.254
 8835SOL    HW127404   6.893   6.993   6.302
 8835SOL    HW227405   6.987   6.866   6.261
 8836SOL     OW27406   4.641   1.215   0.238
 8836SOL    HW127407   4.681   1.146   0.176
 8836SOL    HW227408   4.561   1.176   0.284
 8837SOL     OW27409   0.200   1.193   2.056
 8837SOL    HW127410   0.289   1.235   2.070
 8837SOL    HW227411   0.175   1.198   1.959
 8838SOL     OW27412   2.327   5.453   3.698
 8838SOL    HW127413   2.246   5.428   3.750
 8838SOL    HW227414   2.394   5.379   3.702
 8839SOL     OW27415   6.506   0.079   3.882
 8839SOL    HW127416   6.461   0.011   3.823
 8839SOL    HW227417   6.571   0.033   3.942
 8840SOL     OW27418   5.476   2.560   2.292
 8840SOL    HW127419   5.430   2.487   2.241
 8840SOL    HW227420   5.516   2.522   2.376
 8841SOL     OW27421   1.776   1.324   5.100
 8841SOL    HW127422   1.718   1.286   5.028
 8841SOL    HW227423   1.760   1.273   5.185
 8842SOL     OW27424   2.229   3.013   1.618
 8842SOL    HW127425   2.225   3.088   1.684
 8842SOL    HW227426   2.322   3.006   1.581
 8843SOL     OW27427   0.971   3.032   5.248
 8843SOL    HW127428   0.908   2.954   5.243
 8843SOL    HW227429   1.065   2.999   5.253
 8844SOL     OW27430   6.886   1.477   6.505
 8844SOL    HW127431   6.959   1.452   6.569
 8844SOL    HW227432   6.798   1.450   6.544
 8845SOL     OW27433   5.624   4.377   6.828
 8845SOL    HW127434   5.537   4.394   6.782
 8845SOL    HW227435   5.638   4.446   6.899
 8846SOL     OW27436   1.607   4.680   4.113
 8846SOL    HW127437   1.674   4.614   4.080
 8846SOL    HW227438   1.610   4.685   4.212
 8847SOL     OW27439   3.064   0.781   2.542
 8847SOL    HW127440   3.056   0.810   2.637
 8847SOL    HW227441   3.153   0.810   2.506
 8848SOL     OW27442   1.418   0.441   2.979
 8848SOL    HW127443   1.448   0.486   2.895
 8848SOL    HW227444   1.483   0.460   3.053
 8849SOL     OW27445   2.924   6.675   1.178
 8849SOL    HW127446   2.863   6.736   1.228
 8849SOL    HW227447   2.879   6.587   1.163
 8850SOL     OW27448   3.532   2.943   6.639
 8850SOL    HW127449   3.598   2.878   6.677
 8850SOL    HW227450   3.514   2.920   6.543
 8851SOL     OW27451   1.131   3.228   3.159
 8851SOL    HW127452   1.176   3.139   3.170
 8851SOL    HW227453   1.054   3.219   3.096
 8852SOL     OW27454   0.907   1.963   6.103
 8852SOL    HW127455   0.816   1.941   6.069
 8852SOL    HW227456   0.945   1.884   6.151
 8853SOL     OW27457   4.209   0.703   0.518
 8853SOL    HW127458   4.219   0.792   0.473
 8853SOL    HW227459   4.170   0.716   0.609
 8854SOL     OW27460   1.160   3.131   4.924
 8854SOL    HW127461   1.211   3.060   4.876
 8854SOL    HW227462   1.201   3.147   5.014
 8855SOL     OW27463   5.765   5.389   1.216
 8855SOL    HW127464   5.714   5.307   1.242
 8855SOL    HW227465   5.853   5.389   1.264
 8856SOL     OW27466   0.111   6.128   5.521
 8856SOL    HW127467   0.051   6.142   5.442
 8856SOL    HW227468   0.056   6.124   5.604
 8857SOL     OW27469   6.499   1.783   5.647
 8857SOL    HW127470   6.414   1.816   5.687
 8857SOL    HW227471   6.539   1.712   5.706
 8858SOL     OW27472   6.544   5.280   4.478
 8858SOL    HW127473   6.483   5.327   4.414
 8858SOL    HW227474   6.601   5.348   4.525
 8859SOL     OW27475   0.995   6.817   3.900
 8859SOL    HW127476   0.926   6.798   3.970
 8859SOL    HW227477   0.964   6.893   3.843
 8860SOL     OW27478   0.237   3.122   2.052
 8860SOL    HW127479   0.216   3.122   2.149
 8860SOL    HW227480   0.153   3.115   1.999
 8861SOL     OW27481   4.608   2.503   1.515
 8861SOL    HW127482   4.566   2.495   1.605
 8861SOL    HW227483   4.575   2.586   1.470
 8862SOL     OW27484   4.635   4.523   4.982
 8862SOL    HW127485   4.673   4.559   4.897
 8862SOL    HW227486   4.535   4.525   4.978
 8863SOL     OW27487   2.221   4.122   3.583
 8863SOL    HW127488   2.254   4.207   3.623
 8863SOL    HW227489   2.122   4.127   3.571
 8864SOL     OW27490   6.084   1.867   5.070
 8864SOL    HW127491   6.116   1.842   4.978
 8864SOL    HW227492   6.129   1.809   5.138
 8865SOL     OW27493   2.156   1.571   6.556
 8865SOL    HW127494   2.057   1.560   6.563
 8865SOL    HW227495   2.178   1.660   6.516
 8866SOL     OW27496   5.724   6.348   1.928
 8866SOL    HW127497   5.756   6.442   1.940
 8866SOL    HW227498   5.780   6.302   1.858
 8867SOL     OW27499   6.129   4.315   2.863
 8867SOL    HW127500   6.175   4.255   2.798
 8867SOL    HW227501   6.141   4.410   2.835
 8868SOL     OW27502   6.918   3.118   3.733
 8868SOL    HW127503   7.017   3.121   3.727
 8868SOL    HW227504   6.890   3.042   3.791
 8869SOL     OW27505   3.513   0.052   3.117
 8869SOL    HW127506   3.501   0.076   3.021
 8869SOL    HW227507   3.595   0.097   3.153
 8870SOL     OW27508   1.529   0.832   3.560
 8870SOL    HW127509   1.572   0.820   3.470
 8870SOL    HW227510   1.585   0.787   3.630
 8871SOL     OW27511   0.298   0.821   2.873
 8871SOL    HW127512   0.329   0.792   2.783
 8871SOL    HW227513   0.346   0.905   2.900
 8872SOL     OW27514   0.095   5.277   4.542
 8872SOL    HW127515   0.006   5.232   4.541
 8872SOL    HW227516   0.129   5.284   4.636
 8873SOL     OW27517   2.079   1.369   2.578
 8873SOL    HW127518   2.013   1.376   2.653
 8873SOL    HW227519   2.117   1.277   2.575
 8874SOL     OW27520   3.516   6.682   0.605
 8874SOL    HW127521   3.499   6.600   0.550
 8874SOL    HW227522   3.609   6.678   0.642
 8875SOL     OW27523   6.484   3.285   4.069
 8875SOL    HW127524   6.460   3.214   4.135
 8875SOL    HW227525   6.536   3.357   4.115
 8876SOL     OW27526   3.682   0.897   6.355
 8876SOL    HW127527   3.743   0.855   6.287
 8876SOL    HW227528   3.614   0.952   6.308
 8877SOL     OW27529   1.624   4.238   1.180
 8877SOL    HW127530   1.638   4.328   1.220
 8877SOL    HW227531   1.645   4.167   1.248
 8878SOL     OW27532   5.180   4.019   0.922
 8878SOL    HW127533   5.097   3.987   0.877
 8878SOL    HW227534   5.185   4.119   0.915
 8879SOL     OW27535   5.655   4.970   3.070
 8879SOL    HW127536   5.745   5.014   3.072
 8879SOL    HW227537   5.665   4.875   3.043
 8880SOL     OW27538   4.289   1.061   4.091
 8880SOL    HW127539   4.232   0.997   4.143
 8880SOL    HW227540   4.244   1.150   4.088
 8881SOL     OW27541   4.233   4.756   4.428
 8881SOL    HW127542   4.231   4.722   4.522
 8881SOL    HW227543   4.205   4.852   4.426
 8882SOL     OW27544   4.535   0.240   0.618
 8882SOL    HW127545   4.508   0.304   0.689
 8882SOL    HW227546   4.604   0.177   0.654
 8883SOL     OW27547   6.571   6.387   4.719
 8883SOL    HW127548   6.603   6.318   4.654
 8883SOL    HW227549   6.489   6.431   4.682
 8884SOL     OW27550   5.390   3.435   5.218
 8884SOL    HW127551   5.308   3.407   5.268
 8884SOL    HW227552   5.437   3.354   5.183
 8885SOL     OW27553   6.470   5.753   0.716
 8885SOL    HW127554   6.421   5.784   0.635
 8885SOL    HW227555   6.405   5.725   0.786
 8886SOL     OW27556   4.035   5.478   6.276
 8886SOL    HW127557   3.943   5.516   6.264
 8886SOL    HW227558   4.041   5.390   6.228
 8887SOL     OW27559   4.768   1.112   1.193
 8887SOL    HW127560   4.755   1.153   1.283
 8887SOL    HW227561   4.841   1.161   1.145
 8888SOL     OW27562   2.516   2.008   2.908
 8888SOL    HW127563   2.494   2.094   2.954
 8888SOL    HW227564   2.606   1.976   2.939
 8889SOL     OW27565   0.589   5.900   6.525
 8889SOL    HW127566   0.597   5.907   6.426
 8889SOL    HW227567   0.660   5.838   6.559
 8890SOL     OW27568   0.210   6.616   0.372
 8890SOL    HW127569   0.245   6.525   0.351
 8890SOL    HW227570   0.186   6.621   0.469
 8891SOL     OW27571   6.041   3.562   6.743
 8891SOL    HW127572   6.070   3.637   6.682
 8891SOL    HW227573   5.987   3.600   6.818
 8892SOL     OW27574   3.407   5.173   3.801
 8892SOL    HW127575   3.461   5.125   3.871
 8892SOL    HW227576   3.394   5.268   3.828
 8893SOL     OW27577   1.248   5.170   4.588
 8893SOL    HW127578   1.341   5.205   4.578
 8893SOL    HW227579   1.190   5.211   4.518
 8894SOL     OW27580   4.685   1.534   0.497
 8894SOL    HW127581   4.674   1.439   0.528
 8894SOL    HW227582   4.678   1.595   0.575
 8895SOL     OW27583   0.032   3.917   0.901
 8895SOL    HW127584   7.005   3.837   0.934
 8895SOL    HW227585   0.127   3.890   0.882
 8896SOL     OW27586   0.393   2.823   5.039
 8896SOL    HW127587   0.319   2.841   5.104
 8896SOL    HW227588   0.355   2.805   4.949
 8897SOL     OW27589   2.165   3.800   3.830
 8897SOL    HW127590   2.081   3.844   3.798
 8897SOL    HW227591   2.241   3.823   3.769
 8898SOL     OW27592   4.745   4.382   2.593
 8898SOL    HW127593   4.789   4.293   2.588
 8898SOL    HW227594   4.709   4.407   2.503
 8899SOL     OW27595   0.907   3.629   4.732
 8899SOL    HW127596   1.002   3.659   4.743
 8899SOL    HW227597   0.880   3.575   4.812
 8900SOL     OW27598   5.057   2.743   4.078
 8900SOL    HW127599   5.028   2.665   4.134
 8900SOL    HW227600   5.116   2.711   4.004
 8901SOL     OW27601   1.663   3.380   4.690
 8901SOL    HW127602   1.604   3.367   4.610
 8901SOL    HW227603   1.608   3.377   4.773
 8902SOL     OW27604   0.349   4.720   0.648
 8902SOL    HW127605   0.389   4.684   0.564
 8902SOL    HW227606   0.255   4.750   0.630
 8903SOL     OW27607   1.340   6.565   5.270
 8903SOL    HW127608   1.342   6.663   5.252
 8903SOL    HW227609   1.409   6.519   5.214
 8904SOL     OW27610   0.261   0.612   3.045
 8904SOL    HW127611   0.223   0.651   3.129
 8904SOL    HW227612   0.268   0.683   2.976
 8905SOL     OW27613   1.682   3.992   2.238
 8905SOL    HW127614   1.607   3.927   2.225
 8905SOL    HW227615   1.649   4.070   2.293
 8906SOL     OW27616   6.408   0.498   0.632
 8906SOL    HW127617   6.327   0.463   0.585
 8906SOL    HW227618   6.472   0.423   0.648
 8907SOL     OW27619   2.879   3.238   4.999
 8907SOL    HW127620   2.929   3.235   4.912
 8907SOL    HW227621   2.781   3.233   4.982
 8908SOL     OW27622   1.246   5.165   0.102
 8908SOL    HW127623   1.190   5.116   0.169
 8908SOL    HW227624   1.242   5.117   0.014
 8909SOL     OW27625   2.765   6.794   0.327
 8909SOL    HW127626   2.809   6.867   0.380
 8909SOL    HW227627   2.763   6.819   0.230
 8910SOL     OW27628   2.613   0.866   3.816
 8910SOL    HW127629   2.619   0.816   3.730
 8910SOL    HW227630   2.634   0.963   3.800
 8911SOL     OW27631   4.586   2.369   4.024
 8911SOL    HW127632   4.541   2.292   4.069
 8911SOL    HW227633   4.667   2.337   3.976
 8912SOL     OW27634   3.633   3.933   4.264
 8912SOL    HW127635   3.604   3.984   4.183
 8912SOL    HW227636   3.709   3.981   4.308
 8913SOL     OW27637   5.189   6.772   6.458
 8913SOL    HW127638   5.230   6.702   6.516
 8913SOL    HW227639   5.260   6.817   6.405
 8914SOL     OW27640   4.391   5.396   6.797
 8914SOL    HW127641   4.426   5.416   6.705
 8914SOL    HW227642   4.308   5.449   6.813
 8915SOL     OW27643   1.220   1.596   3.796
 8915SOL    HW127644   1.189   1.534   3.868
 8915SOL    HW227645   1.283   1.548   3.736
 8916SOL     OW27646   4.300   1.157   0.054
 8916SOL    HW127647   4.312   1.197   6.987
 8916SOL    HW227648   4.333   1.063   0.054
 8917SOL     OW27649   5.744   1.740   0.427
 8917SOL    HW127650   5.834   1.747   0.384
 8917SOL    HW227651   5.755   1.726   0.525
 8918SOL     OW27652   0.973   3.657   2.930
 8918SOL    HW127653   1.012   3.745   2.906
 8918SOL    HW227654   1.032   3.611   2.997
 8919SOL     OW27655   5.979   3.807   1.250
 8919SOL    HW127656   5.896   3.754   1.267
 8919SOL    HW227657   6.040   3.800   1.328
 8920SOL     OW27658   6.445   1.947   6.993
 8920SOL    HW127659   6.394   1.863   6.974
 8920SOL    HW227660   6.543   1.930   6.980
 8921SOL     OW27661   1.996   2.742   1.934
 8921SOL    HW127662   2.088   2.708   1.954
 8921SOL    HW227663   2.002   2.813   1.863
 8922SOL     OW27664   3.503   6.856   3.633
 8922SOL    HW127665   3.481   6.828   3.726
 8922SOL    HW227666   3.602   6.871   3.625
 8923SOL     OW27667   1.824   2.386   4.880
 8923SOL    HW127668   1.762   2.379   4.802
 8923SOL    HW227669   1.785   2.339   4.959
 8924SOL     OW27670   5.313   5.717   5.019
 8924SOL    HW127671   5.351   5.628   5.042
 8924SOL    HW227672   5.213   5.712   5.020
 8925SOL     OW27673   1.150   6.926   3.464
 8925SOL    HW127674   1.070   6.871   3.436
 8925SOL    HW227675   1.195   6.882   3.542
 8926SOL     OW27676   5.831   2.516   6.259
 8926SOL    HW127677   5.921   2.476   6.238
 8926SOL    HW227678   5.837   2.567   6.345
 8927SOL     OW27679   0.879   1.087   5.982
 8927SOL    HW127680   0.835   1.032   6.053
 8927SOL    HW227681   0.821   1.090   5.901
 8928SOL     OW27682   1.496   6.401   5.116
 8928SOL    HW127683   1.479   6.457   5.035
 8928SOL    HW227684   1.588   6.362   5.112
 8929SOL     OW27685   6.859   3.081   4.565
 8929SOL    HW127686   6.768   3.043   4.547
 8929SOL    HW227687   6.851   3.179   4.583
 8930SOL     OW27688   1.622   4.132   3.269
 8930SOL    HW127689   1.674   4.098   3.191
 8930SOL    HW227690   1.657   4.223   3.295
 8931SOL     OW27691   3.887   2.272   1.270
 8931SOL    HW127692   3.863   2.337   1.342
 8931SOL    HW227693   3.940   2.196   1.310
 8932SOL     OW27694   0.154   3.114   3.720
 8932SOL    HW127695   0.225   3.171   3.677
 8932SOL    HW227696   0.185   3.085   3.811
 8933SOL     OW27697   3.494   1.843   5.434
 8933SOL    HW127698   3.400   1.866   5.409
 8933SOL    HW227699   3.511   1.871   5.529
 8934SOL     OW27700   3.547   6.063   3.460
 8934SOL    HW127701   3.501   6.035   3.375
 8934SOL    HW227702   3.526   6.159   3.479
 8935SOL     OW27703   0.121   4.466   1.140
 8935SOL    HW127704   0.047   4.496   1.079
 8935SOL    HW227705   0.205   4.453   1.086
 8936SOL     OW27706   2.084   2.738   0.634
 8936SOL    HW127707   2.120   2.668   0.695
 8936SOL    HW227708   2.137   2.822   0.644
 8937SOL     OW27709   0.829   5.837   5.593
 8937SOL    HW127710   0.867   5.749   5.565
 8937SOL    HW227711   0.730   5.836   5.580
 8938SOL     OW27712   6.103   5.464   1.422
 8938SOL    HW127713   6.177   5.520   1.460
 8938SOL    HW227714   6.031   5.454   1.491
 8939SOL     OW27715   5.194   2.146   4.578
 8939SOL    HW127716   5.128   2.191   4.638
 8939SOL    HW227717   5.224   2.060   4.619
 8940SOL     OW27718   5.729   0.738   3.054
 8940SOL    HW127719   5.824   0.770   3.057
 8940SOL    HW227720   5.724   0.645   3.091
 8941SOL     OW27721   5.234   2.263   6.278
 8941SOL    HW127722   5.183   2.329   6.332
 8941SOL    HW227723   5.301   2.312   6.221
 8942SOL     OW27724   0.637   2.256   5.551
 8942SOL    HW127725   0.631   2.352   5.578
 8942SOL    HW227726   0.665   2.250   5.455
 8943SOL     OW27727   5.269   3.932   1.210
 8943SOL    HW127728   5.363   3.923   1.178
 8943SOL    HW227729   5.209   3.956   1.134
 8944SOL     OW27730   4.367   5.661   0.603
 8944SOL    HW127731   4.274   5.698   0.609
 8944SOL    HW227732   4.383   5.628   0.510
 8945SOL     OW27733   2.538   1.086   4.399
 8945SOL    HW127734   2.554   1.009   4.338
 8945SOL    HW227735   2.521   1.168   4.345
 8946SOL     OW27736   3.271   1.722   4.284
 8946SOL    HW127737   3.346   1.788   4.278
 8946SOL    HW227738   3.269   1.683   4.376
 8947SOL     OW27739   4.231   4.033   5.342
 8947SOL    HW127740   4.291   4.112   5.357
 8947SOL    HW227741   4.175   4.049   5.261
 8948SOL     OW27742   6.054   5.119   3.240
 8948SOL    HW127743   5.976   5.096   3.299
 8948SOL    HW227744   6.028   5.193   3.179
 8949SOL     OW27745   2.090   6.197   0.048
 8949SOL    HW127746   2.097   6.280   7.017
 8949SOL    HW227747   2.111   6.118   7.015
 8950SOL     OW27748   4.645   2.635   4.221
 8950SOL    HW127749   4.591   2.556   4.252
 8950SOL    HW227750   4.635   2.645   4.122
 8951SOL     OW27751   1.855   2.481   5.422
 8951SOL    HW127752   1.920   2.476   5.347
 8951SOL    HW227753   1.904   2.484   5.509
 8952SOL     OW27754   0.069   1.136   2.317
 8952SOL    HW127755   0.003   1.184   2.375
 8952SOL    HW227756   0.074   1.182   2.228
 8953SOL     OW27757   1.177   3.155   0.135
 8953SOL    HW127758   1.254   3.163   0.198
 8953SOL    HW227759   1.152   3.246   0.102
 8954SOL     OW27760   1.887   5.970   6.246
 8954SOL    HW127761   1.859   5.991   6.340
 8954SOL    HW227762   1.954   5.896   6.247
 8955SOL     OW27763   6.422   3.807   3.439
 8955SOL    HW127764   6.379   3.897   3.445
 8955SOL    HW227765   6.508   3.808   3.491
 8956SOL     OW27766   1.292   0.591   6.043
 8956SOL    HW127767   1.274   0.637   5.956
 8956SOL    HW227768   1.276   0.493   6.032
 8957SOL     OW27769   3.187   4.933   2.644
 8957SOL    HW127770   3.100   4.948   2.691
 8957SOL    HW227771   3.172   4.876   2.563
 8958SOL     OW27772   1.837   6.462   4.236
 8958SOL    HW127773   1.848   6.379   4.181
 8958SOL    HW227774   1.900   6.532   4.203
 8959SOL     OW27775   1.566   4.460   0.424
 8959SOL    HW127776   1.522   4.544   0.457
 8959SOL    HW227777   1.522   4.381   0.465
 8960SOL     OW27778   3.954   5.517   1.101
 8960SOL    HW127779   3.981   5.427   1.067
 8960SOL    HW227780   3.978   5.586   1.034
 8961SOL     OW27781   1.092   2.146   3.706
 8961SOL    HW127782   1.105   2.048   3.722
 8961SOL    HW227783   1.057   2.160   3.613
 8962SOL     OW27784   5.946   0.329   3.181
 8962SOL    HW127785   5.973   0.234   3.199
 8962SOL    HW227786   6.024   0.389   3.197
 8963SOL     OW27787   6.196   1.014   4.088
 8963SOL    HW127788   6.227   0.943   4.025
 8963SOL    HW227789   6.114   0.982   4.136
 8964SOL     OW27790   5.260   4.712   2.545
 8964SOL    HW127791   5.236   4.784   2.610
 8964SOL    HW227792   5.243   4.622   2.586
 8965SOL     OW27793   1.342   5.251   2.115
 8965SOL    HW127794   1.350   5.328   2.178
 8965SOL    HW227795   1.360   5.281   2.021
 8966SOL     OW27796   2.328   2.620   5.950
 8966SOL    HW127797   2.259   2.659   6.011
 8966SOL    HW227798   2.314   2.521   5.942
 8967SOL     OW27799   4.423   0.508   0.091
 8967SOL    HW127800   4.467   0.545   0.009
 8967SOL    HW227801   4.344   0.564   0.115
 8968SOL     OW27802   4.619   5.677   1.475
 8968SOL    HW127803   4.684   5.678   1.551
 8968SOL    HW227804   4.526   5.673   1.511
 8969SOL     OW27805   6.522   0.890   4.155
 8969SOL    HW127806   6.561   0.974   4.117
 8969SOL    HW227807   6.461   0.913   4.231
 8970SOL     OW27808   3.381   1.959   1.824
 8970SOL    HW127809   3.314   2.027   1.796
 8970SOL    HW227810   3.473   1.993   1.807
 8971SOL     OW27811   3.941   5.216   2.495
 8971SOL    HW127812   3.955   5.118   2.484
 8971SOL    HW227813   3.879   5.233   2.571
 8972SOL     OW27814   5.459   0.041   5.375
 8972SOL    HW127815   5.422   6.972   5.364
 8972SOL    HW227816   5.558   0.038   5.369
 8973SOL     OW27817   1.611   5.063   0.155
 8973SOL    HW127818   1.600   5.161   0.170
 8973SOL    HW227819   1.610   5.043   0.057
 8974SOL     OW27820   0.781   3.498   5.021
 8974SOL    HW127821   0.769   3.399   5.016
 8974SOL    HW227822   0.695   3.541   5.046
 8975SOL     OW27823   3.031   6.858   0.512
 8975SOL    HW127824   3.121   6.896   0.490
 8975SOL    HW227825   3.042   6.779   0.573
 8976SOL     OW27826   1.487   5.205   4.179
 8976SOL    HW127827   1.497   5.224   4.276
 8976SOL    HW227828   1.502   5.108   4.162
 8977SOL     OW27829   6.532   1.525   6.042
 8977SOL    HW127830   6.580   1.482   5.966
 8977SOL    HW227831   6.515   1.621   6.021
 8978SOL     OW27832   5.756   0.159   0.297
 8978SOL    HW127833   5.712   0.074   0.267
 8978SOL    HW227834   5.729   0.179   0.391
 8979SOL     OW27835   1.823   3.960   5.027
 8979SOL    HW127836   1.842   3.999   5.117
 8979SOL    HW227837   1.794   4.032   4.964
 8980SOL     OW27838   3.746   3.037   4.410
 8980SOL    HW127839   3.688   2.959   4.430
 8980SOL    HW227840   3.691   3.112   4.373
 8981SOL     OW27841   3.785   1.483   5.149
 8981SOL    HW127842   3.706   1.532   5.187
 8981SOL    HW227843   3.860   1.548   5.133
 8982SOL     OW27844   2.758   4.127   0.768
 8982SOL    HW127845   2.774   4.221   0.737
 8982SOL    HW227846   2.774   4.122   0.867
 8983SOL     OW27847   4.403   5.622   0.338
 8983SOL    HW127848   4.455   5.705   0.358
 8983SOL    HW227849   4.320   5.645   0.288
 8984SOL     OW27850   2.045   5.756   3.130
 8984SOL    HW127851   2.077   5.668   3.096
 8984SOL    HW227852   1.975   5.742   3.200
 8985SOL     OW27853   3.918   2.967   6.389
 8985SOL    HW127854   3.828   2.977   6.345
 8985SOL    HW227855   3.909   2.908   6.470
 8986SOL     OW27856   3.931   4.860   2.904
 8986SOL    HW127857   3.872   4.927   2.857
 8986SOL    HW227858   3.874   4.798   2.957
 8987SOL     OW27859   5.376   6.258   1.772
 8987SOL    HW127860   5.304   6.214   1.718
 8987SOL    HW227861   5.335   6.320   1.839
 8988SOL     OW27862   0.611   5.432   4.277
 8988SOL    HW127863   0.587   5.335   4.282
 8988SOL    HW227864   0.529   5.485   4.253
 8989SOL     OW27865   4.048   2.753   6.228
 8989SOL    HW127866   4.023   2.830   6.287
 8989SOL    HW227867   3.986   2.676   6.245
 8990SOL     OW27868   6.830   5.462   3.401
 8990SOL    HW127869   6.811   5.560   3.411
 8990SOL    HW227870   6.796   5.413   3.481
 8991SOL     OW27871   1.525   2.416   5.227
 8991SOL    HW127872   1.550   2.436   5.322
 8991SOL    HW227873   1.437   2.368   5.225
 8992SOL     OW27874   6.284   2.151   6.688
 8992SOL    HW127875   6.257   2.246   6.673
 8992SOL    HW227876   6.363   2.148   6.749
 8993SOL     OW27877   4.810   2.516   6.393
 8993SOL    HW127878   4.815   2.418   6.412
 8993SOL    HW227879   4.791   2.530   6.296
 8994SOL     OW27880   1.853   4.933   4.428
 8994SOL    HW127881   1.902   4.974   4.505
 8994SOL    HW227882   1.756   4.953   4.436
 8995SOL     OW27883   6.869   1.718   1.311
 8995SOL    HW127884   6.777   1.758   1.305
 8995SOL    HW227885   6.901   1.722   1.405
 8996SOL     OW27886   5.160   4.645   6.316
 8996SOL    HW127887   5.102   4.605   6.386
 8996SOL    HW227888   5.104   4.698   6.252
 8997SOL     OW27889   5.110   1.468   4.837
 8997SOL    HW127890   5.207   1.445   4.841
 8997SOL    HW227891   5.060   1.395   4.791
 8998SOL     OW27892   6.043   4.086   4.491
 8998SOL    HW127893   6.092   4.169   4.464
 8998SOL    HW227894   6.013   4.037   4.409
 8999SOL     OW27895   5.001   6.812   6.035
 8999SOL    HW127896   5.001   6.827   6.134
 8999SOL    HW227897   4.924   6.861   5.994
 9000SOL     OW27898   1.746   4.121   1.395
 9000SOL    HW127899   1.824   4.166   1.351
 9000SOL    HW227900   1.770   4.097   1.489
 9001SOL     OW27901   0.504   4.848   2.170
 9001SOL    HW127902   0.431   4.914   2.186
 9001SOL    HW227903   0.464   4.759   2.147
 9002SOL     OW27904   1.094   4.610   6.100
 9002SOL    HW127905   1.047   4.538   6.049
 9002SOL    HW227906   1.191   4.611   6.075
 9003SOL     OW27907   5.640   1.454   1.649
 9003SOL    HW127908   5.657   1.369   1.599
 9003SOL    HW227909   5.551   1.450   1.693
 9004SOL     OW27910   4.179   4.501   0.584
 9004SOL    HW127911   4.192   4.561   0.504
 9004SOL    HW227912   4.130   4.551   0.655
 9005SOL     OW27913   5.679   0.857   5.434
 9005SOL    HW127914   5.709   0.950   5.456
 9005SOL    HW227915   5.754   0.793   5.449
 9006SOL     OW27916   3.792   6.917   0.769
 9006SOL    HW127917   3.717   6.972   0.806
 9006SOL    HW227918   3.848   6.974   0.709
 9007SOL     OW27919   2.582   1.382   2.557
 9007SOL    HW127920   2.636   1.398   2.474
 9007SOL    HW227921   2.644   1.367   2.635
 9008SOL     OW27922   0.489   5.558   2.897
 9008SOL    HW127923   0.535   5.542   2.984
 9008SOL    HW227924   0.399   5.513   2.898
 9009SOL     OW27925   4.142   5.764   0.421
 9009SOL    HW127926   4.130   5.844   0.479
 9009SOL    HW227927   4.193   5.789   0.339
 9010SOL     OW27928   1.629   6.513   4.029
 9010SOL    HW127929   1.628   6.483   3.933
 9010SOL    HW227930   1.683   6.449   4.083
 9011SOL     OW27931   4.375   0.713   3.038
 9011SOL    HW127932   4.365   0.797   2.985
 9011SOL    HW227933   4.471   0.701   3.063
 9012SOL     OW27934   2.058   5.839   7.012
 9012SOL    HW127935   2.140   5.782   7.013
 9012SOL    HW227936   2.070   5.916   0.052
 9013SOL     OW27937   1.750   6.220   4.159
 9013SOL    HW127938   1.823   6.152   4.158
 9013SOL    HW227939   1.661   6.174   4.165
 9014SOL     OW27940   5.983   2.228   2.331
 9014SOL    HW127941   5.977   2.160   2.258
 9014SOL    HW227942   5.992   2.319   2.291
 9015SOL     OW27943   5.693   1.749   0.699
 9015SOL    HW127944   5.735   1.768   0.787
 9015SOL    HW227945   5.665   1.836   0.656
 9016SOL     OW27946   5.613   5.461   6.011
 9016SOL    HW127947   5.622   5.558   6.034
 9016SOL    HW227948   5.630   5.448   5.914
 9017SOL     OW27949   3.167   0.487   4.973
 9017SOL    HW127950   3.099   0.420   5.004
 9017SOL    HW227951   3.217   0.451   4.894
 9018SOL     OW27952   4.175   3.045   6.522
 9018SOL    HW127953   4.106   3.087   6.462
 9018SOL    HW227954   4.266   3.064   6.486
 9019SOL     OW27955   0.433   2.665   3.203
 9019SOL    HW127956   0.368   2.741   3.208
 9019SOL    HW227957   0.504   2.676   3.273
 9020SOL     OW27958   6.059   5.991   1.778
 9020SOL    HW127959   5.993   6.000   1.853
 9020SOL    HW227960   6.110   6.076   1.768
 9021SOL     OW27961   6.859   0.792   3.983
 9021SOL    HW127962   6.929   0.722   3.995
 9021SOL    HW227963   6.858   0.852   4.063
 9022SOL     OW27964   3.908   2.549   6.338
 9022SOL    HW127965   3.847   2.561   6.417
 9022SOL    HW227966   3.994   2.507   6.368
 9023SOL     OW27967   4.811   3.360   0.888
 9023SOL    HW127968   4.757   3.291   0.937
 9023SOL    HW227969   4.751   3.411   0.827
 9024SOL     OW27970   1.563   5.089   6.383
 9024SOL    HW127971   1.499   5.026   6.341
 9024SOL    HW227972   1.635   5.113   6.318
 9025SOL     OW27973   0.406   5.680   0.796
 9025SOL    HW127974   0.487   5.727   0.759
 9025SOL    HW227975   0.433   5.590   0.830
 9026SOL     OW27976   3.850   1.811   0.294
 9026SOL    HW127977   3.857   1.713   0.314
 9026SOL    HW227978   3.940   1.853   0.306
 9027SOL     OW27979   0.280   3.700   3.668
 9027SOL    HW127980   0.223   3.769   3.623
 9027SOL    HW227981   0.225   3.618   3.686
 9028SOL     OW27982   3.364   4.050   5.488
 9028SOL    HW127983   3.300   3.992   5.538
 9028SOL    HW227984   3.434   3.994   5.444
 9029SOL     OW27985   4.245   6.989   4.716
 9029SOL    HW127986   4.313   6.951   4.778
 9029SOL    HW227987   4.156   6.991   4.762
 9030SOL     OW27988   2.712   1.952   3.583
 9030SOL    HW127989   2.764   2.027   3.625
 9030SOL    HW227990   2.656   1.908   3.653
 9031SOL     OW27991   4.648   0.422   4.531
 9031SOL    HW127992   4.723   0.471   4.575
 9031SOL    HW227993   4.678   0.389   4.442
 9032SOL     OW27994   4.644   3.471   1.662
 9032SOL    HW127995   4.598   3.499   1.577
 9032SOL    HW227996   4.714   3.539   1.686
 9033SOL     OW27997   1.443   5.729   2.972
 9033SOL    HW127998   1.516   5.666   2.945
 9033SOL    HW227999   1.386   5.686   3.042
 9034SOL     OW28000   3.252   6.501   4.692
 9034SOL    HW128001   3.215   6.582   4.647
 9034SOL    HW228002   3.212   6.419   4.650
 9035SOL     OW28003   1.576   4.910   0.699
 9035SOL    HW128004   1.588   4.936   0.603
 9035SOL    HW228005   1.542   4.989   0.751
 9036SOL     OW28006   1.405   3.510   5.726
 9036SOL    HW128007   1.356   3.463   5.652
 9036SOL    HW228008   1.418   3.447   5.802
 9037SOL     OW28009   0.718   2.010   3.065
 9037SOL    HW128010   0.729   2.082   3.133
 9037SOL    HW228011   0.622   2.002   3.039
 9038SOL     OW28012   4.279   3.117   6.152
 9038SOL    HW128013   4.328   3.111   6.239
 9038SOL    HW228014   4.344   3.136   6.079
 9039SOL     OW28015   3.098   5.209   0.060
 9039SOL    HW128016   3.029   5.278   0.082
 9039SOL    HW228017   3.062   5.118   0.082
 9040SOL     OW28018   1.680   2.037   1.252
 9040SOL    HW128019   1.770   2.016   1.292
 9040SOL    HW228020   1.641   1.955   1.213
 9041SOL     OW28021   7.022   2.301   0.802
 9041SOL    HW128022   0.009   2.210   0.843
 9041SOL    HW228023   6.949   2.350   0.851
 9042SOL     OW28024   3.847   5.844   6.493
 9042SOL    HW128025   3.767   5.844   6.432
 9042SOL    HW228026   3.930   5.848   6.439
 9043SOL     OW28027   2.936   1.159   0.423
 9043SOL    HW128028   2.951   1.067   0.459
 9043SOL    HW228029   3.019   1.192   0.378
 9044SOL     OW28030   0.470   0.114   6.487
 9044SOL    HW128031   0.387   0.103   6.542
 9044SOL    HW228032   0.464   0.198   6.433
 9045SOL     OW28033   4.525   0.107   3.063
 9045SOL    HW128034   4.441   0.086   3.013
 9045SOL    HW228035   4.504   0.166   3.140
 9046SOL     OW28036   3.111   3.799   2.711
 9046SOL    HW128037   3.019   3.817   2.676
 9046SOL    HW228038   3.164   3.752   2.642
 9047SOL     OW28039   1.475   4.144   5.938
 9047SOL    HW128040   1.571   4.149   5.909
 9047SOL    HW228041   1.467   4.080   6.014
 9048SOL     OW28042   6.281   2.193   5.913
 9048SOL    HW128043   6.250   2.149   5.998
 9048SOL    HW228044   6.205   2.193   5.847
 9049SOL     OW28045   3.212   6.475   6.175
 9049SOL    HW128046   3.183   6.547   6.112
 9049SOL    HW228047   3.214   6.387   6.128
 9050SOL     OW28048   0.405   4.422   1.438
 9050SOL    HW128049   0.395   4.327   1.467
 9050SOL    HW228050   0.407   4.482   1.518
 9051SOL     OW28051   2.187   2.040   0.966
 9051SOL    HW128052   2.259   2.004   1.026
 9051SOL    HW228053   2.227   2.099   0.897
 9052SOL     OW28054   1.693   2.954   4.903
 9052SOL    HW128055   1.608   3.003   4.886
 9052SOL    HW228056   1.770   3.019   4.901
 9053SOL     OW28057   1.626   1.819   0.906
 9053SOL    HW128058   1.693   1.777   0.966
 9053SOL    HW228059   1.671   1.849   0.821
 9054SOL     OW28060   2.543   5.543   3.347
 9054SOL    HW128061   2.633   5.541   3.302
 9054SOL    HW228062   2.500   5.632   3.331
 9055SOL     OW28063   0.378   4.346   4.800
 9055SOL    HW128064   0.446   4.337   4.727
 9055SOL    HW228065   0.386   4.269   4.862
 9056SOL     OW28066   6.781   1.937   2.292
 9056SOL    HW128067   6.861   1.878   2.285
 9056SOL    HW228068   6.778   1.980   2.382
 9057SOL     OW28069   4.465   1.355   4.412
 9057SOL    HW128070   4.533   1.404   4.466
 9057SOL    HW228071   4.472   1.257   4.430
 9058SOL     OW28072   1.809   0.731   6.604
 9058SOL    HW128073   1.898   0.714   6.646
 9058SOL    HW228074   1.805   0.826   6.572
 9059SOL     OW28075   1.445   1.539   2.438
 9059SOL    HW128076   1.520   1.484   2.403
 9059SOL    HW228077   1.474   1.635   2.446
 9060SOL     OW28078   5.566   2.924   4.986
 9060SOL    HW128079   5.508   2.887   5.059
 9060SOL    HW228080   5.582   2.853   4.917
 9061SOL     OW28081   5.361   5.694   2.562
 9061SOL    HW128082   5.266   5.720   2.580
 9061SOL    HW228083   5.370   5.595   2.565
 9062SOL     OW28084   1.338   5.214   1.111
 9062SOL    HW128085   1.368   5.294   1.164
 9062SOL    HW228086   1.249   5.233   1.070
 9063SOL     OW28087   3.374   2.063   2.564
 9063SOL    HW128088   3.339   2.145   2.519
 9063SOL    HW228089   3.298   1.998   2.576
 9064SOL     OW28090   6.320   3.055   6.727
 9064SOL    HW128091   6.350   3.039   6.633
 9064SOL    HW228092   6.384   3.116   6.773
 9065SOL     OW28093   2.179   0.965   0.485
 9065SOL    HW128094   2.267   0.921   0.501
 9065SOL    HW228095   2.107   0.911   0.527
 9066SOL     OW28096   4.495   6.649   0.123
 9066SOL    HW128097   4.577   6.696   0.157
 9066SOL    HW228098   4.452   6.705   0.052
 9067SOL     OW28099   1.594   6.828   3.734
 9067SOL    HW128100   1.520   6.877   3.687
 9067SOL    HW228101   1.654   6.895   3.778
 9068SOL     OW28102   1.497   5.387   6.908
 9068SOL    HW128103   1.408   5.430   6.901
 9068SOL    HW228104   1.567   5.456   6.927
 9069SOL     OW28105   1.538   2.352   6.530
 9069SOL    HW128106   1.514   2.440   6.571
 9069SOL    HW228107   1.599   2.366   6.453
 9070SOL     OW28108   1.125   4.624   4.381
 9070SOL    HW128109   1.114   4.545   4.321
 9070SOL    HW228110   1.035   4.664   4.400
 9071SOL     OW28111   6.067   6.811   7.020
 9071SOL    HW128112   6.066   6.911   7.017
 9071SOL    HW228113   6.022   6.774   6.939
 9072SOL     OW28114   5.828   4.384   6.631
 9072SOL    HW128115   5.763   4.394   6.706
 9072SOL    HW228116   5.781   4.354   6.548
 9073SOL     OW28117   1.869   0.604   1.653
 9073SOL    HW128118   1.879   0.511   1.617
 9073SOL    HW228119   1.857   0.601   1.752
 9074SOL     OW28120   1.304   6.948   3.149
 9074SOL    HW128121   1.302   6.947   3.049
 9074SOL    HW228122   1.239   6.880   3.184
 9075SOL     OW28123   6.740   1.041   2.424
 9075SOL    HW128124   6.728   1.055   2.522
 9075SOL    HW228125   6.651   1.028   2.380
 9076SOL     OW28126   6.470   0.815   6.044
 9076SOL    HW128127   6.392   0.753   6.051
 9076SOL    HW228128   6.489   0.834   5.948
 9077SOL     OW28129   6.041   6.629   2.205
 9077SOL    HW128130   6.042   6.684   2.122
 9077SOL    HW228131   6.045   6.690   2.285
 9078SOL     OW28132   3.925   3.036   5.079
 9078SOL    HW128133   3.961   3.072   4.994
 9078SOL    HW228134   3.868   2.955   5.060
 9079SOL     OW28135   3.769   0.355   6.068
 9079SOL    HW128136   3.859   0.321   6.095
 9079SOL    HW228137   3.744   0.433   6.125
 9080SOL     OW28138   5.171   1.968   0.968
 9080SOL    HW128139   5.216   2.016   0.893
 9080SOL    HW228140   5.241   1.924   1.025
 9081SOL     OW28141   5.448   0.060   2.008
 9081SOL    HW128142   5.533   0.111   1.995
 9081SOL    HW228143   5.460   7.019   2.083
 9082SOL     OW28144   3.457   1.499   3.568
 9082SOL    HW128145   3.399   1.525   3.645
 9082SOL    HW228146   3.401   1.491   3.485
 9083SOL     OW28147   4.418   4.553   4.722
 9083SOL    HW128148   4.515   4.547   4.698
 9083SOL    HW228149   4.386   4.463   4.751
 9084SOL     OW28150   2.987   3.427   3.124
 9084SOL    HW128151   2.965   3.336   3.091
 9084SOL    HW228152   3.081   3.430   3.156
 9085SOL     OW28153   0.972   2.193   0.566
 9085SOL    HW128154   1.057   2.218   0.520
 9085SOL    HW228155   0.993   2.153   0.655
 9086SOL     OW28156   0.320   4.370   0.975
 9086SOL    HW128157   0.376   4.445   0.941
 9086SOL    HW228158   0.375   4.313   1.036
 9087SOL     OW28159   4.847   3.616   1.782
 9087SOL    HW128160   4.898   3.702   1.785
 9087SOL    HW228161   4.853   3.571   1.871
 9088SOL     OW28162   5.081   6.998   0.209
 9088SOL    HW128163   5.126   0.057   0.175
 9088SOL    HW228164   5.093   6.925   0.142
 9089SOL     OW28165   4.747   0.260   5.467
 9089SOL    HW128166   4.683   0.192   5.433
 9089SOL    HW228167   4.841   0.225   5.457
 9090SOL     OW28168   6.358   1.567   4.594
 9090SOL    HW128169   6.422   1.633   4.632
 9090SOL    HW228170   6.277   1.561   4.652
 9091SOL     OW28171   2.925   3.439   6.778
 9091SOL    HW128172   2.977   3.459   6.861
 9091SOL    HW228173   2.952   3.350   6.742
 9092SOL     OW28174   6.998   2.452   7.023
 9092SOL    HW128175   0.051   2.502   0.038
 9092SOL    HW228176   0.008   2.385   6.957
 9093SOL     OW28177   1.187   6.143   5.882
 9093SOL    HW128178   1.172   6.132   5.980
 9093SOL    HW228179   1.283   6.123   5.860
 9094SOL     OW28180   0.743   3.561   1.867
 9094SOL    HW128181   0.765   3.633   1.801
 9094SOL    HW228182   0.821   3.499   1.875
 9095SOL     OW28183   6.078   6.439   4.739
 9095SOL    HW128184   6.131   6.380   4.799
 9095SOL    HW228185   6.000   6.388   4.702
 9096SOL     OW28186   6.221   5.947   3.325
 9096SOL    HW128187   6.301   5.976   3.378
 9096SOL    HW228188   6.154   6.021   3.323
 9097SOL     OW28189   1.411   2.811   6.062
 9097SOL    HW128190   1.348   2.756   6.007
 9097SOL    HW228191   1.410   2.905   6.028
 9098SOL     OW28192   1.828   3.853   4.174
 9098SOL    HW128193   1.786   3.918   4.237
 9098SOL    HW228194   1.817   3.760   4.210
 9099SOL     OW28195   2.692   2.605   6.936
 9099SOL    HW128196   2.640   2.539   6.991
 9099SOL    HW228197   2.694   2.693   6.984
 9100SOL     OW28198   0.863   4.859   3.062
 9100SOL    HW128199   0.830   4.797   3.133
 9100SOL    HW228200   0.786   4.906   3.020
 9101SOL     OW28201   1.021   2.739   1.764
 9101SOL    HW128202   0.962   2.716   1.687
 9101SOL    HW228203   0.966   2.776   1.839
 9102SOL     OW28204   4.156   6.610   3.138
 9102SOL    HW128205   4.163   6.511   3.133
 9102SOL    HW228206   4.072   6.636   3.186
 9103SOL     OW28207   6.338   1.371   0.593
 9103SOL    HW128208   6.381   1.457   0.566
 9103SOL    HW228209   6.288   1.384   0.679
 9104SOL     OW28210   6.134   1.378   6.718
 9104SOL    HW128211   6.191   1.439   6.773
 9104SOL    HW228212   6.125   1.290   6.766
 9105SOL     OW28213   2.204   0.323   6.282
 9105SOL    HW128214   2.171   0.275   6.201
 9105SOL    HW228215   2.128   0.370   6.327
 9106SOL     OW28216   1.538   4.215   0.924
 9106SOL    HW128217   1.557   4.230   1.021
 9106SOL    HW228218   1.484   4.291   0.888
 9107SOL     OW28219   2.426   1.136   6.902
 9107SOL    HW128220   2.521   1.106   6.911
 9107SOL    HW228221   2.418   1.231   6.933
 9108SOL     OW28222   5.832   5.534   6.481
 9108SOL    HW128223   5.911   5.474   6.470
 9108SOL    HW228224   5.809   5.575   6.393
 9109SOL     OW28225   5.499   3.445   2.440
 9109SOL    HW128226   5.551   3.521   2.401
 9109SOL    HW228227   5.492   3.372   2.373
 9110SOL     OW28228   1.334   5.959   4.491
 9110SOL    HW128229   1.297   5.969   4.583
 9110SOL    HW228230   1.262   5.926   4.430
 9111SOL     OW28231   4.319   2.322   6.180
 9111SOL    HW128232   4.318   2.422   6.180
 9111SOL    HW228233   4.409   2.290   6.152
 9112SOL     OW28234   0.923   5.801   2.012
 9112SOL    HW128235   0.911   5.866   2.086
 9112SOL    HW228236   0.856   5.726   2.022
 9113SOL     OW28237   5.751   1.391   4.050
 9113SOL    HW128238   5.825   1.400   4.117
 9113SOL    HW228239   5.766   1.457   3.976
 9114SOL     OW28240   1.295   6.355   5.426
 9114SOL    HW128241   1.323   6.434   5.371
 9114SOL    HW228242   1.242   6.386   5.505
 9115SOL     OW28243   5.120   4.432   3.871
 9115SOL    HW128244   5.220   4.435   3.874
 9115SOL    HW228245   5.090   4.408   3.779
 9116SOL     OW28246   1.369   6.944   3.627
 9116SOL    HW128247   1.396   6.947   3.531
 9116SOL    HW228248   1.312   7.023   3.648
 9117SOL     OW28249   3.317   6.875   0.516
 9117SOL    HW128250   3.355   6.959   0.556
 9117SOL    HW228251   3.376   6.798   0.539
 9118SOL     OW28252   6.106   4.342   1.858
 9118SOL    HW128253   6.178   4.274   1.845
 9118SOL    HW228254   6.129   4.425   1.807
 9119SOL     OW28255   3.538   0.375   0.683
 9119SOL    HW128256   3.479   0.299   0.710
 9119SOL    HW228257   3.614   0.383   0.748
 9120SOL     OW28258   5.776   4.018   4.873
 9120SOL    HW128259   5.853   4.004   4.811
 9120SOL    HW228260   5.785   4.108   4.917
 9121SOL     OW28261   3.198   0.862   5.161
 9121SOL    HW128262   3.108   0.889   5.127
 9121SOL    HW228263   3.193   0.840   5.258
 9122SOL     OW28264   1.431   3.818   2.207
 9122SOL    HW128265   1.393   3.850   2.120
 9122SOL    HW228266   1.444   3.719   2.203
 9123SOL     OW28267   0.226   0.330   4.177
 9123SOL    HW128268   0.152   0.268   4.204
 9123SOL    HW228269   0.306   0.313   4.234
 9124SOL     OW28270   2.854   5.470   1.071
 9124SOL    HW128271   2.944   5.439   1.043
 9124SOL    HW228272   2.802   5.501   0.991
 9125SOL     OW28273   4.758   5.963   0.797
 9125SOL    HW128274   4.680   6.004   0.748
 9125SOL    HW228275   4.843   5.995   0.757
 9126SOL     OW28276   3.885   4.742   0.316
 9126SOL    HW128277   3.955   4.734   0.387
 9126SOL    HW228278   3.798   4.709   0.351
 9127SOL     OW28279   6.902   4.693   4.167
 9127SOL    HW128280   6.848   4.687   4.083
 9127SOL    HW228281   6.847   4.733   4.240
 9128SOL     OW28282   5.814   4.055   6.063
 9128SOL    HW128283   5.881   4.039   5.991
 9128SOL    HW228284   5.861   4.067   6.151
 9129SOL     OW28285   1.063   3.030   0.940
 9129SOL    HW128286   1.130   2.971   0.894
 9129SOL    HW228287   1.065   3.013   1.038
 9130SOL     OW28288   2.902   3.788   5.008
 9130SOL    HW128289   2.900   3.885   5.030
 9130SOL    HW228290   2.838   3.739   5.067
 9131SOL     OW28291   4.963   2.458   0.370
 9131SOL    HW128292   4.865   2.473   0.377
 9131SOL    HW228293   4.983   2.400   0.291
 9132SOL     OW28294   6.838   3.898   3.588
 9132SOL    HW128295   6.831   3.950   3.673
 9132SOL    HW228296   6.760   3.836   3.580
 9133SOL     OW28297   4.670   0.759   0.833
 9133SOL    HW128298   4.696   0.842   0.882
 9133SOL    HW228299   4.753   0.711   0.803
 9134SOL     OW28300   4.586   4.892   0.643
 9134SOL    HW128301   4.596   4.991   0.632
 9134SOL    HW228302   4.490   4.871   0.664
 9135SOL     OW28303   6.535   6.628   2.367
 9135SOL    HW128304   6.581   6.573   2.297
 9135SOL    HW228305   6.460   6.679   2.325
 9136SOL     OW28306   6.291   4.674   0.108
 9136SOL    HW128307   6.264   4.770   0.103
 9136SOL    HW228308   6.298   4.646   0.204
 9137SOL     OW28309   5.416   6.214   6.138
 9137SOL    HW128310   5.369   6.131   6.108
 9137SOL    HW228311   5.366   6.255   6.215
 9138SOL     OW28312   3.164   3.239   0.300
 9138SOL    HW128313   3.145   3.143   0.277
 9138SOL    HW228314   3.087   3.276   0.351
 9139SOL     OW28315   6.640   0.169   0.952
 9139SOL    HW128316   6.645   0.162   1.052
 9139SOL    HW228317   6.608   0.261   0.927
 9140SOL     OW28318   1.130   3.699   3.401
 9140SOL    HW128319   1.107   3.645   3.320
 9140SOL    HW228320   1.227   3.686   3.423
 9141SOL     OW28321   6.700   5.802   4.765
 9141SOL    HW128322   6.784   5.760   4.731
 9141SOL    HW228323   6.622   5.768   4.712
 9142SOL     OW28324   1.511   4.257   4.732
 9142SOL    HW128325   1.472   4.166   4.725
 9142SOL    HW228326   1.611   4.250   4.734
 9143SOL     OW28327   6.541   4.264   2.783
 9143SOL    HW128328   6.583   4.353   2.800
 9143SOL    HW228329   6.593   4.193   2.829
 9144SOL     OW28330   2.562   4.744   5.003
 9144SOL    HW128331   2.658   4.714   5.006
 9144SOL    HW228332   2.510   4.682   4.944
 9145SOL     OW28333   1.366   5.948   5.650
 9145SOL    HW128334   1.304   5.891   5.596
 9145SOL    HW228335   1.362   5.921   5.746
 9146SOL     OW28336   5.462   2.669   3.492
 9146SOL    HW128337   5.399   2.664   3.570
 9146SOL    HW228338   5.486   2.765   3.476
 9147SOL     OW28339   4.202   0.191   4.982
 9147SOL    HW128340   4.301   0.179   4.981
 9147SOL    HW228341   4.170   0.212   4.889
 9148SOL     OW28342   5.668   5.728   1.439
 9148SOL    HW128343   5.581   5.772   1.462
 9148SOL    HW228344   5.720   5.711   1.522
 9149SOL     OW28345   0.105   3.812   1.230
 9149SOL    HW128346   0.195   3.769   1.232
 9149SOL    HW228347   0.083   3.841   1.137
 9150SOL     OW28348   2.083   3.050   0.128
 9150SOL    HW128349   2.086   3.024   0.032
 9150SOL    HW228350   2.034   2.980   0.180
 9151SOL     OW28351   1.672   3.393   3.701
 9151SOL    HW128352   1.675   3.293   3.700
 9151SOL    HW228353   1.590   3.424   3.652
 9152SOL     OW28354   1.597   4.021   1.963
 9152SOL    HW128355   1.634   3.935   1.928
 9152SOL    HW228356   1.614   4.028   2.061
 9153SOL     OW28357   0.775   3.282   6.047
 9153SOL    HW128358   0.840   3.319   5.981
 9153SOL    HW228359   0.690   3.334   6.042
 9154SOL     OW28360   5.595   5.396   2.970
 9154SOL    HW128361   5.546   5.471   2.926
 9154SOL    HW228362   5.564   5.309   2.930
 9155SOL     OW28363   1.307   6.589   3.098
 9155SOL    HW128364   1.375   6.622   3.031
 9155SOL    HW228365   1.215   6.602   3.061
 9156SOL     OW28366   6.697   3.910   6.159
 9156SOL    HW128367   6.755   3.948   6.231
 9156SOL    HW228368   6.682   3.813   6.175
 9157SOL     OW28369   1.481   4.431   6.388
 9157SOL    HW128370   1.577   4.445   6.363
 9157SOL    HW228371   1.446   4.514   6.432
 9158SOL     OW28372   6.575   4.058   4.776
 9158SOL    HW128373   6.497   4.120   4.778
 9158SOL    HW228374   6.660   4.110   4.788
 9159SOL     OW28375   2.919   1.657   4.234
 9159SOL    HW128376   2.957   1.593   4.167
 9159SOL    HW228377   2.937   1.623   4.326
 9160SOL     OW28378   0.793   4.348   1.974
 9160SOL    HW128379   0.862   4.334   1.903
 9160SOL    HW228380   0.836   4.339   2.064
 9161SOL     OW28381   6.932   3.969   2.476
 9161SOL    HW128382   6.977   3.904   2.415
 9161SOL    HW228383   6.835   3.948   2.483
 9162SOL     OW28384   4.329   2.046   1.593
 9162SOL    HW128385   4.263   2.088   1.655
 9162SOL    HW228386   4.312   1.948   1.588
 9163SOL     OW28387   1.971   2.360   3.228
 9163SOL    HW128388   1.935   2.448   3.199
 9163SOL    HW228389   2.032   2.323   3.157
 9164SOL     OW28390   2.718   6.311   6.766
 9164SOL    HW128391   2.804   6.349   6.733
 9164SOL    HW228392   2.725   6.293   6.864
 9165SOL     OW28393   6.135   1.770   5.978
 9165SOL    HW128394   6.044   1.812   5.983
 9165SOL    HW228395   6.165   1.746   6.070
 9166SOL     OW28396   4.924   6.164   1.516
 9166SOL    HW128397   4.945   6.227   1.592
 9166SOL    HW228398   4.824   6.157   1.506
 9167SOL     OW28399   2.011   1.438   5.007
 9167SOL    HW128400   1.928   1.396   5.044
 9167SOL    HW228401   2.012   1.426   4.908
 9168SOL     OW28402   6.522   6.178   4.513
 9168SOL    HW128403   6.577   6.133   4.584
 9168SOL    HW228404   6.447   6.118   4.485
 9169SOL     OW28405   6.730   6.319   1.906
 9169SOL    HW128406   6.820   6.309   1.949
 9169SOL    HW228407   6.679   6.393   1.951
 9170SOL     OW28408   1.554   0.916   6.474
 9170SOL    HW128409   1.556   0.914   6.374
 9170SOL    HW228410   1.617   0.985   6.508
 9171SOL     OW28411   3.513   5.217   6.257
 9171SOL    HW128412   3.436   5.247   6.201
 9171SOL    HW228413   3.486   5.215   6.353
 9172SOL     OW28414   4.572   1.792   4.781
 9172SOL    HW128415   4.520   1.761   4.701
 9172SOL    HW228416   4.651   1.732   4.794
 9173SOL     OW28417   5.558   3.686   4.928
 9173SOL    HW128418   5.474   3.680   4.983
 9173SOL    HW228419   5.546   3.756   4.857
 9174SOL     OW28420   6.869   4.996   0.766
 9174SOL    HW128421   6.963   5.003   0.800
 9174SOL    HW228422   6.838   4.902   0.775
 9175SOL     OW28423   2.335   6.927   0.131
 9175SOL    HW128424   2.236   6.922   0.149
 9175SOL    HW228425   2.384   6.937   0.218
 9176SOL     OW28426   1.704   1.679   2.243
 9176SOL    HW128427   1.777   1.744   2.223
 9176SOL    HW228428   1.615   1.722   2.229
 9177SOL     OW28429   0.467   5.514   3.585
 9177SOL    HW128430   0.554   5.472   3.561
 9177SOL    HW228431   0.447   5.589   3.523
 9178SOL     OW28432   1.787   4.777   1.297
 9178SOL    HW128433   1.804   4.852   1.233
 9178SOL    HW228434   1.690   4.752   1.294
 9179SOL     OW28435   3.063   5.383   3.912
 9179SOL    HW128436   2.996   5.333   3.858
 9179SOL    HW228437   3.042   5.372   4.009
 9180SOL     OW28438   0.291   1.523   5.433
 9180SOL    HW128439   0.206   1.510   5.382
 9180SOL    HW228440   0.346   1.440   5.429
 9181SOL     OW28441   2.379   2.302   3.425
 9181SOL    HW128442   2.437   2.221   3.413
 9181SOL    HW228443   2.417   2.378   3.372
 9182SOL     OW28444   0.641   1.665   2.789
 9182SOL    HW128445   0.706   1.735   2.819
 9182SOL    HW228446   0.606   1.616   2.868
 9183SOL     OW28447   1.589   1.767   6.275
 9183SOL    HW128448   1.682   1.748   6.307
 9183SOL    HW228449   1.523   1.727   6.339
 9184SOL     OW28450   3.990   3.582   0.530
 9184SOL    HW128451   4.070   3.636   0.558
 9184SOL    HW228452   4.016   3.487   0.517
 9185SOL     OW28453   1.597   0.814   6.226
 9185SOL    HW128454   1.694   0.791   6.225
 9185SOL    HW228455   1.570   0.851   6.137
 9186SOL     OW28456   5.281   1.198   6.411
 9186SOL    HW128457   5.319   1.138   6.481
 9186SOL    HW228458   5.241   1.279   6.455
 9187SOL     OW28459   5.697   2.523   0.438
 9187SOL    HW128460   5.630   2.474   0.495
 9187SOL    HW228461   5.732   2.461   0.368
 9188SOL     OW28462   1.690   0.261   2.166
 9188SOL    HW128463   1.598   0.291   2.191
 9188SOL    HW228464   1.704   0.274   2.068
 9189SOL     OW28465   4.514   1.088   5.856
 9189SOL    HW128466   4.456   1.007   5.854
 9189SOL    HW228467   4.608   1.061   5.877
 9190SOL     OW28468   5.666   1.817   5.407
 9190SOL    HW128469   5.573   1.806   5.439
 9190SOL    HW228470   5.675   1.780   5.315
 9191SOL     OW28471   5.443   0.293   0.954
 9191SOL    HW128472   5.517   0.243   0.999
 9191SOL    HW228473   5.450   0.390   0.974
 9192SOL     OW28474   4.999   3.791   3.947
 9192SOL    HW128475   5.014   3.849   3.867
 9192SOL    HW228476   4.996   3.695   3.919
 9193SOL     OW28477   3.396   2.952   3.221
 9193SOL    HW128478   3.423   2.894   3.144
 9193SOL    HW228479   3.416   3.048   3.199
 9194SOL     OW28480   4.120   5.759   2.763
 9194SOL    HW128481   4.044   5.795   2.709
 9194SOL    HW228482   4.108   5.661   2.777
 9195SOL     OW28483   0.066   3.013   2.787
 9195SOL    HW128484   0.145   2.956   2.810
 9195SOL    HW228485   0.030   2.987   2.697
 9196SOL     OW28486   5.156   6.749   3.725
 9196SOL    HW128487   5.100   6.817   3.772
 9196SOL    HW228488   5.253   6.767   3.746
 9197SOL     OW28489   3.811   2.646   5.903
 9197SOL    HW128490   3.719   2.685   5.903
 9197SOL    HW228491   3.879   2.719   5.916
 9198SOL     OW28492   5.846   2.248   5.505
 9198SOL    HW128493   5.797   2.273   5.588
 9198SOL    HW228494   5.873   2.152   5.510
 9199SOL     OW28495   2.108   3.490   6.235
 9199SOL    HW128496   2.112   3.489   6.135
 9199SOL    HW228497   2.055   3.569   6.266
 9200SOL     OW28498   5.561   6.376   1.095
 9200SOL    HW128499   5.612   6.327   1.165
 9200SOL    HW228500   5.565   6.325   1.009
 9201SOL     OW28501   1.430   3.865   2.756
 9201SOL    HW128502   1.453   3.862   2.658
 9201SOL    HW228503   1.346   3.917   2.769
 9202SOL     OW28504   3.086   5.610   3.758
 9202SOL    HW128505   3.126   5.525   3.791
 9202SOL    HW228506   3.150   5.655   3.696
 9203SOL     OW28507   4.633   0.605   6.195
 9203SOL    HW128508   4.643   0.615   6.293
 9203SOL    HW228509   4.592   0.688   6.157
 9204SOL     OW28510   5.243   4.098   2.177
 9204SOL    HW128511   5.165   4.068   2.121
 9204SOL    HW228512   5.247   4.198   2.176
 9205SOL     OW28513   4.850   3.158   2.192
 9205SOL    HW128514   4.802   3.245   2.200
 9205SOL    HW228515   4.804   3.101   2.124
 9206SOL     OW28516   1.109   6.487   3.350
 9206SOL    HW128517   1.200   6.447   3.353
 9206SOL    HW228518   1.094   6.531   3.262
 9207SOL     OW28519   4.145   6.117   6.847
 9207SOL    HW128520   4.157   6.197   6.906
 9207SOL    HW228521   4.079   6.139   6.774
 9208SOL     OW28522   4.826   4.196   1.951
 9208SOL    HW128523   4.740   4.247   1.945
 9208SOL    HW228524   4.897   4.255   1.989
 9209SOL     OW28525   3.907   7.009   3.194
 9209SOL    HW128526   3.848   0.006   3.272
 9209SOL    HW228527   4.001   0.012   3.214
 9210SOL     OW28528   1.218   6.685   0.451
 9210SOL    HW128529   1.315   6.691   0.428
 9210SOL    HW228530   1.191   6.589   0.460
 9211SOL     OW28531   5.193   1.289   6.043
 9211SOL    HW128532   5.193   1.247   6.134
 9211SOL    HW228533   5.147   1.228   5.978
 9212SOL     OW28534   5.324   3.668   5.082
 9212SOL    HW128535   5.355   3.585   5.128
 9212SOL    HW228536   5.231   3.691   5.113
 9213SOL     OW28537   6.514   6.889   2.692
 9213SOL    HW128538   6.504   6.982   2.728
 9213SOL    HW228539   6.480   6.887   2.598
 9214SOL     OW28540   2.327   2.339   5.417
 9214SOL    HW128541   2.390   2.404   5.374
 9214SOL    HW228542   2.263   2.389   5.475
 9215SOL     OW28543   0.014   3.137   3.019
 9215SOL    HW128544   7.019   3.085   2.935
 9215SOL    HW228545   0.026   3.233   2.996
 9216SOL     OW28546   2.851   5.574   3.952
 9216SOL    HW128547   2.761   5.561   3.909
 9216SOL    HW228548   2.919   5.520   3.903
 9217SOL     OW28549   3.902   1.167   6.562
 9217SOL    HW128550   3.933   1.247   6.512
 9217SOL    HW228551   3.914   1.085   6.506
 9218SOL     OW28552   5.705   5.748   6.049
 9218SOL    HW128553   5.675   5.843   6.059
 9218SOL    HW228554   5.762   5.723   6.128
 9219SOL     OW28555   3.282   2.336   5.587
 9219SOL    HW128556   3.248   2.416   5.638
 9219SOL    HW228557   3.216   2.261   5.596
 9220SOL     OW28558   0.446   0.072   2.981
 9220SOL    HW128559   0.466   7.006   2.943
 9220SOL    HW228560   0.483   0.143   2.920
 9221SOL     OW28561   2.243   1.726   0.154
 9221SOL    HW128562   2.263   1.819   0.124
 9221SOL    HW228563   2.145   1.709   0.149
 9222SOL     OW28564   1.615   3.194   4.354
 9222SOL    HW128565   1.610   3.239   4.265
 9222SOL    HW228566   1.708   3.197   4.388
 9223SOL     OW28567   0.673   2.960   5.377
 9223SOL    HW128568   0.765   2.958   5.417
 9223SOL    HW228569   0.635   2.867   5.378
 9224SOL     OW28570   2.670   4.724   3.311
 9224SOL    HW128571   2.627   4.760   3.228
 9224SOL    HW228572   2.761   4.764   3.322
 9225SOL     OW28573   5.774   5.991   6.293
 9225SOL    HW128574   5.816   5.902   6.280
 9225SOL    HW228575   5.709   5.987   6.368
 9226SOL     OW28576   0.544   0.713   0.394
 9226SOL    HW128577   0.616   0.694   0.328
 9226SOL    HW228578   0.459   0.731   0.346
 9227SOL     OW28579   2.999   4.107   0.499
 9227SOL    HW128580   3.006   4.112   0.400
 9227SOL    HW228581   2.906   4.080   0.524
 9228SOL     OW28582   3.404   3.349   4.992
 9228SOL    HW128583   3.369   3.391   4.909
 9228SOL    HW228584   3.466   3.412   5.038
 9229SOL     OW28585   6.786   5.036   0.360
 9229SOL    HW128586   6.875   5.081   0.362
 9229SOL    HW228587   6.788   4.961   0.294
 9230SOL     OW28588   3.875   1.514   5.430
 9230SOL    HW128589   3.974   1.518   5.413
 9230SOL    HW228590   3.827   1.498   5.344
 9231SOL     OW28591   6.759   6.077   2.517
 9231SOL    HW128592   6.729   5.982   2.510
 9231SOL    HW228593   6.859   6.081   2.512
 9232SOL     OW28594   1.099   5.311   2.417
 9232SOL    HW128595   1.102   5.244   2.343
 9232SOL    HW228596   1.080   5.265   2.504
 9233SOL     OW28597   0.922   6.528   6.042
 9233SOL    HW128598   1.004   6.531   5.984
 9233SOL    HW228599   0.927   6.449   6.103
 9234SOL     OW28600   2.548   3.675   6.618
 9234SOL    HW128601   2.471   3.649   6.677
 9234SOL    HW228602   2.573   3.597   6.561
 9235SOL     OW28603   1.878   1.677   3.292
 9235SOL    HW128604   1.929   1.638   3.214
 9235SOL    HW228605   1.814   1.746   3.258
 9236SOL     OW28606   1.809   3.069   6.483
 9236SOL    HW128607   1.893   3.053   6.431
 9236SOL    HW228608   1.754   3.139   6.437
 9237SOL     OW28609   5.767   5.261   3.131
 9237SOL    HW128610   5.698   5.311   3.078
 9237SOL    HW228611   5.848   5.319   3.142
 9238SOL     OW28612   1.764   2.954   4.625
 9238SOL    HW128613   1.681   2.906   4.599
 9238SOL    HW228614   1.777   2.947   4.724
 9239SOL     OW28615   1.496   4.605   7.020
 9239SOL    HW128616   1.416   4.611   0.055
 9239SOL    HW228617   1.473   4.552   6.938
 9240SOL     OW28618   4.651   1.713   3.286
 9240SOL    HW128619   4.690   1.795   3.329
 9240SOL    HW228620   4.716   1.638   3.293
 9241SOL     OW28621   5.209   0.312   0.797
 9241SOL    HW128622   5.196   0.411   0.804
 9241SOL    HW228623   5.291   0.285   0.847
 9242SOL     OW28624   2.245   2.520   0.494
 9242SOL    HW128625   2.242   2.558   0.587
 9242SOL    HW228626   2.260   2.594   0.429
 9243SOL     OW28627   1.544   0.351   0.186
 9243SOL    HW128628   1.624   0.292   0.195
 9243SOL    HW228629   1.509   0.347   0.093
 9244SOL     OW28630   3.947   6.906   6.016
 9244SOL    HW128631   3.904   6.871   6.099
 9244SOL    HW228632   3.879   6.951   5.959
 9245SOL     OW28633   1.407   4.789   2.844
 9245SOL    HW128634   1.326   4.731   2.845
 9245SOL    HW228635   1.426   4.822   2.937
 9246SOL     OW28636   5.247   0.202   6.619
 9246SOL    HW128637   5.256   0.300   6.638
 9246SOL    HW228638   5.289   0.182   6.531
 9247SOL     OW28639   4.085   5.475   2.802
 9247SOL    HW128640   4.087   5.401   2.734
 9247SOL    HW228641   4.117   5.440   2.890
 9248SOL     OW28642   2.446   0.627   6.806
 9248SOL    HW128643   2.436   0.723   6.834
 9248SOL    HW228644   2.455   0.623   6.706
 9249SOL     OW28645   2.519   6.391   0.529
 9249SOL    HW128646   2.599   6.351   0.574
 9249SOL    HW228647   2.495   6.477   0.572
 9250SOL     OW28648   0.380   2.845   4.188
 9250SOL    HW128649   0.309   2.802   4.244
 9250SOL    HW228650   0.401   2.936   4.224
 9251SOL     OW28651   2.870   2.063   0.708
 9251SOL    HW128652   2.842   2.119   0.786
 9251SOL    HW228653   2.962   2.090   0.679
 9252SOL     OW28654   5.802   1.563   5.268
 9252SOL    HW128655   5.848   1.504   5.202
 9252SOL    HW228656   5.860   1.576   5.348
 9253SOL     OW28657   1.448   6.006   4.887
 9253SOL    HW128658   1.403   6.064   4.955
 9253SOL    HW228659   1.468   6.060   4.805
 9254SOL     OW28660   0.322   5.018   2.253
 9254SOL    HW128661   0.227   5.046   2.242
 9254SOL    HW228662   0.381   5.099   2.244
 9255SOL     OW28663   6.538   4.305   0.910
 9255SOL    HW128664   6.532   4.261   1.000
 9255SOL    HW228665   6.516   4.402   0.919
 9256SOL     OW28666   2.812   6.425   1.139
 9256SOL    HW128667   2.880   6.354   1.158
 9256SOL    HW228668   2.810   6.444   1.041
 9257SOL     OW28669   6.357   5.966   4.454
 9257SOL    HW128670   6.357   5.976   4.355
 9257SOL    HW228671   6.276   5.916   4.483
 9258SOL     OW28672   3.650   5.115   1.106
 9258SOL    HW128673   3.682   5.071   1.190
 9258SOL    HW228674   3.635   5.212   1.123
 9259SOL     OW28675   1.726   1.950   0.323
 9259SOL    HW128676   1.693   1.952   0.417
 9259SOL    HW228677   1.649   1.938   0.260
 9260SOL     OW28678   5.175   3.899   4.665
 9260SOL    HW128679   5.209   3.811   4.631
 9260SOL    HW228680   5.180   3.900   4.765
 9261SOL     OW28681   2.992   2.114   1.154
 9261SOL    HW128682   2.979   2.153   1.245
 9261SOL    HW228683   2.988   2.014   1.159
 9262SOL     OW28684   6.645   6.128   5.572
 9262SOL    HW128685   6.640   6.140   5.672
 9262SOL    HW228686   6.740   6.135   5.542
 9263SOL     OW28687   2.178   4.569   3.274
 9263SOL    HW128688   2.125   4.527   3.201
 9263SOL    HW228689   2.217   4.655   3.241
 9264SOL     OW28690   5.393   4.298   6.340
 9264SOL    HW128691   5.383   4.395   6.316
 9264SOL    HW228692   5.334   4.277   6.418
 9265SOL     OW28693   5.896   1.603   1.641
 9265SOL    HW128694   5.812   1.615   1.693
 9265SOL    HW228695   5.969   1.570   1.701
 9266SOL     OW28696   1.397   4.475   1.265
 9266SOL    HW128697   1.359   4.470   1.357
 9266SOL    HW228698   1.347   4.411   1.206
 9267SOL     OW28699   6.651   0.413   4.151
 9267SOL    HW128700   6.653   0.498   4.203
 9267SOL    HW228701   6.577   0.418   4.083
 9268SOL     OW28702   0.181   6.807   1.229
 9268SOL    HW128703   0.270   6.820   1.184
 9268SOL    HW228704   0.174   6.867   1.308
 9269SOL     OW28705   2.969   0.868   0.462
 9269SOL    HW128706   3.034   0.816   0.517
 9269SOL    HW228707   2.900   0.805   0.424
 9270SOL     OW28708   2.762   0.247   6.610
 9270SOL    HW128709   2.736   0.162   6.656
 9270SOL    HW228710   2.753   0.324   6.674
 9271SOL     OW28711   1.460   5.756   4.976
 9271SOL    HW128712   1.479   5.851   4.952
 9271SOL    HW228713   1.427   5.707   4.895
 9272SOL     OW28714   6.909   6.463   6.090
 9272SOL    HW128715   6.909   6.495   6.185
 9272SOL    HW228716   7.002   6.435   6.065
 9273SOL     OW28717   5.046   4.339   3.639
 9273SOL    HW128718   4.967   4.285   3.607
 9273SOL    HW228719   5.128   4.283   3.634
 9274SOL     OW28720   0.726   3.270   0.626
 9274SOL    HW128721   0.696   3.175   0.617
 9274SOL    HW228722   0.780   3.280   0.709
 9275SOL     OW28723   6.122   0.919   0.456
 9275SOL    HW128724   6.179   0.891   0.533
 9275SOL    HW228725   6.104   1.017   0.461
 9276SOL     OW28726   2.480   5.327   0.095
 9276SOL    HW128727   2.516   5.286   0.179
 9276SOL    HW228728   2.458   5.423   0.111
 9277SOL     OW28729   5.365   5.247   2.117
 9277SOL    HW128730   5.356   5.216   2.023
 9277SOL    HW228731   5.308   5.190   2.177
 9278SOL     OW28732   0.947   6.956   5.350
 9278SOL    HW128733   0.919   6.905   5.269
 9278SOL    HW228734   0.924   0.028   5.340
 9279SOL     OW28735   3.278   5.578   1.613
 9279SOL    HW128736   3.274   5.559   1.711
 9279SOL    HW228737   3.233   5.504   1.563
 9280SOL     OW28738   1.848   6.577   2.880
 9280SOL    HW128739   1.790   6.558   2.960
 9280SOL    HW228740   1.837   6.504   2.813
 9281SOL     OW28741   2.027   5.683   0.712
 9281SOL    HW128742   1.956   5.710   0.648
 9281SOL    HW228743   2.000   5.709   0.805
 9282SOL     OW28744   3.291   6.786   5.138
 9282SOL    HW128745   3.272   6.687   5.140
 9282SOL    HW228746   3.389   6.802   5.150
 9283SOL     OW28747   4.170   6.616   1.300
 9283SOL    HW128748   4.229   6.679   1.250
 9283SOL    HW228749   4.225   6.540   1.335
 9284SOL     OW28750   4.572   4.147   5.658
 9284SOL    HW128751   4.534   4.059   5.628
 9284SOL    HW228752   4.561   4.155   5.757
 9285SOL     OW28753   0.368   5.204   3.037
 9285SOL    HW128754   0.295   5.268   3.011
 9285SOL    HW228755   0.328   5.121   3.075
 9286SOL     OW28756   4.216   0.007   1.765
 9286SOL    HW128757   4.163   6.947   1.753
 9286SOL    HW228758   4.153   0.084   1.776
 9287SOL     OW28759   3.722   4.189   5.505
 9287SOL    HW128760   3.703   4.091   5.500
 9287SOL    HW228761   3.636   4.239   5.514
 9288SOL     OW28762   3.706   1.561   2.443
 9288SOL    HW128763   3.693   1.623   2.521
 9288SOL    HW228764   3.767   1.603   2.376
 9289SOL     OW28765   5.251   6.824   0.493
 9289SOL    HW128766   5.200   6.741   0.471
 9289SOL    HW228767   5.202   6.904   0.458
 9290SOL     OW28768   5.064   1.308   4.421
 9290SOL    HW128769   5.115   1.394   4.417
 9290SOL    HW228770   5.018   1.292   4.334
 9291SOL     OW28771   1.331   4.029   6.134
 9291SOL    HW128772   1.315   3.975   6.051
 9291SOL    HW228773   1.248   4.079   6.157
 9292SOL     OW28774   1.283   1.244   0.029
 9292SOL    HW128775   1.240   1.250   6.963
 9292SOL    HW228776   1.283   1.148   0.059
 9293SOL     OW28777   5.034   2.505   4.466
 9293SOL    HW128778   5.119   2.520   4.415
 9293SOL    HW228779   5.012   2.586   4.520
 9294SOL     OW28780   4.328   6.803   6.294
 9294SOL    HW128781   4.372   6.877   6.344
 9294SOL    HW228782   4.292   6.839   6.207
 9295SOL     OW28783   0.179   1.290   4.817
 9295SOL    HW128784   0.211   1.303   4.724
 9295SOL    HW228785   0.091   1.243   4.816
 9296SOL     OW28786   2.266   5.087   6.028
 9296SOL    HW128787   2.256   5.013   5.961
 9296SOL    HW228788   2.356   5.129   6.018
 9297SOL     OW28789   6.181   6.097   2.418
 9297SOL    HW128790   6.281   6.096   2.423
 9297SOL    HW228791   6.151   6.040   2.340
 9298SOL     OW28792   1.044   4.417   6.321
 9298SOL    HW128793   1.046   4.427   6.421
 9298SOL    HW228794   1.122   4.465   6.281
 9299SOL     OW28795   2.379   2.529   4.481
 9299SOL    HW128796   2.375   2.626   4.502
 9299SOL    HW228797   2.423   2.480   4.556
 9300SOL     OW28798   1.900   6.134   5.299
 9300SOL    HW128799   1.819   6.118   5.243
 9300SOL    HW228800   1.876   6.195   5.375
 9301SOL     OW28801   6.947   4.198   4.124
 9301SOL    HW128802   0.003   4.138   4.128
 9301SOL    HW228803   6.968   4.285   4.168
 9302SOL     OW28804   2.144   3.512   4.784
 9302SOL    HW128805   2.171   3.519   4.688
 9302SOL    HW228806   2.206   3.566   4.841
 9303SOL     OW28807   2.453   4.630   6.817
 9303SOL    HW128808   2.430   4.542   6.775
 9303SOL    HW228809   2.405   4.703   6.769
 9304SOL     OW28810   4.906   5.620   6.571
 9304SOL    HW128811   4.857   5.607   6.485
 9304SOL    HW228812   4.931   5.531   6.610
 9305SOL     OW28813   1.509   2.140   0.907
 9305SOL    HW128814   1.552   2.085   0.979
 9305SOL    HW228815   1.461   2.218   0.948
 9306SOL     OW28816   0.034   6.372   4.872
 9306SOL    HW128817   0.117   6.321   4.896
 9306SOL    HW228818   7.001   6.315   4.813
 9307SOL     OW28819   1.785   3.512   1.504
 9307SOL    HW128820   1.870   3.470   1.473
 9307SOL    HW228821   1.711   3.489   1.441
 9308SOL     OW28822   1.958   3.094   1.925
 9308SOL    HW128823   1.939   3.014   1.982
 9308SOL    HW228824   1.919   3.080   1.834
 9309SOL     OW28825   4.972   5.364   6.708
 9309SOL    HW128826   5.051   5.354   6.768
 9309SOL    HW228827   4.960   5.281   6.653
 9310SOL     OW28828   6.031   5.722   6.830
 9310SOL    HW128829   6.034   5.800   6.892
 9310SOL    HW228830   5.937   5.706   6.801
 9311SOL     OW28831   4.840   3.734   0.613
 9311SOL    HW128832   4.924   3.757   0.564
 9311SOL    HW228833   4.761   3.767   0.561
 9312SOL     OW28834   0.609   2.903   3.112
 9312SOL    HW128835   0.600   2.991   3.158
 9312SOL    HW228836   0.524   2.881   3.063
 9313SOL     OW28837   0.500   0.476   2.096
 9313SOL    HW128838   0.525   0.386   2.062
 9313SOL    HW228839   0.400   0.486   2.095
 9314SOL     OW28840   5.338   4.386   0.765
 9314SOL    HW128841   5.382   4.303   0.732
 9314SOL    HW228842   5.297   4.369   0.855
 9315SOL     OW28843   4.779   6.533   6.147
 9315SOL    HW128844   4.835   6.478   6.209
 9315SOL    HW228845   4.779   6.628   6.177
 9316SOL     OW28846   5.321   0.989   5.770
 9316SOL    HW128847   5.355   0.983   5.864
 9316SOL    HW228848   5.303   0.897   5.735
 9317SOL     OW28849   3.521   6.320   3.159
 9317SOL    HW128850   3.560   6.378   3.088
 9317SOL    HW228851   3.477   6.377   3.229
 9318SOL     OW28852   3.873   0.095   2.035
 9318SOL    HW128853   3.885   0.010   2.086
 9318SOL    HW228854   3.841   0.166   2.098
 9319SOL     OW28855   3.520   2.174   6.744
 9319SOL    HW128856   3.590   2.107   6.769
 9319SOL    HW228857   3.431   2.129   6.742
 9320SOL     OW28858   6.567   6.540   6.712
 9320SOL    HW128859   6.589   6.629   6.671
 9320SOL    HW228860   6.482   6.549   6.764
 9321SOL     OW28861   0.565   3.039   5.135
 9321SOL    HW128862   0.511   2.967   5.093
 9321SOL    HW228863   0.584   3.016   5.230
 9322SOL     OW28864   6.042   3.182   6.737
 9322SOL    HW128865   6.130   3.134   6.733
 9322SOL    HW228866   5.981   3.144   6.667
 9323SOL     OW28867   0.676   1.959   5.915
 9323SOL    HW128868   0.721   2.007   5.839
 9323SOL    HW228869   0.653   1.866   5.886
 9324SOL     OW28870   0.650   4.100   1.964
 9324SOL    HW128871   0.702   4.185   1.968
 9324SOL    HW228872   0.709   4.023   1.991
 9325SOL     OW28873   1.092   4.218   3.384
 9325SOL    HW128874   1.093   4.134   3.439
 9325SOL    HW228875   1.170   4.276   3.411
 9326SOL     OW28876   4.632   4.036   1.756
 9326SOL    HW128877   4.699   4.025   1.830
 9326SOL    HW228878   4.571   4.112   1.777
 9327SOL     OW28879   2.872   1.005   3.201
 9327SOL    HW128880   2.955   1.032   3.153
 9327SOL    HW228881   2.816   1.085   3.220
 9328SOL     OW28882   2.416   0.820   4.020
 9328SOL    HW128883   2.417   0.722   4.035
 9328SOL    HW228884   2.472   0.842   3.940
 9329SOL     OW28885   0.133   5.450   6.899
 9329SOL    HW128886   0.066   5.525   6.902
 9329SOL    HW228887   0.084   5.363   6.901
 9330SOL     OW28888   6.605   6.382   6.960
 9330SOL    HW128889   6.675   6.406   0.004
 9330SOL    HW228890   6.626   6.428   6.873
 9331SOL     OW28891   2.143   3.318   3.666
 9331SOL    HW128892   2.158   3.327   3.765
 9331SOL    HW228893   2.194   3.239   3.632
 9332SOL     OW28894   5.460   6.159   0.860
 9332SOL    HW128895   5.363   6.186   0.866
 9332SOL    HW228896   5.475   6.077   0.914
 9333SOL     OW28897   3.649   3.537   0.935
 9333SOL    HW128898   3.643   3.437   0.940
 9333SOL    HW228899   3.694   3.564   0.850
 9334SOL     OW28900   6.181   6.146   6.022
 9334SOL    HW128901   6.196   6.185   6.113
 9334SOL    HW228902   6.096   6.181   5.984
 9335SOL     OW28903   0.958   3.378   1.942
 9335SOL    HW128904   0.924   3.302   1.996
 9335SOL    HW228905   1.055   3.364   1.921
 9336SOL     OW28906   5.281   0.130   5.704
 9336SOL    HW128907   5.296   0.173   5.615
 9336SOL    HW228908   5.225   0.048   5.693
 9337SOL     OW28909   2.155   0.524   6.040
 9337SOL    HW128910   2.184   0.599   5.980
 9337SOL    HW228911   2.231   0.499   6.100
 9338SOL     OW28912   5.631   6.529   0.338
 9338SOL    HW128913   5.572   6.522   0.258
 9338SOL    HW228914   5.644   6.625   0.362
 9339SOL     OW28915   6.919   3.963   5.668
 9339SOL    HW128916   6.864   3.948   5.586
 9339SOL    HW228917   6.864   4.012   5.736
 9340SOL     OW28918   3.459   4.947   1.068
 9340SOL    HW128919   3.533   5.014   1.078
 9340SOL    HW228920   3.499   4.857   1.048
 9341SOL     OW28921   5.355   5.245   6.613
 9341SOL    HW128922   5.423   5.278   6.546
 9341SOL    HW228923   5.288   5.188   6.566
 9342SOL     OW28924   3.349   0.187   4.407
 9342SOL    HW128925   3.427   0.247   4.419
 9342SOL    HW228926   3.298   0.214   4.326
 9343SOL     OW28927   4.379   3.970   0.902
 9343SOL    HW128928   4.411   3.981   0.808
 9343SOL    HW228929   4.430   4.032   0.962
 9344SOL     OW28930   6.062   0.235   5.413
 9344SOL    HW128931   6.079   0.210   5.318
 9344SOL    HW228932   5.969   0.270   5.422
 9345SOL     OW28933   0.573   4.956   0.023
 9345SOL    HW128934   0.671   4.940   0.035
 9345SOL    HW228935   0.521   4.894   0.080
 9346SOL     OW28936   5.982   6.400   1.280
 9346SOL    HW128937   6.032   6.344   1.214
 9346SOL    HW228938   6.027   6.397   1.369
 9347SOL     OW28939   3.907   5.388   0.709
 9347SOL    HW128940   3.985   5.393   0.772
 9347SOL    HW228941   3.899   5.474   0.660
 9348SOL     OW28942   2.359   5.787   2.225
 9348SOL    HW128943   2.306   5.744   2.299
 9348SOL    HW228944   2.305   5.788   2.141
 9349SOL     OW28945   6.370   6.082   2.041
 9349SOL    HW128946   6.310   6.113   2.115
 9349SOL    HW228947   6.347   5.988   2.016
 9350SOL     OW28948   6.697   0.983   6.360
 9350SOL    HW128949   6.633   0.939   6.422
 9350SOL    HW228950   6.647   1.028   6.286
 9351SOL     OW28951   3.819   3.055   6.050
 9351SOL    HW128952   3.761   3.107   5.988
 9351SOL    HW228953   3.763   2.999   6.110
 9352SOL     OW28954   3.508   2.575   6.228
 9352SOL    HW128955   3.602   2.555   6.255
 9352SOL    HW228956   3.455   2.490   6.223
 9353SOL     OW28957   0.516   3.859   0.826
 9353SOL    HW128958   0.547   3.939   0.878
 9353SOL    HW228959   0.496   3.785   0.890
 9354SOL     OW28960   4.871   2.033   1.930
 9354SOL    HW128961   4.811   1.992   1.862
 9354SOL    HW228962   4.826   2.030   2.020
 9355SOL     OW28963   6.279   0.538   3.024
 9355SOL    HW128964   6.350   0.609   3.018
 9355SOL    HW228965   6.222   0.555   3.105
 9356SOL     OW28966   4.385   4.598   2.426
 9356SOL    HW128967   4.331   4.611   2.342
 9356SOL    HW228968   4.370   4.676   2.486
 9357SOL     OW28969   3.373   2.875   0.839
 9357SOL    HW128970   3.316   2.800   0.805
 9357SOL    HW228971   3.372   2.951   0.773
 9358SOL     OW28972   5.671   4.475   2.318
 9358SOL    HW128973   5.770   4.480   2.315
 9358SOL    HW228974   5.640   4.395   2.267
 9359SOL     OW28975   5.182   4.426   5.923
 9359SOL    HW128976   5.261   4.389   5.874
 9359SOL    HW228977   5.213   4.469   6.008
 9360SOL     OW28978   2.149   0.195   6.037
 9360SOL    HW128979   2.070   0.211   5.977
 9360SOL    HW228980   2.226   0.164   5.981
 9361SOL     OW28981   2.873   0.578   2.505
 9361SOL    HW128982   2.889   0.518   2.427
 9361SOL    HW228983   2.944   0.647   2.510
 9362SOL     OW28984   2.346   1.733   3.062
 9362SOL    HW128985   2.342   1.782   3.149
 9362SOL    HW228986   2.431   1.681   3.057
 9363SOL     OW28987   2.641   5.804   2.120
 9363SOL    HW128988   2.543   5.796   2.138
 9363SOL    HW228989   2.691   5.812   2.206
 9364SOL     OW28990   5.527   5.014   0.099
 9364SOL    HW128991   5.568   5.050   0.183
 9364SOL    HW228992   5.486   5.089   0.048
 9365SOL     OW28993   2.171   1.482   5.230
 9365SOL    HW128994   2.229   1.411   5.269
 9365SOL    HW228995   2.105   1.440   5.168
 9366SOL     OW28996   3.210   1.683   0.669
 9366SOL    HW128997   3.272   1.711   0.743
 9366SOL    HW228998   3.121   1.661   0.707
 9367SOL     OW28999   6.981   6.025   2.899
 9367SOL    HW129000   6.992   5.993   2.805
 9367SOL    HW229001   7.021   5.957   2.961
 9368SOL     OW29002   3.676   2.783   1.479
 9368SOL    HW129003   3.637   2.856   1.536
 9368SOL    HW229004   3.772   2.771   1.502
 9369SOL     OW29005   0.210   2.370   5.122
 9369SOL    HW129006   0.143   2.345   5.192
 9369SOL    HW229007   0.210   2.469   5.109
 9370SOL     OW29008   6.111   0.980   2.816
 9370SOL    HW129009   6.145   0.957   2.725
 9370SOL    HW229010   6.145   1.070   2.843
 9371SOL     OW29011   0.683   6.638   0.473
 9371SOL    HW129012   0.600   6.627   0.417
 9371SOL    HW229013   0.763   6.621   0.416
 9372SOL     OW29014   6.316   6.585   5.848
 9372SOL    HW129015   6.372   6.668   5.836
 9372SOL    HW229016   6.291   6.575   5.944
 9373SOL     OW29017   4.443   1.308   3.580
 9373SOL    HW129018   4.353   1.303   3.625
 9373SOL    HW229019   4.492   1.222   3.595
 9374SOL     OW29020   5.378   3.891   0.537
 9374SOL    HW129021   5.460   3.847   0.572
 9374SOL    HW229022   5.309   3.822   0.517
 9375SOL     OW29023   0.939   1.122   3.963
 9375SOL    HW129024   0.934   1.041   4.021
 9375SOL    HW229025   0.869   1.187   3.990
 9376SOL     OW29026   1.830   3.301   2.036
 9376SOL    HW129027   1.864   3.221   1.986
 9376SOL    HW229028   1.851   3.384   1.985
 9377SOL     OW29029   6.106   5.704   3.832
 9377SOL    HW129030   6.044   5.626   3.822
 9377SOL    HW229031   6.100   5.740   3.925
 9378SOL     OW29032   3.044   6.455   0.559
 9378SOL    HW129033   3.002   6.493   0.476
 9378SOL    HW229034   3.071   6.530   0.620
 9379SOL     OW29035   5.254   4.928   4.634
 9379SOL    HW129036   5.327   4.928   4.703
 9379SOL    HW229037   5.270   4.853   4.569
 9380SOL     OW29038   6.308   6.673   6.461
 9380SOL    HW129039   6.405   6.650   6.466
 9380SOL    HW229040   6.268   6.632   6.379
 9381SOL     OW29041   2.345   1.159   6.523
 9381SOL    HW129042   2.277   1.155   6.597
 9381SOL    HW229043   2.351   1.253   6.489
 9382SOL     OW29044   4.309   2.358   2.621
 9382SOL    HW129045   4.371   2.429   2.586
 9382SOL    HW229046   4.309   2.360   2.721
 9383SOL     OW29047   4.722   5.471   5.427
 9383SOL    HW129048   4.683   5.430   5.344
 9383SOL    HW229049   4.785   5.544   5.401
 9384SOL     OW29050   5.054   5.795   1.256
 9384SOL    HW129051   5.153   5.791   1.242
 9384SOL    HW229052   5.033   5.861   1.328
 9385SOL     OW29053   3.802   1.299   3.312
 9385SOL    HW129054   3.848   1.213   3.289
 9385SOL    HW229055   3.860   1.376   3.285
 9386SOL     OW29056   3.278   6.736   4.464
 9386SOL    HW129057   3.334   6.768   4.540
 9386SOL    HW229058   3.320   6.656   4.422
 9387SOL     OW29059   3.794   0.038   6.480
 9387SOL    HW129060   3.862   0.048   6.408
 9387SOL    HW229061   3.741   0.123   6.488
 9388SOL     OW29062   6.666   0.496   3.041
 9388SOL    HW129063   6.732   0.501   3.116
 9388SOL    HW229064   6.703   0.440   2.967
 9389SOL     OW29065   2.734   0.571   6.399
 9389SOL    HW129066   2.759   0.662   6.431
 9389SOL    HW229067   2.716   0.574   6.300
 9390SOL     OW29068   3.306   5.481   2.398
 9390SOL    HW129069   3.278   5.399   2.448
 9390SOL    HW229070   3.398   5.467   2.360
 9391SOL     OW29071   0.495   1.284   5.497
 9391SOL    HW129072   0.570   1.283   5.431
 9391SOL    HW229073   0.448   1.196   5.496
 9392SOL     OW29074   1.185   5.966   4.726
 9392SOL    HW129075   1.144   5.877   4.747
 9392SOL    HW229076   1.250   5.990   4.799
 9393SOL     OW29077   3.767   2.220   5.240
 9393SOL    HW129078   3.761   2.126   5.273
 9393SOL    HW229079   3.852   2.234   5.190
 9394SOL     OW29080   5.951   2.172   2.601
 9394SOL    HW129081   5.950   2.210   2.509
 9394SOL    HW229082   5.868   2.119   2.617
 9395SOL     OW29083   2.275   3.377   6.992
 9395SOL    HW129084   2.182   3.412   7.007
 9395SOL    HW229085   2.272   3.304   6.924
 9396SOL     OW29086   6.476   0.383   6.444
 9396SOL    HW129087   6.435   0.416   6.529
 9396SOL    HW229088   6.512   0.461   6.392
 9397SOL     OW29089   2.824   0.587   1.004
 9397SOL    HW129090   2.739   0.636   0.986
 9397SOL    HW229091   2.812   0.529   1.084
 9398SOL     OW29092   2.612   1.613   6.460
 9398SOL    HW129093   2.643   1.690   6.515
 9398SOL    HW229094   2.601   1.641   6.365
 9399SOL     OW29095   6.904   0.405   5.636
 9399SOL    HW129096   6.854   0.479   5.592
 9399SOL    HW229097   6.969   0.443   5.701
 9400SOL     OW29098   5.336   2.430   2.789
 9400SOL    HW129099   5.422   2.399   2.829
 9400SOL    HW229100   5.311   2.370   2.713
 9401SOL     OW29101   3.225   0.321   2.979
 9401SOL    HW129102   3.281   0.285   3.053
 9401SOL    HW229103   3.168   0.396   3.014
 9402SOL     OW29104   2.398   5.154   6.319
 9402SOL    HW129105   2.303   5.128   6.336
 9402SOL    HW229106   2.451   5.143   6.403
 9403SOL     OW29107   5.564   1.287   4.471
 9403SOL    HW129108   5.477   1.261   4.513
 9403SOL    HW229109   5.548   1.354   4.399
 9404SOL     OW29110   1.097   4.145   6.253
 9404SOL    HW129111   1.017   4.085   6.258
 9404SOL    HW229112   1.073   4.237   6.285
 9405SOL     OW29113   5.756   6.881   1.109
 9405SOL    HW129114   5.829   6.910   1.047
 9405SOL    HW229115   5.729   6.788   1.087
 9406SOL     OW29116   7.022   1.357   5.538
 9406SOL    HW129117   0.036   1.417   5.608
 9406SOL    HW229118   0.025   1.391   5.448
 9407SOL     OW29119   3.245   6.114   2.679
 9407SOL    HW129120   3.233   6.194   2.738
 9407SOL    HW229121   3.296   6.141   2.597
 9408SOL     OW29122   3.775   1.837   5.908
 9408SOL    HW129123   3.725   1.756   5.876
 9408SOL    HW229124   3.721   1.884   5.978
 9409SOL     OW29125   5.594   4.311   3.561
 9409SOL    HW129126   5.525   4.249   3.597
 9409SOL    HW229127   5.598   4.303   3.462
 9410SOL     OW29128   4.330   6.236   2.570
 9410SOL    HW129129   4.319   6.320   2.623
 9410SOL    HW229130   4.412   6.187   2.602
 9411SOL     OW29131   4.820   5.237   0.724
 9411SOL    HW129132   4.849   5.268   0.634
 9411SOL    HW229133   4.818   5.137   0.727
 9412SOL     OW29134   6.572   2.437   1.186
 9412SOL    HW129135   6.486   2.387   1.178
 9412SOL    HW229136   6.572   2.515   1.123
 9413SOL     OW29137   3.856   5.910   6.085
 9413SOL    HW129138   3.905   5.996   6.091
 9413SOL    HW229139   3.882   5.862   6.002
 9414SOL     OW29140   2.474   1.990   1.725
 9414SOL    HW129141   2.469   2.070   1.785
 9414SOL    HW229142   2.387   1.941   1.727
 9415SOL     OW29143   2.758   0.023   1.879
 9415SOL    HW129144   2.846   0.068   1.896
 9415SOL    HW229145   2.736   6.988   1.956
 9416SOL     OW29146   0.911   2.732   1.509
 9416SOL    HW129147   0.818   2.747   1.476
 9416SOL    HW229148   0.944   2.643   1.477
 9417SOL     OW29149   2.290   5.949   4.706
 9417SOL    HW129150   2.202   5.982   4.741
 9417SOL    HW229151   2.296   5.969   4.608
 9418SOL     OW29152   3.375   5.328   0.754
 9418SOL    HW129153   3.336   5.252   0.702
 9418SOL    HW229154   3.311   5.405   0.753
 9419SOL     OW29155   3.198   6.809   5.561
 9419SOL    HW129156   3.292   6.837   5.580
 9419SOL    HW229157   3.157   6.872   5.495
 9420SOL     OW29158   0.388   1.395   4.119
 9420SOL    HW129159   0.301   1.346   4.126
 9420SOL    HW229160   0.456   1.337   4.073
 9421SOL     OW29161   1.357   4.433   5.632
 9421SOL    HW129162   1.371   4.506   5.565
 9421SOL    HW229163   1.297   4.465   5.705
 9422SOL     OW29164   4.343   1.146   2.571
 9422SOL    HW129165   4.424   1.200   2.595
 9422SOL    HW229166   4.332   1.072   2.636
 9423SOL     OW29167   4.062   0.796   4.979
 9423SOL    HW129168   4.113   0.865   5.032
 9423SOL    HW229169   3.984   0.840   4.934
 9424SOL     OW29170   2.997   6.517   4.402
 9424SOL    HW129171   2.949   6.441   4.447
 9424SOL    HW229172   3.084   6.484   4.367
 9425SOL     OW29173   1.446   3.194   4.570
 9425SOL    HW129174   1.496   3.178   4.485
 9425SOL    HW229175   1.381   3.269   4.556
 9426SOL     OW29176   3.599   0.352   0.032
 9426SOL    HW129177   3.640   0.390   6.973
 9426SOL    HW229178   3.499   0.353   0.023
 9427SOL     OW29179   3.008   5.308   4.176
 9427SOL    HW129180   2.923   5.330   4.222
 9427SOL    HW229181   3.068   5.258   4.238
 9428SOL     OW29182   5.366   6.892   2.788
 9428SOL    HW129183   5.272   6.864   2.807
 9428SOL    HW229184   5.366   6.967   2.722
 9429SOL     OW29185   0.297   3.595   2.709
 9429SOL    HW129186   0.337   3.669   2.655
 9429SOL    HW229187   0.310   3.508   2.659
 9430SOL     OW29188   6.389   6.608   1.651
 9430SOL    HW129189   6.412   6.704   1.667
 9430SOL    HW229190   6.296   6.591   1.684
 9431SOL     OW29191   6.614   4.008   2.073
 9431SOL    HW129192   6.608   4.071   2.150
 9431SOL    HW229193   6.576   4.052   1.991
 9432SOL     OW29194   6.629   6.818   3.800
 9432SOL    HW129195   6.639   6.770   3.887
 9432SOL    HW229196   6.681   6.903   3.803
 9433SOL     OW29197   3.098   5.035   4.884
 9433SOL    HW129198   3.130   5.128   4.901
 9433SOL    HW229199   3.047   5.002   4.964
 9434SOL     OW29200   5.133   5.105   2.310
 9434SOL    HW129201   5.064   5.039   2.280
 9434SOL    HW229202   5.089   5.191   2.335
 9435SOL     OW29203   1.484   0.714   4.598
 9435SOL    HW129204   1.428   0.746   4.674
 9435SOL    HW229205   1.495   0.615   4.603
 9436SOL     OW29206   2.329   2.977   6.462
 9436SOL    HW129207   2.379   2.983   6.375
 9436SOL    HW229208   2.394   2.974   6.537
 9437SOL     OW29209   1.306   4.659   4.087
 9437SOL    HW129210   1.405   4.672   4.089
 9437SOL    HW229211   1.260   4.748   4.096
 9438SOL     OW29212   1.252   6.464   2.420
 9438SOL    HW129213   1.288   6.378   2.456
 9438SOL    HW229214   1.176   6.495   2.477
 9439SOL     OW29215   0.180   2.782   1.787
 9439SOL    HW129216   0.249   2.725   1.742
 9439SOL    HW229217   0.218   2.874   1.802
 9440SOL     OW29218   5.064   6.533   5.925
 9440SOL    HW129219   5.138   6.491   5.977
 9440SOL    HW229220   5.023   6.607   5.979
 9441SOL     OW29221   1.399   4.651   5.463
 9441SOL    HW129222   1.495   4.675   5.475
 9441SOL    HW229223   1.376   4.649   5.366
 9442SOL     OW29224   0.108   3.597   0.975
 9442SOL    HW129225   0.039   3.532   0.941
 9442SOL    HW229226   0.127   3.578   1.071
 9443SOL     OW29227   1.704   3.810   1.520
 9443SOL    HW129228   1.744   3.883   1.577
 9443SOL    HW229229   1.756   3.725   1.534
 9444SOL     OW29230   0.077   3.355   6.834
 9444SOL    HW129231   0.127   3.278   6.794
 9444SOL    HW229232   0.001   3.380   6.773
 9445SOL     OW29233   5.620   3.785   1.454
 9445SOL    HW129234   5.598   3.689   1.466
 9445SOL    HW229235   5.606   3.811   1.358
 9446SOL     OW29236   6.873   6.247   1.649
 9446SOL    HW129237   6.870   6.309   1.728
 9446SOL    HW229238   6.964   6.207   1.640
 9447SOL     OW29239   5.532   3.033   2.014
 9447SOL    HW129240   5.602   3.001   1.949
 9447SOL    HW229241   5.548   2.991   2.103
 9448SOL     OW29242   6.137   6.610   0.325
 9448SOL    HW129243   6.053   6.568   0.290
 9448SOL    HW229244   6.116   6.663   0.407
 9449SOL     OW29245   6.661   4.999   5.040
 9449SOL    HW129246   6.721   5.003   4.960
 9449SOL    HW229247   6.714   5.018   5.123
 9450SOL     OW29248   3.396   4.912   4.382
 9450SOL    HW129249   3.296   4.917   4.389
 9450SOL    HW229250   3.436   4.921   4.473
 9451SOL     OW29251   4.825   5.003   5.983
 9451SOL    HW129252   4.872   5.070   5.925
 9451SOL    HW229253   4.735   5.038   6.008
 9452SOL     OW29254   2.581   4.563   1.645
 9452SOL    HW129255   2.544   4.615   1.568
 9452SOL    HW229256   2.643   4.620   1.697
 9453SOL     OW29257   3.138   5.102   2.880
 9453SOL    HW129258   3.194   5.174   2.920
 9453SOL    HW229259   3.082   5.140   2.806
 9454SOL     OW29260   2.180   2.918   5.426
 9454SOL    HW129261   2.133   2.843   5.379
 9454SOL    HW229262   2.178   2.999   5.368
 9455SOL     OW29263   3.892   1.622   2.260
 9455SOL    HW129264   3.848   1.608   2.172
 9455SOL    HW229265   3.913   1.719   2.272
 9456SOL     OW29266   1.310   3.536   1.195
 9456SOL    HW129267   1.250   3.489   1.259
 9456SOL    HW229268   1.290   3.506   1.102
 9457SOL     OW29269   0.749   3.574   0.749
 9457SOL    HW129270   0.670   3.542   0.800
 9457SOL    HW229271   0.756   3.523   0.663
 9458SOL     OW29272   6.728   5.661   5.048
 9458SOL    HW129273   6.743   5.721   4.969
 9458SOL    HW229274   6.638   5.617   5.039
 9459SOL     OW29275   6.133   5.442   1.940
 9459SOL    HW129276   6.110   5.349   1.970
 9459SOL    HW229277   6.169   5.438   1.846
 9460SOL     OW29278   1.284   2.146   5.471
 9460SOL    HW129279   1.188   2.161   5.496
 9460SOL    HW229280   1.295   2.160   5.373
 9461SOL     OW29281   1.191   1.119   3.970
 9461SOL    HW129282   1.230   1.030   3.947
 9461SOL    HW229283   1.091   1.113   3.971
 9462SOL     OW29284   0.867   3.403   2.347
 9462SOL    HW129285   0.936   3.444   2.407
 9462SOL    HW229286   0.855   3.306   2.370
 9463SOL     OW29287   5.552   1.466   0.398
 9463SOL    HW129288   5.554   1.480   0.497
 9463SOL    HW229289   5.558   1.555   0.352
 9464SOL     OW29290   5.958   0.250   6.076
 9464SOL    HW129291   5.872   0.268   6.124
 9464SOL    HW229292   5.999   0.165   6.111
 9465SOL     OW29293   6.349   1.207   3.959
 9465SOL    HW129294   6.309   1.119   3.984
 9465SOL    HW229295   6.447   1.206   3.979
 9466SOL     OW29296   3.079   2.402   6.772
 9466SOL    HW129297   2.994   2.451   6.754
 9466SOL    HW229298   3.156   2.458   6.742
 9467SOL     OW29299   2.209   3.168   1.856
 9467SOL    HW129300   2.234   3.252   1.904
 9467SOL    HW229301   2.118   3.139   1.885
 9468SOL     OW29302   0.295   3.279   5.897
 9468SOL    HW129303   0.244   3.355   5.938
 9468SOL    HW229304   0.300   3.291   5.798
 9469SOL     OW29305   6.208   4.950   2.091
 9469SOL    HW129306   6.161   4.872   2.133
 9469SOL    HW229307   6.270   4.992   2.157
 9470SOL     OW29308   5.129   3.500   0.807
 9470SOL    HW129309   5.043   3.509   0.757
 9470SOL    HW229310   5.120   3.542   0.897
 9471SOL     OW29311   0.328   1.932   5.310
 9471SOL    HW129312   0.308   1.998   5.382
 9471SOL    HW229313   0.353   1.980   5.227
 9472SOL     OW29314   6.239   4.198   3.936
 9472SOL    HW129315   6.315   4.157   3.986
 9472SOL    HW229316   6.274   4.247   3.856
 9473SOL     OW29317   2.828   5.201   5.541
 9473SOL    HW129318   2.923   5.180   5.563
 9473SOL    HW229319   2.776   5.116   5.531
 9474SOL     OW29320   4.229   5.054   2.145
 9474SOL    HW129321   4.158   5.065   2.075
 9474SOL    HW229322   4.319   5.069   2.104
 9475SOL     OW29323   2.479   3.547   1.338
 9475SOL    HW129324   2.390   3.576   1.302
 9475SOL    HW229325   2.478   3.552   1.438
 9476SOL     OW29326   3.412   3.302   5.613
 9476SOL    HW129327   3.468   3.235   5.565
 9476SOL    HW229328   3.469   3.351   5.680
 9477SOL     OW29329   1.240   2.609   1.558
 9477SOL    HW129330   1.220   2.660   1.642
 9477SOL    HW229331   1.306   2.536   1.579
 9478SOL     OW29332   5.900   4.727   5.612
 9478SOL    HW129333   5.925   4.647   5.667
 9478SOL    HW229334   5.803   4.722   5.589
 9479SOL     OW29335   6.084   5.781   6.382
 9479SOL    HW129336   6.170   5.737   6.406
 9479SOL    HW229337   6.096   5.834   6.298
 9480SOL     OW29338   5.818   4.956   6.898
 9480SOL    HW129339   5.726   4.916   6.891
 9480SOL    HW229340   5.863   4.952   6.809
 9481SOL     OW29341   0.309   3.775   2.283
 9481SOL    HW129342   0.266   3.686   2.296
 9481SOL    HW229343   0.375   3.769   2.207
 9482SOL     OW29344   4.515   0.933   1.961
 9482SOL    HW129345   4.590   0.900   1.904
 9482SOL    HW229346   4.548   0.951   2.053
 9483SOL     OW29347   1.799   1.816   6.997
 9483SOL    HW129348   1.876   1.853   6.945
 9483SOL    HW229349   1.833   1.754   0.043
 9484SOL     OW29350   6.420   1.536   3.405
 9484SOL    HW129351   6.325   1.533   3.436
 9484SOL    HW229352   6.435   1.465   3.336
 9485SOL     OW29353   0.809   0.293   2.188
 9485SOL    HW129354   0.773   0.369   2.242
 9485SOL    HW229355   0.909   0.301   2.181
 9486SOL     OW29356   3.053   6.021   1.581
 9486SOL    HW129357   3.008   5.940   1.545
 9486SOL    HW229358   3.119   5.995   1.652
 9487SOL     OW29359   2.890   3.615   4.248
 9487SOL    HW129360   2.865   3.518   4.245
 9487SOL    HW229361   2.916   3.646   4.157
 9488SOL     OW29362   1.431   6.566   1.269
 9488SOL    HW129363   1.361   6.634   1.292
 9488SOL    HW229364   1.491   6.603   1.198
 9489SOL     OW29365   3.900   4.993   0.549
 9489SOL    HW129366   3.800   4.986   0.557
 9489SOL    HW229367   3.925   4.990   0.452
 9490SOL     OW29368   4.576   1.141   1.599
 9490SOL    HW129369   4.539   1.110   1.512
 9490SOL    HW229370   4.501   1.158   1.663
 9491SOL     OW29371   5.611   4.965   6.147
 9491SOL    HW129372   5.612   5.061   6.174
 9491SOL    HW229373   5.693   4.944   6.094
 9492SOL     OW29374   3.282   3.843   1.569
 9492SOL    HW129375   3.374   3.877   1.584
 9492SOL    HW229376   3.218   3.894   1.626
 9493SOL     OW29377   4.957   6.408   3.094
 9493SOL    HW129378   5.057   6.403   3.101
 9493SOL    HW229379   4.916   6.363   3.173
 9494SOL     OW29380   4.383   3.415   5.370
 9494SOL    HW129381   4.430   3.503   5.363
 9494SOL    HW229382   4.304   3.414   5.309
 9495SOL     OW29383   5.838   2.385   5.256
 9495SOL    HW129384   5.806   2.316   5.320
 9495SOL    HW229385   5.897   2.343   5.188
 9496SOL     OW29386   5.660   4.145   6.966
 9496SOL    HW129387   5.646   4.233   6.921
 9496SOL    HW229388   5.750   4.109   6.941
 9497SOL     OW29389   5.642   5.970   6.747
 9497SOL    HW129390   5.729   5.942   6.706
 9497SOL    HW229391   5.659   6.002   6.840
 9498SOL     OW29392   3.615   6.869   6.241
 9498SOL    HW129393   3.521   6.848   6.213
 9498SOL    HW229394   3.621   6.964   6.272
 9499SOL     OW29395   3.218   3.911   5.230
 9499SOL    HW129396   3.291   3.974   5.258
 9499SOL    HW229397   3.133   3.961   5.217
 9500SOL     OW29398   5.123   5.639   1.877
 9500SOL    HW129399   5.220   5.619   1.891
 9500SOL    HW229400   5.114   5.728   1.831
 9501SOL     OW29401   3.113   1.317   4.807
 9501SOL    HW129402   3.125   1.328   4.709
 9501SOL    HW229403   3.087   1.405   4.847
 9502SOL     OW29404   5.893   2.959   5.578
 9502SOL    HW129405   5.901   2.975   5.480
 9502SOL    HW229406   5.837   2.878   5.595
 9503SOL     OW29407   1.186   6.695   1.298
 9503SOL    HW129408   1.197   6.765   1.227
 9503SOL    HW229409   1.093   6.658   1.294
 9504SOL     OW29410   0.627   2.949   6.597
 9504SOL    HW129411   0.671   2.872   6.643
 9504SOL    HW229412   0.544   2.975   6.648
 9505SOL     OW29413   6.034   2.929   3.320
 9505SOL    HW129414   5.963   2.899   3.384
 9505SOL    HW229415   6.027   2.877   3.236
 9506SOL     OW29416   6.558   3.883   0.562
 9506SOL    HW129417   6.467   3.844   0.558
 9506SOL    HW229418   6.626   3.811   0.546
 9507SOL     OW29419   0.968   1.603   3.616
 9507SOL    HW129420   1.046   1.593   3.554
 9507SOL    HW229421   0.967   1.526   3.680
 9508SOL     OW29422   5.786   1.728   0.947
 9508SOL    HW129423   5.763   1.747   1.042
 9508SOL    HW229424   5.884   1.705   0.940
 9509SOL     OW29425   2.412   6.183   5.817
 9509SOL    HW129426   2.437   6.086   5.817
 9509SOL    HW229427   2.313   6.192   5.812
 9510SOL     OW29428   6.198   4.453   3.437
 9510SOL    HW129429   6.138   4.453   3.358
 9510SOL    HW229430   6.173   4.528   3.498
 9511SOL     OW29431   0.522   1.625   0.798
 9511SOL    HW129432   0.563   1.676   0.722
 9511SOL    HW229433   0.424   1.646   0.804
 9512SOL     OW29434   1.471   2.307   3.955
 9512SOL    HW129435   1.484   2.405   3.971
 9512SOL    HW229436   1.396   2.274   4.013
 9513SOL     OW29437   2.296   4.059   4.217
 9513SOL    HW129438   2.251   4.083   4.304
 9513SOL    HW229439   2.251   3.979   4.178
 9514SOL     OW29440   2.308   2.812   6.808
 9514SOL    HW129441   2.293   2.772   6.718
 9514SOL    HW229442   2.254   2.764   6.876
 9515SOL     OW29443   1.790   5.449   6.315
 9515SOL    HW129444   1.785   5.521   6.384
 9515SOL    HW229445   1.821   5.487   6.228
 9516SOL     OW29446   5.056   3.753   4.215
 9516SOL    HW129447   5.138   3.695   4.211
 9516SOL    HW229448   5.030   3.778   4.122
 9517SOL     OW29449   0.191   5.794   1.959
 9517SOL    HW129450   0.241   5.838   2.033
 9517SOL    HW229451   0.230   5.704   1.940
 9518SOL     OW29452   0.577   2.368   6.283
 9518SOL    HW129453   0.615   2.275   6.283
 9518SOL    HW229454   0.618   2.420   6.358
 9519SOL     OW29455   3.679   3.915   3.219
 9519SOL    HW129456   3.597   3.873   3.180
 9519SOL    HW229457   3.749   3.845   3.234
 9520SOL     OW29458   6.821   0.318   5.359
 9520SOL    HW129459   6.901   0.335   5.416
 9520SOL    HW229460   6.833   0.231   5.311
 9521SOL     OW29461   3.336   0.625   1.192
 9521SOL    HW129462   3.396   0.596   1.117
 9521SOL    HW229463   3.255   0.670   1.153
 9522SOL     OW29464   3.524   6.043   2.140
 9522SOL    HW129465   3.539   6.013   2.046
 9522SOL    HW229466   3.510   6.142   2.142
 9523SOL     OW29467   2.465   5.268   3.989
 9523SOL    HW129468   2.446   5.299   3.896
 9523SOL    HW229469   2.403   5.194   4.013
 9524SOL     OW29470   1.512   4.404   1.867
 9524SOL    HW129471   1.448   4.348   1.815
 9524SOL    HW229472   1.603   4.363   1.864
 9525SOL     OW29473   1.977   3.022   5.604
 9525SOL    HW129474   1.990   3.120   5.591
 9525SOL    HW229475   2.058   2.973   5.570
 9526SOL     OW29476   5.347   4.621   6.953
 9526SOL    HW129477   5.348   4.677   0.012
 9526SOL    HW229478   5.297   4.669   6.881
 9527SOL     OW29479   3.953   6.741   3.276
 9527SOL    HW129480   3.864   6.712   3.310
 9527SOL    HW229481   3.955   6.841   3.269
 9528SOL     OW29482   5.470   1.670   1.293
 9528SOL    HW129483   5.399   1.600   1.285
 9528SOL    HW229484   5.554   1.628   1.329
 9529SOL     OW29485   6.048   1.449   1.854
 9529SOL    HW129486   6.057   1.390   1.773
 9529SOL    HW229487   6.137   1.489   1.875
 9530SOL     OW29488   0.850   5.710   3.717
 9530SOL    HW129489   0.888   5.653   3.790
 9530SOL    HW229490   0.797   5.785   3.757
 9531SOL     OW29491   3.802   5.061   2.749
 9531SOL    HW129492   3.742   5.030   2.675
 9531SOL    HW229493   3.779   5.155   2.772
 9532SOL     OW29494   6.046   5.092   2.591
 9532SOL    HW129495   6.075   5.036   2.514
 9532SOL    HW229496   5.953   5.067   2.618
 9533SOL     OW29497   2.282   4.807   3.168
 9533SOL    HW129498   2.317   4.863   3.243
 9533SOL    HW229499   2.327   4.834   3.083
 9534SOL     OW29500   5.470   4.877   5.164
 9534SOL    HW129501   5.530   4.811   5.118
 9534SOL    HW229502   5.421   4.832   5.239
 9535SOL     OW29503   0.806   0.966   5.527
 9535SOL    HW129504   0.838   0.875   5.555
 9535SOL    HW229505   0.799   1.025   5.608
 9536SOL     OW29506   3.909   3.594   4.487
 9536SOL    HW129507   3.879   3.609   4.582
 9536SOL    HW229508   3.985   3.529   4.487
 9537SOL     OW29509   1.702   1.150   3.623
 9537SOL    HW129510   1.646   1.183   3.547
 9537SOL    HW229511   1.646   1.146   3.706
 9538SOL     OW29512   3.090   1.021   4.769
 9538SOL    HW129513   3.082   1.050   4.864
 9538SOL    HW229514   3.127   0.928   4.765
 9539SOL     OW29515   3.787   2.921   2.777
 9539SOL    HW129516   3.830   2.903   2.865
 9539SOL    HW229517   3.858   2.929   2.707
 9540SOL     OW29518   4.661   5.014   4.154
 9540SOL    HW129519   4.674   4.994   4.251
 9540SOL    HW229520   4.576   5.065   4.141
 9541SOL     OW29521   1.815   5.852   5.027
 9541SOL    HW129522   1.858   5.841   5.117
 9541SOL    HW229523   1.825   5.768   4.975
 9542SOL     OW29524   6.128   4.314   4.364
 9542SOL    HW129525   6.206   4.377   4.357
 9542SOL    HW229526   6.079   4.312   4.277
 9543SOL     OW29527   2.454   0.412   6.054
 9543SOL    HW129528   2.526   0.364   6.004
 9543SOL    HW229529   2.463   0.393   6.152
 9544SOL     OW29530   5.606   3.723   3.893
 9544SOL    HW129531   5.543   3.699   3.819
 9544SOL    HW229532   5.578   3.676   3.977
 9545SOL     OW29533   1.354   4.585   1.987
 9545SOL    HW129534   1.394   4.676   1.991
 9545SOL    HW229535   1.410   4.526   1.928
 9546SOL     OW29536   2.712   1.782   6.649
 9546SOL    HW129537   2.759   1.790   6.737
 9546SOL    HW229538   2.668   1.869   6.627
 9547SOL     OW29539   3.728   6.005   4.097
 9547SOL    HW129540   3.693   6.098   4.089
 9547SOL    HW229541   3.808   6.005   4.157
 9548SOL     OW29542   1.019   4.571   6.897
 9548SOL    HW129543   1.118   4.570   6.904
 9548SOL    HW229544   0.981   4.497   6.953
 9549SOL     OW29545   4.468   2.231   1.463
 9549SOL    HW129546   4.492   2.311   1.518
 9549SOL    HW229547   4.404   2.174   1.514
 9550SOL     OW29548   5.204   2.870   1.674
 9550SOL    HW129549   5.170   2.940   1.611
 9550SOL    HW229550   5.142   2.791   1.672
 9551SOL     OW29551   6.820   2.567   6.585
 9551SOL    HW129552   6.847   2.514   6.504
 9551SOL    HW229553   6.767   2.646   6.556
 9552SOL     OW29554   3.186   1.632   6.838
 9552SOL    HW129555   3.097   1.660   6.873
 9552SOL    HW229556   3.182   1.536   6.810
 9553SOL     OW29557   5.839   2.104   6.574
 9553SOL    HW129558   5.901   2.157   6.515
 9553SOL    HW229559   5.884   2.019   6.602
 9554SOL     OW29560   2.051   6.664   4.175
 9554SOL    HW129561   2.079   6.677   4.080
 9554SOL    HW229562   2.128   6.628   4.228
 9555SOL     OW29563   6.363   0.800   3.957
 9555SOL    HW129564   6.363   0.703   3.935
 9555SOL    HW229565   6.433   0.819   4.026
 9556SOL     OW29566   2.252   4.107   0.965
 9556SOL    HW129567   2.179   4.176   0.962
 9556SOL    HW229568   2.236   4.038   0.894
 9557SOL     OW29569   4.910   0.442   1.940
 9557SOL    HW129570   4.817   0.449   1.905
 9557SOL    HW229571   4.908   0.438   2.040
 9558SOL     OW29572   5.522   6.678   6.214
 9558SOL    HW129573   5.442   6.659   6.158
 9558SOL    HW229574   5.566   6.762   6.183
 9559SOL     OW29575   1.678   3.946   0.285
 9559SOL    HW129576   1.585   3.926   0.255
 9559SOL    HW229577   1.681   4.034   0.331
 9560SOL     OW29578   3.209   6.594   2.108
 9560SOL    HW129579   3.306   6.595   2.081
 9560SOL    HW229580   3.160   6.528   2.052
 9561SOL     OW29581   1.190   0.563   1.042
 9561SOL    HW129582   1.283   0.572   1.007
 9561SOL    HW229583   1.125   0.568   0.966
 9562SOL     OW29584   3.002   5.243   3.607
 9562SOL    HW129585   2.932   5.258   3.676
 9562SOL    HW229586   2.990   5.152   3.567
 9563SOL     OW29587   0.995   5.642   1.101
 9563SOL    HW129588   0.911   5.654   1.154
 9563SOL    HW229589   0.971   5.626   1.005
 9564SOL     OW29590   1.683   6.996   0.429
 9564SOL    HW129591   1.683   6.918   0.491
 9564SOL    HW229592   1.709   0.054   0.480
 9565SOL     OW29593   3.410   1.274   4.170
 9565SOL    HW129594   3.359   1.335   4.230
 9565SOL    HW229595   3.348   1.207   4.130
 9566SOL     OW29596   2.340   6.937   0.552
 9566SOL    HW129597   2.347   0.011   0.534
 9566SOL    HW229598   2.372   6.886   0.472
 9567SOL     OW29599   6.440   4.927   0.823
 9567SOL    HW129600   6.515   4.935   0.889
 9567SOL    HW229601   6.356   4.964   0.864
 9568SOL     OW29602   4.230   1.820   6.789
 9568SOL    HW129603   4.160   1.811   6.717
 9568SOL    HW229604   4.237   1.734   6.839
 9569SOL     OW29605   5.361   0.369   1.882
 9569SOL    HW129606   5.371   0.374   1.783
 9569SOL    HW229607   5.290   0.303   1.905
 9570SOL     OW29608   6.841   2.945   1.031
 9570SOL    HW129609   6.861   3.036   1.067
 9570SOL    HW229610   6.775   2.952   0.956
 9571SOL     OW29611   3.203   2.445   0.233
 9571SOL    HW129612   3.122   2.458   0.175
 9571SOL    HW229613   3.181   2.467   0.328
 9572SOL     OW29614   2.140   3.821   3.471
 9572SOL    HW129615   2.076   3.866   3.534
 9572SOL    HW229616   2.140   3.723   3.490
 9573SOL     OW29617   6.835   1.054   4.443
 9573SOL    HW129618   6.825   1.151   4.420
 9573SOL    HW229619   6.747   1.018   4.475
 9574SOL     OW29620   3.843   3.161   1.241
 9574SOL    HW129621   3.790   3.127   1.318
 9574SOL    HW229622   3.906   3.232   1.273
 9575SOL     OW29623   6.130   6.601   1.762
 9575SOL    HW129624   6.041   6.562   1.785
 9575SOL    HW229625   6.178   6.627   1.845
 9576SOL     OW29626   1.154   0.566   0.150
 9576SOL    HW129627   1.219   0.614   0.090
 9576SOL    HW229628   1.068   0.616   0.152
 9577SOL     OW29629   6.708   5.417   1.654
 9577SOL    HW129630   6.673   5.391   1.564
 9577SOL    HW229631   6.805   5.439   1.646
 9578SOL     OW29632   1.432   2.421   2.917
 9578SOL    HW129633   1.448   2.323   2.929
 9578SOL    HW229634   1.386   2.436   2.829
 9579SOL     OW29635   5.568   6.787   2.391
 9579SOL    HW129636   5.650   6.738   2.362
 9579SOL    HW229637   5.520   6.733   2.460
 9580SOL     OW29638   4.691   4.794   1.736
 9580SOL    HW129639   4.688   4.874   1.796
 9580SOL    HW229640   4.762   4.806   1.668
 9581SOL     OW29641   6.173   1.182   6.961
 9581SOL    HW129642   6.140   1.122   0.010
 9581SOL    HW229643   6.262   1.150   6.929
 9582SOL     OW29644   4.423   5.538   4.007
 9582SOL    HW129645   4.388   5.583   3.924
 9582SOL    HW229646   4.370   5.569   4.086
 9583SOL     OW29647   3.386   4.500   1.680
 9583SOL    HW129648   3.457   4.556   1.722
 9583SOL    HW229649   3.428   4.429   1.624
 9584SOL     OW29650   1.815   4.132   4.303
 9584SOL    HW129651   1.914   4.122   4.311
 9584SOL    HW229652   1.791   4.157   4.209
 9585SOL     OW29653   5.205   5.759   1.639
 9585SOL    HW129654   5.163   5.813   1.566
 9585SOL    HW229655   5.179   5.663   1.630
 9586SOL     OW29656   4.405   5.485   1.511
 9586SOL    HW129657   4.354   5.491   1.425
 9586SOL    HW229658   4.495   5.444   1.494
 9587SOL     OW29659   2.508   6.329   1.560
 9587SOL    HW129660   2.567   6.249   1.562
 9587SOL    HW229661   2.556   6.406   1.518
 9588SOL     OW29662   6.608   5.983   0.772
 9588SOL    HW129663   6.563   5.896   0.749
 9588SOL    HW229664   6.686   5.997   0.711
 9589SOL     OW29665   1.320   4.021   6.410
 9589SOL    HW129666   1.281   3.931   6.428
 9589SOL    HW229667   1.346   4.028   6.314
 9590SOL     OW29668   5.398   1.434   2.245
 9590SOL    HW129669   5.463   1.505   2.217
 9590SOL    HW229670   5.311   1.477   2.269
 9591SOL     OW29671   3.178   0.266   6.354
 9591SOL    HW129672   3.082   0.291   6.342
 9591SOL    HW229673   3.187   0.166   6.353
 9592SOL     OW29674   2.669   4.565   6.572
 9592SOL    HW129675   2.577   4.592   6.543
 9592SOL    HW229676   2.662   4.493   6.641
 9593SOL     OW29677   1.557   1.486   5.558
 9593SOL    HW129678   1.648   1.511   5.523
 9593SOL    HW229679   1.531   1.397   5.520
 9594SOL     OW29680   1.168   5.829   3.842
 9594SOL    HW129681   1.261   5.860   3.862
 9594SOL    HW229682   1.163   5.797   3.748
 9595SOL     OW29683   0.289   3.051   3.946
 9595SOL    HW129684   0.372   3.108   3.946
 9595SOL    HW229685   0.314   2.956   3.927
 9596SOL     OW29686   0.261   5.884   0.953
 9596SOL    HW129687   0.284   5.801   0.901
 9596SOL    HW229688   0.263   5.963   0.892
 9597SOL     OW29689   1.159   3.910   2.921
 9597SOL    HW129690   1.203   3.933   3.007
 9597SOL    HW229691   1.181   3.979   2.852
 9598SOL     OW29692   1.772   3.505   2.984
 9598SOL    HW129693   1.704   3.520   3.056
 9598SOL    HW229694   1.792   3.592   2.938
 9599SOL     OW29695   3.109   7.024   3.637
 9599SOL    HW129696   3.074   6.951   3.696
 9599SOL    HW229697   3.043   0.018   3.565
 9600SOL     OW29698   3.066   0.705   1.116
 9600SOL    HW129699   3.007   0.644   1.063
 9600SOL    HW229700   3.011   0.753   1.185
 9601SOL     OW29701   6.429   4.398   1.361
 9601SOL    HW129702   6.349   4.365   1.411
 9601SOL    HW229703   6.411   4.391   1.262
 9602SOL     OW29704   5.018   3.928   5.343
 9602SOL    HW129705   4.934   3.881   5.318
 9602SOL    HW229706   5.002   3.986   5.422
 9603SOL     OW29707   5.568   6.849   5.587
 9603SOL    HW129708   5.549   6.939   5.625
 9603SOL    HW229709   5.656   6.851   5.539
 9604SOL     OW29710   5.356   0.377   0.403
 9604SOL    HW129711   5.267   0.387   0.446
 9604SOL    HW229712   5.377   0.280   0.391
 9605SOL     OW29713   6.598   5.186   3.525
 9605SOL    HW129714   6.622   5.178   3.428
 9605SOL    HW229715   6.501   5.206   3.534
 9606SOL     OW29716   1.059   1.203   6.557
 9606SOL    HW129717   1.081   1.296   6.530
 9606SOL    HW229718   0.987   1.167   6.497
 9607SOL     OW29719   3.121   2.008   6.118
 9607SOL    HW129720   3.063   1.986   6.196
 9607SOL    HW229721   3.065   2.015   6.035
 9608SOL     OW29722   6.540   4.520   2.890
 9608SOL    HW129723   6.515   4.603   2.939
 9608SOL    HW229724   6.487   4.443   2.926
 9609SOL     OW29725   3.787   2.379   5.971
 9609SOL    HW129726   3.791   2.345   6.065
 9609SOL    HW229727   3.791   2.479   5.971
 9610SOL     OW29728   1.901   3.781   2.848
 9610SOL    HW129729   1.929   3.776   2.752
 9610SOL    HW229730   1.980   3.765   2.906
 9611SOL     OW29731   1.879   6.567   1.247
 9611SOL    HW129732   1.928   6.650   1.274
 9611SOL    HW229733   1.918   6.488   1.294
 9612SOL     OW29734   0.444   2.944   2.722
 9612SOL    HW129735   0.436   3.028   2.776
 9612SOL    HW229736   0.539   2.931   2.694
 9613SOL     OW29737   6.294   5.985   3.653
 9613SOL    HW129738   6.351   6.024   3.726
 9613SOL    HW229739   6.307   5.886   3.650
 9614SOL     OW29740   4.237   2.349   3.159
 9614SOL    HW129741   4.312   2.284   3.173
 9614SOL    HW229742   4.247   2.426   3.223
 9615SOL     OW29743   2.544   2.569   1.075
 9615SOL    HW129744   2.513   2.611   0.990
 9615SOL    HW229745   2.494   2.609   1.152
 9616SOL     OW29746   3.711   2.805   0.970
 9616SOL    HW129747   3.683   2.738   0.901
 9616SOL    HW229748   3.773   2.762   1.035
 9617SOL     OW29749   2.178   2.892   3.896
 9617SOL    HW129750   2.170   2.796   3.923
 9617SOL    HW229751   2.091   2.923   3.858
 9618SOL     OW29752   2.910   0.956   0.741
 9618SOL    HW129753   3.000   0.942   0.783
 9618SOL    HW229754   2.895   0.886   0.671
 9619SOL     OW29755   2.074   0.855   5.557
 9619SOL    HW129756   2.101   0.773   5.606
 9619SOL    HW229757   1.975   0.853   5.539
 9620SOL     OW29758   5.008   0.408   5.020
 9620SOL    HW129759   4.914   0.375   5.016
 9620SOL    HW229760   5.047   0.391   5.110
 9621SOL     OW29761   1.730   2.787   2.301
 9621SOL    HW129762   1.640   2.825   2.323
 9621SOL    HW229763   1.719   2.711   2.236
 9622SOL     OW29764   5.516   1.211   1.281
 9622SOL    HW129765   5.588   1.229   1.214
 9622SOL    HW229766   5.558   1.196   1.371
 9623SOL     OW29767   3.389   3.011   6.349
 9623SOL    HW129768   3.366   2.915   6.365
 9623SOL    HW229769   3.330   3.048   6.278
 9624SOL     OW29770   5.526   3.261   3.084
 9624SOL    HW129771   5.591   3.228   3.016
 9624SOL    HW229772   5.574   3.280   3.170
 9625SOL     OW29773   5.989   6.315   0.428
 9625SOL    HW129774   6.086   6.292   0.422
 9625SOL    HW229775   5.977   6.395   0.488
 9626SOL     OW29776   4.198   5.363   0.460
 9626SOL    HW129777   4.214   5.393   0.554
 9626SOL    HW229778   4.252   5.280   0.442
 9627SOL     OW29779   1.318   6.193   6.200
 9627SOL    HW129780   1.226   6.158   6.188
 9627SOL    HW229781   1.375   6.166   6.122
 9628SOL     OW29782   4.557   6.218   0.993
 9628SOL    HW129783   4.647   6.185   0.963
 9628SOL    HW229784   4.488   6.150   0.974
 9629SOL     OW29785   2.855   0.013   1.403
 9629SOL    HW129786   2.892   0.061   1.324
 9629SOL    HW229787   2.757   7.023   1.391
 9630SOL     OW29788   6.619   0.566   6.110
 9630SOL    HW129789   6.617   0.657   6.069
 9630SOL    HW229790   6.684   0.509   6.060
 9631SOL     OW29791   6.472   0.098   6.580
 9631SOL    HW129792   6.463   0.160   6.503
 9631SOL    HW229793   6.566   0.101   6.615
 9632SOL     OW29794   1.778   6.303   1.854
 9632SOL    HW129795   1.738   6.367   1.920
 9632SOL    HW229796   1.765   6.209   1.886
 9633SOL     OW29797   6.156   5.488   6.814
 9633SOL    HW129798   6.117   5.580   6.814
 9633SOL    HW229799   6.092   5.424   6.856
 9634SOL     OW29800   1.474   6.167   4.638
 9634SOL    HW129801   1.442   6.262   4.639
 9634SOL    HW229802   1.431   6.119   4.562
 9635SOL     OW29803   2.859   5.507   4.575
 9635SOL    HW129804   2.919   5.436   4.612
 9635SOL    HW229805   2.765   5.492   4.605
 9636SOL     OW29806   4.163   1.213   5.290
 9636SOL    HW129807   4.239   1.277   5.300
 9636SOL    HW229808   4.154   1.188   5.194
 9637SOL     OW29809   1.486   1.899   6.652
 9637SOL    HW129810   1.582   1.915   6.676
 9637SOL    HW229811   1.442   1.986   6.630
 9638SOL     OW29812   6.717   3.246   5.368
 9638SOL    HW129813   6.773   3.315   5.415
 9638SOL    HW229814   6.768   3.207   5.292
 9639SOL     OW29815   4.594   1.258   2.603
 9639SOL    HW129816   4.621   1.171   2.644
 9639SOL    HW229817   4.622   1.333   2.663
 9640SOL     OW29818   2.152   2.617   2.966
 9640SOL    HW129819   2.126   2.683   3.037
 9640SOL    HW229820   2.070   2.570   2.933
 9641SOL     OW29821   5.917   6.968   0.592
 9641SOL    HW129822   5.836   7.000   0.642
 9641SOL    HW229823   5.963   0.022   0.550
 9642SOL     OW29824   3.088   0.662   4.572
 9642SOL    HW129825   2.993   0.632   4.580
 9642SOL    HW229826   3.105   0.738   4.635
 9643SOL     OW29827   4.864   5.070   3.663
 9643SOL    HW129828   4.923   4.993   3.639
 9643SOL    HW229829   4.821   5.053   3.751
 9644SOL     OW29830   1.691   2.850   6.136
 9644SOL    HW129831   1.596   2.846   6.103
 9644SOL    HW229832   1.720   2.758   6.164
 9645SOL     OW29833   2.889   5.254   5.176
 9645SOL    HW129834   2.972   5.208   5.208
 9645SOL    HW229835   2.836   5.286   5.254
 9646SOL     OW29836   4.181   4.761   2.776
 9646SOL    HW129837   4.197   4.828   2.703
 9646SOL    HW229838   4.098   4.784   2.825
 9647SOL     OW29839   6.576   3.461   0.919
 9647SOL    HW129840   6.627   3.455   0.833
 9647SOL    HW229841   6.553   3.556   0.938
 9648SOL     OW29842   4.593   2.777   1.046
 9648SOL    HW129843   4.560   2.806   1.136
 9648SOL    HW229844   4.682   2.733   1.057
 9649SOL     OW29845   2.177   5.914   0.265
 9649SOL    HW129846   2.094   5.931   0.318
 9649SOL    HW229847   2.251   5.885   0.327
 9650SOL     OW29848   6.356   5.790   1.968
 9650SOL    HW129849   6.345   5.811   1.871
 9650SOL    HW229850   6.438   5.734   1.982
 9651SOL     OW29851   0.917   0.868   6.579
 9651SOL    HW129852   0.842   0.909   6.629
 9651SOL    HW229853   0.954   0.934   6.513
 9652SOL     OW29854   0.152   4.996   3.056
 9652SOL    HW129855   0.187   4.909   3.092
 9652SOL    HW229856   0.118   5.052   3.132
 9653SOL     OW29857   5.775   5.069   4.468
 9653SOL    HW129858   5.760   5.046   4.372
 9653SOL    HW229859   5.777   5.169   4.479
 9654SOL     OW29860   2.301   2.730   1.818
 9654SOL    HW129861   2.359   2.654   1.792
 9654SOL    HW229862   2.318   2.808   1.758
 9655SOL     OW29863   6.991   1.637   6.776
 9655SOL    HW129864   7.023   1.730   6.764
 9655SOL    HW229865   6.897   1.629   6.741
 9656SOL     OW29866   3.294   0.452   2.728
 9656SOL    HW129867   3.319   0.408   2.815
 9656SOL    HW229868   3.196   0.468   2.725
 9657SOL     OW29869   6.745   1.039   4.752
 9657SOL    HW129870   6.675   1.011   4.817
 9657SOL    HW229871   6.726   0.999   4.663
 9658SOL     OW29872   6.377   2.513   1.639
 9658SOL    HW129873   6.342   2.496   1.547
 9658SOL    HW229874   6.310   2.565   1.692
 9659SOL     OW29875   0.421   4.266   0.093
 9659SOL    HW129876   0.322   4.281   0.086
 9659SOL    HW229877   0.447   4.189   0.035
 9660SOL     OW29878   0.504   5.305   0.364
 9660SOL    HW129879   0.439   5.231   0.377
 9660SOL    HW229880   0.455   5.390   0.344
 9661SOL     OW29881   4.283   6.339   0.637
 9661SOL    HW129882   4.301   6.403   0.562
 9661SOL    HW229883   4.299   6.385   0.725
 9662SOL     OW29884   6.150   1.479   4.758
 9662SOL    HW129885   6.107   1.395   4.728
 9662SOL    HW229886   6.153   1.481   4.858
 9663SOL     OW29887   2.283   5.206   2.907
 9663SOL    HW129888   2.325   5.279   2.961
 9663SOL    HW229889   2.207   5.166   2.959
 9664SOL     OW29890   3.752   6.340   2.101
 9664SOL    HW129891   3.759   6.435   2.132
 9664SOL    HW229892   3.679   6.294   2.152
 9665SOL     OW29893   5.431   4.155   4.359
 9665SOL    HW129894   5.396   4.226   4.298
 9665SOL    HW229895   5.356   4.093   4.384
 9666SOL     OW29896   5.510   4.279   3.307
 9666SOL    HW129897   5.437   4.214   3.327
 9666SOL    HW229898   5.508   4.302   3.209
 9667SOL     OW29899   4.084   3.260   4.073
 9667SOL    HW129900   4.061   3.211   3.988
 9667SOL    HW229901   4.048   3.353   4.067
 9668SOL     OW29902   0.373   0.975   5.469
 9668SOL    HW129903   0.284   1.012   5.444
 9668SOL    HW229904   0.361   0.893   5.525
 9669SOL     OW29905   1.379   5.779   0.770
 9669SOL    HW129906   1.426   5.799   0.684
 9669SOL    HW229907   1.344   5.864   0.809
 9670SOL     OW29908   4.882   4.998   6.808
 9670SOL    HW129909   4.851   5.090   6.834
 9670SOL    HW229910   4.981   5.000   6.793
 9671SOL     OW29911   6.813   5.852   5.618
 9671SOL    HW129912   6.761   5.836   5.534
 9671SOL    HW229913   6.750   5.879   5.691
 9672SOL     OW29914   0.697   6.391   4.939
 9672SOL    HW129915   0.663   6.454   5.009
 9672SOL    HW229916   0.631   6.385   4.865
 9673SOL     OW29917   3.361   4.298   6.802
 9673SOL    HW129918   3.342   4.334   6.711
 9673SOL    HW229919   3.458   4.312   6.824
 9674SOL     OW29920   3.250   6.054   2.200
 9674SOL    HW129921   3.204   6.068   2.112
 9674SOL    HW229922   3.348   6.072   2.190
 9675SOL     OW29923   6.292   2.244   1.749
 9675SOL    HW129924   6.334   2.327   1.716
 9675SOL    HW229925   6.338   2.214   1.833
 9676SOL     OW29926   0.657   3.713   4.373
 9676SOL    HW129927   0.637   3.711   4.275
 9676SOL    HW229928   0.710   3.632   4.397
 9677SOL     OW29929   1.861   3.377   5.864
 9677SOL    HW129930   1.931   3.369   5.935
 9677SOL    HW229931   1.818   3.288   5.848
 9678SOL     OW29932   3.564   3.407   3.280
 9678SOL    HW129933   3.596   3.389   3.187
 9678SOL    HW229934   3.643   3.410   3.342
 9679SOL     OW29935   1.456   2.782   1.974
 9679SOL    HW129936   1.420   2.838   1.899
 9679SOL    HW229937   1.524   2.835   2.025
 9680SOL     OW29938   5.799   5.859   3.416
 9680SOL    HW129939   5.862   5.809   3.476
 9680SOL    HW229940   5.809   5.828   3.322
 9681SOL     OW29941   2.091   0.841   2.406
 9681SOL    HW129942   2.154   0.896   2.461
 9681SOL    HW229943   2.028   0.792   2.467
 9682SOL     OW29944   5.486   4.583   3.242
 9682SOL    HW129945   5.511   4.535   3.326
 9682SOL    HW229946   5.392   4.562   3.218
 9683SOL     OW29947   4.504   6.174   6.886
 9683SOL    HW129948   4.464   6.262   6.860
 9683SOL    HW229949   4.440   6.101   6.863
 9684SOL     OW29950   1.162   3.694   4.793
 9684SOL    HW129951   1.173   3.595   4.806
 9684SOL    HW229952   1.141   3.737   4.881
 9685SOL     OW29953   0.826   2.892   0.734
 9685SOL    HW129954   0.815   2.915   0.830
 9685SOL    HW229955   0.754   2.937   0.680
 9686SOL     OW29956   6.462   0.713   1.328
 9686SOL    HW129957   6.363   0.722   1.327
 9686SOL    HW229958   6.487   0.618   1.347
 9687SOL     OW29959   2.775   0.054   3.728
 9687SOL    HW129960   2.827   7.006   3.774
 9687SOL    HW229961   2.816   0.143   3.748
 9688SOL     OW29962   0.105   1.303   2.891
 9688SOL    HW129963   0.078   1.319   2.986
 9688SOL    HW229964   0.073   1.378   2.833
 9689SOL     OW29965   2.688   6.219   6.295
 9689SOL    HW129966   2.601   6.222   6.344
 9689SOL    HW229967   2.671   6.213   6.197
 9690SOL     OW29968   6.580   4.930   1.070
 9690SOL    HW129969   6.558   4.882   1.154
 9690SOL    HW229970   6.674   4.965   1.075
 9691SOL     OW29971   1.716   5.077   2.341
 9691SOL    HW129972   1.765   5.148   2.391
 9691SOL    HW229973   1.713   4.994   2.396
 9692SOL     OW29974   2.775   5.354   1.438
 9692SOL    HW129975   2.803   5.296   1.361
 9692SOL    HW229976   2.676   5.364   1.438
 9693SOL     OW29977   6.142   6.301   1.763
 9693SOL    HW129978   6.154   6.354   1.846
 9693SOL    HW229979   6.224   6.244   1.748
 9694SOL     OW29980   1.307   2.698   6.463
 9694SOL    HW129981   1.299   2.786   6.511
 9694SOL    HW229982   1.401   2.665   6.470
 9695SOL     OW29983   6.686   4.388   1.788
 9695SOL    HW129984   6.750   4.346   1.724
 9695SOL    HW229985   6.597   4.400   1.743
 9696SOL     OW29986   3.921   3.030   1.485
 9696SOL    HW129987   4.002   3.087   1.474
 9696SOL    HW229988   3.908   3.010   1.583
 9697SOL     OW29989   0.514   5.698   6.938
 9697SOL    HW129990   0.554   5.789   6.923
 9697SOL    HW229991   0.535   5.667   0.007
 9698SOL     OW29992   5.873   1.997   5.196
 9698SOL    HW129993   5.908   2.091   5.196
 9698SOL    HW229994   5.948   1.933   5.186
 9699SOL     OW29995   1.770   3.558   6.783
 9699SOL    HW129996   1.841   3.627   6.768
 9699SOL    HW229997   1.808   3.483   6.838
 9700SOL     OW29998   3.840   4.039   4.933
 9700SOL    HW129999   3.760   4.048   4.992
 9700SOL    HW230000   3.824   4.090   4.848
 9701SOL     OW30001   4.478   5.307   4.962
 9701SOL    HW130002   4.560   5.300   4.905
 9701SOL    HW230003   4.441   5.216   4.977
 9702SOL     OW30004   4.599   0.994   0.651
 9702SOL    HW130005   4.609   0.907   0.699
 9702SOL    HW230006   4.657   0.993   0.569
 9703SOL     OW30007   3.024   5.723   4.514
 9703SOL    HW130008   3.103   5.674   4.476
 9703SOL    HW230009   2.960   5.657   4.553
 9704SOL     OW30010   3.712   0.239   3.260
 9704SOL    HW130011   3.655   0.314   3.293
 9704SOL    HW230012   3.754   0.192   3.338
 9705SOL     OW30013   3.208   4.520   0.213
 9705SOL    HW130014   3.266   4.443   0.240
 9705SOL    HW230015   3.120   4.514   0.259
 9706SOL     OW30016   5.502   2.862   2.792
 9706SOL    HW130017   5.450   2.881   2.875
 9706SOL    HW230018   5.453   2.794   2.736
 9707SOL     OW30019   2.585   5.339   2.671
 9707SOL    HW130020   2.526   5.411   2.707
 9707SOL    HW230021   2.533   5.255   2.658
 9708SOL     OW30022   2.199   1.313   3.096
 9708SOL    HW130023   2.199   1.393   3.036
 9708SOL    HW230024   2.185   1.230   3.041
 9709SOL     OW30025   2.014   6.336   3.073
 9709SOL    HW130026   2.083   6.312   3.005
 9709SOL    HW230027   1.957   6.410   3.038
 9710SOL     OW30028   0.251   0.875   3.340
 9710SOL    HW130029   0.265   0.940   3.266
 9710SOL    HW230030   0.173   0.816   3.318
 9711SOL     OW30031   1.321   3.567   5.056
 9711SOL    HW130032   1.242   3.508   5.074
 9711SOL    HW230033   1.293   3.663   5.059
 9712SOL     OW30034   4.964   1.835   4.237
 9712SOL    HW130035   5.036   1.769   4.256
 9712SOL    HW230036   4.994   1.926   4.265
 9713SOL     OW30037   6.785   5.029   2.689
 9713SOL    HW130038   6.859   5.047   2.754
 9713SOL    HW230039   6.753   5.115   2.650
 9714SOL     OW30040   2.100   2.522   1.477
 9714SOL    HW130041   2.137   2.488   1.563
 9714SOL    HW230042   2.085   2.620   1.483
 9715SOL     OW30043   5.168   5.994   4.866
 9715SOL    HW130044   5.254   6.045   4.879
 9715SOL    HW230045   5.189   5.898   4.849
 9716SOL     OW30046   4.290   1.716   6.360
 9716SOL    HW130047   4.318   1.683   6.271
 9716SOL    HW230048   4.200   1.678   6.384
 9717SOL     OW30049   5.860   5.547   3.802
 9717SOL    HW130050   5.824   5.533   3.894
 9717SOL    HW230051   5.790   5.524   3.735
 9718SOL     OW30052   4.297   3.136   1.394
 9718SOL    HW130053   4.337   3.053   1.433
 9718SOL    HW230054   4.294   3.208   1.463
 9719SOL     OW30055   0.427   2.137   0.155
 9719SOL    HW130056   0.424   2.142   0.055
 9719SOL    HW230057   0.521   2.121   0.185
 9720SOL     OW30058   6.911   0.452   1.921
 9720SOL    HW130059   6.906   0.492   2.012
 9720SOL    HW230060   6.851   0.373   1.914
 9721SOL     OW30061   6.845   3.671   2.250
 9721SOL    HW130062   6.755   3.693   2.213
 9721SOL    HW230063   6.908   3.748   2.234
 9722SOL     OW30064   0.848   0.824   3.800
 9722SOL    HW130065   0.944   0.851   3.798
 9722SOL    HW230066   0.833   0.749   3.735
 9723SOL     OW30067   0.208   1.163   3.596
 9723SOL    HW130068   0.168   1.072   3.604
 9723SOL    HW230069   0.220   1.203   3.688
 9724SOL     OW30070   3.654   2.338   1.160
 9724SOL    HW130071   3.593   2.266   1.194
 9724SOL    HW230072   3.746   2.324   1.197
 9725SOL     OW30073   4.586   3.337   5.574
 9725SOL    HW130074   4.519   3.351   5.501
 9725SOL    HW230075   4.611   3.240   5.577
 9726SOL     OW30076   4.633   6.526   4.739
 9726SOL    HW130077   4.722   6.482   4.725
 9726SOL    HW230078   4.561   6.458   4.733
 9727SOL     OW30079   1.601   2.973   5.887
 9727SOL    HW130080   1.547   3.014   5.961
 9727SOL    HW230081   1.655   3.045   5.842
 9728SOL     OW30082   2.779   5.802   6.874
 9728SOL    HW130083   2.747   5.824   6.781
 9728SOL    HW230084   2.852   5.866   6.900
 9729SOL     OW30085   2.499   4.890   2.735
 9729SOL    HW130086   2.469   4.893   2.831
 9729SOL    HW230087   2.483   4.979   2.693
 9730SOL     OW30088   6.259   2.832   2.560
 9730SOL    HW130089   6.241   2.930   2.564
 9730SOL    HW230090   6.327   2.813   2.489
 9731SOL     OW30091   3.586   4.930   0.644
 9731SOL    HW130092   3.493   4.942   0.611
 9731SOL    HW230093   3.607   5.003   0.710
 9732SOL     OW30094   6.432   6.179   2.736
 9732SOL    HW130095   6.529   6.198   2.751
 9732SOL    HW230096   6.381   6.196   2.821
 9733SOL     OW30097   5.044   4.946   5.313
 9733SOL    HW130098   5.066   4.981   5.222
 9733SOL    HW230099   5.084   4.855   5.324
 9734SOL     OW30100   5.324   2.533   4.304
 9734SOL    HW130101   5.393   2.516   4.233
 9734SOL    HW230102   5.320   2.631   4.323
 9735SOL     OW30103   1.814   4.441   1.505
 9735SOL    HW130104   1.852   4.428   1.596
 9735SOL    HW230105   1.872   4.395   1.438
 9736SOL     OW30106   4.114   1.019   6.860
 9736SOL    HW130107   4.049   0.966   6.806
 9736SOL    HW230108   4.086   1.115   6.863
 9737SOL     OW30109   4.016   2.192   5.135
 9737SOL    HW130110   4.062   2.276   5.106
 9737SOL    HW230111   4.051   2.115   5.081
 9738SOL     OW30112   1.563   0.931   2.878
 9738SOL    HW130113   1.529   0.854   2.824
 9738SOL    HW230114   1.629   0.897   2.945
 9739SOL     OW30115   5.870   4.781   1.908
 9739SOL    HW130116   5.900   4.759   1.815
 9739SOL    HW230117   5.782   4.828   1.904
 9740SOL     OW30118   6.539   4.979   2.783
 9740SOL    HW130119   6.635   4.990   2.758
 9740SOL    HW230120   6.495   5.069   2.788
 9741SOL     OW30121   4.397   2.283   2.286
 9741SOL    HW130122   4.305   2.292   2.325
 9741SOL    HW230123   4.435   2.374   2.269
 9742SOL     OW30124   5.551   1.172   3.738
 9742SOL    HW130125   5.535   1.269   3.718
 9742SOL    HW230126   5.468   1.120   3.720
 9743SOL     OW30127   1.775   3.136   5.752
 9743SOL    HW130128   1.845   3.091   5.697
 9743SOL    HW230129   1.713   3.187   5.692
 9744SOL     OW30130   2.193   1.122   2.302
 9744SOL    HW130131   2.129   1.199   2.301
 9744SOL    HW230132   2.218   1.098   2.208
 9745SOL     OW30133   0.046   2.681   5.020
 9745SOL    HW130134   0.046   2.772   4.980
 9745SOL    HW230135   6.989   2.670   5.078
 9746SOL     OW30136   6.201   1.115   4.891
 9746SOL    HW130137   6.114   1.157   4.864
 9746SOL    HW230138   6.183   1.030   4.940
 9747SOL     OW30139   0.654   0.271   5.946
 9747SOL    HW130140   0.584   0.223   5.999
 9747SOL    HW230141   0.669   0.362   5.985
 9748SOL     OW30142   0.843   6.152   3.859
 9748SOL    HW130143   0.913   6.123   3.925
 9748SOL    HW230144   0.823   6.249   3.873
 9749SOL     OW30145   0.164   4.053   4.117
 9749SOL    HW130146   0.216   3.968   4.111
 9749SOL    HW230147   0.200   4.108   4.193
 9750SOL     OW30148   4.428   4.953   3.862
 9750SOL    HW130149   4.492   4.920   3.932
 9750SOL    HW230150   4.479   4.978   3.780
 9751SOL     OW30151   1.521   2.409   0.544
 9751SOL    HW130152   1.500   2.500   0.578
 9751SOL    HW230153   1.458   2.385   0.470
 9752SOL     OW30154   4.176   1.281   6.009
 9752SOL    HW130155   4.172   1.239   5.919
 9752SOL    HW230156   4.253   1.345   6.014
 9753SOL     OW30157   0.170   5.764   5.099
 9753SOL    HW130158   0.161   5.828   5.176
 9753SOL    HW230159   0.109   5.686   5.113
 9754SOL     OW30160   1.096   1.465   6.492
 9754SOL    HW130161   1.172   1.496   6.435
 9754SOL    HW230162   1.065   1.541   6.549
 9755SOL     OW30163   3.568   4.709   5.703
 9755SOL    HW130164   3.569   4.741   5.609
 9755SOL    HW230165   3.507   4.630   5.711
 9756SOL     OW30166   6.094   2.420   6.191
 9756SOL    HW130167   6.147   2.419   6.107
 9756SOL    HW230168   6.154   2.443   6.268
 9757SOL     OW30169   5.810   2.366   3.892
 9757SOL    HW130170   5.910   2.367   3.891
 9757SOL    HW230171   5.777   2.274   3.874
 9758SOL     OW30172   2.795   0.389   0.102
 9758SOL    HW130173   2.727   0.432   0.042
 9758SOL    HW230174   2.843   0.460   0.153
 9759SOL     OW30175   3.035   6.239   1.133
 9759SOL    HW130176   3.101   6.241   1.058
 9759SOL    HW230177   3.080   6.203   1.215
 9760SOL     OW30178   6.045   4.484   5.802
 9760SOL    HW130179   5.946   4.472   5.792
 9760SOL    HW230180   6.092   4.410   5.754
 9761SOL     OW30181   5.598   5.322   1.734
 9761SOL    HW130182   5.525   5.388   1.713
 9761SOL    HW230183   5.684   5.371   1.746
 9762SOL     OW30184   2.288   1.501   4.859
 9762SOL    HW130185   2.220   1.508   4.932
 9762SOL    HW230186   2.357   1.572   4.870
 9763SOL     OW30187   2.427   1.889   0.719
 9763SOL    HW130188   2.340   1.910   0.675
 9763SOL    HW230189   2.450   1.962   0.784
 9764SOL     OW30190   0.936   1.779   2.244
 9764SOL    HW130191   0.881   1.824   2.314
 9764SOL    HW230192   0.982   1.700   2.284
 9765SOL     OW30193   1.040   1.874   5.524
 9765SOL    HW130194   1.073   1.916   5.608
 9765SOL    HW230195   0.977   1.936   5.478
 9766SOL     OW30196   3.032   0.341   2.186
 9766SOL    HW130197   2.938   0.312   2.206
 9766SOL    HW230198   3.029   0.429   2.137
 9767SOL     OW30199   5.336   0.424   4.774
 9767SOL    HW130200   5.275   0.345   4.780
 9767SOL    HW230201   5.307   0.494   4.839
 9768SOL     OW30202   4.150   2.277   2.385
 9768SOL    HW130203   4.050   2.279   2.391
 9768SOL    HW230204   4.189   2.295   2.476
 9769SOL     OW30205   0.914   1.631   1.030
 9769SOL    HW130206   0.818   1.653   1.047
 9769SOL    HW230207   0.924   1.532   1.018
 9770SOL     OW30208   5.903   4.906   6.043
 9770SOL    HW130209   5.913   4.917   5.944
 9770SOL    HW230210   5.976   4.846   6.077
 9771SOL     OW30211   4.097   5.237   6.153
 9771SOL    HW130212   4.109   5.207   6.058
 9771SOL    HW230213   4.132   5.168   6.215
 9772SOL     OW30214   6.681   0.768   1.666
 9772SOL    HW130215   6.738   0.688   1.649
 9772SOL    HW230216   6.634   0.794   1.582
 9773SOL     OW30217   6.284   5.685   3.378
 9773SOL    HW130218   6.297   5.672   3.477
 9773SOL    HW230219   6.241   5.774   3.362
 9774SOL     OW30220   6.443   4.899   3.244
 9774SOL    HW130221   6.503   4.843   3.301
 9774SOL    HW230222   6.477   4.994   3.243
 9775SOL     OW30223   2.119   2.462   4.860
 9775SOL    HW130224   2.134   2.492   4.766
 9775SOL    HW230225   2.022   2.440   4.872
 9776SOL     OW30226   0.423   6.328   5.227
 9776SOL    HW130227   0.357   6.385   5.178
 9776SOL    HW230228   0.399   6.231   5.216
 9777SOL     OW30229   5.755   4.333   6.080
 9777SOL    HW130230   5.768   4.238   6.051
 9777SOL    HW230231   5.704   4.334   6.166
 9778SOL     OW30232   4.640   6.882   2.324
 9778SOL    HW130233   4.593   6.901   2.237
 9778SOL    HW230234   4.695   6.962   2.350
 9779SOL     OW30235   2.770   2.040   5.633
 9779SOL    HW130236   2.828   2.004   5.560
 9779SOL    HW230237   2.745   2.135   5.611
 9780SOL     OW30238   3.249   4.627   6.985
 9780SOL    HW130239   3.251   4.582   0.051
 9780SOL    HW230240   3.342   4.636   6.950
 9781SOL     OW30241   1.368   4.925   4.631
 9781SOL    HW130242   1.329   4.853   4.687
 9781SOL    HW230243   1.303   5.001   4.624
 9782SOL     OW30244   6.703   0.505   1.241
 9782SOL    HW130245   6.739   0.598   1.229
 9782SOL    HW230246   6.751   0.460   1.316
 9783SOL     OW30247   5.079   1.288   1.835
 9783SOL    HW130248   5.070   1.367   1.896
 9783SOL    HW230249   5.125   1.213   1.883
 9784SOL     OW30250   4.737   0.566   3.742
 9784SOL    HW130251   4.823   0.587   3.695
 9784SOL    HW230252   4.721   0.468   3.739
 9785SOL     OW30253   0.773   3.068   1.855
 9785SOL    HW130254   0.696   3.006   1.838
 9785SOL    HW230255   0.763   3.111   1.944
 9786SOL     OW30256   3.267   6.085   4.756
 9786SOL    HW130257   3.213   6.040   4.827
 9786SOL    HW230258   3.350   6.124   4.797
 9787SOL     OW30259   4.872   4.406   2.233
 9787SOL    HW130260   4.822   4.321   2.250
 9787SOL    HW230261   4.952   4.387   2.177
 9788SOL     OW30262   6.740   1.131   5.863
 9788SOL    HW130263   6.705   1.040   5.842
 9788SOL    HW230264   6.778   1.132   5.955
 9789SOL     OW30265   2.327   5.861   4.421
 9789SOL    HW130266   2.249   5.804   4.395
 9789SOL    HW230267   2.412   5.813   4.397
 9790SOL     OW30268   6.108   2.401   4.402
 9790SOL    HW130269   6.106   2.302   4.411
 9790SOL    HW230270   6.198   2.435   4.431
 9791SOL     OW30271   0.459   2.278   1.247
 9791SOL    HW130272   0.429   2.183   1.253
 9791SOL    HW230273   0.543   2.284   1.194
 9792SOL     OW30274   4.230   5.485   1.305
 9792SOL    HW130275   4.263   5.411   1.246
 9792SOL    HW230276   4.160   5.538   1.256
 9793SOL     OW30277   4.995   6.381   1.929
 9793SOL    HW130278   4.969   6.288   1.903
 9793SOL    HW230279   4.941   6.409   2.009
 9794SOL     OW30280   4.144   2.812   6.668
 9794SOL    HW130281   4.184   2.881   6.607
 9794SOL    HW230282   4.202   2.801   6.748
 9795SOL     OW30283   1.605   3.272   4.081
 9795SOL    HW130284   1.705   3.267   4.077
 9795SOL    HW230285   1.567   3.220   4.005
 9796SOL     OW30286   2.886   5.132   6.809
 9796SOL    HW130287   2.803   5.176   6.844
 9796SOL    HW230288   2.935   5.089   6.884
 9797SOL     OW30289   4.521   3.017   5.604
 9797SOL    HW130290   4.497   3.022   5.701
 9797SOL    HW230291   4.616   3.045   5.592
 9798SOL     OW30292   2.130   1.787   1.342
 9798SOL    HW130293   2.045   1.839   1.352
 9798SOL    HW230294   2.169   1.768   1.432
 9799SOL     OW30295   3.096   3.936   1.764
 9799SOL    HW130296   3.079   4.034   1.759
 9799SOL    HW230297   3.014   3.889   1.797
 9800SOL     OW30298   4.373   4.904   6.812
 9800SOL    HW130299   4.282   4.865   6.800
 9800SOL    HW230300   4.408   4.934   6.723
 9801SOL     OW30301   4.143   5.128   0.023
 9801SOL    HW130302   4.139   5.140   6.948
 9801SOL    HW230303   4.138   5.218   0.068
 9802SOL     OW30304   6.793   3.444   0.710
 9802SOL    HW130305   6.808   3.372   0.642
 9802SOL    HW230306   6.875   3.500   0.718
 9803SOL     OW30307   6.080   0.981   6.723
 9803SOL    HW130308   5.987   1.012   6.708
 9803SOL    HW230309   6.095   0.965   6.821
 9804SOL     OW30310   5.924   5.710   4.395
 9804SOL    HW130311   5.975   5.655   4.330
 9804SOL    HW230312   5.827   5.685   4.391
 9805SOL     OW30313   1.996   5.396   6.757
 9805SOL    HW130314   1.948   5.470   6.711
 9805SOL    HW230315   2.014   5.322   6.692
 9806SOL     OW30316   0.039   1.569   2.753
 9806SOL    HW130317   6.972   1.593   2.719
 9806SOL    HW230318   0.086   1.652   2.784
 9807SOL     OW30319   3.957   2.513   1.024
 9807SOL    HW130320   4.018   2.592   1.015
 9807SOL    HW230321   3.923   2.509   1.118
 9808SOL     OW30322   0.995   1.413   4.913
 9808SOL    HW130323   1.013   1.487   4.849
 9808SOL    HW230324   1.075   1.399   4.972
 9809SOL     OW30325   0.769   1.004   5.110
 9809SOL    HW130326   0.745   1.049   5.024
 9809SOL    HW230327   0.698   1.022   5.178
 9810SOL     OW30328   3.882   1.237   3.694
 9810SOL    HW130329   3.862   1.289   3.777
 9810SOL    HW230330   3.827   1.273   3.619
 9811SOL     OW30331   0.776   6.634   2.980
 9811SOL    HW130332   0.683   6.627   3.016
 9811SOL    HW230333   0.777   6.703   2.907
 9812SOL     OW30334   4.840   2.468   5.684
 9812SOL    HW130335   4.792   2.381   5.673
 9812SOL    HW230336   4.925   2.454   5.735
 9813SOL     OW30337   6.630   4.786   0.490
 9813SOL    HW130338   6.546   4.830   0.459
 9813SOL    HW230339   6.699   4.856   0.508
 9814SOL     OW30340   0.234   0.382   5.543
 9814SOL    HW130341   0.209   0.447   5.615
 9814SOL    HW230342   0.321   0.339   5.566
 9815SOL     OW30343   5.946   3.115   2.506
 9815SOL    HW130344   5.917   3.020   2.518
 9815SOL    HW230345   5.875   3.176   2.540
 9816SOL     OW30346   0.186   6.658   6.328
 9816SOL    HW130347   0.234   6.698   6.406
 9816SOL    HW230348   0.108   6.604   6.360
 9817SOL     OW30349   3.111   6.711   0.001
 9817SOL    HW130350   3.028   6.741   6.978
 9817SOL    HW230351   3.190   6.760   6.988
 9818SOL     OW30352   0.616   6.923   3.505
 9818SOL    HW130353   0.584   6.874   3.424
 9818SOL    HW230354   0.547   6.990   3.533
 9819SOL     OW30355   0.147   3.571   4.750
 9819SOL    HW130356   0.159   3.476   4.720
 9819SOL    HW230357   0.099   3.573   4.837
 9820SOL     OW30358   4.031   1.978   5.546
 9820SOL    HW130359   4.000   1.883   5.537
 9820SOL    HW230360   4.039   2.001   5.643
 9821SOL     OW30361   4.097   2.640   1.327
 9821SOL    HW130362   4.009   2.685   1.339
 9821SOL    HW230363   4.165   2.683   1.386
 9822SOL     OW30364   3.533   6.410   5.625
 9822SOL    HW130365   3.457   6.457   5.580
 9822SOL    HW230366   3.593   6.371   5.556
 9823SOL     OW30367   2.229   0.402   2.780
 9823SOL    HW130368   2.186   0.492   2.778
 9823SOL    HW230369   2.166   0.335   2.821
 9824SOL     OW30370   0.854   6.537   5.228
 9824SOL    HW130371   0.789   6.469   5.262
 9824SOL    HW230372   0.946   6.498   5.230
 9825SOL     OW30373   5.665   6.332   5.699
 9825SOL    HW130374   5.624   6.420   5.674
 9825SOL    HW230375   5.609   6.290   5.771
 9826SOL     OW30376   1.992   5.579   4.645
 9826SOL    HW130377   2.059   5.555   4.715
 9826SOL    HW230378   1.919   5.633   4.685
 9827SOL     OW30379   1.466   5.003   1.776
 9827SOL    HW130380   1.395   5.037   1.714
 9827SOL    HW230381   1.553   4.997   1.727
 9828SOL     OW30382   4.189   2.200   4.423
 9828SOL    HW130383   4.212   2.274   4.485
 9828SOL    HW230384   4.180   2.115   4.474
 9829SOL     OW30385   4.386   5.312   5.705
 9829SOL    HW130386   4.303   5.350   5.746
 9829SOL    HW230387   4.377   5.314   5.605
 9830SOL     OW30388   6.125   2.392   2.980
 9830SOL    HW130389   6.163   2.484   2.967
 9830SOL    HW230390   6.031   2.399   3.014
 9831SOL     OW30391   0.484   3.640   3.141
 9831SOL    HW130392   0.408   3.687   3.096
 9831SOL    HW230393   0.560   3.704   3.154
 9832SOL     OW30394   4.458   4.865   4.682
 9832SOL    HW130395   4.527   4.894   4.748
 9832SOL    HW230396   4.438   4.768   4.695
 9833SOL     OW30397   3.997   3.838   3.485
 9833SOL    HW130398   4.022   3.867   3.577
 9833SOL    HW230399   3.929   3.901   3.447
 9834SOL     OW30400   2.993   6.343   5.996
 9834SOL    HW130401   2.921   6.409   6.016
 9834SOL    HW230402   2.957   6.250   6.008
 9835SOL     OW30403   4.013   3.876   3.772
 9835SOL    HW130404   3.965   3.905   3.855
 9835SOL    HW230405   4.033   3.778   3.778
 9836SOL     OW30406   0.461   4.062   6.050
 9836SOL    HW130407   0.475   4.000   5.973
 9836SOL    HW230408   0.511   4.147   6.034
 9837SOL     OW30409   5.481   1.957   3.421
 9837SOL    HW130410   5.386   1.966   3.389
 9837SOL    HW230411   5.482   1.947   3.520
 9838SOL     OW30412   1.649   6.714   1.408
 9838SOL    HW130413   1.688   6.658   1.335
 9838SOL    HW230414   1.721   6.771   1.448
 9839SOL     OW30415   5.228   0.057   3.851
 9839SOL    HW130416   5.203   0.040   3.756
 9839SOL    HW230417   5.266   0.149   3.861
 9840SOL     OW30418   6.077   1.720   6.907
 9840SOL    HW130419   6.026   1.799   6.873
 9840SOL    HW230420   6.175   1.741   6.906
 9841SOL     OW30421   0.509   6.566   3.010
 9841SOL    HW130422   0.470   6.564   3.101
 9841SOL    HW230423   0.525   6.472   2.978
 9842SOL     OW30424   3.274   1.213   6.575
 9842SOL    HW130425   3.249   1.129   6.529
 9842SOL    HW230426   3.332   1.268   6.515
 9843SOL     OW30427   0.508   0.080   1.241
 9843SOL    HW130428   0.480   0.172   1.212
 9843SOL    HW230429   0.428   0.020   1.245
 9844SOL     OW30430   4.432   0.010   3.873
 9844SOL    HW130431   4.522   0.024   3.913
 9844SOL    HW230432   4.440   6.975   3.792
 9845SOL     OW30433   2.055   3.413   2.485
 9845SOL    HW130434   2.067   3.325   2.531
 9845SOL    HW230435   2.091   3.407   2.392
 9846SOL     OW30436   5.811   2.295   1.524
 9846SOL    HW130437   5.756   2.278   1.606
 9846SOL    HW230438   5.752   2.294   1.444
 9847SOL     OW30439   4.436   3.926   6.833
 9847SOL    HW130440   4.448   3.868   6.753
 9847SOL    HW230441   4.442   3.871   6.916
 9848SOL     OW30442   3.108   4.088   5.801
 9848SOL    HW130443   3.053   4.026   5.856
 9848SOL    HW230444   3.056   4.116   5.720
 9849SOL     OW30445   0.430   2.423   4.479
 9849SOL    HW130446   0.457   2.338   4.435
 9849SOL    HW230447   0.511   2.479   4.495
 9850SOL     OW30448   1.093   0.557   4.364
 9850SOL    HW130449   1.100   0.524   4.458
 9850SOL    HW230450   1.159   0.509   4.307
 9851SOL     OW30451   3.849   5.042   4.880
 9851SOL    HW130452   3.884   4.992   4.801
 9851SOL    HW230453   3.925   5.073   4.936
 9852SOL     OW30454   2.415   0.342   6.828
 9852SOL    HW130455   2.317   0.346   6.848
 9852SOL    HW230456   2.453   0.435   6.825
 9853SOL     OW30457   6.717   4.554   3.445
 9853SOL    HW130458   6.683   4.491   3.375
 9853SOL    HW230459   6.707   4.511   3.535
 9854SOL     OW30460   0.814   4.052   5.699
 9854SOL    HW130461   0.792   3.955   5.701
 9854SOL    HW230462   0.744   4.102   5.649
 9855SOL     OW30463   1.109   5.100   0.995
 9855SOL    HW130464   1.026   5.069   1.041
 9855SOL    HW230465   1.172   5.023   0.984
 9856SOL     OW30466   5.819   4.179   3.183
 9856SOL    HW130467   5.722   4.177   3.206
 9856SOL    HW230468   5.830   4.189   3.084
 9857SOL     OW30469   4.127   0.410   5.173
 9857SOL    HW130470   4.140   0.332   5.112
 9857SOL    HW230471   4.215   0.454   5.191
 9858SOL     OW30472   6.292   6.359   2.279
 9858SOL    HW130473   6.264   6.268   2.308
 9858SOL    HW230474   6.250   6.428   2.338
 9859SOL     OW30475   0.042   5.176   3.301
 9859SOL    HW130476   7.009   5.252   3.269
 9859SOL    HW230477   7.009   5.098   3.324
 9860SOL     OW30478   1.154   2.939   4.497
 9860SOL    HW130479   1.194   2.867   4.441
 9860SOL    HW230480   1.134   3.018   4.439
 9861SOL     OW30481   3.170   2.124   3.345
 9861SOL    HW130482   3.265   2.096   3.329
 9861SOL    HW230483   3.116   2.105   3.263
 9862SOL     OW30484   1.033   4.080   0.344
 9862SOL    HW130485   1.056   4.174   0.368
 9862SOL    HW230486   1.036   4.023   0.427
 9863SOL     OW30487   3.729   5.962   0.891
 9863SOL    HW130488   3.813   6.015   0.899
 9863SOL    HW230489   3.730   5.909   0.806
 9864SOL     OW30490   2.310   5.536   5.585
 9864SOL    HW130491   2.232   5.597   5.565
 9864SOL    HW230492   2.276   5.449   5.620
 9865SOL     OW30493   0.536   5.707   5.356
 9865SOL    HW130494   0.554   5.735   5.450
 9865SOL    HW230495   0.556   5.783   5.294
 9866SOL     OW30496   6.387   4.979   5.309
 9866SOL    HW130497   6.323   5.043   5.352
 9866SOL    HW230498   6.359   4.962   5.215
 9867SOL     OW30499   4.040   1.541   2.488
 9867SOL    HW130500   4.137   1.563   2.483
 9867SOL    HW230501   3.996   1.565   2.402
 9868SOL     OW30502   2.279   4.254   3.943
 9868SOL    HW130503   2.327   4.186   3.997
 9868SOL    HW230504   2.325   4.343   3.952
 9869SOL     OW30505   6.315   3.021   0.892
 9869SOL    HW130506   6.226   3.046   0.855
 9869SOL    HW230507   6.387   3.050   0.829
 9870SOL     OW30508   2.705   1.900   2.303
 9870SOL    HW130509   2.666   1.946   2.224
 9870SOL    HW230510   2.791   1.856   2.277
 9871SOL     OW30511   6.010   4.873   3.968
 9871SOL    HW130512   5.953   4.929   3.908
 9871SOL    HW230513   6.100   4.915   3.977
 9872SOL     OW30514   0.715   4.951   6.185
 9872SOL    HW130515   0.652   5.004   6.129
 9872SOL    HW230516   0.774   4.895   6.125
 9873SOL     OW30517   1.423   1.691   5.716
 9873SOL    HW130518   1.473   1.613   5.678
 9873SOL    HW230519   1.347   1.714   5.655
 9874SOL     OW30520   0.112   2.982   4.955
 9874SOL    HW130521   0.135   2.978   5.052
 9874SOL    HW230522   0.161   3.058   4.912
 9875SOL     OW30523   6.487   5.921   1.205
 9875SOL    HW130524   6.587   5.919   1.211
 9875SOL    HW230525   6.459   5.985   1.133
 9876SOL     OW30526   1.031   6.502   3.635
 9876SOL    HW130527   1.077   6.591   3.641
 9876SOL    HW230528   1.056   6.458   3.549
 9877SOL     OW30529   0.743   5.168   5.100
 9877SOL    HW130530   0.647   5.189   5.120
 9877SOL    HW230531   0.779   5.106   5.169
 9878SOL     OW30532   3.018   2.899   6.649
 9878SOL    HW130533   3.111   2.932   6.670
 9878SOL    HW230534   3.016   2.864   6.556
 9879SOL     OW30535   6.749   4.881   6.151
 9879SOL    HW130536   6.794   4.954   6.099
 9879SOL    HW230537   6.697   4.823   6.089
 9880SOL     OW30538   2.409   1.388   0.743
 9880SOL    HW130539   2.438   1.474   0.786
 9880SOL    HW230540   2.407   1.316   0.813
 9881SOL     OW30541   6.403   1.219   3.290
 9881SOL    HW130542   6.336   1.165   3.239
 9881SOL    HW230543   6.381   1.213   3.388
 9882SOL     OW30544   3.558   3.141   5.068
 9882SOL    HW130545   3.636   3.175   5.122
 9882SOL    HW230546   3.491   3.214   5.058
 9883SOL     OW30547   2.500   0.580   1.747
 9883SOL    HW130548   2.490   0.595   1.845
 9883SOL    HW230549   2.413   0.551   1.709
 9884SOL     OW30550   3.156   2.636   5.619
 9884SOL    HW130551   3.094   2.615   5.544
 9884SOL    HW230552   3.126   2.719   5.665
 9885SOL     OW30553   5.425   3.105   5.418
 9885SOL    HW130554   5.506   3.139   5.372
 9885SOL    HW230555   5.349   3.100   5.353
 9886SOL     OW30556   3.742   5.844   1.662
 9886SOL    HW130557   3.779   5.914   1.600
 9886SOL    HW230558   3.665   5.798   1.618
 9887SOL     OW30559   3.225   0.599   6.877
 9887SOL    HW130560   3.182   0.615   6.789
 9887SOL    HW230561   3.207   0.676   6.938
 9888SOL     OW30562   6.528   6.112   3.786
 9888SOL    HW130563   6.536   6.164   3.700
 9888SOL    HW230564   6.573   6.162   3.859
 9889SOL     OW30565   0.300   5.884   3.035
 9889SOL    HW130566   0.353   5.964   3.060
 9889SOL    HW230567   0.206   5.894   3.067
 9890SOL     OW30568   0.851   3.629   1.355
 9890SOL    HW130569   0.918   3.647   1.283
 9890SOL    HW230570   0.898   3.612   1.441
 9891SOL     OW30571   5.854   5.443   1.543
 9891SOL    HW130572   5.776   5.398   1.499
 9891SOL    HW230573   5.823   5.489   1.626
 9892SOL     OW30574   1.501   5.347   3.960
 9892SOL    HW130575   1.497   5.306   4.051
 9892SOL    HW230576   1.542   5.281   3.896
 9893SOL     OW30577   5.005   5.229   4.367
 9893SOL    HW130578   4.950   5.215   4.285
 9893SOL    HW230579   5.099   5.197   4.349
 9894SOL     OW30580   4.421   3.031   5.870
 9894SOL    HW130581   4.376   2.943   5.886
 9894SOL    HW230582   4.518   3.024   5.897
 9895SOL     OW30583   5.557   2.165   6.606
 9895SOL    HW130584   5.525   2.085   6.657
 9895SOL    HW230585   5.657   2.166   6.606
 9896SOL     OW30586   4.384   3.317   0.214
 9896SOL    HW130587   4.384   3.219   0.230
 9896SOL    HW230588   4.451   3.340   0.143
 9897SOL     OW30589   6.746   1.855   3.916
 9897SOL    HW130590   6.768   1.926   3.983
 9897SOL    HW230591   6.667   1.884   3.862
 9898SOL     OW30592   0.913   5.582   5.507
 9898SOL    HW130593   0.990   5.586   5.444
 9898SOL    HW230594   0.831   5.555   5.457
 9899SOL     OW30595   5.101   5.303   1.980
 9899SOL    HW130596   5.189   5.347   1.998
 9899SOL    HW230597   5.027   5.354   2.024
 9900SOL     OW30598   0.780   3.266   3.065
 9900SOL    HW130599   0.817   3.357   3.083
 9900SOL    HW230600   0.709   3.245   3.133
 9901SOL     OW30601   2.757   1.812   5.291
 9901SOL    HW130602   2.668   1.856   5.303
 9901SOL    HW230603   2.748   1.734   5.229
 9902SOL     OW30604   4.752   3.842   6.904
 9902SOL    HW130605   4.763   3.744   6.915
 9902SOL    HW230606   4.703   3.861   6.819
 9903SOL     OW30607   3.742   0.903   1.286
 9903SOL    HW130608   3.779   0.996   1.284
 9903SOL    HW230609   3.646   0.906   1.314
 9904SOL     OW30610   6.831   0.590   2.153
 9904SOL    HW130611   6.857   0.634   2.239
 9904SOL    HW230612   6.782   0.656   2.096
 9905SOL     OW30613   1.467   6.070   5.986
 9905SOL    HW130614   1.474   5.996   5.919
 9905SOL    HW230615   1.545   6.132   5.975
 9906SOL     OW30616   3.350   3.577   5.936
 9906SOL    HW130617   3.262   3.593   5.891
 9906SOL    HW230618   3.418   3.553   5.868
 9907SOL     OW30619   1.671   6.513   2.561
 9907SOL    HW130620   1.627   6.439   2.612
 9907SOL    HW230621   1.752   6.477   2.514
 9908SOL     OW30622   1.125   3.433   4.857
 9908SOL    HW130623   1.084   3.453   4.946
 9908SOL    HW230624   1.144   3.335   4.851
 9909SOL     OW30625   3.691   6.790   2.574
 9909SOL    HW130626   3.675   6.703   2.529
 9909SOL    HW230627   3.620   6.856   2.546
 9910SOL     OW30628   0.472   4.371   1.849
 9910SOL    HW130629   0.563   4.357   1.888
 9910SOL    HW230630   0.478   4.437   1.774
 9911SOL     OW30631   3.242   5.106   3.378
 9911SOL    HW130632   3.318   5.153   3.333
 9911SOL    HW230633   3.216   5.157   3.460
 9912SOL     OW30634   4.479   0.114   1.284
 9912SOL    HW130635   4.476   0.069   1.374
 9912SOL    HW230636   4.512   0.049   1.216
 9913SOL     OW30637   4.375   1.795   2.626
 9913SOL    HW130638   4.293   1.809   2.681
 9913SOL    HW230639   4.456   1.810   2.683
 9914SOL     OW30640   1.667   5.584   5.633
 9914SOL    HW130641   1.711   5.666   5.597
 9914SOL    HW230642   1.649   5.520   5.559
 9915SOL     OW30643   5.304   3.628   4.603
 9915SOL    HW130644   5.265   3.563   4.537
 9915SOL    HW230645   5.276   3.602   4.696
 9916SOL     OW30646   2.560   3.191   0.938
 9916SOL    HW130647   2.627   3.130   0.979
 9916SOL    HW230648   2.511   3.240   1.010
 9917SOL     OW30649   2.465   3.250   5.357
 9917SOL    HW130650   2.469   3.163   5.307
 9917SOL    HW230651   2.406   3.239   5.437
 9918SOL     OW30652   1.918   1.358   4.771
 9918SOL    HW130653   1.835   1.398   4.731
 9918SOL    HW230654   1.926   1.263   4.741
 9919SOL     OW30655   0.013   5.100   2.836
 9919SOL    HW130656   0.060   5.046   2.905
 9919SOL    HW230657   0.075   5.168   2.798
 9920SOL     OW30658   4.037   6.731   1.871
 9920SOL    HW130659   4.046   6.715   1.969
 9920SOL    HW230660   4.020   6.643   1.825
 9921SOL     OW30661   4.715   0.086   3.374
 9921SOL    HW130662   4.627   0.040   3.360
 9921SOL    HW230663   4.782   0.050   3.309
 9922SOL     OW30664   4.687   3.271   1.378
 9922SOL    HW130665   4.659   3.227   1.464
 9922SOL    HW230666   4.660   3.367   1.379
 9923SOL     OW30667   6.545   1.063   6.164
 9923SOL    HW130668   6.498   0.984   6.124
 9923SOL    HW230669   6.478   1.135   6.181
 9924SOL     OW30670   5.223   0.853   3.146
 9924SOL    HW130671   5.189   0.769   3.104
 9924SOL    HW230672   5.323   0.852   3.147
 9925SOL     OW30673   2.840   2.310   4.456
 9925SOL    HW130674   2.847   2.346   4.548
 9925SOL    HW230675   2.746   2.283   4.437
 9926SOL     OW30676   1.441   1.476   0.288
 9926SOL    HW130677   1.480   1.459   0.197
 9926SOL    HW230678   1.491   1.550   0.332
 9927SOL     OW30679   0.668   2.485   2.486
 9927SOL    HW130680   0.590   2.521   2.435
 9927SOL    HW230681   0.657   2.509   2.583
 9928SOL     OW30682   6.648   2.948   2.399
 9928SOL    HW130683   6.715   2.935   2.326
 9928SOL    HW230684   6.572   3.004   2.366
 9929SOL     OW30685   2.058   4.091   5.897
 9929SOL    HW130686   2.150   4.068   5.928
 9929SOL    HW230687   2.056   4.185   5.864
 9930SOL     OW30688   0.314   6.169   0.011
 9930SOL    HW130689   0.351   6.142   0.100
 9930SOL    HW230690   0.223   6.129   0.000
 9931SOL     OW30691   2.659   5.458   6.768
 9931SOL    HW130692   2.626   5.374   6.810
 9931SOL    HW230693   2.660   5.531   6.837
 9932SOL     OW30694   1.916   2.651   0.450
 9932SOL    HW130695   1.991   2.665   0.515
 9932SOL    HW230696   1.934   2.570   0.394
 9933SOL     OW30697   0.933   1.591   3.119
 9933SOL    HW130698   0.963   1.508   3.167
 9933SOL    HW230699   0.964   1.588   3.024
 9934SOL     OW30700   4.626   1.516   6.804
 9934SOL    HW130701   4.575   1.499   6.888
 9934SOL    HW230702   4.707   1.458   6.802
 9935SOL     OW30703   2.506   2.070   0.913
 9935SOL    HW130704   2.584   2.029   0.961
 9935SOL    HW230705   2.504   2.169   0.930
 9936SOL     OW30706   6.195   6.261   6.268
 9936SOL    HW130707   6.111   6.272   6.322
 9936SOL    HW230708   6.274   6.263   6.330
 9937SOL     OW30709   0.997   0.109   3.507
 9937SOL    HW130710   0.954   0.060   3.583
 9937SOL    HW230711   1.069   0.052   3.468
 9938SOL     OW30712   6.872   1.968   3.081
 9938SOL    HW130713   6.945   1.911   3.043
 9938SOL    HW230714   6.881   2.061   3.046
 9939SOL     OW30715   3.159   4.316   1.456
 9939SOL    HW130716   3.193   4.312   1.362
 9939SOL    HW230717   3.059   4.310   1.456
 9940SOL     OW30718   6.888   0.820   3.593
 9940SOL    HW130719   6.845   0.883   3.528
 9940SOL    HW230720   6.863   0.846   3.686
 9941SOL     OW30721   5.311   4.975   0.321
 9941SOL    HW130722   5.386   4.927   0.276
 9941SOL    HW230723   5.241   4.910   0.349
 9942SOL     OW30724   5.190   5.060   2.806
 9942SOL    HW130725   5.159   5.013   2.723
 9942SOL    HW230726   5.228   4.993   2.870
 9943SOL     OW30727   1.747   4.113   5.879
 9943SOL    HW130728   1.782   4.034   5.827
 9943SOL    HW230729   1.821   4.154   5.931
 9944SOL     OW30730   0.583   5.167   6.037
 9944SOL    HW130731   0.491   5.205   6.031
 9944SOL    HW230732   0.647   5.238   6.066
 9945SOL     OW30733   6.609   3.647   6.269
 9945SOL    HW130734   6.673   3.571   6.281
 9945SOL    HW230735   6.524   3.614   6.230
 9946SOL     OW30736   5.062   2.192   1.683
 9946SOL    HW130737   4.987   2.150   1.632
 9946SOL    HW230738   5.124   2.121   1.715
 9947SOL     OW30739   0.688   1.839   3.733
 9947SOL    HW130740   0.778   1.871   3.701
 9947SOL    HW230741   0.629   1.821   3.655
 9948SOL     OW30742   5.633   0.295   4.800
 9948SOL    HW130743   5.555   0.294   4.862
 9948SOL    HW230744   5.603   0.264   4.709
 9949SOL     OW30745   6.347   5.187   3.175
 9949SOL    HW130746   6.297   5.253   3.232
 9949SOL    HW230747   6.281   5.126   3.130
 9950SOL     OW30748   5.182   4.188   5.250
 9950SOL    HW130749   5.260   4.160   5.193
 9950SOL    HW230750   5.129   4.108   5.275
 9951SOL     OW30751   0.232   2.047   3.191
 9951SOL    HW130752   0.208   1.984   3.265
 9951SOL    HW230753   0.232   2.141   3.226
 9952SOL     OW30754   1.128   5.018   1.993
 9952SOL    HW130755   1.094   5.034   1.900
 9952SOL    HW230756   1.135   4.920   2.010
 9953SOL     OW30757   6.013   2.992   3.799
 9953SOL    HW130758   6.024   3.042   3.713
 9953SOL    HW230759   5.947   3.040   3.857
 9954SOL     OW30760   3.731   1.265   0.011
 9954SOL    HW130761   3.809   1.253   6.974
 9954SOL    HW230762   3.663   1.323   6.991
 9955SOL     OW30763   5.508   4.378   1.021
 9955SOL    HW130764   5.577   4.410   1.086
 9955SOL    HW230765   5.490   4.281   1.036
 9956SOL     OW30766   2.263   2.920   3.353
 9956SOL    HW130767   2.312   2.946   3.271
 9956SOL    HW230768   2.300   2.834   3.388
 9957SOL     OW30769   5.484   0.433   0.132
 9957SOL    HW130770   5.503   0.531   0.135
 9957SOL    HW230771   5.465   0.400   0.224
 9958SOL     OW30772   5.635   6.051   0.228
 9958SOL    HW130773   5.587   5.990   0.292
 9958SOL    HW230774   5.666   6.132   0.277
 9959SOL     OW30775   5.205   5.109   0.758
 9959SOL    HW130776   5.277   5.116   0.827
 9959SOL    HW230777   5.217   5.024   0.706
 9960SOL     OW30778   0.171   0.208   0.326
 9960SOL    HW130779   0.173   0.226   0.424
 9960SOL    HW230780   0.092   0.150   0.304
 9961SOL     OW30781   3.128   5.524   1.112
 9961SOL    HW130782   3.177   5.463   1.173
 9961SOL    HW230783   3.082   5.595   1.165
 9962SOL     OW30784   2.869   0.396   1.668
 9962SOL    HW130785   2.877   0.379   1.766
 9962SOL    HW230786   2.779   0.365   1.636
 9963SOL     OW30787   0.905   0.681   6.009
 9963SOL    HW130788   0.875   0.724   6.094
 9963SOL    HW230789   0.983   0.731   5.972
 9964SOL     OW30790   4.435   4.527   6.017
 9964SOL    HW130791   4.427   4.592   6.093
 9964SOL    HW230792   4.375   4.449   6.033
 9965SOL     OW30793   2.818   5.292   3.803
 9965SOL    HW130794   2.748   5.353   3.766
 9965SOL    HW230795   2.794   5.266   3.896
 9966SOL     OW30796   3.674   4.924   2.551
 9966SOL    HW130797   3.649   4.937   2.455
 9966SOL    HW230798   3.592   4.909   2.606
 9967SOL     OW30799   6.743   6.997   3.416
 9967SOL    HW130800   6.782   6.997   3.508
 9967SOL    HW230801   6.644   7.007   3.422
 9968SOL     OW30802   3.703   6.374   0.329
 9968SOL    HW130803   3.772   6.447   0.327
 9968SOL    HW230804   3.747   6.287   0.308
 9969SOL     OW30805   0.927   5.986   3.604
 9969SOL    HW130806   0.991   5.909   3.611
 9969SOL    HW230807   0.863   5.983   3.680
 9970SOL     OW30808   6.826   3.673   1.497
 9970SOL    HW130809   6.852   3.767   1.475
 9970SOL    HW230810   6.826   3.618   1.413
 9971SOL     OW30811   0.928   5.039   3.750
 9971SOL    HW130812   0.915   4.994   3.662
 9971SOL    HW230813   0.909   5.137   3.741
 9972SOL     OW30814   2.843   4.177   6.736
 9972SOL    HW130815   2.940   4.195   6.753
 9972SOL    HW230816   2.833   4.113   6.660
 9973SOL     OW30817   2.171   2.327   3.047
 9973SOL    HW130818   2.171   2.423   3.021
 9973SOL    HW230819   2.160   2.270   2.965
 9974SOL     OW30820   1.109   2.467   2.692
 9974SOL    HW130821   1.017   2.506   2.686
 9974SOL    HW230822   1.172   2.522   2.637
 9975SOL     OW30823   2.461   4.809   0.094
 9975SOL    HW130824   2.526   4.732   0.098
 9975SOL    HW230825   2.494   4.877   0.028
 9976SOL     OW30826   3.788   4.581   6.028
 9976SOL    HW130827   3.746   4.534   5.950
 9976SOL    HW230828   3.799   4.678   6.006
 9977SOL     OW30829   4.656   6.960   5.249
 9977SOL    HW130830   4.641   6.915   5.162
 9977SOL    HW230831   4.734   6.918   5.296
 9978SOL     OW30832   1.104   3.587   6.706
 9978SOL    HW130833   1.043   3.584   6.627
 9978SOL    HW230834   1.100   3.677   6.748
 9979SOL     OW30835   3.211   3.240   5.171
 9979SOL    HW130836   3.161   3.325   5.187
 9979SOL    HW230837   3.269   3.250   5.090
 9980SOL     OW30838   2.227   1.646   0.762
 9980SOL    HW130839   2.318   1.657   0.803
 9980SOL    HW230840   2.171   1.588   0.821
 9981SOL     OW30841   6.238   1.990   0.761
 9981SOL    HW130842   6.239   2.088   0.782
 9981SOL    HW230843   6.239   1.978   0.662
 9982SOL     OW30844   2.107   2.046   4.431
 9982SOL    HW130845   2.083   2.129   4.481
 9982SOL    HW230846   2.058   2.044   4.344
 9983SOL     OW30847   0.880   2.996   2.274
 9983SOL    HW130848   0.855   3.046   2.357
 9983SOL    HW230849   0.889   2.899   2.294
 9984SOL     OW30850   0.192   5.299   1.451
 9984SOL    HW130851   0.218   5.394   1.432
 9984SOL    HW230852   0.228   5.272   1.541
 9985SOL     OW30853   5.032   4.942   0.057
 9985SOL    HW130854   5.019   5.000   7.001
 9985SOL    HW230855   5.085   4.861   0.032
 9986SOL     OW30856   5.470   5.261   6.987
 9986SOL    HW130857   5.511   5.291   0.049
 9986SOL    HW230858   5.503   5.319   6.912
 9987SOL     OW30859   5.456   2.834   1.517
 9987SOL    HW130860   5.406   2.810   1.433
 9987SOL    HW230861   5.390   2.854   1.589
 9988SOL     OW30862   5.836   6.306   4.127
 9988SOL    HW130863   5.792   6.272   4.044
 9988SOL    HW230864   5.771   6.361   4.179
 9989SOL     OW30865   6.932   5.268   2.259
 9989SOL    HW130866   6.945   5.225   2.349
 9989SOL    HW230867   6.834   5.269   2.237
 9990SOL     OW30868   0.289   6.741   4.000
 9990SOL    HW130869   0.259   6.768   3.908
 9990SOL    HW230870   0.217   6.765   4.066
 9991SOL     OW30871   1.660   4.800   3.253
 9991SOL    HW130872   1.702   4.820   3.342
 9991SOL    HW230873   1.718   4.738   3.202
 9992SOL     OW30874   2.804   4.388   0.735
 9992SOL    HW130875   2.850   4.413   0.649
 9992SOL    HW230876   2.772   4.471   0.781
 9993SOL     OW30877   3.517   6.254   4.368
 9993SOL    HW130878   3.462   6.170   4.357
 9993SOL    HW230879   3.501   6.293   4.458
 9994SOL     OW30880   5.860   5.415   5.026
 9994SOL    HW130881   5.834   5.488   5.088
 9994SOL    HW230882   5.778   5.369   4.993
 9995SOL     OW30883   2.805   0.645   5.334
 9995SOL    HW130884   2.816   0.608   5.241
 9995SOL    HW230885   2.831   0.741   5.334
 9996SOL     OW30886   3.377   3.794   1.026
 9996SOL    HW130887   3.372   3.827   0.932
 9996SOL    HW230888   3.306   3.725   1.041
 9997SOL     OW30889   6.177   2.516   3.509
 9997SOL    HW130890   6.200   2.613   3.516
 9997SOL    HW230891   6.084   2.501   3.543
 9998SOL     OW30892   4.619   4.483   2.380
 9998SOL    HW130893   4.660   4.526   2.299
 9998SOL    HW230894   4.538   4.534   2.408
 9999SOL     OW30895   0.642   0.126   3.849
 9999SOL    HW130896   0.595   0.214   3.854
 9999SOL    HW230897   0.584   0.055   3.886
10000SOL     OW30898   4.963   2.293   1.318
10000SOL    HW130899   5.036   2.282   1.386
10000SOL    HW230900   4.992   2.252   1.232
10001SOL     OW30901   4.413   6.328   1.886
10001SOL    HW130902   4.507   6.296   1.898
10001SOL    HW230903   4.349   6.260   1.922
10002SOL     OW30904   3.357   0.973   2.094
10002SOL    HW130905   3.412   1.049   2.129
10002SOL    HW230906   3.402   0.887   2.117
10003SOL     OW30907   1.524   1.201   3.839
10003SOL    HW130908   1.521   1.113   3.887
10003SOL    HW230909   1.541   1.275   3.905
10004SOL     OW30910   6.323   4.397   4.860
10004SOL    HW130911   6.404   4.400   4.802
10004SOL    HW230912   6.276   4.309   4.848
10005SOL     OW30913   2.182   5.120   3.139
10005SOL    HW130914   2.282   5.114   3.144
10005SOL    HW230915   2.145   5.132   3.231
10006SOL     OW30916   5.646   0.179   5.104
10006SOL    HW130917   5.730   0.146   5.148
10006SOL    HW230918   5.656   0.275   5.080
10007SOL     OW30919   1.603   4.947   4.499
10007SOL    HW130920   1.583   5.033   4.453
10007SOL    HW230921   1.538   4.932   4.574
10008SOL     OW30922   3.892   1.324   6.022
10008SOL    HW130923   3.991   1.314   6.037
10008SOL    HW230924   3.873   1.415   5.987
10009SOL     OW30925   1.136   3.259   2.479
10009SOL    HW130926   1.211   3.249   2.544
10009SOL    HW230927   1.171   3.296   2.393
10010SOL     OW30928   2.584   3.794   0.447
10010SOL    HW130929   2.634   3.728   0.391
10010SOL    HW230930   2.647   3.864   0.480
10011SOL     OW30931   1.767   3.689   0.056
10011SOL    HW130932   1.708   3.740   7.017
10011SOL    HW230933   1.715   3.664   0.138
10012SOL     OW30934   5.857   2.341   3.071
10012SOL    HW130935   5.807   2.255   3.064
10012SOL    HW230936   5.803   2.406   3.125
10013SOL     OW30937   0.338   6.069   5.223
10013SOL    HW130938   0.285   5.997   5.267
10013SOL    HW230939   0.435   6.055   5.242
10014SOL     OW30940   1.247   0.270   3.197
10014SOL    HW130941   1.194   0.241   3.118
10014SOL    HW230942   1.313   0.341   3.168
10015SOL     OW30943   4.216   4.656   5.715
10015SOL    HW130944   4.232   4.559   5.693
10015SOL    HW230945   4.302   4.699   5.739
10016SOL     OW30946   2.167   0.281   3.781
10016SOL    HW130947   2.185   0.204   3.720
10016SOL    HW230948   2.215   0.362   3.748
10017SOL     OW30949   2.460   2.130   2.256
10017SOL    HW130950   2.378   2.132   2.199
10017SOL    HW230951   2.530   2.190   2.217
10018SOL     OW30952   0.069   3.440   5.954
10018SOL    HW130953   0.049   3.406   6.046
10018SOL    HW230954   7.021   3.413   5.891
10019SOL     OW30955   0.522   2.194   2.201
10019SOL    HW130956   0.465   2.118   2.168
10019SOL    HW230957   0.478   2.281   2.178
10020SOL     OW30958   6.537   0.686   2.345
10020SOL    HW130959   6.450   0.732   2.326
10020SOL    HW230960   6.535   0.594   2.305
10021SOL     OW30961   0.983   3.583   2.517
10021SOL    HW130962   1.061   3.564   2.577
10021SOL    HW230963   1.016   3.620   2.430
10022SOL     OW30964   2.656   5.610   7.018
10022SOL    HW130965   2.612   5.625   0.082
10022SOL    HW230966   2.698   5.695   6.987
10023SOL     OW30967   1.632   0.241   6.126
10023SOL    HW130968   1.723   0.265   6.161
10023SOL    HW230969   1.597   0.161   6.174
10024SOL     OW30970   1.270   4.808   2.274
10024SOL    HW130971   1.312   4.832   2.186
10024SOL    HW230972   1.252   4.710   2.277
10025SOL     OW30973   0.898   4.701   2.091
10025SOL    HW130974   0.900   4.612   2.136
10025SOL    HW230975   0.988   4.719   2.051
10026SOL     OW30976   5.189   1.661   4.290
10026SOL    HW130977   5.251   1.736   4.269
10026SOL    HW230978   5.200   1.589   4.222
10027SOL     OW30979   2.586   1.870   5.719
10027SOL    HW130980   2.546   1.825   5.639
10027SOL    HW230981   2.645   1.944   5.690
10028SOL     OW30982   4.416   0.505   1.073
10028SOL    HW130983   4.473   0.468   1.146
10028SOL    HW230984   4.365   0.584   1.107
10029SOL     OW30985   0.493   3.520   5.097
10029SOL    HW130986   0.444   3.568   5.025
10029SOL    HW230987   0.487   3.571   5.182
10030SOL     OW30988   2.313   7.000   4.883
10030SOL    HW130989   2.219   7.002   4.847
10030SOL    HW230990   2.372   0.034   4.828
10031SOL     OW30991   2.756   4.864   3.952
10031SOL    HW130992   2.681   4.919   3.917
10031SOL    HW230993   2.739   4.842   4.048
10032SOL     OW30994   3.096   6.231   5.097
10032SOL    HW130995   3.075   6.312   5.042
10032SOL    HW230996   3.183   6.246   5.144
10033SOL     OW30997   3.480   1.125   3.444
10033SOL    HW130998   3.506   1.152   3.537
10033SOL    HW230999   3.440   1.034   3.446
10034SOL     OW31000   2.720   0.852   4.062
10034SOL    HW131001   2.812   0.833   4.026
10034SOL    HW231002   2.662   0.885   3.988
10035SOL     OW31003   5.588   2.948   2.355
10035SOL    HW131004   5.621   2.859   2.323
10035SOL    HW231005   5.605   2.957   2.453
10036SOL     OW31006   0.064   0.863   6.756
10036SOL    HW131007   0.014   0.859   6.843
10036SOL    HW231008   0.160   0.843   6.772
10037SOL     OW31009   6.377   0.293   6.885
10037SOL    HW131010   6.321   0.354   6.941
10037SOL    HW231011   6.334   0.203   6.880
10038SOL     OW31012   4.514   6.738   6.648
10038SOL    HW131013   4.584   6.713   6.581
10038SOL    HW231014   4.557   6.772   6.731
10039SOL     OW31015   6.496   5.351   3.051
10039SOL    HW131016   6.485   5.446   3.081
10039SOL    HW231017   6.439   5.291   3.107
10040SOL     OW31018   3.767   6.582   1.048
10040SOL    HW131019   3.781   6.588   0.949
10040SOL    HW231020   3.737   6.671   1.083
10041SOL     OW31021   6.901   5.047   4.871
10041SOL    HW131022   6.904   5.104   4.788
10041SOL    HW231023   6.955   4.965   4.857
10042SOL     OW31024   0.446   0.885   4.807
10042SOL    HW131025   0.477   0.819   4.738
10042SOL    HW231026   0.456   0.845   4.898
10043SOL     OW31027   0.735   0.744   3.243
10043SOL    HW131028   0.817   0.689   3.229
10043SOL    HW231029   0.744   0.796   3.328
10044SOL     OW31030   2.617   1.713   6.211
10044SOL    HW131031   2.637   1.645   6.141
10044SOL    HW231032   2.612   1.804   6.169
10045SOL     OW31033   4.005   6.703   5.108
10045SOL    HW131034   3.967   6.779   5.161
10045SOL    HW231035   4.099   6.724   5.083
10046SOL     OW31036   0.101   2.586   1.480
10046SOL    HW131037   0.046   2.552   1.404
10046SOL    HW231038   0.171   2.648   1.446
10047SOL     OW31039   0.041   1.864   4.702
10047SOL    HW131040   0.119   1.808   4.730
10047SOL    HW231041   0.061   1.960   4.720
10048SOL     OW31042   3.821   1.612   1.592
10048SOL    HW131043   3.864   1.702   1.593
10048SOL    HW231044   3.781   1.595   1.502
10049SOL     OW31045   1.948   6.978   5.555
10049SOL    HW131046   1.949   6.956   5.652
10049SOL    HW231047   1.882   0.027   5.537
10050SOL     OW31048   4.991   3.138   4.049
10050SOL    HW131049   4.947   3.225   4.025
10050SOL    HW231050   4.944   3.063   4.002
10051SOL     OW31051   5.964   3.085   5.068
10051SOL    HW131052   6.039   3.052   5.010
10051SOL    HW231053   5.882   3.099   5.012
10052SOL     OW31054   0.992   3.532   1.565
10052SOL    HW131055   1.067   3.578   1.612
10052SOL    HW231056   1.028   3.458   1.508
10053SOL     OW31057   3.512   5.776   3.467
10053SOL    HW131058   3.475   5.822   3.387
10053SOL    HW231059   3.609   5.801   3.478
10054SOL     OW31060   3.780   5.527   5.234
10054SOL    HW131061   3.746   5.601   5.177
10054SOL    HW231062   3.766   5.549   5.331
10055SOL     OW31063   6.000   2.552   5.531
10055SOL    HW131064   6.002   2.640   5.484
10055SOL    HW231065   5.942   2.488   5.481
10056SOL     OW31066   6.158   4.584   1.730
10056SOL    HW131067   6.238   4.632   1.765
10056SOL    HW231068   6.096   4.649   1.685
10057SOL     OW31069   3.532   2.126   4.401
10057SOL    HW131070   3.497   2.119   4.494
10057SOL    HW231071   3.461   2.160   4.340
10058SOL     OW31072   0.608   5.516   3.887
10058SOL    HW131073   0.612   5.424   3.849
10058SOL    HW231074   0.585   5.581   3.815
10059SOL     OW31075   5.840   0.801   1.022
10059SOL    HW131076   5.781   0.866   0.973
10059SOL    HW231077   5.935   0.822   1.001
10060SOL     OW31078   2.598   2.738   1.713
10060SOL    HW131079   2.697   2.730   1.701
10060SOL    HW231080   2.564   2.663   1.769
10061SOL     OW31081   6.316   1.536   4.328
10061SOL    HW131082   6.311   1.565   4.423
10061SOL    HW231083   6.404   1.491   4.311
10062SOL     OW31084   6.714   5.998   3.092
10062SOL    HW131085   6.779   6.045   3.032
10062SOL    HW231086   6.764   5.956   3.167
10063SOL     OW31087   0.977   3.174   3.485
10063SOL    HW131088   1.064   3.131   3.509
10063SOL    HW231089   0.986   3.273   3.488
10064SOL     OW31090   5.584   6.401   4.316
10064SOL    HW131091   5.570   6.378   4.412
10064SOL    HW231092   5.547   6.329   4.258
10065SOL     OW31093   1.814   6.333   2.785
10065SOL    HW131094   1.863   6.317   2.699
10065SOL    HW231095   1.760   6.253   2.808
10066SOL     OW31096   0.687   6.794   3.938
10066SOL    HW131097   0.719   6.720   3.998
10066SOL    HW231098   0.701   6.767   3.842
10067SOL     OW31099   4.603   4.894   4.431
10067SOL    HW131100   4.577   4.922   4.524
10067SOL    HW231101   4.553   4.811   4.406
10068SOL     OW31102   5.046   3.728   5.126
10068SOL    HW131103   4.974   3.689   5.069
10068SOL    HW231104   5.014   3.814   5.166
10069SOL     OW31105   2.999   1.673   3.373
10069SOL    HW131106   2.906   1.708   3.389
10069SOL    HW231107   3.003   1.576   3.398
10070SOL     OW31108   0.866   6.918   4.522
10070SOL    HW131109   0.889   6.985   4.452
10070SOL    HW231110   0.767   6.906   4.527
10071SOL     OW31111   5.021   5.705   4.451
10071SOL    HW131112   4.951   5.777   4.448
10071SOL    HW231113   4.977   5.617   4.471
10072SOL     OW31114   0.683   6.827   3.200
10072SOL    HW131115   0.738   6.858   3.123
10072SOL    HW231116   0.586   6.843   3.182
10073SOL     OW31117   0.037   4.429   5.740
10073SOL    HW131118   0.024   4.442   5.838
10073SOL    HW231119   0.134   4.436   5.717
10074SOL     OW31120   2.426   0.052   6.446
10074SOL    HW131121   2.473   0.106   6.377
10074SOL    HW231122   2.337   0.022   6.411
10075SOL     OW31123   0.935   2.431   3.927
10075SOL    HW131124   1.023   2.474   3.907
10075SOL    HW231125   0.948   2.333   3.942
10076SOL     OW31126   4.897   6.897   4.712
10076SOL    HW131127   4.982   6.902   4.659
10076SOL    HW231128   4.863   6.803   4.713
10077SOL     OW31129   4.175   1.784   5.830
10077SOL    HW131130   4.195   1.737   5.916
10077SOL    HW231131   4.109   1.857   5.847
10078SOL     OW31132   5.899   0.082   5.616
10078SOL    HW131133   5.994   0.089   5.586
10078SOL    HW231134   5.897   0.056   5.713
10079SOL     OW31135   1.177   3.354   1.346
10079SOL    HW131136   1.192   3.301   1.430
10079SOL    HW231137   1.227   3.312   1.271
10080SOL     OW31138   1.935   2.858   0.272
10080SOL    HW131139   1.886   2.821   0.192
10080SOL    HW231140   1.939   2.787   0.343
10081SOL     OW31141   0.865   0.384   6.491
10081SOL    HW131142   0.831   0.292   6.512
10081SOL    HW231143   0.884   0.390   6.393
10082SOL     OW31144   6.031   2.330   1.781
10082SOL    HW131145   6.003   2.295   1.692
10082SOL    HW231146   6.122   2.296   1.804
10083SOL     OW31147   4.499   0.326   3.911
10083SOL    HW131148   4.479   0.269   3.991
10083SOL    HW231149   4.598   0.328   3.896
10084SOL     OW31150   2.456   1.084   5.932
10084SOL    HW131151   2.521   1.014   5.962
10084SOL    HW231152   2.389   1.043   5.870
10085SOL     OW31153   0.559   5.807   2.760
10085SOL    HW131154   0.553   5.719   2.806
10085SOL    HW231155   0.638   5.808   2.699
10086SOL     OW31156   5.939   4.205   2.092
10086SOL    HW131157   5.877   4.272   2.131
10086SOL    HW231158   5.995   4.249   2.022
10087SOL     OW31159   1.285   0.342   4.267
10087SOL    HW131160   1.376   0.382   4.257
10087SOL    HW231161   1.281   0.256   4.215
10088SOL     OW31162   1.092   6.797   4.632
10088SOL    HW131163   1.011   6.832   4.585
10088SOL    HW231164   1.084   6.697   4.641
10089SOL     OW31165   1.826   2.159   2.232
10089SOL    HW131166   1.919   2.167   2.270
10089SOL    HW231167   1.769   2.232   2.270
10090SOL     OW31168   0.889   4.109   0.920
10090SOL    HW131169   0.910   4.168   0.842
10090SOL    HW231170   0.942   4.025   0.914
10091SOL     OW31171   0.906   2.908   4.643
10091SOL    HW131172   0.984   2.920   4.582
10091SOL    HW231173   0.838   2.849   4.597
10092SOL     OW31174   1.783   3.691   5.034
10092SOL    HW131175   1.788   3.655   4.941
10092SOL    HW231176   1.800   3.789   5.033
10093SOL     OW31177   5.983   5.568   6.004
10093SOL    HW131178   6.025   5.633   5.941
10093SOL    HW231179   5.944   5.492   5.952
10094SOL     OW31180   1.928   1.558   3.001
10094SOL    HW131181   2.017   1.582   2.963
10094SOL    HW231182   1.918   1.458   3.002
10095SOL     OW31183   6.978   0.939   6.287
10095SOL    HW131184   7.007   0.899   6.374
10095SOL    HW231185   6.882   0.964   6.292
10096SOL     OW31186   0.136   5.471   2.487
10096SOL    HW131187   0.148   5.536   2.562
10096SOL    HW231188   0.173   5.510   2.403
10097SOL     OW31189   1.714   0.908   1.249
10097SOL    HW131190   1.647   0.916   1.175
10097SOL    HW231191   1.805   0.931   1.215
10098SOL     OW31192   2.231   5.476   6.385
10098SOL    HW131193   2.199   5.406   6.321
10098SOL    HW231194   2.283   5.545   6.336
10099SOL     OW31195   6.707   4.516   5.082
10099SOL    HW131196   6.617   4.473   5.076
10099SOL    HW231197   6.712   4.592   5.017
10100SOL     OW31198   5.078   0.752   5.017
10100SOL    HW131199   5.068   0.676   5.081
10100SOL    HW231200   4.997   0.758   4.959
10101SOL     OW31201   6.752   4.549   2.392
10101SOL    HW131202   6.844   4.516   2.413
10101SOL    HW231203   6.736   4.636   2.439
10102SOL     OW31204   3.401   1.590   2.136
10102SOL    HW131205   3.422   1.668   2.195
10102SOL    HW231206   3.397   1.621   2.040
10103SOL     OW31207   2.694   1.504   6.036
10103SOL    HW131208   2.768   1.452   5.995
10103SOL    HW231209   2.613   1.446   6.044
10104SOL     OW31210   0.820   5.499   5.121
10104SOL    HW131211   0.856   5.416   5.078
10104SOL    HW231212   0.770   5.475   5.205
10105SOL     OW31213   2.109   0.707   6.896
10105SOL    HW131214   2.084   0.626   6.843
10105SOL    HW231215   2.207   0.726   6.883
10106SOL     OW31216   5.231   5.860   0.964
10106SOL    HW131217   5.198   5.948   1.000
10106SOL    HW231218   5.261   5.802   1.040
10107SOL     OW31219   6.022   1.404   5.812
10107SOL    HW131220   6.052   1.433   5.903
10107SOL    HW231221   6.080   1.329   5.780
10108SOL     OW31222   6.611   0.012   0.471
10108SOL    HW131223   6.664   6.963   0.429
10108SOL    HW231224   6.606   7.021   0.570
10109SOL     OW31225   4.734   5.408   3.672
10109SOL    HW131226   4.720   5.364   3.583
10109SOL    HW231227   4.700   5.349   3.744
10110SOL     OW31228   4.060   0.352   6.069
10110SOL    HW131229   4.134   0.339   6.134
10110SOL    HW231230   4.094   0.340   5.976
10111SOL     OW31231   6.523   3.295   3.055
10111SOL    HW131232   6.589   3.232   3.095
10111SOL    HW231233   6.555   3.324   2.965
10112SOL     OW31234   4.961   4.024   5.594
10112SOL    HW131235   5.004   4.092   5.654
10112SOL    HW231236   4.881   3.984   5.640
10113SOL     OW31237   3.809   6.993   6.988
10113SOL    HW131238   3.746   0.015   6.925
10113SOL    HW231239   3.804   6.894   6.974
10114SOL     OW31240   5.197   1.280   0.772
10114SOL    HW131241   5.219   1.323   0.685
10114SOL    HW231242   5.271   1.297   0.837
10115SOL     OW31243   1.935   2.205   3.642
10115SOL    HW131244   1.957   2.108   3.634
10115SOL    HW231245   2.005   2.259   3.596
10116SOL     OW31246   0.735   0.901   1.237
10116SOL    HW131247   0.717   0.819   1.183
10116SOL    HW231248   0.778   0.970   1.180
10117SOL     OW31249   6.002   0.385   5.631
10117SOL    HW131250   6.033   0.311   5.572
10117SOL    HW231251   5.902   0.380   5.641
10118SOL     OW31252   6.679   5.349   2.355
10118SOL    HW131253   6.619   5.355   2.275
10118SOL    HW231254   6.645   5.279   2.417
10119SOL     OW31255   2.628   0.828   5.718
10119SOL    HW131256   2.568   0.785   5.786
10119SOL    HW231257   2.718   0.784   5.721
10120SOL     OW31258   0.420   3.349   3.875
10120SOL    HW131259   0.491   3.386   3.815
10120SOL    HW231260   0.333   3.394   3.854
10121SOL     OW31261   5.731   4.511   4.921
10121SOL    HW131262   5.656   4.512   4.855
10121SOL    HW231263   5.696   4.528   5.013
10122SOL     OW31264   5.405   3.280   6.972
10122SOL    HW131265   5.481   3.311   6.914
10122SOL    HW231266   5.335   3.351   6.977
10123SOL     OW31267   6.729   6.640   0.908
10123SOL    HW131268   6.780   6.555   0.921
10123SOL    HW231269   6.631   6.621   0.915
10124SOL     OW31270   3.177   3.905   0.140
10124SOL    HW131271   3.119   3.823   0.145
10124SOL    HW231272   3.260   3.883   0.088
10125SOL     OW31273   1.482   0.433   2.455
10125SOL    HW131274   1.463   0.382   2.539
10125SOL    HW231275   1.444   0.525   2.462
10126SOL     OW31276   6.358   5.295   0.810
10126SOL    HW131277   6.348   5.222   0.743
10126SOL    HW231278   6.325   5.381   0.770
10127SOL     OW31279   3.434   5.734   5.469
10127SOL    HW131280   3.511   5.681   5.506
10127SOL    HW231281   3.362   5.671   5.439
10128SOL     OW31282   6.700   1.826   0.625
10128SOL    HW131283   6.778   1.837   0.563
10128SOL    HW231284   6.674   1.915   0.663
10129SOL     OW31285   5.659   2.151   3.639
10129SOL    HW131286   5.635   2.248   3.640
10129SOL    HW231287   5.733   2.136   3.573
10130SOL     OW31288   6.853   5.718   2.790
10130SOL    HW131289   6.771   5.772   2.811
10130SOL    HW231290   6.828   5.622   2.779
10131SOL     OW31291   0.834   1.589   1.987
10131SOL    HW131292   0.857   1.665   2.048
10131SOL    HW231293   0.918   1.547   1.952
10132SOL     OW31294   2.926   6.531   3.238
10132SOL    HW131295   2.872   6.576   3.167
10132SOL    HW231296   2.865   6.480   3.299
10133SOL     OW31297   4.551   6.221   3.490
10133SOL    HW131298   4.545   6.127   3.457
10133SOL    HW231299   4.614   6.224   3.568
10134SOL     OW31300   6.942   1.136   3.611
10134SOL    HW131301   6.921   1.070   3.683
10134SOL    HW231302   0.009   1.173   3.625
10135SOL     OW31303   4.264   5.045   2.757
10135SOL    HW131304   4.317   4.983   2.699
10135SOL    HW231305   4.323   5.084   2.828
10136SOL     OW31306   6.060   0.143   3.519
10136SOL    HW131307   6.078   0.214   3.587
10136SOL    HW231308   6.119   0.156   3.440
10137SOL     OW31309   6.499   5.734   4.575
10137SOL    HW131310   6.547   5.790   4.508
10137SOL    HW231311   6.409   5.709   4.540
10138SOL     OW31312   5.986   2.251   0.163
10138SOL    HW131313   5.906   2.286   0.115
10138SOL    HW231314   5.956   2.189   0.236
10139SOL     OW31315   3.111   3.112   3.273
10139SOL    HW131316   3.195   3.161   3.248
10139SOL    HW231317   3.125   3.014   3.262
10140SOL     OW31318   6.926   5.250   6.979
10140SOL    HW131319   6.962   5.187   6.910
10140SOL    HW231320   6.864   5.200   0.016
10141SOL     OW31321   2.104   1.287   4.498
10141SOL    HW131322   2.051   1.356   4.547
10141SOL    HW231323   2.176   1.252   4.557
10142SOL     OW31324   4.151   6.128   4.684
10142SOL    HW131325   4.145   6.178   4.770
10142SOL    HW231326   4.215   6.051   4.694
10143SOL     OW31327   4.853   7.010   1.321
10143SOL    HW131328   4.903   0.072   1.317
10143SOL    HW231329   4.887   6.955   1.398
10144SOL     OW31330   3.318   5.541   4.807
10144SOL    HW131331   3.247   5.601   4.844
10144SOL    HW231332   3.403   5.553   4.859
10145SOL     OW31333   3.088   5.593   6.038
10145SOL    HW131334   3.099   5.681   6.086
10145SOL    HW231335   3.060   5.610   5.944
10146SOL     OW31336   4.196   5.510   4.219
10146SOL    HW131337   4.125   5.467   4.163
10146SOL    HW231338   4.157   5.587   4.268
10147SOL     OW31339   4.742   4.225   3.932
10147SOL    HW131340   4.798   4.190   4.006
10147SOL    HW231341   4.672   4.286   3.969
10148SOL     OW31342   6.283   5.702   0.891
10148SOL    HW131343   6.222   5.674   0.817
10148SOL    HW231344   6.235   5.765   0.952
10149SOL     OW31345   4.453   1.694   1.199
10149SOL    HW131346   4.357   1.714   1.217
10149SOL    HW231347   4.507   1.777   1.209
10150SOL     OW31348   4.901   4.559   0.653
10150SOL    HW131349   4.823   4.566   0.591
10150SOL    HW231350   4.941   4.468   0.646
10151SOL     OW31351   1.149   7.012   6.309
10151SOL    HW131352   1.185   0.054   6.374
10151SOL    HW231353   1.077   0.031   6.254
10152SOL     OW31354   1.059   4.721   3.506
10152SOL    HW131355   1.085   4.696   3.599
10152SOL    HW231356   1.012   4.644   3.462
10153SOL     OW31357   4.821   6.107   3.664
10153SOL    HW131358   4.882   6.056   3.724
10153SOL    HW231359   4.782   6.185   3.712
10154SOL     OW31360   6.432   5.991   5.493
10154SOL    HW131361   6.510   6.049   5.514
10154SOL    HW231362   6.414   5.930   5.570
10155SOL     OW31363   4.066   0.900   5.853
10155SOL    HW131364   4.040   0.825   5.915
10155SOL    HW231365   3.984   0.951   5.827
10156SOL     OW31366   5.328   0.254   2.239
10156SOL    HW131367   5.318   0.199   2.156
10156SOL    HW231368   5.408   0.223   2.290
10157SOL     OW31369   6.005   1.262   6.276
10157SOL    HW131370   6.023   1.335   6.342
10157SOL    HW231371   6.035   1.292   6.185
10158SOL     OW31372   4.403   3.764   0.038
10158SOL    HW131373   4.338   3.704   7.013
10158SOL    HW231374   4.353   3.817   0.107
10159SOL     OW31375   2.231   2.726   6.567
10159SOL    HW131376   2.295   2.685   6.503
10159SOL    HW231377   2.185   2.803   6.523
10160SOL     OW31378   0.366   4.639   3.518
10160SOL    HW131379   0.414   4.714   3.472
10160SOL    HW231380   0.389   4.553   3.474
10161SOL     OW31381   3.319   4.949   6.604
10161SOL    HW131382   3.225   4.917   6.606
10161SOL    HW231383   3.346   4.976   6.697
10162SOL     OW31384   2.565   3.187   6.345
10162SOL    HW131385   2.538   3.094   6.320
10162SOL    HW231386   2.483   3.245   6.348
10163SOL     OW31387   6.414   3.992   6.048
10163SOL    HW131388   6.509   3.971   6.069
10163SOL    HW231389   6.363   4.002   6.133
10164SOL     OW31390   6.444   3.128   4.963
10164SOL    HW131391   6.446   3.166   5.055
10164SOL    HW231392   6.496   3.187   4.901
10165SOL     OW31393   0.684   2.399   4.277
10165SOL    HW131394   0.597   2.389   4.229
10165SOL    HW231395   0.749   2.445   4.217
10166SOL     OW31396   2.872   1.771   1.514
10166SOL    HW131397   2.824   1.848   1.555
10166SOL    HW231398   2.920   1.719   1.585
10167SOL     OW31399   5.427   1.233   6.748
10167SOL    HW131400   5.407   1.247   6.845
10167SOL    HW231401   5.441   1.322   6.705
10168SOL     OW31402   6.728   4.464   4.358
10168SOL    HW131403   6.800   4.466   4.428
10168SOL    HW231404   6.677   4.378   4.366
10169SOL     OW31405   6.702   5.182   3.023
10169SOL    HW131406   6.620   5.238   3.009
10169SOL    HW231407   6.777   5.241   3.055
10170SOL     OW31408   1.189   3.959   5.281
10170SOL    HW131409   1.142   4.047   5.272
10170SOL    HW231410   1.258   3.966   5.354
10171SOL     OW31411   6.467   4.194   5.782
10171SOL    HW131412   6.491   4.118   5.722
10171SOL    HW231413   6.375   4.180   5.818
10172SOL     OW31414   5.392   0.510   2.802
10172SOL    HW131415   5.296   0.524   2.779
10172SOL    HW231416   5.444   0.594   2.785
10173SOL     OW31417   1.819   1.708   1.062
10173SOL    HW131418   1.872   1.689   1.145
10173SOL    HW231419   1.881   1.710   0.983
10174SOL     OW31420   5.706   4.691   3.124
10174SOL    HW131421   5.636   4.625   3.153
10174SOL    HW231422   5.764   4.715   3.202
10175SOL     OW31423   6.133   2.366   4.902
10175SOL    HW131424   6.102   2.459   4.918
10175SOL    HW231425   6.233   2.366   4.890
10176SOL     OW31426   1.563   3.527   6.595
10176SOL    HW131427   1.644   3.536   6.653
10176SOL    HW231428   1.511   3.612   6.597
10177SOL     OW31429   3.180   6.908   0.251
10177SOL    HW131430   3.090   6.884   0.289
10177SOL    HW231431   3.250   6.853   0.297
10178SOL     OW31432   5.836   2.975   4.700
10178SOL    HW131433   5.834   2.881   4.736
10178SOL    HW231434   5.788   2.978   4.612
10179SOL     OW31435   1.013   2.373   6.398
10179SOL    HW131436   0.931   2.382   6.455
10179SOL    HW231437   1.048   2.280   6.405
10180SOL     OW31438   2.751   5.748   5.921
10180SOL    HW131439   2.836   5.705   5.890
10180SOL    HW231440   2.674   5.710   5.869
10181SOL     OW31441   5.532   3.535   1.504
10181SOL    HW131442   5.491   3.575   1.586
10181SOL    HW231443   5.472   3.464   1.468
10182SOL     OW31444   5.626   1.167   1.522
10182SOL    HW131445   5.555   1.121   1.575
10182SOL    HW231446   5.697   1.100   1.497
10183SOL     OW31447   1.049   1.945   6.908
10183SOL    HW131448   1.030   1.993   6.822
10183SOL    HW231449   0.969   1.892   6.935
10184SOL     OW31450   4.615   1.649   6.248
10184SOL    HW131451   4.567   1.687   6.169
10184SOL    HW231452   4.604   1.711   6.326
10185SOL     OW31453   5.052   6.756   0.917
10185SOL    HW131454   5.076   6.778   1.012
10185SOL    HW231455   5.081   6.830   0.857
10186SOL     OW31456   5.200   2.722   3.592
10186SOL    HW131457   5.112   2.683   3.568
10186SOL    HW231458   5.199   2.821   3.575
10187SOL     OW31459   0.735   2.370   1.860
10187SOL    HW131460   0.745   2.297   1.928
10187SOL    HW231461   0.802   2.357   1.787
10188SOL     OW31462   3.875   6.587   0.407
10188SOL    HW131463   3.891   6.542   0.495
10188SOL    HW231464   3.959   6.586   0.353
10189SOL     OW31465   2.347   6.381   5.120
10189SOL    HW131466   2.395   6.423   5.043
10189SOL    HW231467   2.260   6.343   5.087
10190SOL     OW31468   4.777   2.198   0.459
10190SOL    HW131469   4.734   2.263   0.396
10190SOL    HW231470   4.832   2.248   0.525
10191SOL     OW31471   5.011   4.557   6.575
10191SOL    HW131472   4.952   4.480   6.599
10191SOL    HW231473   5.097   4.550   6.625
10192SOL     OW31474   3.565   0.569   4.913
10192SOL    HW131475   3.553   0.642   4.845
10192SOL    HW231476   3.608   0.490   4.870
10193SOL     OW31477   4.381   4.193   1.066
10193SOL    HW131478   4.329   4.195   1.152
10193SOL    HW231479   4.395   4.286   1.033
10194SOL     OW31480   5.906   4.264   4.987
10194SOL    HW131481   5.925   4.243   5.083
10194SOL    HW231482   5.873   4.358   4.979
10195SOL     OW31483   6.443   4.422   1.670
10195SOL    HW131484   6.472   4.377   1.586
10195SOL    HW231485   6.355   4.467   1.656
10196SOL     OW31486   6.632   1.261   4.997
10196SOL    HW131487   6.610   1.352   4.962
10196SOL    HW231488   6.703   1.269   5.066
10197SOL     OW31489   6.491   0.643   5.199
10197SOL    HW131490   6.555   0.569   5.216
10197SOL    HW231491   6.414   0.610   5.143
10198SOL     OW31492   4.020   0.437   2.442
10198SOL    HW131493   4.057   0.345   2.433
10198SOL    HW231494   3.993   0.453   2.537
10199SOL     OW31495   1.129   2.956   5.570
10199SOL    HW131496   1.111   3.020   5.645
10199SOL    HW231497   1.053   2.891   5.563
10200SOL     OW31498   5.721   2.766   0.978
10200SOL    HW131499   5.665   2.813   1.047
10200SOL    HW231500   5.809   2.812   0.970
10201SOL     OW31501   1.272   4.278   1.118
10201SOL    HW131502   1.310   4.191   1.152
10201SOL    HW231503   1.172   4.275   1.126
10202SOL     OW31504   4.166   1.477   5.528
10202SOL    HW131505   4.220   1.535   5.589
10202SOL    HW231506   4.204   1.385   5.527
10203SOL     OW31507   5.653   2.607   5.215
10203SOL    HW131508   5.615   2.597   5.123
10203SOL    HW231509   5.706   2.525   5.238
10204SOL     OW31510   5.415   0.116   6.406
10204SOL    HW131511   5.344   0.081   6.345
10204SOL    HW231512   5.471   0.040   6.439
10205SOL     OW31513   1.125   0.718   6.722
10205SOL    HW131514   1.198   0.738   6.656
10205SOL    HW231515   1.037   0.745   6.683
10206SOL     OW31516   1.128   0.723   5.694
10206SOL    HW131517   1.116   0.763   5.785
10206SOL    HW231518   1.201   0.655   5.697
10207SOL     OW31519   1.449   1.860   5.924
10207SOL    HW131520   1.445   1.808   5.839
10207SOL    HW231521   1.507   1.941   5.911
10208SOL     OW31522   5.700   5.094   4.836
10208SOL    HW131523   5.791   5.055   4.846
10208SOL    HW231524   5.682   5.156   4.913
10209SOL     OW31525   6.668   0.111   6.033
10209SOL    HW131526   6.673   0.071   5.942
10209SOL    HW231527   6.573   0.133   6.055
10210SOL     OW31528   4.220   6.006   1.743
10210SOL    HW131529   4.244   6.074   1.813
10210SOL    HW231530   4.144   5.950   1.775
10211SOL     OW31531   3.983   6.573   5.667
10211SOL    HW131532   3.897   6.542   5.708
10211SOL    HW231533   4.051   6.586   5.739
10212SOL     OW31534   1.029   0.407   5.974
10212SOL    HW131535   1.062   0.374   6.062
10212SOL    HW231536   0.968   0.485   5.989
10213SOL     OW31537   5.171   2.150   0.262
10213SOL    HW131538   5.123   2.154   0.350
10213SOL    HW231539   5.136   2.223   0.203
10214SOL     OW31540   1.047   2.981   1.445
10214SOL    HW131541   0.988   2.984   1.525
10214SOL    HW231542   1.116   2.909   1.457
10215SOL     OW31543   3.775   3.735   2.441
10215SOL    HW131544   3.738   3.667   2.378
10215SOL    HW231545   3.811   3.689   2.522
10216SOL     OW31546   6.446   0.343   1.590
10216SOL    HW131547   6.481   0.413   1.653
10216SOL    HW231548   6.521   0.283   1.562
10217SOL     OW31549   2.912   1.029   3.705
10217SOL    HW131550   2.920   0.937   3.744
10217SOL    HW231551   2.900   1.022   3.606
10218SOL     OW31552   1.089   2.875   2.996
10218SOL    HW131553   1.095   2.824   2.910
10218SOL    HW231554   1.007   2.932   2.995
10219SOL     OW31555   0.571   1.255   2.167
10219SOL    HW131556   0.602   1.174   2.118
10219SOL    HW231557   0.492   1.232   2.223
10220SOL     OW31558   3.646   2.614   1.760
10220SOL    HW131559   3.679   2.602   1.667
10220SOL    HW231560   3.667   2.532   1.814
10221SOL     OW31561   1.265   6.273   2.943
10221SOL    HW131562   1.248   6.309   3.034
10221SOL    HW231563   1.318   6.339   2.890
10222SOL     OW31564   3.501   3.824   4.506
10222SOL    HW131565   3.519   3.872   4.420
10222SOL    HW231566   3.569   3.850   4.574
10223SOL     OW31567   0.788   5.282   1.494
10223SOL    HW131568   0.762   5.377   1.510
10223SOL    HW231569   0.706   5.229   1.469
10224SOL     OW31570   6.105   4.149   3.364
10224SOL    HW131571   6.030   4.215   3.367
10224SOL    HW231572   6.168   4.166   3.439
10225SOL     OW31573   2.560   3.645   5.933
10225SOL    HW131574   2.567   3.572   5.866
10225SOL    HW231575   2.586   3.611   6.023
10226SOL     OW31576   4.458   2.481   0.270
10226SOL    HW131577   4.522   2.557   0.257
10226SOL    HW231578   4.365   2.514   0.258
10227SOL     OW31579   5.959   4.065   0.913
10227SOL    HW131580   5.958   4.065   0.813
10227SOL    HW231581   5.884   4.009   0.948
10228SOL     OW31582   5.411   0.764   0.830
10228SOL    HW131583   5.413   0.863   0.817
10228SOL    HW231584   5.488   0.722   0.782
10229SOL     OW31585   0.588   3.385   4.706
10229SOL    HW131586   0.677   3.340   4.697
10229SOL    HW231587   0.546   3.360   4.793
10230SOL     OW31588   6.785   6.324   2.244
10230SOL    HW131589   6.768   6.229   2.271
10230SOL    HW231590   6.713   6.354   2.182
10231SOL     OW31591   1.413   5.999   3.046
10231SOL    HW131592   1.382   6.075   2.989
10231SOL    HW231593   1.424   5.917   2.991
10232SOL     OW31594   5.058   6.681   3.281
10232SOL    HW131595   5.018   6.674   3.189
10232SOL    HW231596   5.084   6.776   3.299
10233SOL     OW31597   4.197   4.159   6.568
10233SOL    HW131598   4.233   4.213   6.492
10233SOL    HW231599   4.247   4.183   6.652
10234SOL     OW31600   0.046   0.857   1.612
10234SOL    HW131601   0.126   0.802   1.588
10234SOL    HW231602   7.003   0.850   1.538
10235SOL     OW31603   1.385   1.081   3.499
10235SOL    HW131604   1.288   1.062   3.483
10235SOL    HW231605   1.435   0.996   3.511
10236SOL     OW31606   2.544   6.885   1.686
10236SOL    HW131607   2.616   6.831   1.730
10236SOL    HW231608   2.467   6.826   1.663
10237SOL     OW31609   0.591   3.636   6.603
10237SOL    HW131610   0.578   3.691   6.685
10237SOL    HW231611   0.617   3.543   6.629
10238SOL     OW31612   3.959   5.731   0.906
10238SOL    HW131613   3.917   5.785   0.979
10238SOL    HW231614   4.049   5.770   0.883
10239SOL     OW31615   1.746   2.351   4.495
10239SOL    HW131616   1.737   2.439   4.542
10239SOL    HW231617   1.656   2.306   4.491
10240SOL     OW31618   2.840   6.417   0.869
10240SOL    HW131619   2.788   6.366   0.801
10240SOL    HW231620   2.937   6.392   0.863
10241SOL     OW31621   3.768   2.428   1.448
10241SOL    HW131622   3.807   2.515   1.477
10241SOL    HW231623   3.680   2.443   1.404
10242SOL     OW31624   6.906   2.769   0.114
10242SOL    HW131625   6.902   2.807   0.207
10242SOL    HW231626   6.911   2.669   0.120
10243SOL     OW31627   2.399   5.403   1.175
10243SOL    HW131628   2.439   5.317   1.208
10243SOL    HW231629   2.462   5.478   1.191
10244SOL     OW31630   2.590   4.109   1.692
10244SOL    HW131631   2.552   4.178   1.752
10244SOL    HW231632   2.690   4.119   1.687
10245SOL     OW31633   3.989   4.372   0.429
10245SOL    HW131634   4.070   4.399   0.480
10245SOL    HW231635   3.991   4.273   0.412
10246SOL     OW31636   3.308   3.238   4.407
10246SOL    HW131637   3.274   3.145   4.391
10246SOL    HW231638   3.325   3.250   4.505
10247SOL     OW31639   0.918   3.239   4.495
10247SOL    HW131640   0.871   3.221   4.409
10247SOL    HW231641   0.865   3.202   4.571
10248SOL     OW31642   1.039   0.372   3.366
10248SOL    HW131643   1.023   0.292   3.424
10248SOL    HW231644   1.119   0.356   3.308
10249SOL     OW31645   2.284   4.835   6.236
10249SOL    HW131646   2.364   4.836   6.176
10249SOL    HW231647   2.220   4.906   6.207
10250SOL     OW31648   4.978   2.783   6.995
10250SOL    HW131649   4.929   2.708   0.016
10250SOL    HW231650   5.006   2.754   6.904
10251SOL     OW31651   2.055   0.200   4.425
10251SOL    HW131652   2.071   0.143   4.345
10251SOL    HW231653   2.128   0.186   4.492
10252SOL     OW31654   5.006   4.208   5.806
10252SOL    HW131655   4.910   4.209   5.833
10252SOL    HW231656   5.052   4.289   5.842
10253SOL     OW31657   4.186   6.461   6.532
10253SOL    HW131658   4.121   6.444   6.606
10253SOL    HW231659   4.217   6.556   6.537
10254SOL     OW31660   5.401   1.554   4.538
10254SOL    HW131661   5.392   1.526   4.442
10254SOL    HW231662   5.348   1.637   4.554
10255SOL     OW31663   3.552   5.408   1.975
10255SOL    HW131664   3.499   5.488   2.001
10255SOL    HW231665   3.491   5.336   1.942
10256SOL     OW31666   4.354   0.437   2.923
10256SOL    HW131667   4.296   0.373   2.973
10256SOL    HW231668   4.340   0.529   2.959
10257SOL     OW31669   3.169   4.881   3.033
10257SOL    HW131670   3.164   4.965   2.978
10257SOL    HW231671   3.214   4.809   2.981
10258SOL     OW31672   1.765   1.684   1.724
10258SOL    HW131673   1.739   1.592   1.696
10258SOL    HW231674   1.686   1.731   1.763
10259SOL     OW31675   0.534   3.663   3.803
10259SOL    HW131676   0.591   3.587   3.773
10259SOL    HW231677   0.468   3.686   3.732
10260SOL     OW31678   1.309   1.332   3.619
10260SOL    HW131679   1.339   1.244   3.581
10260SOL    HW231680   1.380   1.369   3.678
10261SOL     OW31681   6.495   3.739   0.947
10261SOL    HW131682   6.551   3.817   0.918
10261SOL    HW231683   6.482   3.743   1.046
10262SOL     OW31684   3.409   1.277   0.136
10262SOL    HW131685   3.482   1.233   0.188
10262SOL    HW231686   3.448   1.351   0.080
10263SOL     OW31687   5.614   0.640   1.816
10263SOL    HW131688   5.653   0.617   1.905
10263SOL    HW231689   5.515   0.635   1.820
10264SOL     OW31690   6.753   5.357   6.557
10264SOL    HW131691   6.772   5.353   6.655
10264SOL    HW231692   6.830   5.319   6.506
10265SOL     OW31693   1.975   1.857   0.270
10265SOL    HW131694   2.024   1.937   0.234
10265SOL    HW231695   1.877   1.877   0.275
10266SOL     OW31696   2.913   3.743   2.457
10266SOL    HW131697   2.958   3.832   2.452
10266SOL    HW231698   2.827   3.746   2.406
10267SOL     OW31699   5.956   0.997   0.774
10267SOL    HW131700   5.874   0.969   0.724
10267SOL    HW231701   5.996   1.077   0.730
10268SOL     OW31702   4.622   0.000   1.016
10268SOL    HW131703   4.704   6.970   0.997
10268SOL    HW231704   4.640   0.096   0.993
10269SOL     OW31705   2.334   2.347   6.319
10269SOL    HW131706   2.331   2.282   6.395
10269SOL    HW231707   2.272   2.423   6.338
10270SOL     OW31708   3.248   6.015   1.738
10270SOL    HW131709   3.301   5.947   1.790
10270SOL    HW231710   3.305   6.053   1.665
10271SOL     OW31711   1.684   2.496   0.151
10271SOL    HW131712   1.584   2.491   0.160
10271SOL    HW231713   1.726   2.502   0.241
10272SOL     OW31714   6.787   0.722   4.627
10272SOL    HW131715   6.784   0.629   4.591
10272SOL    HW231716   6.731   0.727   4.710
10273SOL     OW31717   2.421   4.965   3.351
10273SOL    HW131718   2.455   5.010   3.269
10273SOL    HW231719   2.498   4.937   3.408
10274SOL     OW31720   0.585   5.200   4.810
10274SOL    HW131721   0.680   5.227   4.824
10274SOL    HW231722   0.560   5.129   4.876
10275SOL     OW31723   0.277   0.397   2.856
10275SOL    HW131724   0.361   0.345   2.866
10275SOL    HW231725   0.267   0.461   2.933
10276SOL     OW31726   4.331   5.848   5.915
10276SOL    HW131727   4.298   5.753   5.913
10276SOL    HW231728   4.383   5.863   6.000
10277SOL     OW31729   1.044   6.502   4.584
10277SOL    HW131730   1.066   6.490   4.681
10277SOL    HW231731   0.968   6.443   4.558
10278SOL     OW31732   0.057   0.467   5.362
10278SOL    HW131733   0.089   0.408   5.436
10278SOL    HW231734   0.041   0.413   5.280
10279SOL     OW31735   1.647   5.567   3.862
10279SOL    HW131736   1.715   5.500   3.835
10279SOL    HW231737   1.572   5.521   3.909
10280SOL     OW31738   5.576   4.206   0.450
10280SOL    HW131739   5.520   4.132   0.489
10280SOL    HW231740   5.639   4.168   0.383
10281SOL     OW31741   6.573   2.127   3.743
10281SOL    HW131742   6.547   2.158   3.651
10281SOL    HW231743   6.672   2.118   3.749
10282SOL     OW31744   4.904   3.829   3.341
10282SOL    HW131745   4.876   3.925   3.346
10282SOL    HW231746   5.004   3.823   3.347
10283SOL     OW31747   0.493   4.229   1.181
10283SOL    HW131748   0.554   4.181   1.117
10283SOL    HW231749   0.414   4.172   1.200
10284SOL     OW31750   0.479   2.787   3.633
10284SOL    HW131751   0.424   2.710   3.666
10284SOL    HW231752   0.480   2.859   3.703
10285SOL     OW31753   4.851   5.923   4.381
10285SOL    HW131754   4.891   6.006   4.420
10285SOL    HW231755   4.900   5.899   4.297
10286SOL     OW31756   2.982   1.580   4.509
10286SOL    HW131757   2.911   1.579   4.580
10286SOL    HW231758   2.987   1.489   4.466
10287SOL     OW31759   2.182   5.611   2.897
10287SOL    HW131760   2.263   5.580   2.847
10287SOL    HW231761   2.162   5.706   2.873
10288SOL     OW31762   3.716   0.243   5.351
10288SOL    HW131763   3.674   0.333   5.344
10288SOL    HW231764   3.815   0.251   5.336
10289SOL     OW31765   2.478   5.947   6.623
10289SOL    HW131766   2.395   5.912   6.579
10289SOL    HW231767   2.462   6.040   6.655
10290SOL     OW31768   3.169   2.996   2.359
10290SOL    HW131769   3.162   3.095   2.371
10290SOL    HW231770   3.081   2.953   2.378
10291SOL     OW31771   3.205   1.174   2.393
10291SOL    HW131772   3.247   1.261   2.367
10291SOL    HW231773   3.147   1.140   2.319
10292SOL     OW31774   6.543   6.565   6.381
10292SOL    HW131775   6.510   6.472   6.398
10292SOL    HW231776   6.579   6.571   6.289
10293SOL     OW31777   0.665   3.941   3.832
10293SOL    HW131778   0.571   3.971   3.818
10293SOL    HW231779   0.685   3.866   3.769
10294SOL     OW31780   3.623   1.736   2.676
10294SOL    HW131781   3.628   1.802   2.601
10294SOL    HW231782   3.715   1.706   2.699
10295SOL     OW31783   1.040   2.402   0.352
10295SOL    HW131784   1.125   2.423   0.305
10295SOL    HW231785   0.964   2.450   0.308
10296SOL     OW31786   5.825   1.180   5.760
10296SOL    HW131787   5.757   1.173   5.833
10296SOL    HW231788   5.895   1.246   5.786
10297SOL     OW31789   2.910   2.127   6.777
10297SOL    HW131790   2.946   2.218   6.758
10297SOL    HW231791   2.985   2.068   6.808
10298SOL     OW31792   0.588   2.616   2.719
10298SOL    HW131793   0.580   2.714   2.705
10298SOL    HW231794   0.515   2.585   2.780
10299SOL     OW31795   4.249   6.450   2.134
10299SOL    HW131796   4.308   6.420   2.210
10299SOL    HW231797   4.265   6.392   2.055
10300SOL     OW31798   0.612   3.402   1.442
10300SOL    HW131799   0.577   3.431   1.531
10300SOL    HW231800   0.700   3.447   1.424
10301SOL     OW31801   4.520   0.827   6.434
10301SOL    HW131802   4.446   0.849   6.497
10301SOL    HW231803   4.565   0.743   6.464
10302SOL     OW31804   2.837   5.901   4.442
10302SOL    HW131805   2.869   5.919   4.349
10302SOL    HW231806   2.905   5.846   4.491
10303SOL     OW31807   0.967   6.402   4.980
10303SOL    HW131808   0.982   6.473   5.050
10303SOL    HW231809   0.869   6.396   4.959
10304SOL     OW31810   6.308   7.006   0.162
10304SOL    HW131811   6.382   6.951   0.125
10304SOL    HW231812   6.232   7.007   0.097
10305SOL     OW31813   2.375   4.028   5.979
10305SOL    HW131814   2.346   3.933   5.996
10305SOL    HW231815   2.432   4.059   6.055
10306SOL     OW31816   5.440   0.094   1.237
10306SOL    HW131817   5.495   0.102   1.154
10306SOL    HW231818   5.415   0.185   1.270
10307SOL     OW31819   2.650   0.544   4.835
10307SOL    HW131820   2.572   0.602   4.859
10307SOL    HW231821   2.730   0.601   4.821
10308SOL     OW31822   2.587   4.547   2.575
10308SOL    HW131823   2.518   4.569   2.506
10308SOL    HW231824   2.628   4.458   2.554
10309SOL     OW31825   6.401   1.029   5.625
10309SOL    HW131826   6.482   1.035   5.683
10309SOL    HW231827   6.392   0.936   5.589
10310SOL     OW31828   3.062   2.897   6.381
10310SOL    HW131829   3.097   2.814   6.338
10310SOL    HW231830   3.072   2.974   6.318
10311SOL     OW31831   5.742   6.516   7.001
10311SOL    HW131832   5.651   6.498   0.012
10311SOL    HW231833   5.784   6.430   6.971
10312SOL     OW31834   4.672   0.425   2.237
10312SOL    HW131835   4.772   0.425   2.226
10312SOL    HW231836   4.649   0.409   2.333
10313SOL     OW31837   4.810   6.472   2.701
10313SOL    HW131838   4.905   6.444   2.713
10313SOL    HW231839   4.752   6.425   2.767
10314SOL     OW31840   0.734   6.879   0.596
10314SOL    HW131841   0.732   6.791   0.548
10314SOL    HW231842   0.809   6.935   0.560
10315SOL     OW31843   5.179   6.396   3.401
10315SOL    HW131844   5.106   6.465   3.409
10315SOL    HW231845   5.152   6.314   3.451
10316SOL     OW31846   7.008   2.841   6.182
10316SOL    HW131847   0.021   2.933   6.172
10316SOL    HW231848   6.953   2.817   6.102
10317SOL     OW31849   3.367   5.916   5.938
10317SOL    HW131850   3.366   5.884   6.032
10317SOL    HW231851   3.349   6.015   5.936
10318SOL     OW31852   5.935   0.337   0.179
10318SOL    HW131853   5.868   0.281   0.227
10318SOL    HW231854   5.913   0.434   0.190
10319SOL     OW31855   0.309   4.530   4.223
10319SOL    HW131856   0.369   4.449   4.226
10319SOL    HW231857   0.365   4.613   4.227
10320SOL     OW31858   0.610   0.455   3.598
10320SOL    HW131859   0.570   0.477   3.509
10320SOL    HW231860   0.637   0.358   3.599
10321SOL     OW31861   5.679   2.170   1.711
10321SOL    HW131862   5.646   2.196   1.802
10321SOL    HW231863   5.601   2.152   1.651
10322SOL     OW31864   4.664   4.455   4.604
10322SOL    HW131865   4.698   4.434   4.513
10322SOL    HW231866   4.680   4.377   4.665
10323SOL     OW31867   0.300   4.278   5.165
10323SOL    HW131868   0.319   4.374   5.144
10323SOL    HW231869   0.207   4.268   5.200
10324SOL     OW31870   3.318   3.401   2.237
10324SOL    HW131871   3.392   3.335   2.228
10324SOL    HW231872   3.355   3.489   2.268
10325SOL     OW31873   0.250   5.630   2.704
10325SOL    HW131874   0.190   5.710   2.699
10325SOL    HW231875   0.341   5.658   2.735
10326SOL     OW31876   5.367   3.618   6.769
10326SOL    HW131877   5.449   3.621   6.826
10326SOL    HW231878   5.370   3.693   6.703
10327SOL     OW31879   2.969   3.978   1.448
10327SOL    HW131880   3.069   3.973   1.450
10327SOL    HW231881   2.933   3.895   1.405
10328SOL     OW31882   6.621   2.994   1.601
10328SOL    HW131883   6.656   2.906   1.568
10328SOL    HW231884   6.522   2.998   1.588
10329SOL     OW31885   3.358   1.811   3.125
10329SOL    HW131886   3.417   1.827   3.045
10329SOL    HW231887   3.300   1.731   3.107
10330SOL     OW31888   4.831   6.925   0.874
10330SOL    HW131889   4.909   6.985   0.893
10330SOL    HW231890   4.862   6.830   0.870
10331SOL     OW31891   6.745   5.652   0.323
10331SOL    HW131892   6.769   5.558   0.349
10331SOL    HW231893   6.713   5.652   0.228
10332SOL     OW31894   1.455   0.921   0.845
10332SOL    HW131895   1.375   0.904   0.787
10332SOL    HW231896   1.497   1.007   0.819
10333SOL     OW31897   0.994   5.711   4.386
10333SOL    HW131898   1.062   5.647   4.348
10333SOL    HW231899   0.907   5.700   4.337
10334SOL     OW31900   2.948   6.875   3.813
10334SOL    HW131901   2.957   6.909   3.906
10334SOL    HW231902   2.966   6.777   3.811
10335SOL     OW31903   0.532   3.938   5.822
10335SOL    HW131904   0.457   3.965   5.762
10335SOL    HW231905   0.600   3.888   5.770
10336SOL     OW31906   5.619   0.090   2.879
10336SOL    HW131907   5.616   0.147   2.962
10336SOL    HW231908   5.609   7.018   2.904
10337SOL     OW31909   6.268   5.567   0.268
10337SOL    HW131910   6.334   5.527   0.331
10337SOL    HW231911   6.306   5.568   0.175
10338SOL     OW31912   1.765   6.040   1.943
10338SOL    HW131913   1.712   5.961   1.974
10338SOL    HW231914   1.836   6.061   2.010
10339SOL     OW31915   6.899   2.922   5.622
10339SOL    HW131916   6.890   2.976   5.706
10339SOL    HW231917   6.996   2.901   5.607
10340SOL     OW31918   1.830   3.609   6.321
10340SOL    HW131919   1.790   3.580   6.234
10340SOL    HW231920   1.807   3.542   6.391
10341SOL     OW31921   2.295   2.835   2.448
10341SOL    HW131922   2.329   2.925   2.419
10341SOL    HW231923   2.240   2.795   2.375
10342SOL     OW31924   1.691   0.754   3.774
10342SOL    HW131925   1.784   0.768   3.807
10342SOL    HW231926   1.684   0.663   3.733
10343SOL     OW31927   1.977   5.753   0.976
10343SOL    HW131928   2.031   5.834   0.997
10343SOL    HW231929   1.981   5.688   1.052
10344SOL     OW31930   3.637   4.364   6.884
10344SOL    HW131931   3.676   4.307   6.957
10344SOL    HW231932   3.693   4.354   6.801
10345SOL     OW31933   1.274   2.964   5.317
10345SOL    HW131934   1.286   2.875   5.272
10345SOL    HW231935   1.225   2.951   5.403
10346SOL     OW31936   0.327   5.980   1.817
10346SOL    HW131937   0.421   5.951   1.799
10346SOL    HW231938   0.278   5.909   1.867
10347SOL     OW31939   4.463   1.421   4.132
10347SOL    HW131940   4.438   1.378   4.219
10347SOL    HW231941   4.503   1.352   4.071
10348SOL     OW31942   6.026   3.827   0.600
10348SOL    HW131943   6.048   3.739   0.644
10348SOL    HW231944   5.972   3.810   0.518
10349SOL     OW31945   0.336   6.754   6.542
10349SOL    HW131946   0.422   6.785   6.502
10349SOL    HW231947   0.355   6.683   6.610
10350SOL     OW31948   3.121   6.486   5.363
10350SOL    HW131949   3.062   6.563   5.338
10350SOL    HW231950   3.064   6.410   5.394
10351SOL     OW31951   4.396   4.976   5.493
10351SOL    HW131952   4.317   5.020   5.535
10351SOL    HW231953   4.367   4.890   5.451
10352SOL     OW31954   3.468   1.955   5.674
10352SOL    HW131955   3.416   2.016   5.615
10352SOL    HW231956   3.427   1.954   5.765
10353SOL     OW31957   6.547   2.787   4.720
10353SOL    HW131958   6.523   2.828   4.808
10353SOL    HW231959   6.632   2.736   4.729
10354SOL     OW31960   5.308   1.206   2.074
10354SOL    HW131961   5.331   1.288   2.126
10354SOL    HW231962   5.259   1.142   2.133
10355SOL     OW31963   2.557   5.713   2.551
10355SOL    HW131964   2.621   5.739   2.623
10355SOL    HW231965   2.510   5.795   2.518
10356SOL     OW31966   0.056   4.191   5.299
10356SOL    HW131967   0.088   4.098   5.282
10356SOL    HW231968   0.058   4.210   5.397
10357SOL     OW31969   2.241   2.109   6.525
10357SOL    HW131970   2.220   2.124   6.622
10357SOL    HW231971   2.181   2.039   6.488
10358SOL     OW31972   0.403   2.432   2.109
10358SOL    HW131973   0.304   2.436   2.116
10358SOL    HW231974   0.432   2.472   2.022
10359SOL     OW31975   0.201   1.257   1.656
10359SOL    HW131976   0.132   1.200   1.699
10359SOL    HW231977   0.183   1.262   1.557
10360SOL     OW31978   5.550   5.840   3.592
10360SOL    HW131979   5.624   5.827   3.525
10360SOL    HW231980   5.569   5.921   3.647
10361SOL     OW31981   2.906   5.465   2.236
10361SOL    HW131982   2.830   5.483   2.173
10361SOL    HW231983   2.931   5.550   2.283
10362SOL     OW31984   1.801   4.185   4.769
10362SOL    HW131985   1.859   4.115   4.727
10362SOL    HW231986   1.843   4.217   4.853
10363SOL     OW31987   4.921   0.607   3.537
10363SOL    HW131988   4.875   0.526   3.500
10363SOL    HW231989   4.924   0.679   3.467
10364SOL     OW31990   2.202   4.328   1.188
10364SOL    HW131991   2.292   4.284   1.197
10364SOL    HW231992   2.179   4.338   1.092
10365SOL     OW31993   5.091   5.503   7.011
10365SOL    HW131994   5.009   5.524   0.041
10365SOL    HW231995   5.097   5.566   6.934
10366SOL     OW31996   2.930   0.098   3.049
10366SOL    HW131997   2.906   0.193   3.031
10366SOL    HW231998   3.005   0.070   2.988
10367SOL     OW31999   5.945   2.366   3.616
10367SOL    HW132000   5.975   2.347   3.709
10367SOL    HW232001   5.850   2.398   3.617
10368SOL     OW32002   1.827   0.956   1.767
10368SOL    HW132003   1.817   0.912   1.678
10368SOL    HW232004   1.770   1.039   1.770
10369SOL     OW32005   3.840   2.541   6.865
10369SOL    HW132006   3.750   2.554   6.906
10369SOL    HW232007   3.829   2.513   6.769
10370SOL     OW32008   3.789   0.657   5.502
10370SOL    HW132009   3.730   0.706   5.567
10370SOL    HW232010   3.827   0.722   5.436
10371SOL     OW32011   4.837   5.712   5.279
10371SOL    HW132012   4.850   5.810   5.290
10371SOL    HW232013   4.795   5.693   5.190
10372SOL     OW32014   2.178   0.874   4.261
10372SOL    HW132015   2.174   0.955   4.202
10372SOL    HW232016   2.169   0.792   4.206
10373SOL     OW32017   1.022   6.477   4.065
10373SOL    HW132018   1.049   6.543   4.134
10373SOL    HW232019   1.103   6.437   4.023
10374SOL     OW32020   2.609   2.492   3.060
10374SOL    HW132021   2.683   2.445   3.012
10374SOL    HW232022   2.538   2.518   2.994
10375SOL     OW32023   5.950   2.102   0.786
10375SOL    HW132024   5.968   2.060   0.697
10375SOL    HW232025   5.959   2.033   0.858
10376SOL     OW32026   0.802   1.127   3.678
10376SOL    HW132027   0.850   1.194   3.621
10376SOL    HW232028   0.864   1.093   3.749
10377SOL     OW32029   0.886   0.627   4.020
10377SOL    HW132030   0.921   0.548   3.969
10377SOL    HW232031   0.849   0.694   3.957
10378SOL     OW32032   7.019   0.302   6.320
10378SOL    HW132033   6.987   0.269   6.231
10378SOL    HW232034   6.949   0.359   6.362
10379SOL     OW32035   5.293   1.213   4.566
10379SOL    HW132036   5.293   1.280   4.640
10379SOL    HW232037   5.203   1.210   4.523
10380SOL     OW32038   5.155   0.576   1.984
10380SOL    HW132039   5.084   0.507   1.968
10380SOL    HW232040   5.219   0.577   1.907
10381SOL     OW32041   4.490   4.659   5.774
10381SOL    HW132042   4.554   4.626   5.705
10381SOL    HW232043   4.477   4.590   5.845
10382SOL     OW32044   2.226   5.166   0.179
10382SOL    HW132045   2.241   5.248   0.125
10382SOL    HW232046   2.241   5.186   0.276
10383SOL     OW32047   0.755   2.627   0.638
10383SOL    HW132048   0.777   2.708   0.693
10383SOL    HW232049   0.679   2.648   0.577
10384SOL     OW32050   6.401   0.406   0.257
10384SOL    HW132051   6.473   0.400   0.189
10384SOL    HW232052   6.380   0.315   0.293
10385SOL     OW32053   6.354   1.665   6.607
10385SOL    HW132054   6.338   1.758   6.576
10385SOL    HW232055   6.307   1.601   6.547
10386SOL     OW32056   6.122   2.903   5.770
10386SOL    HW132057   6.046   2.920   5.707
10386SOL    HW232058   6.209   2.909   5.720
10387SOL     OW32059   1.707   2.469   3.382
10387SOL    HW132060   1.772   2.443   3.311
10387SOL    HW232061   1.635   2.399   3.388
10388SOL     OW32062   1.351   5.189   2.564
10388SOL    HW132063   1.274   5.253   2.574
10388SOL    HW232064   1.435   5.232   2.596
10389SOL     OW32065   1.027   4.812   2.825
10389SOL    HW132066   0.943   4.817   2.772
10389SOL    HW232067   1.006   4.788   2.919
10390SOL     OW32068   1.098   2.865   3.731
10390SOL    HW132069   1.118   2.891   3.637
10390SOL    HW232070   1.006   2.896   3.756
10391SOL     OW32071   2.641   6.226   6.024
10391SOL    HW132072   2.550   6.217   5.982
10391SOL    HW232073   2.705   6.166   5.977
10392SOL     OW32074   6.453   5.476   0.441
10392SOL    HW132075   6.501   5.389   0.447
10392SOL    HW232076   6.501   5.545   0.495
10393SOL     OW32077   1.392   1.124   4.157
10393SOL    HW132078   1.309   1.092   4.110
10393SOL    HW232079   1.379   1.115   4.256
10394SOL     OW32080   2.358   6.658   6.936
10394SOL    HW132081   2.385   6.752   6.958
10394SOL    HW232082   2.287   6.659   6.866
10395SOL     OW32083   0.250   1.305   4.572
10395SOL    HW132084   0.178   1.274   4.509
10395SOL    HW232085   0.332   1.249   4.559
10396SOL     OW32086   0.942   0.180   5.215
10396SOL    HW132087   1.038   0.205   5.225
10396SOL    HW232088   0.931   0.119   5.136
10397SOL     OW32089   4.328   1.403   3.060
10397SOL    HW132090   4.272   1.352   3.126
10397SOL    HW232091   4.381   1.339   3.004
10398SOL     OW32092   6.355   2.445   2.290
10398SOL    HW132093   6.297   2.526   2.304
10398SOL    HW232094   6.449   2.475   2.273
10399SOL     OW32095   5.538   2.103   5.424
10399SOL    HW132096   5.595   2.022   5.435
10399SOL    HW232097   5.467   2.104   5.494
10400SOL     OW32098   2.582   5.144   1.822
10400SOL    HW132099   2.626   5.228   1.852
10400SOL    HW232100   2.634   5.104   1.747
10401SOL     OW32101   0.395   6.419   1.755
10401SOL    HW132102   0.420   6.492   1.819
10401SOL    HW232103   0.296   6.411   1.751
10402SOL     OW32104   0.444   3.068   4.318
10402SOL    HW132105   0.457   3.152   4.265
10402SOL    HW232106   0.458   3.087   4.415
10403SOL     OW32107   5.385   0.935   1.970
10403SOL    HW132108   5.382   0.864   2.041
10403SOL    HW232109   5.355   1.022   2.007
10404SOL     OW32110   0.398   6.561   3.820
10404SOL    HW132111   0.384   6.631   3.889
10404SOL    HW232112   0.496   6.544   3.809
10405SOL     OW32113   1.730   6.409   5.766
10405SOL    HW132114   1.791   6.481   5.799
10405SOL    HW232115   1.732   6.407   5.666
10406SOL     OW32116   2.321   4.883   5.849
10406SOL    HW132117   2.383   4.948   5.804
10406SOL    HW232118   2.259   4.844   5.781
10407SOL     OW32119   0.808   1.581   0.089
10407SOL    HW132120   0.796   1.487   0.056
10407SOL    HW232121   0.905   1.599   0.104
10408SOL     OW32122   4.422   5.537   2.967
10408SOL    HW132123   4.357   5.477   3.014
10408SOL    HW232124   4.485   5.481   2.913
10409SOL     OW32125   6.149   4.777   2.632
10409SOL    HW132126   6.110   4.733   2.551
10409SOL    HW232127   6.094   4.858   2.656
10410SOL     OW32128   5.707   0.208   0.556
10410SOL    HW132129   5.692   0.294   0.605
10410SOL    HW232130   5.708   0.132   0.622
10411SOL     OW32131   2.394   4.367   2.903
10411SOL    HW132132   2.390   4.466   2.889
10411SOL    HW232133   2.339   4.321   2.833
10412SOL     OW32134   0.462   2.212   0.540
10412SOL    HW132135   0.378   2.212   0.485
10412SOL    HW232136   0.438   2.220   0.637
10413SOL     OW32137   0.368   2.101   6.905
10413SOL    HW132138   0.363   2.150   6.818
10413SOL    HW232139   0.307   2.022   6.903
10414SOL     OW32140   5.531   6.600   5.662
10414SOL    HW132141   5.449   6.561   5.620
10414SOL    HW232142   5.548   6.691   5.623
10415SOL     OW32143   0.505   5.773   3.197
10415SOL    HW132144   0.415   5.794   3.160
10415SOL    HW232145   0.529   5.841   3.267
10416SOL     OW32146   5.632   1.184   6.004
10416SOL    HW132147   5.679   1.166   6.090
10416SOL    HW232148   5.580   1.269   6.011
10417SOL     OW32149   3.527   4.906   4.141
10417SOL    HW132150   3.448   4.898   4.079
10417SOL    HW232151   3.497   4.891   4.235
10418SOL     OW32152   6.345   3.991   6.314
10418SOL    HW132153   6.256   4.004   6.358
10418SOL    HW232154   6.397   3.923   6.365
10419SOL     OW32155   2.490   1.076   4.684
10419SOL    HW132156   2.423   1.141   4.721
10419SOL    HW232157   2.514   1.102   4.591
10420SOL     OW32158   5.905   3.322   2.873
10420SOL    HW132159   5.855   3.235   2.879
10420SOL    HW232160   5.895   3.359   2.780
10421SOL     OW32161   0.596   4.613   4.177
10421SOL    HW132162   0.590   4.699   4.127
10421SOL    HW232163   0.690   4.598   4.206
10422SOL     OW32164   6.604   3.887   4.967
10422SOL    HW132165   6.698   3.883   4.998
10422SOL    HW232166   6.594   3.961   4.900
10423SOL     OW32167   2.689   5.118   4.348
10423SOL    HW132168   2.701   5.206   4.393
10423SOL    HW232169   2.722   5.045   4.408
10424SOL     OW32170   3.295   0.972   0.406
10424SOL    HW132171   3.284   0.882   0.450
10424SOL    HW232172   3.265   1.044   0.468
10425SOL     OW32173   1.260   2.487   1.242
10425SOL    HW132174   1.231   2.455   1.151
10425SOL    HW232175   1.236   2.583   1.253
10426SOL     OW32176   6.663   2.291   6.176
10426SOL    HW132177   6.582   2.325   6.128
10426SOL    HW232178   6.679   2.196   6.151
10427SOL     OW32179   5.135   0.055   4.126
10427SOL    HW132180   5.075   0.006   4.190
10427SOL    HW232181   5.137   0.006   4.039
10428SOL     OW32182   2.547   0.360   3.874
10428SOL    HW132183   2.604   0.436   3.905
10428SOL    HW232184   2.503   0.386   3.788
10429SOL     OW32185   1.520   2.989   1.658
10429SOL    HW132186   1.531   2.924   1.584
10429SOL    HW232187   1.423   2.995   1.684
10430SOL     OW32188   3.131   0.227   3.425
10430SOL    HW132189   3.098   0.294   3.359
10430SOL    HW232190   3.123   0.135   3.387
10431SOL     OW32191   4.026   0.059   2.801
10431SOL    HW132192   4.001   0.117   2.723
10431SOL    HW232193   3.946   0.008   2.831
10432SOL     OW32194   0.799   5.352   6.041
10432SOL    HW132195   0.881   5.304   6.009
10432SOL    HW232196   0.804   5.361   6.141
10433SOL     OW32197   2.419   0.195   2.805
10433SOL    HW132198   2.456   0.206   2.712
10433SOL    HW232199   2.346   0.262   2.819
10434SOL     OW32200   5.320   0.253   5.454
10434SOL    HW132201   5.272   0.309   5.387
10434SOL    HW232202   5.367   0.178   5.407
10435SOL     OW32203   2.103   2.047   0.100
10435SOL    HW132204   2.077   2.014   0.009
10435SOL    HW232205   2.042   2.122   0.127
10436SOL     OW32206   6.484   3.609   5.277
10436SOL    HW132207   6.507   3.668   5.355
10436SOL    HW232208   6.386   3.587   5.279
10437SOL     OW32209   5.699   6.438   5.048
10437SOL    HW132210   5.741   6.486   4.971
10437SOL    HW232211   5.682   6.502   5.122
10438SOL     OW32212   6.812   5.989   6.917
10438SOL    HW132213   6.815   6.064   6.983
10438SOL    HW232214   6.863   5.911   6.954
10439SOL     OW32215   6.601   6.079   4.761
10439SOL    HW132216   6.631   5.986   4.782
10439SOL    HW232217   6.502   6.086   4.773
10440SOL     OW32218   6.557   2.674   0.782
10440SOL    HW132219   6.607   2.603   0.733
10440SOL    HW232220   6.461   2.674   0.754
10441SOL     OW32221   4.912   1.974   0.091
10441SOL    HW132222   4.885   1.878   0.091
10441SOL    HW232223   4.942   2.000   0.183
10442SOL     OW32224   2.059   2.149   5.311
10442SOL    HW132225   2.002   2.074   5.278
10442SOL    HW232226   2.038   2.168   5.407
10443SOL     OW32227   0.387   1.625   1.816
10443SOL    HW132228   0.466   1.573   1.783
10443SOL    HW232229   0.418   1.690   1.885
10444SOL     OW32230   3.911   5.203   4.390
10444SOL    HW132231   3.897   5.212   4.292
10444SOL    HW232232   3.852   5.130   4.426
10445SOL     OW32233   0.591   3.171   3.218
10445SOL    HW132234   0.511   3.208   3.170
10445SOL    HW232235   0.561   3.124   3.301
10446SOL     OW32236   2.275   4.538   5.522
10446SOL    HW132237   2.254   4.482   5.442
10446SOL    HW232238   2.261   4.485   5.605
10447SOL     OW32239   0.388   2.311   2.787
10447SOL    HW132240   0.483   2.321   2.817
10447SOL    HW232241   0.332   2.379   2.835
10448SOL     OW32242   2.157   6.298   2.241
10448SOL    HW132243   2.255   6.285   2.229
10448SOL    HW232244   2.138   6.395   2.256
10449SOL     OW32245   3.726   4.876   5.130
10449SOL    HW132246   3.741   4.856   5.033
10449SOL    HW232247   3.657   4.947   5.139
10450SOL     OW32248   6.744   0.382   5.941
10450SOL    HW132249   6.818   0.338   5.992
10450SOL    HW232250   6.688   0.312   5.897
10451SOL     OW32251   3.513   1.262   3.220
10451SOL    HW132252   3.490   1.195   3.290
10451SOL    HW232253   3.612   1.274   3.217
10452SOL     OW32254   6.101   3.620   4.371
10452SOL    HW132255   6.181   3.613   4.430
10452SOL    HW232256   6.102   3.546   4.304
10453SOL     OW32257   4.046   6.131   3.509
10453SOL    HW132258   4.047   6.072   3.428
10453SOL    HW232259   4.137   6.171   3.521
10454SOL     OW32260   6.661   1.652   6.265
10454SOL    HW132261   6.761   1.657   6.271
10454SOL    HW232262   6.636   1.590   6.191
10455SOL     OW32263   6.777   5.363   3.646
10455SOL    HW132264   6.707   5.294   3.635
10455SOL    HW232265   6.771   5.401   3.739
10456SOL     OW32266   1.117   5.082   6.526
10456SOL    HW132267   1.032   5.035   6.503
10456SOL    HW232268   1.141   5.145   6.452
10457SOL     OW32269   4.010   2.444   0.039
10457SOL    HW132270   3.960   2.461   6.979
10457SOL    HW232271   3.957   2.475   0.118
10458SOL     OW32272   0.093   6.023   6.943
10458SOL    HW132273   0.046   6.014   0.006
10458SOL    HW232274   0.026   6.028   6.869
10459SOL     OW32275   6.693   5.225   0.722
10459SOL    HW132276   6.751   5.145   0.711
10459SOL    HW232277   6.643   5.219   0.808
10460SOL     OW32278   0.156   0.780   0.985
10460SOL    HW132279   0.170   0.756   0.890
10460SOL    HW232280   0.092   0.858   0.991
10461SOL     OW32281   6.915   5.093   6.126
10461SOL    HW132282   6.984   5.040   6.076
10461SOL    HW232283   6.945   5.105   6.221
10462SOL     OW32284   4.508   2.265   0.127
10462SOL    HW132285   4.468   2.283   0.037
10462SOL    HW232286   4.506   2.348   0.182
10463SOL     OW32287   5.059   2.279   6.525
10463SOL    HW132288   5.045   2.312   6.619
10463SOL    HW232289   4.970   2.264   6.482
10464SOL     OW32290   6.303   5.114   2.338
10464SOL    HW132291   6.207   5.089   2.346
10464SOL    HW232292   6.355   5.069   2.411
10465SOL     OW32293   5.627   4.420   1.893
10465SOL    HW132294   5.703   4.461   1.841
10465SOL    HW232295   5.600   4.483   1.966
10466SOL     OW32296   6.490   4.544   6.130
10466SOL    HW132297   6.393   4.524   6.115
10466SOL    HW232298   6.546   4.477   6.081
10467SOL     OW32299   0.817   3.727   0.281
10467SOL    HW132300   0.727   3.732   0.324
10467SOL    HW232301   0.885   3.697   0.349
10468SOL     OW32302   1.753   4.369   3.276
10468SOL    HW132303   1.793   4.317   3.352
10468SOL    HW232304   1.827   4.406   3.219
10469SOL     OW32305   0.258   1.604   3.717
10469SOL    HW132306   0.313   1.540   3.663
10469SOL    HW232307   0.165   1.568   3.726
10470SOL     OW32308   2.094   3.193   2.623
10470SOL    HW132309   2.191   3.182   2.644
10470SOL    HW232310   2.039   3.144   2.691
10471SOL     OW32311   3.009   6.311   6.827
10471SOL    HW132312   2.975   6.317   6.921
10471SOL    HW232313   3.042   6.219   6.810
10472SOL     OW32314   3.842   4.953   6.599
10472SOL    HW132315   3.756   4.909   6.576
10472SOL    HW232316   3.854   4.954   6.698
10473SOL     OW32317   5.594   4.840   0.726
10473SOL    HW132318   5.657   4.882   0.791
10473SOL    HW232319   5.529   4.909   0.694
10474SOL     OW32320   5.747   1.161   4.648
10474SOL    HW132321   5.719   1.081   4.702
10474SOL    HW232322   5.665   1.210   4.618
10475SOL     OW32323   1.520   5.655   1.281
10475SOL    HW132324   1.562   5.644   1.191
10475SOL    HW232325   1.592   5.662   1.350
10476SOL     OW32326   4.916   6.227   0.339
10476SOL    HW132327   4.849   6.298   0.315
10476SOL    HW232328   4.868   6.142   0.361
10477SOL     OW32329   6.577   5.345   3.927
10477SOL    HW132330   6.663   5.396   3.928
10477SOL    HW232331   6.553   5.321   4.021
10478SOL     OW32332   6.345   1.723   6.864
10478SOL    HW132333   6.319   1.749   6.771
10478SOL    HW232334   6.430   1.670   6.862
10479SOL     OW32335   0.822   2.649   1.973
10479SOL    HW132336   0.780   2.559   1.965
10479SOL    HW232337   0.911   2.640   2.018
10480SOL     OW32338   2.497   0.215   2.550
10480SOL    HW132339   2.526   0.296   2.500
10480SOL    HW232340   2.418   0.174   2.503
10481SOL     OW32341   6.723   0.840   2.034
10481SOL    HW132342   6.630   0.874   2.046
10481SOL    HW232343   6.784   0.884   2.099
10482SOL     OW32344   4.892   3.510   4.313
10482SOL    HW132345   4.867   3.429   4.366
10482SOL    HW232346   4.906   3.587   4.376
10483SOL     OW32347   5.886   6.685   0.157
10483SOL    HW132348   5.834   6.629   0.092
10483SOL    HW232349   5.948   6.745   0.106
10484SOL     OW32350   6.501   1.145   2.591
10484SOL    HW132351   6.521   1.058   2.635
10484SOL    HW232352   6.561   1.216   2.628
10485SOL     OW32353   5.415   3.993   5.528
10485SOL    HW132354   5.427   4.067   5.462
10485SOL    HW232355   5.343   3.931   5.496
10486SOL     OW32356   5.149   3.120   1.845
10486SOL    HW132357   5.162   3.083   1.937
10486SOL    HW232358   5.237   3.153   1.810
10487SOL     OW32359   5.870   6.254   1.712
10487SOL    HW132360   5.867   6.179   1.646
10487SOL    HW232361   5.966   6.276   1.732
10488SOL     OW32362   2.152   2.370   6.978
10488SOL    HW132363   2.210   2.418   6.912
10488SOL    HW232364   2.105   2.436   0.011
10489SOL     OW32365   0.972   5.708   6.213
10489SOL    HW132366   1.044   5.771   6.240
10489SOL    HW232367   0.900   5.758   6.164
10490SOL     OW32368   6.963   0.601   3.731
10490SOL    HW132369   0.015   0.637   3.785
10490SOL    HW232370   6.942   0.665   3.657
10491SOL     OW32371   1.409   4.164   5.677
10491SOL    HW132372   1.381   4.259   5.667
10491SOL    HW232373   1.460   4.154   5.763
10492SOL     OW32374   4.074   3.596   5.687
10492SOL    HW132375   4.009   3.558   5.622
10492SOL    HW232376   4.162   3.609   5.643
10493SOL     OW32377   2.711   0.716   1.605
10493SOL    HW132378   2.793   0.691   1.656
10493SOL    HW232379   2.630   0.683   1.654
10494SOL     OW32380   5.652   2.337   4.566
10494SOL    HW132381   5.568   2.352   4.513
10494SOL    HW232382   5.649   2.246   4.606
10495SOL     OW32383   1.181   6.711   6.893
10495SOL    HW132384   1.118   6.746   6.824
10495SOL    HW232385   1.130   6.662   6.963
10496SOL     OW32386   0.041   0.152   5.620
10496SOL    HW132387   6.980   0.204   5.629
10496SOL    HW232388   0.020   0.056   5.602
10497SOL     OW32389   1.417   1.161   1.411
10497SOL    HW132390   1.439   1.258   1.415
10497SOL    HW232391   1.448   1.116   1.495
10498SOL     OW32392   2.972   5.451   6.227
10498SOL    HW132393   3.023   5.512   6.166
10498SOL    HW232394   2.960   5.495   6.316
10499SOL     OW32395   3.534   5.511   2.999
10499SOL    HW132396   3.477   5.559   2.932
10499SOL    HW232397   3.549   5.417   2.967
10500SOL     OW32398   1.414   2.188   6.268
10500SOL    HW132399   1.410   2.241   6.353
10500SOL    HW232400   1.352   2.230   6.201
10501SOL     OW32401   1.838   3.278   3.204
10501SOL    HW132402   1.852   3.356   3.143
10501SOL    HW232403   1.808   3.310   3.293
10502SOL     OW32404   3.225   5.871   6.469
10502SOL    HW132405   3.199   5.833   6.557
10502SOL    HW232406   3.304   5.931   6.480
10503SOL     OW32407   2.886   3.301   6.295
10503SOL    HW132408   2.963   3.347   6.339
10503SOL    HW232409   2.862   3.219   6.347
10504SOL     OW32410   3.324   3.108   0.636
10504SOL    HW132411   3.260   3.184   0.645
10504SOL    HW232412   3.402   3.136   0.580
10505SOL     OW32413   6.520   6.225   1.512
10505SOL    HW132414   6.594   6.169   1.476
10505SOL    HW232415   6.526   6.230   1.611
10506SOL     OW32416   0.548   4.196   5.296
10506SOL    HW132417   0.454   4.228   5.283
10506SOL    HW232418   0.611   4.254   5.243
10507SOL     OW32419   1.333   0.577   5.754
10507SOL    HW132420   1.303   0.482   5.751
10507SOL    HW232421   1.427   0.582   5.789
10508SOL     OW32422   5.116   4.221   2.803
10508SOL    HW132423   5.036   4.275   2.775
10508SOL    HW232424   5.114   4.207   2.902
10509SOL     OW32425   1.866   0.335   6.177
10509SOL    HW132426   1.898   0.398   6.248
10509SOL    HW232427   1.850   0.387   6.092
10510SOL     OW32428   7.009   6.056   0.199
10510SOL    HW132429   0.011   6.113   0.278
10510SOL    HW232430   7.022   5.960   0.223
10511SOL     OW32431   4.661   3.258   0.453
10511SOL    HW132432   4.603   3.190   0.499
10511SOL    HW232433   4.706   3.215   0.375
10512SOL     OW32434   3.732   6.559   6.300
10512SOL    HW132435   3.781   6.643   6.278
10512SOL    HW232436   3.657   6.580   6.363
10513SOL     OW32437   6.874   2.247   0.151
10513SOL    HW132438   6.919   2.336   0.140
10513SOL    HW232439   6.920   2.179   0.092
10514SOL     OW32440   0.151   4.806   1.371
10514SOL    HW132441   0.169   4.837   1.278
10514SOL    HW232442   0.110   4.714   1.369
10515SOL     OW32443   6.755   2.298   4.173
10515SOL    HW132444   6.679   2.316   4.111
10515SOL    HW232445   6.819   2.375   4.170
10516SOL     OW32446   4.212   0.764   6.267
10516SOL    HW132447   4.147   0.738   6.196
10516SOL    HW232448   4.305   0.744   6.237
10517SOL     OW32449   6.957   2.023   2.777
10517SOL    HW132450   6.928   1.931   2.805
10517SOL    HW232451   0.010   2.052   2.833
10518SOL     OW32452   0.936   6.612   1.331
10518SOL    HW132453   0.880   6.577   1.406
10518SOL    HW232454   0.881   6.673   1.274
10519SOL     OW32455   2.792   3.669   5.228
10519SOL    HW132456   2.763   3.575   5.208
10519SOL    HW232457   2.730   3.710   5.295
10520SOL     OW32458   4.408   2.708   6.761
10520SOL    HW132459   4.387   2.633   6.823
10520SOL    HW232460   4.409   2.675   6.666
10521SOL     OW32461   6.666   5.736   1.436
10521SOL    HW132462   6.664   5.652   1.381
10521SOL    HW232463   6.682   5.713   1.531
10522SOL     OW32464   6.309   0.786   2.270
10522SOL    HW132465   6.227   0.734   2.296
10522SOL    HW232466   6.289   0.884   2.278
10523SOL     OW32467   0.186   5.714   6.499
10523SOL    HW132468   0.240   5.680   6.576
10523SOL    HW232469   0.214   5.808   6.478
10524SOL     OW32470   3.368   0.867   4.133
10524SOL    HW132471   3.343   0.958   4.100
10524SOL    HW232472   3.328   0.850   4.223
10525SOL     OW32473   2.848   6.142   4.624
10525SOL    HW132474   2.782   6.168   4.694
10525SOL    HW232475   2.812   6.063   4.573
10526SOL     OW32476   6.317   0.058   2.323
10526SOL    HW132477   6.413   0.066   2.348
10526SOL    HW232478   6.261   0.108   2.389
10527SOL     OW32479   1.125   2.461   4.728
10527SOL    HW132480   1.038   2.503   4.703
10527SOL    HW232481   1.124   2.364   4.702
10528SOL     OW32482   6.954   4.918   4.540
10528SOL    HW132483   6.973   4.864   4.623
10528SOL    HW232484   0.012   4.969   4.514
10529SOL     OW32485   7.020   6.705   3.925
10529SOL    HW132486   0.011   6.696   3.827
10529SOL    HW232487   7.014   6.802   3.950
10530SOL     OW32488   2.225   1.334   6.190
10530SOL    HW132489   2.261   1.391   6.264
10530SOL    HW232490   2.146   1.283   6.223
10531SOL     OW32491   2.051   2.700   5.282
10531SOL    HW132492   2.063   2.601   5.291
10531SOL    HW232493   1.953   2.722   5.286
10532SOL     OW32494   3.831   2.523   5.604
10532SOL    HW132495   3.810   2.527   5.702
10532SOL    HW232496   3.826   2.615   5.565
10533SOL     OW32497   2.554   0.909   6.136
10533SOL    HW132498   2.501   0.959   6.205
10533SOL    HW232499   2.646   0.946   6.131
10534SOL     OW32500   6.853   5.451   1.319
10534SOL    HW132501   6.871   5.518   1.247
10534SOL    HW232502   6.846   5.360   1.279
10535SOL     OW32503   0.577   0.797   2.234
10535SOL    HW132504   0.487   0.794   2.277
10535SOL    HW232505   0.646   0.766   2.300
10536SOL     OW32506   4.419   0.264   3.266
10536SOL    HW132507   4.342   0.312   3.309
10536SOL    HW232508   4.502   0.318   3.278
10537SOL     OW32509   0.865   4.473   1.617
10537SOL    HW132510   0.919   4.419   1.682
10537SOL    HW232511   0.798   4.414   1.573
10538SOL     OW32512   4.596   3.796   0.439
10538SOL    HW132513   4.610   3.701   0.411
10538SOL    HW232514   4.502   3.823   0.419
10539SOL     OW32515   0.530   3.394   5.989
10539SOL    HW132516   0.503   3.490   5.997
10539SOL    HW232517   0.451   3.335   6.003
10540SOL     OW32518   2.747   0.528   6.787
10540SOL    HW132519   2.705   0.516   6.877
10540SOL    HW232520   2.825   0.590   6.794
10541SOL     OW32521   3.615   2.449   0.232
10541SOL    HW132522   3.599   2.357   0.199
10541SOL    HW232523   3.626   2.511   0.154
10542SOL     OW32524   0.631   2.696   0.367
10542SOL    HW132525   0.555   2.712   0.430
10542SOL    HW232526   0.669   2.784   0.339
10543SOL     OW32527   1.651   0.994   5.571
10543SOL    HW132528   1.562   0.997   5.616
10543SOL    HW232529   1.714   1.055   5.617
10544SOL     OW32530   1.084   2.511   2.005
10544SOL    HW132531   1.053   2.484   1.914
10544SOL    HW232532   1.127   2.433   2.050
10545SOL     OW32533   6.157   0.206   2.493
10545SOL    HW132534   6.146   0.163   2.582
10545SOL    HW232535   6.114   0.296   2.494
10546SOL     OW32536   3.074   0.601   4.024
10546SOL    HW132537   3.073   0.576   3.927
10546SOL    HW232538   3.163   0.580   4.063
10547SOL     OW32539   4.274   1.538   1.027
10547SOL    HW132540   4.364   1.551   0.985
10547SOL    HW232541   4.237   1.626   1.055
10548SOL     OW32542   5.421   4.023   5.205
10548SOL    HW132543   5.513   4.006   5.239
10548SOL    HW232544   5.359   3.953   5.241
10549SOL     OW32545   1.133   0.975   1.870
10549SOL    HW132546   1.184   0.925   1.800
10549SOL    HW232547   1.103   1.063   1.833
10550SOL     OW32548   4.731   7.024   3.980
10550SOL    HW132549   4.770   0.090   3.999
10550SOL    HW232550   4.674   6.996   4.057
10551SOL     OW32551   1.228   2.649   5.927
10551SOL    HW132552   1.182   2.571   5.969
10551SOL    HW232553   1.278   2.619   5.846
10552SOL     OW32554   3.342   2.438   5.339
10552SOL    HW132555   3.316   2.387   5.420
10552SOL    HW232556   3.292   2.403   5.259
10553SOL     OW32557   2.094   5.479   7.016
10553SOL    HW132558   2.058   5.428   6.937
10553SOL    HW232559   2.024   5.485   0.062
10554SOL     OW32560   6.715   4.764   6.406
10554SOL    HW132561   6.739   4.829   6.334
10554SOL    HW232562   6.620   4.735   6.395
10555SOL     OW32563   3.211   1.820   1.259
10555SOL    HW132564   3.258   1.732   1.249
10555SOL    HW232565   3.129   1.820   1.202
10556SOL     OW32566   2.131   3.141   4.710
10556SOL    HW132567   2.152   3.209   4.780
10556SOL    HW232568   2.160   3.051   4.741
10557SOL     OW32569   6.840   2.424   3.899
10557SOL    HW132570   6.797   2.393   3.815
10557SOL    HW232571   6.796   2.509   3.929
10558SOL     OW32572   5.041   6.143   5.208
10558SOL    HW132573   5.102   6.127   5.285
10558SOL    HW232574   5.070   6.226   5.160
10559SOL     OW32575   4.557   2.105   0.618
10559SOL    HW132576   4.503   2.155   0.550
10559SOL    HW232577   4.654   2.110   0.594
10560SOL     OW32578   1.080   3.097   4.110
10560SOL    HW132579   1.154   3.035   4.083
10560SOL    HW232580   1.092   3.125   4.205
10561SOL     OW32581   2.340   4.301   0.071
10561SOL    HW132582   2.281   4.295   7.014
10561SOL    HW232583   2.283   4.312   0.152
10562SOL     OW32584   3.544   1.057   0.318
10562SOL    HW132585   3.617   1.047   0.385
10562SOL    HW232586   3.458   1.023   0.356
10563SOL     OW32587   1.721   1.660   5.099
10563SOL    HW132588   1.821   1.670   5.107
10563SOL    HW232589   1.697   1.563   5.104
10564SOL     OW32590   5.875   1.973   1.777
10564SOL    HW132591   5.928   1.983   1.861
10564SOL    HW232592   5.825   2.058   1.759
10565SOL     OW32593   5.316   1.958   4.752
10565SOL    HW132594   5.412   1.934   4.763
10565SOL    HW232595   5.273   1.969   4.842
10566SOL     OW32596   3.739   4.255   6.073
10566SOL    HW132597   3.796   4.179   6.105
10566SOL    HW232598   3.768   4.339   6.117
10567SOL     OW32599   1.993   4.174   3.992
10567SOL    HW132600   2.088   4.200   3.974
10567SOL    HW232601   1.979   4.079   3.964
10568SOL     OW32602   4.744   1.219   3.646
10568SOL    HW132603   4.664   1.160   3.655
10568SOL    HW232604   4.741   1.265   3.557
10569SOL     OW32605   5.984   2.802   4.327
10569SOL    HW132606   6.010   2.774   4.419
10569SOL    HW232607   6.037   2.883   4.300
10570SOL     OW32608   1.461   5.039   2.242
10570SOL    HW132609   1.548   5.061   2.286
10570SOL    HW232610   1.434   5.115   2.183
10571SOL     OW32611   6.432   6.708   3.625
10571SOL    HW132612   6.509   6.725   3.686
10571SOL    HW232613   6.363   6.655   3.673
10572SOL     OW32614   6.336   3.669   2.200
10572SOL    HW132615   6.319   3.580   2.243
10572SOL    HW232616   6.248   3.711   2.176
10573SOL     OW32617   5.984   5.409   5.360
10573SOL    HW132618   5.984   5.492   5.304
10573SOL    HW232619   5.935   5.337   5.313
10574SOL     OW32620   0.447   1.753   3.096
10574SOL    HW132621   0.459   1.851   3.081
10574SOL    HW232622   0.526   1.716   3.144
10575SOL     OW32623   1.241   7.004   5.366
10575SOL    HW132624   1.316   6.966   5.420
10575SOL    HW232625   1.155   6.990   5.414
10576SOL     OW32626   1.627   5.193   3.752
10576SOL    HW132627   1.607   5.255   3.676
10576SOL    HW232628   1.623   5.098   3.719
10577SOL     OW32629   1.694   2.366   5.837
10577SOL    HW132630   1.769   2.414   5.793
10577SOL    HW232631   1.625   2.431   5.868
10578SOL     OW32632   6.361   0.558   5.853
10578SOL    HW132633   6.294   0.487   5.830
10578SOL    HW232634   6.449   0.533   5.813
10579SOL     OW32635   4.337   1.722   0.396
10579SOL    HW132636   4.327   1.685   0.304
10579SOL    HW232637   4.388   1.808   0.392
10580SOL     OW32638   6.519   6.107   6.799
10580SOL    HW132639   6.591   6.169   6.769
10580SOL    HW232640   6.559   6.021   6.831
10581SOL     OW32641   5.327   0.998   3.710
10581SOL    HW132642   5.346   0.916   3.656
10581SOL    HW232643   5.234   0.994   3.746
10582SOL     OW32644   3.585   4.813   6.553
10582SOL    HW132645   3.572   4.851   6.461
10582SOL    HW232646   3.507   4.837   6.610
10583SOL     OW32647   4.269   1.454   0.201
10583SOL    HW132648   4.284   1.375   0.141
10583SOL    HW232649   4.192   1.509   0.166
10584SOL     OW32650   5.675   0.217   1.769
10584SOL    HW132651   5.705   0.312   1.759
10584SOL    HW232652   5.751   0.162   1.805
10585SOL     OW32653   1.427   3.286   6.583
10585SOL    HW132654   1.483   3.367   6.601
10585SOL    HW232655   1.481   3.218   6.534
10586SOL     OW32656   3.595   0.511   6.575
10586SOL    HW132657   3.518   0.479   6.519
10586SOL    HW232658   3.681   0.487   6.530
10587SOL     OW32659   6.015   4.277   1.082
10587SOL    HW132660   6.072   4.344   1.033
10587SOL    HW232661   6.002   4.197   1.024
10588SOL     OW32662   0.220   5.445   2.964
10588SOL    HW132663   0.229   5.457   3.063
10588SOL    HW232664   0.145   5.502   2.930
10589SOL     OW32665   6.039   1.998   4.106
10589SOL    HW132666   6.099   2.044   4.171
10589SOL    HW232667   6.043   1.899   4.121
10590SOL     OW32668   1.335   0.881   3.843
10590SOL    HW132669   1.304   0.792   3.877
10590SOL    HW232670   1.423   0.870   3.796
10591SOL     OW32671   1.241   2.879   0.779
10591SOL    HW132672   1.178   2.848   0.707
10591SOL    HW232673   1.276   2.800   0.829
10592SOL     OW32674   6.604   1.574   6.883
10592SOL    HW132675   6.641   1.555   6.974
10592SOL    HW232676   6.630   1.667   6.855
10593SOL     OW32677   1.930   4.596   1.064
10593SOL    HW132678   1.863   4.545   1.117
10593SOL    HW232679   1.899   4.690   1.052
10594SOL     OW32680   0.280   1.913   4.167
10594SOL    HW132681   0.260   1.935   4.071
10594SOL    HW232682   0.194   1.912   4.219
10595SOL     OW32683   3.804   6.153   6.343
10595SOL    HW132684   3.863   6.225   6.306
10595SOL    HW232685   3.836   6.064   6.310
10596SOL     OW32686   4.004   0.731   2.016
10596SOL    HW132687   4.100   0.759   2.013
10596SOL    HW232688   3.951   0.800   2.066
10597SOL     OW32689   1.913   0.320   5.111
10597SOL    HW132690   1.930   0.295   5.207
10597SOL    HW232691   1.818   0.347   5.100
10598SOL     OW32692   1.689   2.511   6.907
10598SOL    HW132693   1.779   2.475   6.881
10598SOL    HW232694   1.672   2.490   7.003
10599SOL     OW32695   5.570   1.566   0.058
10599SOL    HW132696   5.550   1.646   0.114
10599SOL    HW232697   5.583   1.486   0.117
10600SOL     OW32698   2.332   3.078   5.996
10600SOL    HW132699   2.235   3.058   5.983
10600SOL    HW232700   2.346   3.177   6.001
10601SOL     OW32701   3.290   6.207   6.136
10601SOL    HW132702   3.349   6.211   6.217
10601SOL    HW232703   3.346   6.187   6.056
10602SOL     OW32704   4.689   1.027   2.175
10602SOL    HW132705   4.617   1.096   2.184
10602SOL    HW232706   4.689   0.969   2.256
10603SOL     OW32707   1.608   5.356   4.410
10603SOL    HW132708   1.702   5.381   4.432
10603SOL    HW232709   1.558   5.335   4.494
10604SOL     OW32710   6.944   4.449   4.879
10604SOL    HW132711   0.014   4.468   4.908
10604SOL    HW232712   6.880   4.501   4.935
10605SOL     OW32713   1.679   4.779   6.556
10605SOL    HW132714   1.728   4.713   6.612
10605SOL    HW232715   1.697   4.871   6.590
10606SOL     OW32716   0.764   0.397   1.767
10606SOL    HW132717   0.794   0.319   1.821
10606SOL    HW232718   0.748   0.475   1.827
10607SOL     OW32719   5.558   4.882   6.891
10607SOL    HW132720   5.500   4.891   6.810
10607SOL    HW232721   5.535   4.952   6.957
10608SOL     OW32722   6.183   1.586   3.637
10608SOL    HW132723   6.243   1.520   3.681
10608SOL    HW232724   6.238   1.663   3.602
10609SOL     OW32725   3.912   6.613   1.284
10609SOL    HW132726   3.869   6.625   1.194
10609SOL    HW232727   4.011   6.629   1.276
10610SOL     OW32728   1.603   2.647   5.822
10610SOL    HW132729   1.541   2.725   5.830
10610SOL    HW232730   1.686   2.676   5.775
10611SOL     OW32731   5.610   2.808   5.945
10611SOL    HW132732   5.586   2.718   5.982
10611SOL    HW232733   5.528   2.866   5.942
10612SOL     OW32734   2.056   0.089   0.281
10612SOL    HW132735   2.051   0.013   0.216
10612SOL    HW232736   2.152   0.105   0.305
10613SOL     OW32737   0.291   6.276   5.785
10613SOL    HW132738   0.314   6.359   5.734
10613SOL    HW232739   0.308   6.196   5.727
10614SOL     OW32740   6.902   0.918   4.217
10614SOL    HW132741   6.861   0.965   4.295
10614SOL    HW232742   6.976   0.859   4.248
10615SOL     OW32743   5.407   5.486   5.151
10615SOL    HW132744   5.491   5.483   5.205
10615SOL    HW232745   5.358   5.399   5.159
10616SOL     OW32746   2.844   5.323   0.334
10616SOL    HW132747   2.753   5.281   0.331
10616SOL    HW232748   2.856   5.382   0.255
10617SOL     OW32749   1.259   2.318   0.045
10617SOL    HW132750   1.240   2.222   0.066
10617SOL    HW232751   1.182   2.356   7.016
10618SOL     OW32752   6.023   3.542   0.654
10618SOL    HW132753   6.099   3.505   0.600
10618SOL    HW232754   5.981   3.468   0.707
10619SOL     OW32755   1.362   4.120   3.771
10619SOL    HW132756   1.310   4.164   3.844
10619SOL    HW232757   1.299   4.079   3.706
10620SOL     OW32758   1.542   5.729   4.529
10620SOL    HW132759   1.512   5.818   4.493
10620SOL    HW232760   1.517   5.657   4.465
10621SOL     OW32761   2.423   5.721   1.248
10621SOL    HW132762   2.512   5.690   1.214
10621SOL    HW232763   2.436   5.790   1.319
10622SOL     OW32764   3.811   0.781   1.048
10622SOL    HW132765   3.909   0.801   1.049
10622SOL    HW232766   3.766   0.829   1.123
10623SOL     OW32767   6.439   1.761   3.793
10623SOL    HW132768   6.396   1.775   3.883
10623SOL    HW232769   6.386   1.810   3.723
10624SOL     OW32770   2.051   0.627   4.084
10624SOL    HW132771   1.989   0.704   4.099
10624SOL    HW232772   2.074   0.622   3.987
10625SOL     OW32773   0.212   3.343   0.103
10625SOL    HW132774   0.169   3.383   0.022
10625SOL    HW232775   0.182   3.392   0.185
10626SOL     OW32776   0.525   2.488   1.414
10626SOL    HW132777   0.591   2.448   1.477
10626SOL    HW232778   0.502   2.420   1.343
10627SOL     OW32779   6.052   6.174   3.639
10627SOL    HW132780   6.056   6.232   3.721
10627SOL    HW232781   6.115   6.098   3.650
10628SOL     OW32782   5.784   6.138   6.068
10628SOL    HW132783   5.755   6.091   6.151
10628SOL    HW232784   5.706   6.148   6.006
10629SOL     OW32785   2.797   5.405   5.974
10629SOL    HW132786   2.703   5.439   5.962
10629SOL    HW232787   2.834   5.437   6.061
10630SOL     OW32788   6.860   1.466   3.328
10630SOL    HW132789   6.869   1.463   3.428
10630SOL    HW232790   6.867   1.561   3.297
10631SOL     OW32791   0.788   6.620   4.122
10631SOL    HW132792   0.870   6.573   4.091
10631SOL    HW232793   0.707   6.564   4.102
10632SOL     OW32794   0.310   2.371   5.415
10632SOL    HW132795   0.402   2.393   5.447
10632SOL    HW232796   0.278   2.441   5.351
10633SOL     OW32797   1.088   4.982   1.380
10633SOL    HW132798   1.021   4.955   1.449
10633SOL    HW232799   1.097   5.082   1.379
10634SOL     OW32800   3.055   6.421   1.728
10634SOL    HW132801   3.151   6.447   1.718
10634SOL    HW232802   3.002   6.461   1.654
10635SOL     OW32803   2.647   1.569   1.193
10635SOL    HW132804   2.662   1.550   1.290
10635SOL    HW232805   2.606   1.488   1.150
10636SOL     OW32806   0.467   2.701   1.677
10636SOL    HW132807   0.546   2.743   1.723
10636SOL    HW232808   0.474   2.717   1.579
10637SOL     OW32809   3.431   4.450   5.304
10637SOL    HW132810   3.509   4.507   5.280
10637SOL    HW232811   3.452   4.399   5.387
10638SOL     OW32812   0.194   0.092   5.351
10638SOL    HW132813   0.183   0.120   5.447
10638SOL    HW232814   0.121   0.132   5.296
10639SOL     OW32815   2.349   0.429   4.427
10639SOL    HW132816   2.375   0.362   4.358
10639SOL    HW232817   2.417   0.503   4.428
10640SOL     OW32818   4.001   0.166   6.990
10640SOL    HW132819   3.940   0.087   6.996
10640SOL    HW232820   3.975   0.223   6.911
10641SOL     OW32821   5.484   1.640   6.836
10641SOL    HW132822   5.504   1.581   6.758
10641SOL    HW232823   5.496   1.587   6.921
10642SOL     OW32824   6.922   2.808   1.489
10642SOL    HW132825   7.007   2.764   1.518
10642SOL    HW232826   6.869   2.745   1.432
10643SOL     OW32827   3.075   3.051   5.972
10643SOL    HW132828   3.003   3.092   6.027
10643SOL    HW232829   3.119   3.123   5.917
10644SOL     OW32830   4.388   1.493   4.862
10644SOL    HW132831   4.375   1.550   4.943
10644SOL    HW232832   4.417   1.550   4.785
10645SOL     OW32833   2.726   1.147   5.210
10645SOL    HW132834   2.727   1.140   5.110
10645SOL    HW232835   2.646   1.198   5.239
10646SOL     OW32836   0.610   3.785   6.838
10646SOL    HW132837   0.632   3.861   6.899
10646SOL    HW232838   0.626   3.698   6.885
10647SOL     OW32839   0.271   5.159   1.241
10647SOL    HW132840   0.227   5.213   1.314
10647SOL    HW232841   0.292   5.219   1.164
10648SOL     OW32842   4.675   3.192   6.473
10648SOL    HW132843   4.765   3.232   6.491
10648SOL    HW232844   4.610   3.224   6.541
10649SOL     OW32845   0.366   4.755   5.917
10649SOL    HW132846   0.300   4.707   5.975
10649SOL    HW232847   0.390   4.843   5.959
10650SOL     OW32848   3.314   6.599   3.623
10650SOL    HW132849   3.311   6.579   3.721
10650SOL    HW232850   3.391   6.659   3.604
10651SOL     OW32851   4.164   6.528   6.152
10651SOL    HW132852   4.260   6.506   6.169
10651SOL    HW232853   4.148   6.625   6.168
10652SOL     OW32854   3.362   0.958   6.600
10652SOL    HW132855   3.353   0.879   6.540
10652SOL    HW232856   3.451   0.956   6.645
10653SOL     OW32857   5.318   3.629   4.079
10653SOL    HW132858   5.257   3.557   4.112
10653SOL    HW232859   5.402   3.629   4.133
10654SOL     OW32860   4.164   0.407   0.484
10654SOL    HW132861   4.103   0.362   0.549
10654SOL    HW232862   4.156   0.506   0.495
10655SOL     OW32863   2.760   5.610   1.792
10655SOL    HW132864   2.737   5.568   1.879
10655SOL    HW232865   2.858   5.626   1.787
10656SOL     OW32866   7.022   3.058   6.765
10656SOL    HW132867   0.064   3.018   6.702
10656SOL    HW232868   7.018   3.003   6.849
10657SOL     OW32869   6.161   0.739   1.305
10657SOL    HW132870   6.063   0.747   1.323
10657SOL    HW232871   6.196   0.824   1.266
10658SOL     OW32872   0.164   5.562   5.414
10658SOL    HW132873   0.089   5.495   5.411
10658SOL    HW232874   0.205   5.568   5.323
10659SOL     OW32875   5.682   1.001   0.604
10659SOL    HW132876   5.599   0.950   0.625
10659SOL    HW232877   5.717   0.972   0.514
10660SOL     OW32878   4.822   4.893   5.688
10660SOL    HW132879   4.724   4.890   5.708
10660SOL    HW232880   4.872   4.917   5.771
10661SOL     OW32881   0.297   0.128   2.621
10661SOL    HW132882   0.350   0.170   2.547
10661SOL    HW232883   0.237   0.197   2.662
10662SOL     OW32884   5.844   1.443   0.708
10662SOL    HW132885   5.899   1.525   0.693
10662SOL    HW232886   5.880   1.368   0.652
10663SOL     OW32887   6.894   0.643   0.491
10663SOL    HW132888   6.981   0.595   0.502
10663SOL    HW232889   6.893   0.723   0.551
10664SOL     OW32890   2.070   5.032   6.705
10664SOL    HW132891   2.114   4.994   6.624
10664SOL    HW232892   1.972   5.042   6.688
10665SOL     OW32893   6.549   1.154   0.301
10665SOL    HW132894   6.464   1.103   0.290
10665SOL    HW232895   6.586   1.140   0.393
10666SOL     OW32896   1.402   6.716   0.170
10666SOL    HW132897   1.489   6.677   0.201
10666SOL    HW232898   1.416   6.811   0.143
10667SOL     OW32899   3.498   1.643   5.003
10667SOL    HW132900   3.548   1.709   4.947
10667SOL    HW232901   3.531   1.649   5.097
10668SOL     OW32902   2.160   0.984   5.789
10668SOL    HW132903   2.161   1.083   5.775
10668SOL    HW232904   2.143   0.938   5.702
10669SOL     OW32905   0.872   6.631   6.631
10669SOL    HW132906   0.893   6.728   6.623
10669SOL    HW232907   0.789   6.619   6.686
10670SOL     OW32908   6.775   4.545   5.770
10670SOL    HW132909   6.686   4.562   5.727
10670SOL    HW232910   6.824   4.477   5.716
10671SOL     OW32911   1.944   1.527   3.533
10671SOL    HW132912   1.896   1.582   3.465
10671SOL    HW232913   2.020   1.479   3.490
10672SOL     OW32914   6.740   3.077   0.346
10672SOL    HW132915   6.767   3.139   0.420
10672SOL    HW232916   6.662   3.022   0.375
10673SOL     OW32917   2.790   3.391   5.199
10673SOL    HW132918   2.802   3.332   5.279
10673SOL    HW232919   2.828   3.345   5.118
10674SOL     OW32920   3.638   2.060   2.254
10674SOL    HW132921   3.558   2.037   2.199
10674SOL    HW232922   3.715   2.082   2.195
10675SOL     OW32923   0.700   0.449   6.172
10675SOL    HW132924   0.744   0.532   6.205
10675SOL    HW232925   0.631   0.419   6.238
10676SOL     OW32926   6.897   0.614   6.705
10676SOL    HW132927   6.966   0.543   6.687
10676SOL    HW232928   6.813   0.571   6.737
10677SOL     OW32929   0.041   0.746   0.218
10677SOL    HW132930   0.034   0.785   0.310
10677SOL    HW232931   0.035   0.646   0.224
10678SOL     OW32932   2.575   6.609   3.374
10678SOL    HW132933   2.610   6.650   3.290
10678SOL    HW232934   2.580   6.676   3.448
10679SOL     OW32935   5.720   4.948   4.231
10679SOL    HW132936   5.636   4.957   4.178
10679SOL    HW232937   5.794   4.918   4.171
10680SOL     OW32938   1.518   2.237   3.536
10680SOL    HW132939   1.442   2.266   3.595
10680SOL    HW232940   1.567   2.162   3.580
10681SOL     OW32941   0.324   1.066   5.830
10681SOL    HW132942   0.349   0.969   5.842
10681SOL    HW232943   0.324   1.089   5.733
10682SOL     OW32944   6.589   1.877   3.051
10682SOL    HW132945   6.589   1.933   2.968
10682SOL    HW232946   6.676   1.888   3.099
10683SOL     OW32947   1.958   1.586   4.523
10683SOL    HW132948   1.969   1.677   4.564
10683SOL    HW232949   1.915   1.595   4.433
10684SOL     OW32950   5.590   5.885   0.673
10684SOL    HW132951   5.583   5.907   0.770
10684SOL    HW232952   5.685   5.867   0.649
10685SOL     OW32953   0.176   2.606   2.065
10685SOL    HW132954   0.082   2.636   2.082
10685SOL    HW232955   0.239   2.683   2.077
10686SOL     OW32956   3.640   4.714   0.452
10686SOL    HW132957   3.550   4.728   0.411
10686SOL    HW232958   3.650   4.774   0.532
10687SOL     OW32959   0.773   5.133   1.912
10687SOL    HW132960   0.839   5.200   1.945
10687SOL    HW232961   0.738   5.080   1.989
10688SOL     OW32962   6.485   5.509   1.993
10688SOL    HW132963   6.575   5.469   1.980
10688SOL    HW232964   6.462   5.509   2.091
10689SOL     OW32965   0.310   1.012   1.860
10689SOL    HW132966   0.214   1.041   1.859
10689SOL    HW232967   0.314   0.913   1.872
10690SOL     OW32968   4.447   5.682   1.745
10690SOL    HW132969   4.534   5.644   1.776
10690SOL    HW232970   4.383   5.608   1.727
10691SOL     OW32971   6.582   1.358   1.500
10691SOL    HW132972   6.651   1.295   1.535
10691SOL    HW232973   6.560   1.426   1.569
10692SOL     OW32974   4.741   6.066   4.094
10692SOL    HW132975   4.679   6.118   4.034
10692SOL    HW232976   4.818   6.123   4.120
10693SOL     OW32977   6.114   1.997   1.933
10693SOL    HW132978   6.049   2.004   2.009
10693SOL    HW232979   6.185   2.066   1.944
10694SOL     OW32980   3.681   6.181   0.718
10694SOL    HW132981   3.710   6.123   0.794
10694SOL    HW232982   3.582   6.169   0.704
10695SOL     OW32983   6.109   3.246   4.435
10695SOL    HW132984   6.169   3.324   4.417
10695SOL    HW232985   6.102   3.231   4.533
10696SOL     OW32986   6.188   6.830   0.940
10696SOL    HW132987   6.182   6.770   1.020
10696SOL    HW232988   6.205   6.775   0.858
10697SOL     OW32989   2.399   6.110   3.425
10697SOL    HW132990   2.425   6.088   3.331
10697SOL    HW232991   2.476   6.092   3.486
10698SOL     OW32992   3.086   0.543   3.086
10698SOL    HW132993   3.008   0.604   3.100
10698SOL    HW232994   3.170   0.591   3.112
10699SOL     OW32995   1.721   2.328   2.435
10699SOL    HW132996   1.691   2.256   2.498
10699SOL    HW232997   1.696   2.417   2.473
10700SOL     OW32998   6.545   0.909   1.483
10700SOL    HW132999   6.460   0.941   1.525
10700SOL    HW233000   6.524   0.846   1.408
10701SOL     OW33001   3.394   6.358   0.772
10701SOL    HW133002   3.409   6.378   0.675
10701SOL    HW233003   3.444   6.424   0.827
10702SOL     OW33004   6.212   2.895   1.299
10702SOL    HW133005   6.262   2.810   1.282
10702SOL    HW233006   6.252   2.969   1.247
10703SOL     OW33007   4.027   3.191   3.798
10703SOL    HW133008   4.073   3.237   3.722
10703SOL    HW233009   3.928   3.199   3.787
10704SOL     OW33010   5.555   6.674   2.033
10704SOL    HW133011   5.603   6.648   2.117
10704SOL    HW233012   5.619   6.678   1.957
10705SOL     OW33013   0.626   2.492   6.512
10705SOL    HW133014   0.649   2.581   6.550
10705SOL    HW233015   0.568   2.442   6.577
10706SOL     OW33016   3.836   0.951   2.141
10706SOL    HW133017   3.929   0.988   2.144
10706SOL    HW233018   3.811   0.915   2.230
10707SOL     OW33019   6.435   6.784   6.050
10707SOL    HW133020   6.500   6.831   5.991
10707SOL    HW233021   6.478   6.702   6.089
10708SOL     OW33022   4.061   0.938   1.428
10708SOL    HW133023   3.964   0.916   1.414
10708SOL    HW233024   4.086   1.018   1.374
10709SOL     OW33025   0.656   6.615   6.133
10709SOL    HW133026   0.626   6.682   6.067
10709SOL    HW233027   0.756   6.613   6.137
10710SOL     OW33028   6.258   5.876   3.061
10710SOL    HW133029   6.246   5.886   3.160
10710SOL    HW233030   6.352   5.851   3.041
10711SOL     OW33031   1.948   5.843   5.267
10711SOL    HW133032   1.954   5.940   5.293
10711SOL    HW233033   2.039   5.808   5.245
10712SOL     OW33034   4.458   1.096   5.231
10712SOL    HW133035   4.542   1.132   5.272
10712SOL    HW233036   4.379   1.145   5.270
10713SOL     OW33037   1.464   6.214   1.404
10713SOL    HW133038   1.458   6.154   1.484
10713SOL    HW233039   1.546   6.190   1.351
10714SOL     OW33040   7.004   5.381   5.288
10714SOL    HW133041   6.996   5.337   5.199
10714SOL    HW233042   6.914   5.388   5.331
10715SOL     OW33043   6.026   1.754   3.800
10715SOL    HW133044   6.096   1.693   3.763
10715SOL    HW233045   6.046   1.772   3.896
10716SOL     OW33046   6.484   0.711   3.064
10716SOL    HW133047   6.469   0.713   3.163
10716SOL    HW233048   6.545   0.635   3.040
10717SOL     OW33049   6.648   6.553   1.720
10717SOL    HW133050   6.621   6.493   1.795
10717SOL    HW233051   6.568   6.573   1.663
10718SOL     OW33052   0.803   4.054   5.990
10718SOL    HW133053   0.757   4.083   5.906
10718SOL    HW233054   0.883   3.999   5.967
10719SOL     OW33055   4.092   0.876   2.590
10719SOL    HW133056   4.063   0.868   2.495
10719SOL    HW233057   4.040   0.949   2.635
10720SOL     OW33058   0.713   3.183   0.170
10720SOL    HW133059   0.658   3.224   0.097
10720SOL    HW233060   0.785   3.247   0.198
10721SOL     OW33061   4.927   2.910   3.891
10721SOL    HW133062   4.972   2.848   3.956
10721SOL    HW233063   4.843   2.868   3.858
10722SOL     OW33064   0.143   4.384   0.741
10722SOL    HW133065   0.216   4.370   0.808
10722SOL    HW233066   0.055   4.388   0.787
10723SOL     OW33067   6.222   4.613   6.878
10723SOL    HW133068   6.263   4.622   6.969
10723SOL    HW233069   6.124   4.592   6.888
10724SOL     OW33070   3.987   6.864   5.339
10724SOL    HW133071   4.055   6.932   5.368
10724SOL    HW233072   3.921   6.850   5.413
10725SOL     OW33073   6.682   0.124   4.757
10725SOL    HW133074   6.661   0.038   4.711
10725SOL    HW233075   6.609   0.190   4.741
10726SOL     OW33076   5.374   1.073   5.241
10726SOL    HW133077   5.383   1.106   5.335
10726SOL    HW233078   5.454   1.103   5.188
10727SOL     OW33079   2.172   6.376   6.762
10727SOL    HW133080   2.134   6.398   6.672
10727SOL    HW233081   2.262   6.334   6.752
10728SOL     OW33082   6.027   6.150   3.331
10728SOL    HW133083   6.092   6.224   3.351
10728SOL    HW233084   5.956   6.149   3.402
10729SOL     OW33085   5.661   3.331   4.188
10729SOL    HW133086   5.715   3.315   4.271
10729SOL    HW233087   5.585   3.266   4.186
10730SOL     OW33088   1.871   5.162   3.267
10730SOL    HW133089   1.873   5.250   3.315
10730SOL    HW233090   1.905   5.091   3.328
10731SOL     OW33091   4.679   6.392   6.862
10731SOL    HW133092   4.721   6.405   6.952
10731SOL    HW233093   4.641   6.299   6.857
10732SOL     OW33094   6.316   6.198   2.972
10732SOL    HW133095   6.293   6.101   2.980
10732SOL    HW233096   6.236   6.253   2.998
10733SOL     OW33097   0.442   1.044   6.368
10733SOL    HW133098   0.421   1.006   6.458
10733SOL    HW233099   0.386   0.998   6.299
10734SOL     OW33100   1.718   0.297   4.620
10734SOL    HW133101   1.816   0.318   4.621
10734SOL    HW233102   1.704   0.203   4.587
10735SOL     OW33103   6.895   6.620   2.277
10735SOL    HW133104   6.914   6.541   2.335
10735SOL    HW233105   6.862   6.589   2.188
10736SOL     OW33106   5.505   6.461   3.717
10736SOL    HW133107   5.602   6.446   3.696
10736SOL    HW233108   5.498   6.520   3.798
10737SOL     OW33109   6.296   1.053   2.340
10737SOL    HW133110   6.253   1.102   2.417
10737SOL    HW233111   6.244   1.071   2.257
10738SOL     OW33112   3.625   0.391   1.307
10738SOL    HW133113   3.542   0.351   1.268
10738SOL    HW233114   3.607   0.419   1.401
10739SOL     OW33115   5.669   2.871   3.787
10739SOL    HW133116   5.583   2.841   3.829
10739SOL    HW233117   5.700   2.954   3.832
10740SOL     OW33118   2.926   0.199   6.028
10740SOL    HW133119   2.999   0.263   6.053
10740SOL    HW233120   2.907   0.139   6.105
10741SOL     OW33121   1.952   1.935   3.608
10741SOL    HW133122   1.881   1.896   3.549
10741SOL    HW233123   1.977   1.868   3.679
10742SOL     OW33124   6.380   6.473   2.874
10742SOL    HW133125   6.431   6.500   2.792
10742SOL    HW233126   6.425   6.395   2.917
10743SOL     OW33127   2.916   1.978   5.414
10743SOL    HW133128   2.983   2.024   5.356
10743SOL    HW233129   2.861   1.916   5.358
10744SOL     OW33130   1.930   1.184   0.479
10744SOL    HW133131   1.845   1.141   0.508
10744SOL    HW233132   1.998   1.177   0.552
10745SOL     OW33133   1.514   4.320   2.158
10745SOL    HW133134   1.534   4.276   2.070
10745SOL    HW233135   1.567   4.404   2.166
10746SOL     OW33136   1.901   6.332   6.849
10746SOL    HW133137   1.877   6.258   6.787
10746SOL    HW233138   1.993   6.365   6.828
10747SOL     OW33139   6.437   1.300   4.582
10747SOL    HW133140   6.518   1.288   4.641
10747SOL    HW233141   6.391   1.386   4.606
10748SOL     OW33142   3.230   6.444   1.310
10748SOL    HW133143   3.228   6.498   1.225
10748SOL    HW233144   3.192   6.353   1.292
10749SOL     OW33145   5.863   4.410   1.732
10749SOL    HW133146   5.813   4.326   1.708
10749SOL    HW233147   5.961   4.391   1.731
10750SOL     OW33148   4.053   2.160   4.188
10750SOL    HW133149   4.089   2.163   4.282
10750SOL    HW233150   4.105   2.223   4.131
10751SOL     OW33151   0.483   6.125   4.407
10751SOL    HW133152   0.571   6.135   4.452
10751SOL    HW233153   0.452   6.030   4.415
10752SOL     OW33154   6.663   6.563   0.405
10752SOL    HW133155   6.686   6.486   0.465
10752SOL    HW233156   6.566   6.561   0.383
10753SOL     OW33157   5.196   0.311   3.985
10753SOL    HW133158   5.235   0.290   4.075
10753SOL    HW233159   5.155   0.402   3.987
10754SOL     OW33160   0.660   4.071   2.285
10754SOL    HW133161   0.704   3.981   2.283
10754SOL    HW233162   0.662   4.107   2.378
10755SOL     OW33163   0.314   2.582   1.046
10755SOL    HW133164   0.235   2.637   1.073
10755SOL    HW233165   0.284   2.505   0.990
10756SOL     OW33166   1.273   0.511   0.615
10756SOL    HW133167   1.311   0.529   0.525
10756SOL    HW233168   1.173   0.508   0.609
10757SOL     OW33169   0.536   3.548   1.660
10757SOL    HW133170   0.450   3.580   1.621
10757SOL    HW233171   0.559   3.603   1.741
10758SOL     OW33172   0.739   0.357   0.407
10758SOL    HW133173   0.683   0.426   0.361
10758SOL    HW233174   0.692   0.269   0.404
10759SOL     OW33175   2.851   2.731   5.822
10759SOL    HW133176   2.936   2.763   5.781
10759SOL    HW233177   2.779   2.798   5.806
10760SOL     OW33178   1.213   4.847   6.572
10760SOL    HW133179   1.207   4.943   6.547
10760SOL    HW233180   1.183   4.790   6.496
10761SOL     OW33181   1.131   1.745   5.843
10761SOL    HW133182   1.052   1.688   5.820
10761SOL    HW233183   1.214   1.702   5.807
10762SOL     OW33184   3.112   5.780   6.250
10762SOL    HW133185   3.016   5.756   6.261
10762SOL    HW233186   3.150   5.805   6.339
10763SOL     OW33187   5.203   0.508   3.619
10763SOL    HW133188   5.107   0.510   3.591
10763SOL    HW233189   5.260   0.476   3.542
10764SOL     OW33190   4.706   6.726   4.567
10764SOL    HW133191   4.696   6.642   4.620
10764SOL    HW233192   4.750   6.706   4.480
10765SOL     OW33193   0.256   2.028   2.127
10765SOL    HW133194   0.195   1.976   2.066
10765SOL    HW233195   0.207   2.107   2.163
10766SOL     OW33196   2.257   4.911   0.218
10766SOL    HW133197   2.326   4.878   0.154
10766SOL    HW233198   2.250   5.011   0.211
10767SOL     OW33199   1.309   5.087   6.788
10767SOL    HW133200   1.401   5.094   6.826
10767SOL    HW233201   1.302   5.005   6.732
10768SOL     OW33202   5.248   6.339   6.603
10768SOL    HW133203   5.333   6.381   6.571
10768SOL    HW233204   5.263   6.296   6.692
10769SOL     OW33205   2.894   3.316   4.179
10769SOL    HW133206   2.951   3.236   4.194
10769SOL    HW233207   2.864   3.320   4.084
10770SOL     OW33208   5.607   0.020   3.207
10770SOL    HW133209   5.674   7.014   3.275
10770SOL    HW233210   5.620   6.993   3.122
10771SOL     OW33211   4.651   5.797   5.677
10771SOL    HW133212   4.614   5.708   5.702
10771SOL    HW233213   4.579   5.866   5.681
10772SOL     OW33214   6.082   5.349   2.520
10772SOL    HW133215   6.082   5.348   2.420
10772SOL    HW233216   6.059   5.258   2.554
10773SOL     OW33217   6.958   3.390   0.927
10773SOL    HW133218   6.891   3.381   0.853
10773SOL    HW233219   6.950   3.312   0.989
10774SOL     OW33220   0.608   4.014   0.462
10774SOL    HW133221   0.621   3.915   0.469
10774SOL    HW233222   0.517   4.038   0.493
10775SOL     OW33223   1.388   4.021   0.584
10775SOL    HW133224   1.398   4.117   0.556
10775SOL    HW233225   1.468   3.993   0.636
10776SOL     OW33226   0.669   2.509   3.971
10776SOL    HW133227   0.609   2.478   3.897
10776SOL    HW233228   0.754   2.457   3.969
10777SOL     OW33229   2.230   0.820   1.733
10777SOL    HW133230   2.167   0.800   1.808
10777SOL    HW233231   2.178   0.845   1.651
10778SOL     OW33232   5.092   0.435   2.575
10778SOL    HW133233   5.116   0.483   2.658
10778SOL    HW233234   5.013   0.479   2.532
10779SOL     OW33235   5.584   3.609   5.471
10779SOL    HW133236   5.488   3.585   5.459
10779SOL    HW233237   5.640   3.558   5.406
10780SOL     OW33238   1.857   5.359   4.497
10780SOL    HW133239   1.862   5.280   4.559
10780SOL    HW233240   1.871   5.443   4.549
10781SOL     OW33241   5.472   2.177   4.879
10781SOL    HW133242   5.384   2.134   4.857
10781SOL    HW233243   5.545   2.109   4.869
10782SOL     OW33244   1.027   1.388   5.526
10782SOL    HW133245   1.027   1.289   5.512
10782SOL    HW233246   0.946   1.428   5.485
10783SOL     OW33247   0.837   2.452   3.633
10783SOL    HW133248   0.913   2.465   3.697
10783SOL    HW233249   0.750   2.456   3.682
10784SOL     OW33250   3.741   5.787   3.007
10784SOL    HW133251   3.711   5.814   3.098
10784SOL    HW233252   3.669   5.733   2.963
10785SOL     OW33253   0.970   5.044   1.753
10785SOL    HW133254   0.891   5.065   1.810
10785SOL    HW233255   0.939   5.001   1.668
10786SOL     OW33256   4.494   1.662   2.871
10786SOL    HW133257   4.459   1.675   2.964
10786SOL    HW233258   4.433   1.600   2.821
10787SOL     OW33259   4.405   0.774   3.498
10787SOL    HW133260   4.454   0.772   3.585
10787SOL    HW233261   4.327   0.836   3.505
10788SOL     OW33262   1.881   3.991   0.088
10788SOL    HW133263   1.816   4.027   0.021
10788SOL    HW233264   1.832   3.946   0.162
10789SOL     OW33265   6.486   1.457   1.748
10789SOL    HW133266   6.560   1.487   1.808
10789SOL    HW233267   6.473   1.359   1.758
10790SOL     OW33268   0.515   1.669   6.010
10790SOL    HW133269   0.580   1.599   5.983
10790SOL    HW233270   0.488   1.722   5.930
10791SOL     OW33271   1.625   2.165   3.260
10791SOL    HW133272   1.552   2.115   3.308
10791SOL    HW233273   1.714   2.133   3.292
10792SOL     OW33274   3.900   1.547   2.727
10792SOL    HW133275   3.836   1.471   2.720
10792SOL    HW233276   3.963   1.545   2.650
10793SOL     OW33277   4.158   1.805   4.610
10793SOL    HW133278   4.148   1.806   4.710
10793SOL    HW233279   4.069   1.819   4.568
10794SOL     OW33280   5.339   2.080   0.785
10794SOL    HW133281   5.431   2.045   0.803
10794SOL    HW233282   5.343   2.144   0.707
10795SOL     OW33283   6.794   3.246   3.531
10795SOL    HW133284   6.811   3.182   3.607
10795SOL    HW233285   6.761   3.195   3.451
10796SOL     OW33286   0.441   0.137   6.049
10796SOL    HW133287   0.397   0.078   5.981
10796SOL    HW233288   0.375   0.204   6.082
10797SOL     OW33289   4.364   4.579   0.066
10797SOL    HW133290   4.270   4.561   0.096
10797SOL    HW233291   4.409   4.492   0.044
10798SOL     OW33292   1.695   6.586   6.492
10798SOL    HW133293   1.666   6.682   6.494
10798SOL    HW233294   1.684   6.551   6.399
10799SOL     OW33295   2.797   1.409   2.777
10799SOL    HW133296   2.869   1.477   2.762
10799SOL    HW233297   2.820   1.354   2.858
10800SOL     OW33298   2.448   7.023   5.535
10800SOL    HW133299   2.517   0.055   5.579
10800SOL    HW233300   2.377   0.057   5.496
10801SOL     OW33301   3.081   6.040   6.103
10801SOL    HW133302   3.107   5.963   6.161
10801SOL    HW233303   3.155   6.107   6.101
10802SOL     OW33304   0.787   5.387   4.039
10802SOL    HW133305   0.748   5.382   4.132
10802SOL    HW233306   0.736   5.454   3.985
10803SOL     OW33307   7.005   4.151   4.542
10803SOL    HW133308   0.057   4.087   4.527
10803SOL    HW233309   0.013   4.244   4.528
10804SOL     OW33310   4.864   4.522   1.090
10804SOL    HW133311   4.815   4.581   1.025
10804SOL    HW233312   4.953   4.563   1.111
10805SOL     OW33313   3.646   6.005   0.417
10805SOL    HW133314   3.674   5.911   0.437
10805SOL    HW233315   3.549   6.007   0.395
10806SOL     OW33316   6.123   4.033   6.474
10806SOL    HW133317   6.082   3.952   6.517
10806SOL    HW233318   6.150   4.098   6.546
10807SOL     OW33319   4.632   0.727   4.145
10807SOL    HW133320   4.712   0.693   4.097
10807SOL    HW233321   4.649   0.725   4.244
10808SOL     OW33322   0.201   1.997   0.198
10808SOL    HW133323   0.237   1.903   0.204
10808SOL    HW233324   0.277   2.060   0.184
10809SOL     OW33325   3.146   1.268   3.193
10809SOL    HW133326   3.144   1.365   3.166
10809SOL    HW233327   3.176   1.261   3.289
10810SOL     OW33328   1.103   1.543   6.844
10810SOL    HW133329   1.030   1.594   6.797
10810SOL    HW233330   1.185   1.600   6.851
10811SOL     OW33331   4.768   4.452   6.273
10811SOL    HW133332   4.760   4.551   6.288
10811SOL    HW233333   4.698   4.405   6.328
10812SOL     OW33334   6.871   2.646   2.517
10812SOL    HW133335   6.891   2.593   2.435
10812SOL    HW233336   6.776   2.630   2.545
10813SOL     OW33337   3.207   5.716   2.296
10813SOL    HW133338   3.293   5.750   2.259
10813SOL    HW233339   3.223   5.628   2.340
10814SOL     OW33340   2.065   6.288   5.113
10814SOL    HW133341   2.046   6.380   5.078
10814SOL    HW233342   2.002   6.268   5.188
10815SOL     OW33343   4.461   2.493   3.289
10815SOL    HW133344   4.555   2.463   3.307
10815SOL    HW233345   4.459   2.542   3.201
10816SOL     OW33346   2.057   2.255   1.875
10816SOL    HW133347   1.999   2.325   1.916
10816SOL    HW233348   2.055   2.173   1.932
10817SOL     OW33349   4.381   0.084   1.998
10817SOL    HW133350   4.462   0.028   2.013
10817SOL    HW233351   4.343   0.064   1.907
10818SOL     OW33352   4.318   2.809   6.256
10818SOL    HW133353   4.231   2.850   6.229
10818SOL    HW233354   4.344   2.739   6.189
10819SOL     OW33355   0.666   3.958   5.178
10819SOL    HW133356   0.755   3.916   5.195
10819SOL    HW233357   0.652   4.034   5.241
10820SOL     OW33358   0.027   0.761   4.830
10820SOL    HW133359   0.003   0.762   4.927
10820SOL    HW233360   6.971   0.734   4.776
10821SOL     OW33361   6.650   0.210   1.222
10821SOL    HW133362   6.680   0.304   1.203
10821SOL    HW233363   6.625   0.202   1.318
10822SOL     OW33364   0.370   4.590   0.412
10822SOL    HW133365   0.286   4.589   0.357
10822SOL    HW233366   0.406   4.496   0.419
10823SOL     OW33367   1.202   1.929   1.708
10823SOL    HW133368   1.151   1.897   1.787
10823SOL    HW233369   1.284   1.873   1.696
10824SOL     OW33370   5.754   0.464   3.069
10824SOL    HW133371   5.663   0.428   3.091
10824SOL    HW233372   5.823   0.409   3.116
10825SOL     OW33373   3.846   1.624   1.305
10825SOL    HW133374   3.812   1.569   1.229
10825SOL    HW233375   3.943   1.606   1.318
10826SOL     OW33376   6.704   2.725   1.316
10826SOL    HW133377   6.694   2.825   1.320
10826SOL    HW233378   6.660   2.691   1.233
10827SOL     OW33379   1.450   2.577   3.958
10827SOL    HW133380   1.437   2.627   4.043
10827SOL    HW233381   1.528   2.615   3.908
10828SOL     OW33382   1.131   5.781   0.545
10828SOL    HW133383   1.172   5.742   0.463
10828SOL    HW233384   1.061   5.718   0.581
10829SOL     OW33385   2.394   3.562   1.605
10829SOL    HW133386   2.368   3.514   1.689
10829SOL    HW233387   2.468   3.626   1.625
10830SOL     OW33388   4.890   1.735   3.986
10830SOL    HW133389   4.936   1.648   3.971
10830SOL    HW233390   4.931   1.782   4.064
10831SOL     OW33391   4.805   2.898   2.596
10831SOL    HW133392   4.875   2.872   2.662
10831SOL    HW233393   4.832   2.983   2.550
10832SOL     OW33394   6.633   2.554   2.586
10832SOL    HW133395   6.566   2.615   2.629
10832SOL    HW233396   6.587   2.470   2.557
10833SOL     OW33397   2.729   0.274   4.431
10833SOL    HW133398   2.748   0.176   4.421
10833SOL    HW233399   2.643   0.296   4.386
10834SOL     OW33400   6.681   0.994   5.530
10834SOL    HW133401   6.589   1.029   5.512
10834SOL    HW233402   6.741   1.017   5.453
10835SOL     OW33403   6.982   2.594   2.287
10835SOL    HW133404   6.960   2.502   2.254
10835SOL    HW233405   0.050   2.594   2.327
10836SOL     OW33406   1.785   3.152   1.144
10836SOL    HW133407   1.786   3.249   1.121
10836SOL    HW233408   1.696   3.113   1.119
10837SOL     OW33409   1.107   5.426   1.782
10837SOL    HW133410   1.162   5.383   1.710
10837SOL    HW233411   1.082   5.519   1.754
10838SOL     OW33412   6.643   7.015   0.749
10838SOL    HW133413   6.637   0.045   0.833
10838SOL    HW233414   6.738   6.992   0.730
10839SOL     OW33415   1.796   1.597   0.135
10839SOL    HW133416   1.762   1.618   0.227
10839SOL    HW233417   1.864   1.524   0.140
10840SOL     OW33418   3.746   5.363   2.720
10840SOL    HW133419   3.783   5.396   2.807
10840SOL    HW233420   3.701   5.439   2.672
10841SOL     OW33421   4.681   3.046   5.932
10841SOL    HW133422   4.745   3.111   5.890
10841SOL    HW233423   4.732   2.975   5.980
10842SOL     OW33424   6.604   2.985   1.295
10842SOL    HW133425   6.518   3.007   1.249
10842SOL    HW233426   6.664   3.065   1.295
10843SOL     OW33427   0.831   1.112   1.894
10843SOL    HW133428   0.843   1.208   1.919
10843SOL    HW233429   0.747   1.077   1.935
10844SOL     OW33430   3.357   0.001   3.474
10844SOL    HW133431   3.284   0.010   3.542
10844SOL    HW233432   3.426   6.961   3.508
10845SOL     OW33433   1.639   3.102   0.787
10845SOL    HW133434   1.736   3.124   0.801
10845SOL    HW233435   1.627   3.003   0.791
10846SOL     OW33436   3.618   1.755   1.843
10846SOL    HW133437   3.684   1.830   1.835
10846SOL    HW233438   3.525   1.791   1.836
10847SOL     OW33439   3.569   2.732   5.940
10847SOL    HW133440   3.529   2.700   6.026
10847SOL    HW233441   3.498   2.772   5.882
10848SOL     OW33442   1.015   0.560   0.596
10848SOL    HW133443   0.968   0.493   0.539
10848SOL    HW233444   0.971   0.564   0.685
10849SOL     OW33445   2.455   5.041   4.253
10849SOL    HW133446   2.551   5.053   4.278
10849SOL    HW233447   2.398   5.090   4.319
10850SOL     OW33448   5.965   0.556   1.905
10850SOL    HW133449   5.973   0.483   1.837
10850SOL    HW233450   5.881   0.543   1.957
10851SOL     OW33451   4.119   1.680   6.076
10851SOL    HW133452   4.074   1.766   6.097
10851SOL    HW233453   4.090   1.610   6.141
10852SOL     OW33454   0.139   6.849   6.116
10852SOL    HW133455   0.192   6.930   6.142
10852SOL    HW233456   0.149   6.778   6.186
10853SOL     OW33457   2.450   0.694   4.948
10853SOL    HW133458   2.502   0.769   4.906
10853SOL    HW233459   2.365   0.681   4.898
10854SOL     OW33460   0.070   6.244   0.948
10854SOL    HW133461   0.091   6.259   1.044
10854SOL    HW233462   0.150   6.206   0.901
10855SOL     OW33463   1.430   5.430   1.923
10855SOL    HW133464   1.510   5.471   1.966
10855SOL    HW233465   1.354   5.496   1.926
10856SOL     OW33466   6.403   0.513   6.709
10856SOL    HW133467   6.317   0.563   6.715
10856SOL    HW233468   6.394   0.424   6.753
10857SOL     OW33469   6.294   0.294   5.033
10857SOL    HW133470   6.203   0.296   5.074
10857SOL    HW233471   6.287   0.264   4.938
10858SOL     OW33472   1.874   2.165   0.224
10858SOL    HW133473   1.837   2.205   0.140
10858SOL    HW233474   1.809   2.099   0.261
10859SOL     OW33475   1.041   6.191   2.526
10859SOL    HW133476   0.959   6.239   2.495
10859SOL    HW233477   1.048   6.198   2.626
10860SOL     OW33478   5.773   3.624   1.051
10860SOL    HW133479   5.711   3.698   1.024
10860SOL    HW233480   5.864   3.661   1.065
10861SOL     OW33481   2.938   3.084   1.639
10861SOL    HW133482   2.924   3.144   1.718
10861SOL    HW233483   2.850   3.070   1.593
10862SOL     OW33484   3.540   3.539   5.122
10862SOL    HW133485   3.635   3.551   5.151
10862SOL    HW233486   3.479   3.576   5.191
10863SOL     OW33487   1.855   0.677   3.203
10863SOL    HW133488   1.811   0.656   3.290
10863SOL    HW233489   1.890   0.593   3.161
10864SOL     OW33490   3.203   4.254   1.734
10864SOL    HW133491   3.233   4.283   1.643
10864SOL    HW233492   3.112   4.291   1.753
10865SOL     OW33493   4.139   1.593   2.951
10865SOL    HW133494   4.224   1.541   2.967
10865SOL    HW233495   4.156   1.664   2.883
10866SOL     OW33496   0.203   3.457   3.436
10866SOL    HW133497   0.153   3.465   3.522
10866SOL    HW233498   0.173   3.373   3.389
10867SOL     OW33499   4.701   2.496   0.425
10867SOL    HW133500   4.642   2.502   0.506
10867SOL    HW233501   4.668   2.558   0.355
10868SOL     OW33502   1.595   6.922   4.712
10868SOL    HW133503   1.523   6.991   4.709
10868SOL    HW233504   1.675   6.955   4.661
10869NA      NA33505   0.065   1.149   6.214
10870NA      NA33506   4.478   4.414   5.234
10871NA      NA33507   1.297   4.982   2.440
10872NA      NA33508   5.988   3.975   3.269
10873NA      NA33509   3.772   2.382   5.405
10874NA      NA33510   2.136   4.736   0.293
10875NA      NA33511   1.117   5.239   6.710
10876NA      NA33512   3.926   4.569   1.206
10877NA      NA33513   4.880   4.991   0.237
10878NA      NA33514   3.258   1.099   0.187
10879NA      NA33515   5.527   6.848   1.557
10880NA      NA33516   2.581   6.256   5.631
10881NA      NA33517   4.112   5.202   1.704
10882NA      NA33518   3.947   3.394   6.561
   7.02414   7.02414   7.02414
