Generated by trjconv : CNT in water t= 206.00000
33518
    1C        C    1   2.845   2.771   4.747
    1C        C    2   2.897   2.719   4.868
    1C        C    3   2.840   2.772   4.985
    1C        C    4   2.849   2.781   4.258
    1C        C    5   2.901   2.733   4.380
    1C        C    6   2.846   2.775   4.504
    1C        C    7   3.012   2.642   4.624
    1C        C    8   2.897   2.723   4.625
    1C        C    9   3.074   2.602   4.745
    1C        C   10   3.007   2.631   4.865
    1C        C   11   3.178   2.493   4.975
    1C        C   12   3.055   2.560   4.976
    1C        C   13   2.847   2.772   3.772
    1C        C   14   2.903   2.727   3.894
    1C        C   15   2.854   2.781   4.014
    1C        C   16   3.019   2.649   4.139
    1C        C   17   2.907   2.735   4.137
    1C        C   18   3.080   2.616   4.262
    1C        C   19   3.016   2.652   4.383
    1C        C   20   3.209   2.560   4.505
    1C        C   21   3.076   2.608   4.503
    1C        C   22   3.280   2.536   4.625
    1C        C   23   3.207   2.549   4.745
    1C        C   24   3.411   2.485   4.866
    1C        C   25   3.269   2.508   4.866
    1C        C   26   3.489   2.473   4.981
    1C        C   27   2.848   2.769   3.281
    1C        C   28   2.903   2.725   3.404
    1C        C   29   2.853   2.774   3.527
    1C        C   30   3.023   2.652   3.649
    1C        C   31   2.905   2.729   3.650
    1C        C   32   3.080   2.611   3.771
    1C        C   33   3.018   2.644   3.894
    1C        C   34   3.210   2.560   4.017
    1C        C   35   3.078   2.610   4.017
    1C        C   36   3.279   2.543   4.140
    1C        C   37   3.210   2.560   4.262
    1C        C   38   3.416   2.514   4.384
    1C        C   39   3.277   2.538   4.384
    1C        C   40   3.489   2.503   4.504
    1C        C   41   3.418   2.507   4.626
    1C        C   42   3.630   2.484   4.745
    1C        C   43   3.488   2.483   4.746
    1C        C   44   3.706   2.490   4.864
    1C        C   45   3.628   2.478   4.981
    1C        C   46   2.834   2.749   2.797
    1C        C   47   2.896   2.713   2.918
    1C        C   48   2.843   2.766   3.038
    1C        C   49   3.020   2.645   3.160
    1C        C   50   2.899   2.719   3.159
    1C        C   51   3.081   2.611   3.282
    1C        C   52   3.018   2.643   3.405
    1C        C   53   3.208   2.550   3.529
    1C        C   54   3.078   2.606   3.527
    1C        C   55   3.278   2.534   3.650
    1C        C   56   3.210   2.555   3.772
    1C        C   57   3.416   2.512   3.897
    1C        C   58   3.277   2.536   3.895
    1C        C   59   3.489   2.504   4.018
    1C        C   60   3.417   2.515   4.140
    1C        C   61   3.628   2.499   4.260
    1C        C   62   3.487   2.501   4.262
    1C        C   63   3.701   2.510   4.381
    1C        C   64   3.631   2.502   4.503
    1C        C   65   3.839   2.537   4.623
    1C        C   66   3.702   2.502   4.625
    1C        C   67   3.906   2.566   4.743
    1C        C   68   3.843   2.525   4.862
    1C        C   69   4.054   2.584   4.978
    1C        C   70   3.926   2.529   4.975
    1C        C   71   2.828   2.740   2.309
    1C        C   72   2.890   2.700   2.430
    1C        C   73   2.838   2.753   2.550
    1C        C   74   3.004   2.626   2.674
    1C        C   75   2.887   2.704   2.673
    1C        C   76   3.069   2.593   2.796
    1C        C   77   3.013   2.635   2.918
    1C        C   78   3.208   2.544   3.039
    1C        C   79   3.081   2.605   3.039
    1C        C   80   3.277   2.534   3.162
    1C        C   81   3.212   2.558   3.285
    1C        C   82   3.415   2.501   3.404
    1C        C   83   3.276   2.527   3.407
    1C        C   84   3.484   2.496   3.527
    1C        C   85   3.417   2.505   3.651
    1C        C   86   3.626   2.505   3.772
    1C        C   87   3.485   2.501   3.774
    1C        C   88   3.698   2.511   3.893
    1C        C   89   3.630   2.504   4.017
    1C        C   90   3.837   2.544   4.138
    1C        C   91   3.700   2.510   4.139
    1C        C   92   3.903   2.571   4.259
    1C        C   93   3.837   2.546   4.382
    1C        C   94   4.025   2.644   4.499
    1C        C   95   3.907   2.567   4.503
    1C        C   96   4.088   2.677   4.621
    1C        C   97   4.034   2.629   4.742
    1C        C   98   4.191   2.769   4.866
    1C        C   99   4.100   2.658   4.864
    1C        C  100   4.211   2.845   4.981
    1C        C  101   2.827   2.735   2.072
    1C        C  102   2.994   2.594   2.193
    1C        C  103   2.885   2.688   2.190
    1C        C  104   3.062   2.565   2.314
    1C        C  105   3.001   2.612   2.433
    1C        C  106   3.201   2.538   2.553
    1C        C  107   3.069   2.588   2.555
    1C        C  108   3.270   2.519   2.675
    1C        C  109   3.199   2.538   2.795
    1C        C  110   3.411   2.494   2.917
    1C        C  111   3.273   2.521   2.915
    1C        C  112   3.483   2.491   3.038
    1C        C  113   3.415   2.507   3.161
    1C        C  114   3.628   2.503   3.281
    1C        C  115   3.487   2.496   3.282
    1C        C  116   3.695   2.510   3.405
    1C        C  117   3.625   2.504   3.527
    1C        C  118   3.833   2.545   3.648
    1C        C  119   3.695   2.514   3.649
    1C        C  120   3.900   2.573   3.770
    1C        C  121   3.835   2.549   3.893
    1C        C  122   4.025   2.641   4.014
    1C        C  123   3.902   2.572   4.015
    1C        C  124   4.088   2.676   4.135
    1C        C  125   4.029   2.636   4.256
    1C        C  126   4.196   2.771   4.379
    1C        C  127   4.086   2.683   4.377
    1C        C  128   4.246   2.821   4.501
    1C        C  129   4.195   2.770   4.623
    1C        C  130   4.325   2.939   4.742
    1C        C  131   4.242   2.823   4.745
    1C        C  132   4.355   3.007   4.862
    1C        C  133   4.283   2.964   4.974
    1C        C  134   3.175   2.474   2.080
    1C        C  135   3.042   2.516   2.083
    1C        C  136   3.259   2.476   2.192
    1C        C  137   3.194   2.513   2.311
    1C        C  138   3.405   2.480   2.431
    1C        C  139   3.265   2.502   2.433
    1C        C  140   3.481   2.478   2.551
    1C        C  141   3.410   2.497   2.671
    1C        C  142   3.621   2.496   2.793
    1C        C  143   3.480   2.490   2.793
    1C        C  144   3.692   2.501   2.915
    1C        C  145   3.625   2.492   3.038
    1C        C  146   3.835   2.538   3.159
    1C        C  147   3.698   2.503   3.158
    1C        C  148   3.900   2.564   3.282
    1C        C  149   3.834   2.537   3.404
    1C        C  150   4.028   2.624   3.522
    1C        C  151   3.902   2.560   3.526
    1C        C  152   4.086   2.668   3.643
    1C        C  153   4.025   2.637   3.767
    1C        C  154   4.191   2.768   3.888
    1C        C  155   4.082   2.679   3.890
    1C        C  156   4.243   2.816   4.010
    1C        C  157   4.196   2.767   4.134
    1C        C  158   4.339   2.925   4.253
    1C        C  159   4.247   2.817   4.256
    1C        C  160   4.377   2.984   4.376
    1C        C  161   4.337   2.929   4.500
    1C        C  162   4.441   3.116   4.617
    1C        C  163   4.371   2.994   4.621
    1C        C  164   4.472   3.185   4.736
    1C        C  165   4.434   3.124   4.858
    1C        C  166   4.517   3.322   4.974
    1C        C  167   4.484   3.187   4.972
    1C        C  168   3.475   2.431   2.075
    1C        C  169   3.399   2.456   2.191
    1C        C  170   3.616   2.464   2.306
    1C        C  171   3.474   2.462   2.310
    1C        C  172   3.690   2.487   2.425
    1C        C  173   3.622   2.486   2.549
    1C        C  174   3.828   2.540   2.670
    1C        C  175   3.691   2.504   2.670
    1C        C  176   3.895   2.562   2.792
    1C        C  177   3.829   2.536   2.914
    1C        C  178   4.023   2.626   3.035
    1C        C  179   3.901   2.555   3.035
    1C        C  180   4.086   2.662   3.157
    1C        C  181   4.028   2.623   3.280
    1C        C  182   4.198   2.752   3.398
    1C        C  183   4.089   2.663   3.401
    1C        C  184   4.248   2.804   3.519
    1C        C  185   4.193   2.760   3.642
    1C        C  186   4.336   2.917   3.764
    1C        C  187   4.242   2.813   3.764
    1C        C  188   4.375   2.980   3.885
    1C        C  189   4.334   2.925   4.008
    1C        C  190   4.448   3.104   4.129
    1C        C  191   4.379   2.980   4.130
    1C        C  192   4.467   3.175   4.250
    1C        C  193   4.436   3.112   4.373
    1C        C  194   4.507   3.315   4.493
    1C        C  195   4.469   3.180   4.493
    1C        C  196   4.527   3.387   4.613
    1C        C  197   4.517   3.320   4.736
    1C        C  198   4.565   3.535   4.852
    1C        C  199   4.538   3.394   4.855
    1C        C  200   4.582   3.621   4.965
    1C        C  201   3.614   2.421   2.074
    1C        C  202   3.827   2.509   2.184
    1C        C  203   3.694   2.458   2.187
    1C        C  204   3.898   2.536   2.305
    1C        C  205   3.828   2.517   2.426
    1C        C  206   4.017   2.622   2.546
    1C        C  207   3.893   2.556   2.546
    1C        C  208   4.081   2.657   2.667
    1C        C  209   4.021   2.626   2.791
    1C        C  210   4.199   2.744   2.907
    1C        C  211   4.083   2.663   2.913
    1C        C  212   4.250   2.796   3.029
    1C        C  213   4.197   2.748   3.151
    1C        C  214   4.333   2.910   3.272
    1C        C  215   4.248   2.797   3.273
    1C        C  216   4.374   2.968   3.395
    1C        C  217   4.336   2.915   3.520
    1C        C  218   4.438   3.102   3.638
    1C        C  219   4.374   2.976   3.642
    1C        C  220   4.465   3.168   3.760
    1C        C  221   4.440   3.106   3.884
    1C        C  222   4.506   3.306   4.002
    1C        C  223   4.472   3.169   4.007
    1C        C  224   4.517   3.378   4.123
    1C        C  225   4.504   3.311   4.246
    1C        C  226   4.518   3.523   4.369
    1C        C  227   4.513   3.382   4.368
    1C        C  228   4.524   3.597   4.489
    1C        C  229   4.531   3.529   4.613
    1C        C  230   4.507   3.743   4.728
    1C        C  231   4.544   3.606   4.730
    1C        C  232   4.498   3.819   4.847
    1C        C  233   4.548   3.757   4.963
    1C        C  234   4.014   2.611   2.065
    1C        C  235   3.896   2.538   2.065
    1C        C  236   4.085   2.646   2.181
    1C        C  237   4.022   2.604   2.301
    1C        C  238   4.193   2.735   2.422
    1C        C  239   4.080   2.649   2.422
    1C        C  240   4.247   2.789   2.540
    1C        C  241   4.191   2.745   2.662
    1C        C  242   4.333   2.903   2.783
    1C        C  243   4.247   2.791   2.783
    1C        C  244   4.376   2.962   2.904
    1C        C  245   4.338   2.906   3.028
    1C        C  246   4.432   3.096   3.150
    1C        C  247   4.374   2.967   3.150
    1C        C  248   4.453   3.164   3.272
    1C        C  249   4.430   3.097   3.394
    1C        C  250   4.498   3.302   3.514
    1C        C  251   4.461   3.165   3.514
    1C        C  252   4.510   3.373   3.636
    1C        C  253   4.504   3.304   3.759
    1C        C  254   4.531   3.516   3.880
    1C        C  255   4.524   3.375   3.880
    1C        C  256   4.523   3.589   4.001
    1C        C  257   4.520   3.519   4.124
    1C        C  258   4.491   3.731   4.244
    1C        C  259   4.513   3.591   4.245
    1C        C  260   4.478   3.804   4.364
    1C        C  261   4.496   3.735   4.486
    1C        C  262   4.428   3.939   4.603
    1C        C  263   4.477   3.807   4.606
    1C        C  264   4.404   4.010   4.723
    1C        C  265   4.437   3.946   4.845
    1C        C  266   4.316   4.128   4.960
    1C        C  267   4.393   4.013   4.960
    1C        C  268   4.253   2.780   2.060
    1C        C  269   4.195   2.734   2.179
    1C        C  270   4.343   2.889   2.297
    1C        C  271   4.246   2.784   2.300
    1C        C  272   4.383   2.952   2.417
    1C        C  273   4.338   2.897   2.539
    1C        C  274   4.447   3.081   2.661
    1C        C  275   4.375   2.959   2.660
    1C        C  276   4.466   3.153   2.781
    1C        C  277   4.441   3.087   2.904
    1C        C  278   4.499   3.292   3.027
    1C        C  279   4.461   3.157   3.025
    1C        C  280   4.517   3.365   3.147
    1C        C  281   4.499   3.298   3.270
    1C        C  282   4.520   3.511   3.389
    1C        C  283   4.512   3.369   3.391
    1C        C  284   4.518   3.581   3.512
    1C        C  285   4.523   3.513   3.636
    1C        C  286   4.497   3.725   3.753
    1C        C  287   4.523   3.586   3.757
    1C        C  288   4.478   3.792   3.875
    1C        C  289   4.496   3.728   4.000
    1C        C  290   4.425   3.930   4.116
    1C        C  291   4.475   3.798   4.121
    1C        C  292   4.394   3.996   4.237
    1C        C  293   4.424   3.934   4.361
    1C        C  294   4.325   4.124   4.483
    1C        C  295   4.398   4.003   4.481
    1C        C  296   4.286   4.187   4.604
    1C        C  297   4.327   4.130   4.726
    1C        C  298   4.200   4.314   4.840
    1C        C  299   4.283   4.197   4.843
    1C        C  300   4.174   4.403   4.948
    1C        C  301   4.350   2.880   2.062
    1C        C  302   4.468   3.068   2.176
    1C        C  303   4.396   2.944   2.178
    1C        C  304   4.475   3.143   2.296
    1C        C  305   4.443   3.080   2.418
    1C        C  306   4.511   3.282   2.536
    1C        C  307   4.476   3.145   2.539
    1C        C  308   4.519   3.355   2.657
    1C        C  309   4.501   3.290   2.780
    1C        C  310   4.527   3.499   2.900
    1C        C  311   4.512   3.358   2.903
    1C        C  312   4.525   3.574   3.020
    1C        C  313   4.524   3.506   3.144
    1C        C  314   4.493   3.717   3.265
    1C        C  315   4.522   3.579   3.265
    1C        C  316   4.478   3.787   3.387
    1C        C  317   4.497   3.720   3.510
    1C        C  318   4.422   3.922   3.628
    1C        C  319   4.479   3.792   3.630
    1C        C  320   4.390   3.983   3.750
    1C        C  321   4.421   3.922   3.874
    1C        C  322   4.318   4.112   3.993
    1C        C  323   4.388   3.990   3.993
    1C        C  324   4.276   4.170   4.114
    1C        C  325   4.318   4.115   4.238
    1C        C  326   4.185   4.280   4.357
    1C        C  327   4.282   4.178   4.359
    1C        C  328   4.135   4.336   4.477
    1C        C  329   4.191   4.291   4.599
    1C        C  330   4.022   4.431   4.715
    1C        C  331   4.135   4.345   4.717
    1C        C  332   3.971   4.491   4.832
    1C        C  333   4.054   4.475   4.944
    1C        C  334   4.558   3.271   2.063
    1C        C  335   4.532   3.133   2.065
    1C        C  336   4.539   3.350   2.177
    1C        C  337   4.509   3.281   2.297
    1C        C  338   4.520   3.498   2.412
    1C        C  339   4.517   3.357   2.416
    1C        C  340   4.524   3.568   2.535
    1C        C  341   4.524   3.496   2.656
    1C        C  342   4.497   3.708   2.775
    1C        C  343   4.522   3.569   2.778
    1C        C  344   4.476   3.778   2.895
    1C        C  345   4.494   3.712   3.019
    1C        C  346   4.422   3.912   3.138
    1C        C  347   4.473   3.780   3.140
    1C        C  348   4.392   3.979   3.259
    1C        C  349   4.427   3.919   3.382
    1C        C  350   4.323   4.104   3.504
    1C        C  351   4.397   3.984   3.503
    1C        C  352   4.276   4.161   3.625
    1C        C  353   4.314   4.103   3.748
    1C        C  354   4.170   4.260   3.868
    1C        C  355   4.272   4.162   3.869
    1C        C  356   4.121   4.312   3.989
    1C        C  357   4.175   4.269   4.112
    1C        C  358   4.008   4.397   4.231
    1C        C  359   4.126   4.319   4.235
    1C        C  360   3.953   4.442   4.353
    1C        C  361   4.020   4.417   4.475
    1C        C  362   3.830   4.522   4.593
    1C        C  363   3.959   4.465   4.594
    1C        C  364   3.762   4.554   4.713
    1C        C  365   3.841   4.548   4.829
    1C        C  366   3.631   4.598   4.951
    1C        C  367   3.769   4.583   4.944
    1C        C  368   4.521   3.566   2.053
    1C        C  369   4.529   3.490   2.171
    1C        C  370   4.498   3.707   2.288
    1C        C  371   4.516   3.567   2.289
    1C        C  372   4.482   3.778   2.410
    1C        C  373   4.502   3.708   2.530
    1C        C  374   4.423   3.905   2.647
    1C        C  375   4.478   3.775   2.652
    1C        C  376   4.393   3.969   2.770
    1C        C  377   4.424   3.910   2.894
    1C        C  378   4.310   4.090   3.013
    1C        C  379   4.391   3.975   3.015
    1C        C  380   4.270   4.149   3.135
    1C        C  381   4.312   4.095   3.258
    1C        C  382   4.173   4.253   3.379
    1C        C  383   4.272   4.152   3.381
    1C        C  384   4.120   4.303   3.500
    1C        C  385   4.175   4.260   3.623
    1C        C  386   4.004   4.389   3.744
    1C        C  387   4.117   4.304   3.744
    1C        C  388   3.941   4.426   3.865
    1C        C  389   4.003   4.391   3.987
    1C        C  390   3.816   4.488   4.109
    1C        C  391   3.945   4.431   4.109
    1C        C  392   3.752   4.516   4.232
    1C        C  393   3.824   4.500   4.352
    1C        C  394   3.618   4.555   4.475
    1C        C  395   3.758   4.537   4.472
    1C        C  396   3.547   4.565   4.596
    1C        C  397   3.621   4.565   4.716
    1C        C  398   3.411   4.558   4.842
    1C        C  399   3.550   4.581   4.837
    1C        C  400   3.341   4.522   4.958
    1C        C  401   4.503   3.704   2.052
    1C        C  402   4.445   3.914   2.165
    1C        C  403   4.491   3.780   2.168
    1C        C  404   4.407   3.977   2.285
    1C        C  405   4.432   3.910   2.407
    1C        C  406   4.322   4.094   2.528
    1C        C  407   4.398   3.975   2.528
    1C        C  408   4.277   4.149   2.650
    1C        C  409   4.317   4.088   2.771
    1C        C  410   4.169   4.247   2.889
    1C        C  411   4.267   4.145   2.890
    1C        C  412   4.123   4.299   3.012
    1C        C  413   4.174   4.253   3.136
    1C        C  414   3.997   4.372   3.254
    1C        C  415   4.119   4.300   3.258
    1C        C  416   3.940   4.410   3.378
    1C        C  417   4.002   4.381   3.501
    1C        C  418   3.815   4.485   3.618
    1C        C  419   3.943   4.425   3.622
    1C        C  420   3.750   4.512   3.741
    1C        C  421   3.814   4.486   3.864
    1C        C  422   3.610   4.540   3.988
    1C        C  423   3.748   4.510   3.987
    1C        C  424   3.542   4.543   4.111
    1C        C  425   3.614   4.546   4.232
    1C        C  426   3.403   4.551   4.357
    1C        C  427   3.544   4.557   4.355
    1C        C  428   3.333   4.554   4.480
    1C        C  429   3.406   4.563   4.600
    1C        C  430   3.196   4.527   4.726
    1C        C  431   3.335   4.555   4.723
    1C        C  432   3.127   4.497   4.847
    1C        C  433   3.203   4.507   4.964
    1C        C  434   4.378   4.124   2.050
    1C        C  435   4.441   3.999   2.053
    1C        C  436   4.304   4.168   2.164
    1C        C  437   4.330   4.096   2.284
    1C        C  438   4.181   4.250   2.404
    1C        C  439   4.283   4.153   2.405
    1C        C  440   4.124   4.297   2.524
    1C        C  441   4.175   4.246   2.646
    1C        C  442   4.004   4.379   2.768
    1C        C  443   4.116   4.292   2.766
    1C        C  444   3.946   4.418   2.890
    1C        C  445   4.006   4.378   3.011
    1C        C  446   3.812   4.471   3.132
    1C        C  447   3.940   4.411   3.131
    1C        C  448   3.747   4.496   3.255
    1C        C  449   3.814   4.473   3.378
    1C        C  450   3.609   4.538   3.498
    1C        C  451   3.747   4.511   3.497
    1C        C  452   3.541   4.549   3.621
    1C        C  453   3.612   4.542   3.744
    1C        C  454   3.399   4.554   3.865
    1C        C  455   3.540   4.552   3.865
    1C        C  456   3.331   4.540   3.988
    1C        C  457   3.400   4.540   4.111
    1C        C  458   3.195   4.508   4.237
    1C        C  459   3.333   4.540   4.235
    1C        C  460   3.130   4.488   4.360
    1C        C  461   3.197   4.517   4.482
    1C        C  462   3.005   4.433   4.605
    1C        C  463   3.131   4.497   4.605
    1C        C  464   2.935   4.403   4.723
    1C        C  465   2.993   4.447   4.845
    1C        C  466   2.808   4.340   4.960
    1C        C  467   2.911   4.435   4.962
    1C        C  468   4.123   4.288   2.045
    1C        C  469   4.187   4.250   2.164
    1C        C  470   4.008   4.377   2.284
    1C        C  471   4.127   4.299   2.283
    1C        C  472   3.939   4.403   2.404
    1C        C  473   4.008   4.377   2.524
    1C        C  474   3.815   4.472   2.647
    1C        C  475   3.945   4.415   2.645
    1C        C  476   3.747   4.493   2.769
    1C        C  477   3.816   4.473   2.891
    1C        C  478   3.609   4.534   3.009
    1C        C  479   3.746   4.500   3.011
    1C        C  480   3.540   4.540   3.132
    1C        C  481   3.611   4.531   3.254
    1C        C  482   3.398   4.543   3.378
    1C        C  483   3.539   4.542   3.375
    1C        C  484   3.329   4.539   3.501
    1C        C  485   3.400   4.551   3.623
    1C        C  486   3.191   4.504   3.747
    1C        C  487   3.327   4.542   3.743
    1C        C  488   3.126   4.479   3.870
    1C        C  489   3.194   4.505   3.991
    1C        C  490   3.002   4.422   4.118
    1C        C  491   3.127   4.489   4.114
    1C        C  492   2.944   4.382   4.240
    1C        C  493   3.001   4.431   4.360
    1C        C  494   2.832   4.307   4.487
    1C        C  495   2.942   4.395   4.484
    1C        C  496   2.777   4.255   4.606
    1C        C  497   2.825   4.312   4.726
    1C        C  498   2.671   4.166   4.846
    1C        C  499   2.761   4.274   4.846
    1C        C  500   2.601   4.120   4.959
    1C        C  501   4.006   4.363   2.045
    1C        C  502   3.819   4.473   2.158
    1C        C  503   3.946   4.410   2.162
    1C        C  504   3.748   4.489   2.279
    1C        C  505   3.809   4.460   2.403
    1C        C  506   3.608   4.519   2.521
    1C        C  507   3.745   4.488   2.526
    1C        C  508   3.538   4.530   2.643
    1C        C  509   3.609   4.521   2.765
    1C        C  510   3.397   4.533   2.887
    1C        C  511   3.538   4.532   2.886
    1C        C  512   3.327   4.526   3.010
    1C        C  513   3.398   4.537   3.132
    1C        C  514   3.193   4.498   3.255
    1C        C  515   3.329   4.533   3.255
    1C        C  516   3.126   4.475   3.377
    1C        C  517   3.192   4.502   3.499
    1C        C  518   3.004   4.412   3.625
    1C        C  519   3.127   4.481   3.623
    1C        C  520   2.945   4.373   3.747
    1C        C  521   3.000   4.415   3.870
    1C        C  522   2.843   4.283   3.999
    1C        C  523   2.946   4.380   3.996
    1C        C  524   2.791   4.235   4.121
    1C        C  525   2.836   4.291   4.243
    1C        C  526   2.701   4.135   4.365
    1C        C  527   2.782   4.250   4.367
    1C        C  528   2.665   4.074   4.488
    1C        C  529   2.691   4.143   4.608
    1C        C  530   2.589   3.959   4.734
    1C        C  531   2.645   4.090   4.730
    1C        C  532   2.544   3.901   4.856
    1C        C  533   2.534   3.997   4.962
    1C        C  534   3.620   4.556   2.038
    1C        C  535   3.753   4.514   2.041
    1C        C  536   3.541   4.538   2.156
    1C        C  537   3.609   4.518   2.279
    1C        C  538   3.394   4.526   2.400
    1C        C  539   3.536   4.529   2.399
    1C        C  540   3.325   4.515   2.522
    1C        C  541   3.397   4.524   2.643
    1C        C  542   3.190   4.483   2.765
    1C        C  543   3.326   4.521   2.765
    1C        C  544   3.128   4.460   2.889
    1C        C  545   3.191   4.490   3.012
    1C        C  546   3.001   4.401   3.135
    1C        C  547   3.123   4.471   3.134
    1C        C  548   2.944   4.365   3.259
    1C        C  549   3.001   4.409   3.381
    1C        C  550   2.837   4.277   3.507
    1C        C  551   2.944   4.370   3.504
    1C        C  552   2.786   4.231   3.630
    1C        C  553   2.838   4.281   3.751
    1C        C  554   2.708   4.120   3.876
    1C        C  555   2.795   4.231   3.876
    1C        C  556   2.668   4.061   3.998
    1C        C  557   2.707   4.121   4.120
    1C        C  558   2.608   3.941   4.247
    1C        C  559   2.666   4.070   4.245
    1C        C  560   2.579   3.878   4.370
    1C        C  561   2.604   3.947   4.491
    1C        C  562   2.531   3.751   4.619
    1C        C  563   2.571   3.886   4.614
    1C        C  564   2.514   3.681   4.741
    1C        C  565   2.521   3.760   4.859
    1C        C  566   2.536   3.544   4.977
    1C        C  567   2.534   3.683   4.976
    1C        C  568   3.329   4.478   2.044
    1C        C  569   3.401   4.512   2.159
    1C        C  570   3.185   4.479   2.279
    1C        C  571   3.323   4.515   2.278
    1C        C  572   3.118   4.457   2.401
    1C        C  573   3.187   4.482   2.521
    1C        C  574   2.992   4.404   2.648
    1C        C  575   3.120   4.462   2.644
    1C        C  576   2.934   4.362   2.771
    1C        C  577   3.002   4.395   2.890
    1C        C  578   2.833   4.269   3.016
    1C        C  579   2.942   4.359   3.013
    1C        C  580   2.787   4.219   3.139
    1C        C  581   2.836   4.274   3.260
    1C        C  582   2.708   4.110   3.385
    1C        C  583   2.792   4.224   3.384
    1C        C  584   2.669   4.056   3.510
    1C        C  585   2.709   4.112   3.633
    1C        C  586   2.602   3.931   3.756
    1C        C  587   2.671   4.054   3.756
    1C        C  588   2.573   3.870   3.880
    1C        C  589   2.609   3.933   4.001
    1C        C  590   2.541   3.738   4.129
    1C        C  591   2.581   3.873   4.126
    1C        C  592   2.526   3.672   4.253
    1C        C  593   2.536   3.743   4.375
    1C        C  594   2.514   3.535   4.498
    1C        C  595   2.523   3.676   4.499
    1C        C  596   2.521   3.465   4.620
    1C        C  597   2.518   3.539   4.741
    1C        C  598   2.529   3.325   4.862
    1C        C  599   2.527   3.466   4.861
    1C        C  600   2.535   3.247   4.978
    1C        C  601   3.197   4.438   2.043
    1C        C  602   2.985   4.391   2.161
    1C        C  603   3.119   4.441   2.159
    1C        C  604   2.925   4.359   2.286
    1C        C  605   2.992   4.393   2.405
    1C        C  606   2.822   4.271   2.530
    1C        C  607   2.930   4.362   2.528
    1C        C  608   2.772   4.221   2.652
    1C        C  609   2.825   4.273   2.773
    1C        C  610   2.688   4.112   2.897
    1C        C  611   2.778   4.221   2.896
    1C        C  612   2.656   4.053   3.021
    1C        C  613   2.701   4.106   3.144
    1C        C  614   2.597   3.923   3.265
    1C        C  615   2.661   4.049   3.267
    1C        C  616   2.573   3.864   3.391
    1C        C  617   2.599   3.933   3.512
    1C        C  618   2.531   3.732   3.638
    1C        C  619   2.571   3.867   3.634
    1C        C  620   2.521   3.665   3.762
    1C        C  621   2.533   3.735   3.884
    1C        C  622   2.515   3.527   4.010
    1C        C  623   2.524   3.668   4.008
    1C        C  624   2.512   3.456   4.133
    1C        C  625   2.513   3.532   4.252
    1C        C  626   2.533   3.324   4.379
    1C        C  627   2.515   3.464   4.376
    1C        C  628   2.548   3.251   4.500
    1C        C  629   2.539   3.325   4.620
    1C        C  630   2.596   3.119   4.745
    1C        C  631   2.547   3.253   4.741
    1C        C  632   2.614   3.050   4.868
    1C        C  633   2.568   3.111   4.989
    1C        C  634   2.779   4.304   2.057
    1C        C  635   2.893   4.384   2.051
    1C        C  636   2.750   4.227   2.171
    1C        C  637   2.811   4.274   2.289
    1C        C  638   2.678   4.110   2.412
    1C        C  639   2.761   4.225   2.411
    1C        C  640   2.641   4.050   2.534
    1C        C  641   2.689   4.107   2.654
    1C        C  642   2.587   3.922   2.778
    1C        C  643   2.650   4.048   2.777
    1C        C  644   2.562   3.857   2.901
    1C        C  645   2.592   3.927   3.021
    1C        C  646   2.533   3.723   3.149
    1C        C  647   2.569   3.859   3.142
    1C        C  648   2.516   3.657   3.273
    1C        C  649   2.532   3.729   3.393
    1C        C  650   2.508   3.520   3.518
    1C        C  651   2.517   3.661   3.516
    1C        C  652   2.508   3.453   3.642
    1C        C  653   2.508   3.524   3.765
    1C        C  654   2.534   3.315   3.889
    1C        C  655   2.514   3.455   3.888
    1C        C  656   2.543   3.246   4.012
    1C        C  657   2.529   3.316   4.134
    1C        C  658   2.597   3.120   4.259
    1C        C  659   2.549   3.253   4.258
    1C        C  660   2.632   3.059   4.382
    1C        C  661   2.598   3.119   4.505
    1C        C  662   2.706   2.934   4.626
    1C        C  663   2.628   3.052   4.625
    1C        C  664   2.746   2.873   4.747
    1C        C  665   2.697   2.934   4.866
    1C        C  666   2.747   2.875   4.983
    1C        C  667   2.680   4.026   2.054
    1C        C  668   2.683   4.103   2.171
    1C        C  669   2.592   3.910   2.293
    1C        C  670   2.648   4.040   2.293
    1C        C  671   2.562   3.847   2.416
    1C        C  672   2.585   3.921   2.534
    1C        C  673   2.517   3.720   2.660
    1C        C  674   2.562   3.854   2.657
    1C        C  675   2.510   3.649   2.782
    1C        C  676   2.526   3.721   2.903
    1C        C  677   2.504   3.513   3.030
    1C        C  678   2.516   3.654   3.027
    1C        C  679   2.505   3.445   3.154
    1C        C  680   2.503   3.516   3.276
    1C        C  681   2.532   3.307   3.400
    1C        C  682   2.504   3.445   3.398
    1C        C  683   2.549   3.243   3.525
    1C        C  684   2.532   3.314   3.646
    1C        C  685   2.595   3.111   3.769
    1C        C  686   2.548   3.244   3.768
    1C        C  687   2.625   3.051   3.893
    1C        C  688   2.597   3.116   4.016
    1C        C  689   2.712   2.939   4.137
    1C        C  690   2.635   3.057   4.138
    1C        C  691   2.753   2.885   4.261
    1C        C  692   2.713   2.943   4.383
    1C        C  693   2.753   2.882   4.503
    1C        C  694   2.631   3.894   2.057
    1C        C  695   2.522   3.707   2.175
    1C        C  696   2.577   3.837   2.173
    1C        C  697   2.505   3.640   2.298
    1C        C  698   2.516   3.714   2.418
    1C        C  699   2.487   3.506   2.543
    1C        C  700   2.497   3.647   2.541
    1C        C  701   2.498   3.434   2.664
    1C        C  702   2.498   3.508   2.784
    1C        C  703   2.522   3.302   2.910
    1C        C  704   2.500   3.441   2.908
    1C        C  705   2.544   3.235   3.033
    1C        C  706   2.532   3.306   3.154
    1C        C  707   2.595   3.105   3.279
    1C        C  708   2.547   3.238   3.277
    1C        C  709   2.629   3.046   3.402
    1C        C  710   2.602   3.112   3.524
    1C        C  711   2.712   2.933   3.649
    1C        C  712   2.630   3.048   3.647
    1C        C  713   2.753   2.877   3.772
    1C        C  714   2.710   2.938   3.892
    1C        C  715   2.756   2.883   4.014
    1C        C  716   2.443   3.499   2.064
    1C        C  717   2.490   3.631   2.062
    1C        C  718   2.458   3.422   2.184
    1C        C  719   2.484   3.499   2.301
    1C        C  720   2.503   3.290   2.425
    1C        C  721   2.484   3.430   2.424
    1C        C  722   2.532   3.222   2.545
    1C        C  723   2.523   3.295   2.666
    1C        C  724   2.592   3.098   2.790
    1C        C  725   2.541   3.230   2.790
    1C        C  726   2.622   3.036   2.913
    1C        C  727   2.591   3.102   3.034
    1C        C  728   2.707   2.925   3.161
    1C        C  729   2.626   3.041   3.157
    1C        C  730   2.752   2.872   3.284
    1C        C  731   2.707   2.928   3.405
    1C        C  732   2.756   2.877   3.527
    1C        C  733   2.497   3.200   2.071
    1C        C  734   2.482   3.281   2.184
    1C        C  735   2.575   3.085   2.309
    1C        C  736   2.516   3.215   2.306
    1C        C  737   2.601   3.014   2.428
    1C        C  738   2.584   3.090   2.546
    1C        C  739   2.699   2.913   2.670
    1C        C  740   2.623   3.032   2.669
    1C        C  741   2.742   2.856   2.792
    1C        C  742   2.701   2.918   2.913
    1C        C  743   2.749   2.871   3.037
    1C        C  744   2.543   3.069   2.076
    1C        C  745   2.689   2.904   2.187
    1C        C  746   2.612   3.022   2.188
    1C        C  747   2.731   2.843   2.307
    1C        C  748   2.685   2.901   2.428
    1C        C  749   2.738   2.852   2.549
    1C        C  750   2.735   2.839   2.071
    1C        C  751   3.659   2.327   1.968
    1C        O  752   3.712   2.221   2.011
    1C        O  753   3.593   2.323   1.845
    1C        C  754   4.610   3.070   1.956
    1C        O  755   4.564   3.084   1.840
    1C        O  756   4.739   3.016   1.959
    1C        C  757   4.429   4.218   1.948
    1C        O  758   4.509   4.314   1.964
    1C        O  759   4.419   4.203   1.809
    1C        C  760   3.592   4.672   1.951
    1C        O  761   3.543   4.781   1.992
    1C        O  762   3.569   4.643   1.816
    1C        C  763   2.875   4.487   1.946
    1C        O  764   2.924   4.450   1.836
    1C        O  765   2.782   4.591   1.955
    1C        C  766   2.328   3.484   1.972
    1C        O  767   2.345   3.459   1.849
    1C        O  768   2.196   3.517   2.004
    1C        C  769   4.659   3.585   5.086
    1C        O  770   4.603   3.565   5.197
    1C        O  771   4.797   3.609   5.087
    1C        C  772   4.273   4.468   5.037
    1C        O  773   4.268   4.462   5.163
    1C        O  774   4.406   4.498   5.005
    1C        C  775   4.148   2.489   5.041
    1C        O  776   4.185   2.388   4.974
    1C        O  777   4.149   2.456   5.177
    1C        C  778   2.869   4.554   5.040
    1C        O  779   2.798   4.643   4.985
    1C        O  780   2.838   4.538   5.176
    1C        C  781   2.508   3.038   5.103
    1C        O  782   2.405   2.965   5.090
    1C        O  783   2.537   3.069   5.235
    1C        C  784   2.448   3.981   5.082
    1C        O  785   2.324   3.995   5.072
    1C        O  786   2.487   3.954   5.214
    1C        C  787   2.960   2.433   1.991
    1C        O  788   2.953   2.463   1.869
    1C        O  789   2.873   2.334   2.035
    1C        C  790   3.175   2.369   5.056
    1C        O  791   3.094   2.276   5.031
    1C        O  792   3.222   2.355   5.187
    1C        H  793   4.275   3.026   5.061
    1C        H  794   4.169   2.814   5.075
    1C        H  795   4.503   3.128   5.059
    1C        H  796   4.510   3.376   5.067
    1C        H  797   4.593   3.822   5.034
    1C        H  798   4.453   4.005   5.048
    1C        H  799   4.252   4.138   5.046
    1C        H  800   4.025   4.514   5.039
    1C        H  801   3.826   4.615   5.029
    1C        H  802   3.587   4.629   5.043
    1C        H  803   3.396   4.465   5.030
    1C        H  804   3.155   4.541   5.054
    1C        H  805   3.892   2.488   5.068
    1C        H  806   3.675   2.430   5.064
    1C        H  807   2.978   2.524   5.042
    1C        H  808   3.441   2.515   5.067
    1C        H  809   2.889   2.750   5.077
    1C        H  810   2.702   2.886   5.080
    1C        H  811   2.495   3.290   5.068
    1C        H  812   2.524   3.499   5.073
    1C        H  813   2.537   3.734   5.070
    1C        H  814   2.559   4.198   5.019
    1C        H  815   2.748   4.336   5.049
    1C        H  816   2.676   2.849   1.982
    1C        H  817   2.877   2.722   1.978
    1C        H  818   3.213   2.426   1.992
    1C        H  819   3.440   2.473   1.983
    1C        H  820   3.860   2.504   1.971
    1C        H  821   4.078   2.580   1.984
    1C        H  822   4.268   2.706   1.984
    1C        H  823   4.427   2.868   1.988
    1C        H  824   4.620   3.311   1.985
    1C        H  825   4.575   3.530   1.969
    1C        H  826   4.454   3.739   1.963
    1C        H  827   3.819   4.562   1.972
    1C        H  828   3.953   4.369   1.952
    1C        H  829   4.147   4.236   1.954
    1C        H  830   4.525   3.988   1.987
    1C        H  831   2.681   3.830   1.987
    1C        H  832   2.664   4.081   1.964
    1C        H  833   2.696   4.324   1.992
    1C        H  834   3.366   4.513   1.949
    1C        H  835   3.147   4.426   1.949
    1C        H  836   2.494   2.996   2.014
    1C        H  837   2.473   3.234   1.972
    1C        H  838   2.515   3.669   1.965
    2V3OU   H29  839   2.806   3.545   1.974
    2V3OU   C27  840   2.787   3.502   2.076
    2V3OU   H27  841   2.733   3.570   2.148
    2V3OU   H28  842   2.726   3.408   2.071
    2V3OU   O11  843   2.915   3.476   2.132
    2V3OU   C15  844   2.925   3.402   2.248
    2V3OU   C13  845   3.056   3.375   2.293
    2V3OU   C14  846   3.081   3.271   2.383
    2V3OU   C16  847   2.979   3.191   2.434
    2V3OU    H6  848   2.991   3.106   2.503
    2V3OU   C12  849   3.216   3.229   2.426
    2V3OU    O2  850   3.241   3.125   2.491
    2V3OU   C10  851   3.331   3.314   2.392
    2V3OU    C8  852   3.460   3.267   2.416
    2V3OU   O10  853   3.489   3.150   2.479
    2V3OU   H26  854   3.405   3.112   2.509
    2V3OU    C6  855   3.566   3.352   2.372
    2V3OU    C5  856   3.536   3.470   2.305
    2V3OU    C4  857   3.704   3.295   2.380
    2V3OU    H4  858   3.728   3.230   2.468
    2V3OU    H5  859   3.712   3.233   2.286
    2V3OU    C2  860   3.816   3.400   2.379
    2V3OU    O6  861   3.812   3.473   2.501
    2V3OU   H21  862   3.769   3.558   2.479
    2V3OU    C3  863   3.786   3.496   2.263
    2V3OU    H2  864   3.874   3.566   2.259
    2V3OU    H3  865   3.782   3.441   2.166
    2V3OU   C25  866   3.951   3.329   2.367
    2V3OU    O7  867   4.000   3.300   2.258
    2V3OU   C26  868   4.031   3.295   2.491
    2V3OU   H22  869   4.071   3.382   2.550
    2V3OU   H23  870   4.114   3.224   2.464
    2V3OU    O8  871   3.957   3.208   2.574
    2V3OU   H24  872   3.918   3.255   2.649
    2V3OU    C1  873   3.653   3.563   2.292
    2V3OU    H1  874   3.624   3.624   2.201
    2V3OU    O3  875   3.663   3.652   2.403
    2V3OU   C19  876   3.625   3.789   2.387
    2V3OU    H9  877   3.530   3.805   2.328
    2V3OU    O4  878   3.718   3.844   2.296
    2V3OU   C20  879   3.845   3.872   2.354
    2V3OU   H10  880   3.898   3.773   2.365
    2V3OU   C24  881   3.613   3.855   2.524
    2V3OU   H16  882   3.544   3.793   2.588
    2V3OU   H17  883   3.568   3.955   2.502
    2V3OU   C23  884   3.753   3.872   2.584
    2V3OU   H15  885   3.794   3.770   2.613
    2V3OU    N1  886   3.741   3.957   2.701
    2V3OU   H19  887   3.801   3.923   2.773
    2V3OU   H20  888   3.649   3.949   2.740
    2V3OU   C21  889   3.847   3.949   2.486
    2V3OU   H11  890   3.952   3.926   2.522
    2V3OU    O5  891   3.828   4.089   2.477
    2V3OU   H18  892   3.782   4.106   2.561
    2V3OU   C22  893   3.916   3.950   2.244
    2V3OU   H12  894   3.857   4.044   2.227
    2V3OU   H13  895   3.914   3.892   2.149
    2V3OU   H14  896   4.024   3.963   2.271
    2V3OU   C11  897   3.161   3.477   2.281
    2V3OU    O1  898   3.136   3.593   2.241
    2V3OU    C9  899   3.296   3.433   2.323
    2V3OU    C7  900   3.401   3.512   2.279
    2V3OU    O9  901   3.387   3.612   2.184
    2V3OU   H25  902   3.292   3.631   2.184
    2V3OU   C17  903   2.824   3.313   2.291
    2V3OU    H7  904   2.723   3.356   2.287
    2V3OU   C18  905   2.852   3.212   2.382
    2V3OU    H8  906   2.777   3.167   2.448
    3SOL     OW  907   3.178   4.646   1.085
    3SOL    HW1  908   3.220   4.592   1.012
    3SOL    HW2  909   3.080   4.628   1.087
    4SOL     OW  910   6.528   5.751   1.747
    4SOL    HW1  911   6.541   5.844   1.711
    4SOL    HW2  912   6.431   5.730   1.749
    5SOL     OW  913   4.985   1.334   2.731
    5SOL    HW1  914   4.935   1.304   2.651
    5SOL    HW2  915   5.059   1.396   2.703
    6SOL     OW  916   3.872   0.910   1.406
    6SOL    HW1  917   3.831   0.994   1.372
    6SOL    HW2  918   3.961   0.931   1.447
    7SOL     OW  919   6.938   3.835   2.300
    7SOL    HW1  920   6.985   3.752   2.332
    7SOL    HW2  921   6.900   3.884   2.379
    8SOL     OW  922   2.412   0.417   6.723
    8SOL    HW1  923   2.393   0.515   6.722
    8SOL    HW2  924   2.451   0.391   6.811
    9SOL     OW  925   6.670   6.747   6.496
    9SOL    HW1  926   6.694   6.672   6.434
    9SOL    HW2  927   6.752   6.801   6.517
   10SOL     OW  928   1.322   5.236   6.332
   10SOL    HW1  929   1.240   5.287   6.356
   10SOL    HW2  930   1.298   5.161   6.269
   11SOL     OW  931   2.429   0.626   6.157
   11SOL    HW1  932   2.493   0.571   6.211
   11SOL    HW2  933   2.354   0.657   6.215
   12SOL     OW  934   3.552   6.913   3.848
   12SOL    HW1  935   3.477   6.976   3.828
   12SOL    HW2  936   3.636   6.947   3.805
   13SOL     OW  937   4.264   5.675   3.642
   13SOL    HW1  938   4.237   5.594   3.695
   13SOL    HW2  939   4.246   5.658   3.545
   14SOL     OW  940   4.310   5.206   5.736
   14SOL    HW1  941   4.233   5.267   5.758
   14SOL    HW2  942   4.293   5.160   5.649
   15SOL     OW  943   1.589   6.211   1.250
   15SOL    HW1  944   1.497   6.184   1.223
   15SOL    HW2  945   1.595   6.216   1.350
   16SOL     OW  946   5.136   3.007   5.572
   16SOL    HW1  947   5.179   3.035   5.486
   16SOL    HW2  948   5.205   3.006   5.645
   17SOL     OW  949   4.842   6.009   5.613
   17SOL    HW1  950   4.751   6.043   5.639
   17SOL    HW2  951   4.850   6.010   5.513
   18SOL     OW  952   3.487   0.868   6.173
   18SOL    HW1  953   3.577   0.901   6.205
   18SOL    HW2  954   3.430   0.847   6.252
   19SOL     OW  955   0.205   0.439   3.054
   19SOL    HW1  956   0.110   0.444   3.086
   19SOL    HW2  957   0.266   0.431   3.132
   20SOL     OW  958   5.824   2.587   4.286
   20SOL    HW1  959   5.746   2.636   4.247
   20SOL    HW2  960   5.846   2.508   4.229
   21SOL     OW  961   3.415   2.029   2.407
   21SOL    HW1  962   3.462   2.050   2.321
   21SOL    HW2  963   3.458   2.080   2.482
   22SOL     OW  964   2.361   6.663   0.259
   22SOL    HW1  965   2.368   6.757   0.224
   22SOL    HW2  966   2.355   6.664   0.359
   23SOL     OW  967   5.084   6.636   2.767
   23SOL    HW1  968   5.032   6.617   2.851
   23SOL    HW2  969   5.159   6.570   2.759
   24SOL     OW  970   4.879   1.658   3.049
   24SOL    HW1  971   4.831   1.694   3.129
   24SOL    HW2  972   4.820   1.668   2.969
   25SOL     OW  973   3.206   7.015   5.165
   25SOL    HW1  974   3.173   0.056   5.098
   25SOL    HW2  975   3.306   7.012   5.163
   26SOL     OW  976   6.990   0.779   0.757
   26SOL    HW1  977   7.013   0.822   0.845
   26SOL    HW2  978   0.043   0.785   0.696
   27SOL     OW  979   1.258   1.673   2.228
   27SOL    HW1  980   1.200   1.731   2.171
   27SOL    HW2  981   1.231   1.577   2.216
   28SOL     OW  982   3.854   1.680   6.657
   28SOL    HW1  983   3.798   1.729   6.724
   28SOL    HW2  984   3.896   1.745   6.595
   29SOL     OW  985   4.791   2.815   2.145
   29SOL    HW1  986   4.765   2.894   2.089
   29SOL    HW2  987   4.710   2.759   2.163
   30SOL     OW  988   3.357   1.336   3.969
   30SOL    HW1  989   3.386   1.321   3.874
   30SOL    HW2  990   3.258   1.348   3.971
   31SOL     OW  991   0.924   2.719   6.253
   31SOL    HW1  992   0.975   2.648   6.205
   31SOL    HW2  993   0.829   2.690   6.265
   32SOL     OW  994   0.245   1.302   3.083
   32SOL    HW1  995   0.211   1.352   3.162
   32SOL    HW2  996   0.210   1.344   2.999
   33SOL     OW  997   2.017   4.229   6.767
   33SOL    HW1  998   2.038   4.209   6.863
   33SOL    HW2  999   2.093   4.199   6.709
   34SOL     OW 1000   2.393   1.669   3.765
   34SOL    HW1 1001   2.479   1.706   3.800
   34SOL    HW2 1002   2.362   1.723   3.688
   35SOL     OW 1003   3.539   3.331   6.629
   35SOL    HW1 1004   3.593   3.286   6.557
   35SOL    HW2 1005   3.501   3.416   6.593
   36SOL     OW 1006   6.154   0.600   5.411
   36SOL    HW1 1007   6.080   0.622   5.475
   36SOL    HW2 1008   6.143   0.654   5.328
   37SOL     OW 1009   0.902   0.747   0.527
   37SOL    HW1 1010   0.874   0.788   0.440
   37SOL    HW2 1011   0.832   0.683   0.557
   38SOL     OW 1012   6.778   5.153   3.078
   38SOL    HW1 1013   6.747   5.139   2.984
   38SOL    HW2 1014   6.848   5.086   3.100
   39SOL     OW 1015   0.204   5.242   6.846
   39SOL    HW1 1016   0.232   5.337   6.863
   39SOL    HW2 1017   0.225   5.186   6.926
   40SOL     OW 1018   5.099   2.297   1.394
   40SOL    HW1 1019   5.130   2.222   1.336
   40SOL    HW2 1020   5.009   2.275   1.432
   41SOL     OW 1021   7.024   6.216   4.405
   41SOL    HW1 1022   0.051   6.301   4.399
   41SOL    HW2 1023   0.061   6.140   4.427
   42SOL     OW 1024   2.686   5.207   5.126
   42SOL    HW1 1025   2.667   5.209   5.224
   42SOL    HW2 1026   2.654   5.120   5.087
   43SOL     OW 1027   5.806   6.190   5.641
   43SOL    HW1 1028   5.755   6.127   5.584
   43SOL    HW2 1029   5.750   6.218   5.720
   44SOL     OW 1030   5.373   2.014   0.173
   44SOL    HW1 1031   5.396   1.974   0.262
   44SOL    HW2 1032   5.275   2.007   0.158
   45SOL     OW 1033   3.722   6.765   3.064
   45SOL    HW1 1034   3.794   6.813   3.013
   45SOL    HW2 1035   3.762   6.723   3.146
   46SOL     OW 1036   0.510   3.163   3.151
   46SOL    HW1 1037   0.556   3.132   3.234
   46SOL    HW2 1038   0.573   3.220   3.098
   47SOL     OW 1039   5.194   4.596   1.516
   47SOL    HW1 1040   5.212   4.543   1.599
   47SOL    HW2 1041   5.124   4.551   1.462
   48SOL     OW 1042   6.501   2.309   5.803
   48SOL    HW1 1043   6.442   2.240   5.761
   48SOL    HW2 1044   6.518   2.382   5.737
   49SOL     OW 1045   5.166   3.587   1.703
   49SOL    HW1 1046   5.174   3.572   1.802
   49SOL    HW2 1047   5.223   3.520   1.655
   50SOL     OW 1048   6.213   1.347   5.272
   50SOL    HW1 1049   6.195   1.270   5.210
   50SOL    HW2 1050   6.150   1.421   5.253
   51SOL     OW 1051   2.980   6.180   3.015
   51SOL    HW1 1052   3.076   6.153   3.024
   51SOL    HW2 1053   2.944   6.202   3.105
   52SOL     OW 1054   5.286   2.440   3.132
   52SOL    HW1 1055   5.198   2.440   3.180
   52SOL    HW2 1056   5.275   2.397   3.042
   53SOL     OW 1057   3.543   6.835   4.560
   53SOL    HW1 1058   3.476   6.892   4.513
   53SOL    HW2 1059   3.555   6.750   4.509
   54SOL     OW 1060   3.675   4.672   1.259
   54SOL    HW1 1061   3.618   4.599   1.296
   54SOL    HW2 1062   3.647   4.690   1.164
   55SOL     OW 1063   2.800   1.663   6.488
   55SOL    HW1 1064   2.819   1.760   6.471
   55SOL    HW2 1065   2.723   1.634   6.430
   56SOL     OW 1066   0.052   0.588   1.422
   56SOL    HW1 1067   6.994   0.621   1.466
   56SOL    HW2 1068   0.126   0.585   1.489
   57SOL     OW 1069   5.331   0.843   1.362
   57SOL    HW1 1070   5.339   0.826   1.460
   57SOL    HW2 1071   5.420   0.872   1.326
   58SOL     OW 1072   6.194   6.609   5.698
   58SOL    HW1 1073   6.106   6.651   5.675
   58SOL    HW2 1074   6.212   6.533   5.637
   59SOL     OW 1075   0.446   1.833   5.563
   59SOL    HW1 1076   0.466   1.753   5.505
   59SOL    HW2 1077   0.527   1.892   5.566
   60SOL     OW 1078   5.171   1.457   5.575
   60SOL    HW1 1079   5.143   1.549   5.547
   60SOL    HW2 1080   5.113   1.426   5.650
   61SOL     OW 1081   5.000   2.336   4.507
   61SOL    HW1 1082   4.942   2.413   4.482
   61SOL    HW2 1083   4.987   2.315   4.604
   62SOL     OW 1084   0.445   1.069   2.312
   62SOL    HW1 1085   0.439   1.072   2.212
   62SOL    HW2 1086   0.366   1.019   2.348
   63SOL     OW 1087   5.171   0.999   3.956
   63SOL    HW1 1088   5.256   1.051   3.958
   63SOL    HW2 1089   5.097   1.054   3.993
   64SOL     OW 1090   0.065   3.524   5.940
   64SOL    HW1 1091   7.003   3.572   5.932
   64SOL    HW2 1092   0.049   3.426   5.943
   65SOL     OW 1093   0.354   5.049   6.679
   65SOL    HW1 1094   0.286   5.081   6.613
   65SOL    HW2 1095   0.329   5.081   6.770
   66SOL     OW 1096   3.714   0.953   5.695
   66SOL    HW1 1097   3.773   0.952   5.615
   66SOL    HW2 1098   3.742   0.880   5.758
   67SOL     OW 1099   5.420   4.460   5.997
   67SOL    HW1 1100   5.328   4.423   5.985
   67SOL    HW2 1101   5.428   4.503   6.087
   68SOL     OW 1102   5.659   0.940   6.821
   68SOL    HW1 1103   5.674   1.039   6.814
   68SOL    HW2 1104   5.561   0.921   6.812
   69SOL     OW 1105   0.635   3.635   5.761
   69SOL    HW1 1106   0.564   3.689   5.716
   69SOL    HW2 1107   0.604   3.608   5.852
   70SOL     OW 1108   5.427   4.183   4.464
   70SOL    HW1 1109   5.413   4.146   4.556
   70SOL    HW2 1110   5.525   4.187   4.445
   71SOL     OW 1111   3.817   1.806   2.903
   71SOL    HW1 1112   3.789   1.901   2.886
   71SOL    HW2 1113   3.913   1.795   2.879
   72SOL     OW 1114   2.064   6.428   4.616
   72SOL    HW1 1115   2.095   6.348   4.667
   72SOL    HW2 1116   2.094   6.511   4.663
   73SOL     OW 1117   3.056   1.327   0.507
   73SOL    HW1 1118   2.996   1.247   0.510
   73SOL    HW2 1119   3.009   1.403   0.462
   74SOL     OW 1120   5.213   6.931   6.858
   74SOL    HW1 1121   5.257   6.860   6.803
   74SOL    HW2 1122   5.179   6.892   6.943
   75SOL     OW 1123   3.836   0.159   0.392
   75SOL    HW1 1124   3.903   0.095   0.429
   75SOL    HW2 1125   3.754   0.159   0.450
   76SOL     OW 1126   2.926   3.456   0.826
   76SOL    HW1 1127   2.888   3.479   0.737
   76SOL    HW2 1128   2.964   3.538   0.868
   77SOL     OW 1129   6.703   6.645   3.496
   77SOL    HW1 1130   6.657   6.567   3.540
   77SOL    HW2 1131   6.760   6.611   3.422
   78SOL     OW 1132   5.725   0.626   0.038
   78SOL    HW1 1133   5.637   0.602   7.022
   78SOL    HW2 1134   5.724   0.723   0.063
   79SOL     OW 1135   3.306   6.190   0.520
   79SOL    HW1 1136   3.315   6.115   0.454
   79SOL    HW2 1137   3.362   6.267   0.489
   80SOL     OW 1138   5.099   2.092   3.884
   80SOL    HW1 1139   5.198   2.104   3.892
   80SOL    HW2 1140   5.056   2.182   3.878
   81SOL     OW 1141   1.994   6.884   2.579
   81SOL    HW1 1142   1.984   6.982   2.597
   81SOL    HW2 1143   2.077   6.867   2.525
   82SOL     OW 1144   6.616   4.783   0.980
   82SOL    HW1 1145   6.701   4.734   0.961
   82SOL    HW2 1146   6.549   4.762   0.910
   83SOL     OW 1147   0.513   0.823   0.118
   83SOL    HW1 1148   0.502   0.910   0.166
   83SOL    HW2 1149   0.610   0.797   0.119
   84SOL     OW 1150   5.994   2.730   3.364
   84SOL    HW1 1151   6.089   2.761   3.371
   84SOL    HW2 1152   5.954   2.723   3.456
   85SOL     OW 1153   1.488   1.905   4.388
   85SOL    HW1 1154   1.396   1.892   4.425
   85SOL    HW2 1155   1.534   1.978   4.438
   86SOL     OW 1156   6.657   0.264   5.048
   86SOL    HW1 1157   6.706   0.338   5.002
   86SOL    HW2 1158   6.565   0.295   5.072
   87SOL     OW 1159   4.722   3.224   0.673
   87SOL    HW1 1160   4.782   3.198   0.598
   87SOL    HW2 1161   4.627   3.218   0.644
   88SOL     OW 1162   3.592   1.707   5.798
   88SOL    HW1 1163   3.645   1.777   5.752
   88SOL    HW2 1164   3.642   1.620   5.795
   89SOL     OW 1165   1.107   2.617   5.925
   89SOL    HW1 1166   1.089   2.564   6.008
   89SOL    HW2 1167   1.043   2.589   5.853
   90SOL     OW 1168   3.430   5.847   2.417
   90SOL    HW1 1169   3.474   5.916   2.360
   90SOL    HW2 1170   3.427   5.760   2.367
   91SOL     OW 1171   4.996   4.157   5.008
   91SOL    HW1 1172   5.049   4.093   5.064
   91SOL    HW2 1173   4.931   4.105   4.952
   92SOL     OW 1174   4.133   4.789   0.544
   92SOL    HW1 1175   4.089   4.791   0.454
   92SOL    HW2 1176   4.086   4.851   0.606
   93SOL     OW 1177   2.994   4.071   6.518
   93SOL    HW1 1178   2.945   4.072   6.431
   93SOL    HW2 1179   2.996   3.977   6.554
   94SOL     OW 1180   2.450   5.740   6.702
   94SOL    HW1 1181   2.497   5.814   6.750
   94SOL    HW2 1182   2.366   5.775   6.659
   95SOL     OW 1183   1.218   0.570   3.345
   95SOL    HW1 1184   1.231   0.636   3.271
   95SOL    HW2 1185   1.304   0.522   3.363
   96SOL     OW 1186   3.459   0.069   5.325
   96SOL    HW1 1187   3.513   0.059   5.241
   96SOL    HW2 1188   3.464   0.164   5.356
   97SOL     OW 1189   2.067   2.957   6.049
   97SOL    HW1 1190   2.015   3.039   6.075
   97SOL    HW2 1191   2.139   2.941   6.116
   98SOL     OW 1192   6.809   3.619   0.813
   98SOL    HW1 1193   6.731   3.568   0.848
   98SOL    HW2 1194   6.833   3.692   0.878
   99SOL     OW 1195   3.814   3.663   1.202
   99SOL    HW1 1196   3.831   3.645   1.105
   99SOL    HW2 1197   3.718   3.685   1.216
  100SOL     OW 1198   6.715   6.912   5.229
  100SOL    HW1 1199   6.619   6.936   5.232
  100SOL    HW2 1200   6.756   6.922   5.320
  101SOL     OW 1201   1.379   5.032   2.419
  101SOL    HW1 1202   1.467   5.004   2.380
  101SOL    HW2 1203   1.317   5.057   2.345
  102SOL     OW 1204   4.235   6.275   2.807
  102SOL    HW1 1205   4.204   6.331   2.884
  102SOL    HW2 1206   4.167   6.203   2.789
  103SOL     OW 1207   2.596   1.321   1.947
  103SOL    HW1 1208   2.554   1.406   1.915
  103SOL    HW2 1209   2.532   1.271   2.005
  104SOL     OW 1210   0.590   5.683   2.721
  104SOL    HW1 1211   0.613   5.732   2.805
  104SOL    HW2 1212   0.549   5.747   2.656
  105SOL     OW 1213   6.400   2.762   6.721
  105SOL    HW1 1214   6.431   2.669   6.739
  105SOL    HW2 1215   6.317   2.759   6.665
  106SOL     OW 1216   3.282   6.342   4.715
  106SOL    HW1 1217   3.298   6.440   4.719
  106SOL    HW2 1218   3.255   6.309   4.805
  107SOL     OW 1219   2.122   1.197   1.402
  107SOL    HW1 1220   2.202   1.164   1.351
  107SOL    HW2 1221   2.123   1.297   1.404
  108SOL     OW 1222   2.929   5.312   5.733
  108SOL    HW1 1223   2.839   5.330   5.694
  108SOL    HW2 1224   3.000   5.331   5.665
  109SOL     OW 1225   6.856   0.313   1.488
  109SOL    HW1 1226   6.886   0.368   1.410
  109SOL    HW2 1227   6.891   0.220   1.478
  110SOL     OW 1228   3.205   5.750   5.193
  110SOL    HW1 1229   3.123   5.800   5.219
  110SOL    HW2 1230   3.185   5.691   5.114
  111SOL     OW 1231   2.151   1.233   4.334
  111SOL    HW1 1232   2.101   1.319   4.338
  111SOL    HW2 1233   2.228   1.242   4.271
  112SOL     OW 1234   4.189   6.884   6.533
  112SOL    HW1 1235   4.262   6.946   6.505
  112SOL    HW2 1236   4.130   6.865   6.454
  113SOL     OW 1237   6.340   6.173   3.032
  113SOL    HW1 1238   6.386   6.106   2.974
  113SOL    HW2 1239   6.400   6.251   3.047
  114SOL     OW 1240   0.457   0.101   1.487
  114SOL    HW1 1241   0.548   0.128   1.518
  114SOL    HW2 1242   0.404   0.182   1.463
  115SOL     OW 1243   4.471   1.558   3.327
  115SOL    HW1 1244   4.538   1.577   3.399
  115SOL    HW2 1245   4.518   1.533   3.243
  116SOL     OW 1246   5.792   5.005   1.385
  116SOL    HW1 1247   5.739   5.056   1.452
  116SOL    HW2 1248   5.879   4.976   1.425
  117SOL     OW 1249   1.658   2.151   0.530
  117SOL    HW1 1250   1.638   2.177   0.624
  117SOL    HW2 1251   1.606   2.068   0.507
  118SOL     OW 1252   1.498   0.698   3.572
  118SOL    HW1 1253   1.470   0.610   3.533
  118SOL    HW2 1254   1.597   0.700   3.582
  119SOL     OW 1255   0.791   0.853   6.844
  119SOL    HW1 1256   0.741   0.871   6.760
  119SOL    HW2 1257   0.873   0.909   6.847
  120SOL     OW 1258   6.116   6.945   0.044
  120SOL    HW1 1259   6.182   6.990   0.104
  120SOL    HW2 1260   6.025   6.951   0.084
  121SOL     OW 1261   1.641   3.985   6.053
  121SOL    HW1 1262   1.544   3.984   6.030
  121SOL    HW2 1263   1.694   4.018   5.975
  122SOL     OW 1264   1.932   3.466   6.096
  122SOL    HW1 1265   2.002   3.495   6.031
  122SOL    HW2 1266   1.959   3.379   6.137
  123SOL     OW 1267   0.612   0.949   2.677
  123SOL    HW1 1268   0.709   0.972   2.678
  123SOL    HW2 1269   0.558   1.032   2.662
  124SOL     OW 1270   4.638   2.882   0.659
  124SOL    HW1 1271   4.578   2.922   0.729
  124SOL    HW2 1272   4.630   2.933   0.574
  125SOL     OW 1273   2.633   1.839   1.360
  125SOL    HW1 1274   2.559   1.792   1.407
  125SOL    HW2 1275   2.600   1.928   1.327
  126SOL     OW 1276   2.137   4.209   0.984
  126SOL    HW1 1277   2.056   4.267   0.973
  126SOL    HW2 1278   2.144   4.179   1.080
  127SOL     OW 1279   1.030   5.459   0.205
  127SOL    HW1 1280   1.021   5.367   0.244
  127SOL    HW2 1281   1.090   5.514   0.263
  128SOL     OW 1282   5.247   2.811   1.220
  128SOL    HW1 1283   5.167   2.829   1.277
  128SOL    HW2 1284   5.323   2.867   1.252
  129SOL     OW 1285   1.910   3.354   6.424
  129SOL    HW1 1286   1.939   3.360   6.519
  129SOL    HW2 1287   1.981   3.394   6.365
  130SOL     OW 1288   1.473   2.198   3.736
  130SOL    HW1 1289   1.539   2.126   3.715
  130SOL    HW2 1290   1.485   2.227   3.831
  131SOL     OW 1291   5.406   2.040   3.632
  131SOL    HW1 1292   5.400   2.063   3.730
  131SOL    HW2 1293   5.481   2.091   3.591
  132SOL     OW 1294   2.807   2.722   1.027
  132SOL    HW1 1295   2.828   2.710   1.124
  132SOL    HW2 1296   2.838   2.812   0.997
  133SOL     OW 1297   4.793   6.950   3.932
  133SOL    HW1 1298   4.773   6.853   3.941
  133SOL    HW2 1299   4.876   6.963   3.877
  134SOL     OW 1300   6.293   1.101   2.858
  134SOL    HW1 1301   6.194   1.089   2.854
  134SOL    HW2 1302   6.337   1.040   2.791
  135SOL     OW 1303   5.686   3.855   3.384
  135SOL    HW1 1304   5.688   3.952   3.410
  135SOL    HW2 1305   5.777   3.816   3.393
  136SOL     OW 1306   2.805   4.048   5.753
  136SOL    HW1 1307   2.827   4.111   5.678
  136SOL    HW2 1308   2.717   4.005   5.735
  137SOL     OW 1309   5.940   2.009   4.506
  137SOL    HW1 1310   5.966   1.916   4.532
  137SOL    HW2 1311   5.989   2.075   4.562
  138SOL     OW 1312   1.227   4.431   2.411
  138SOL    HW1 1313   1.299   4.401   2.474
  138SOL    HW2 1314   1.138   4.428   2.458
  139SOL     OW 1315   1.637   0.017   4.815
  139SOL    HW1 1316   1.681   7.014   4.730
  139SOL    HW2 1317   1.538   0.000   4.809
  140SOL     OW 1318   1.014   5.969   2.525
  140SOL    HW1 1319   0.985   5.950   2.618
  140SOL    HW2 1320   0.938   5.954   2.462
  141SOL     OW 1321   6.784   2.834   5.276
  141SOL    HW1 1322   6.798   2.775   5.196
  141SOL    HW2 1323   6.872   2.867   5.309
  142SOL     OW 1324   0.612   4.218   1.041
  142SOL    HW1 1325   0.609   4.119   1.056
  142SOL    HW2 1326   0.704   4.245   1.012
  143SOL     OW 1327   5.864   4.076   1.042
  143SOL    HW1 1328   5.868   3.983   1.003
  143SOL    HW2 1329   5.784   4.083   1.101
  144SOL     OW 1330   1.148   5.925   5.835
  144SOL    HW1 1331   1.137   5.994   5.906
  144SOL    HW2 1332   1.124   5.965   5.746
  145SOL     OW 1333   6.996   5.298   0.711
  145SOL    HW1 1334   0.031   5.229   0.751
  145SOL    HW2 1335   0.021   5.347   0.640
  146SOL     OW 1336   4.943   0.224   6.676
  146SOL    HW1 1337   4.844   0.215   6.672
  146SOL    HW2 1338   4.985   0.135   6.657
  147SOL     OW 1339   6.133   3.661   6.313
  147SOL    HW1 1340   6.148   3.664   6.214
  147SOL    HW2 1341   6.045   3.618   6.332
  148SOL     OW 1342   6.427   5.435   6.863
  148SOL    HW1 1343   6.416   5.416   6.961
  148SOL    HW2 1344   6.499   5.376   6.826
  149SOL     OW 1345   3.501   2.091   3.836
  149SOL    HW1 1346   3.424   2.154   3.826
  149SOL    HW2 1347   3.502   2.026   3.760
  150SOL     OW 1348   6.044   5.856   6.813
  150SOL    HW1 1349   6.003   5.802   6.740
  150SOL    HW2 1350   6.093   5.795   6.876
  151SOL     OW 1351   2.970   2.513   1.002
  151SOL    HW1 1352   2.998   2.462   0.922
  151SOL    HW2 1353   2.899   2.579   0.977
  152SOL     OW 1354   1.084   0.825   2.287
  152SOL    HW1 1355   1.109   0.776   2.203
  152SOL    HW2 1356   1.144   0.903   2.299
  153SOL     OW 1357   2.678   0.858   1.404
  153SOL    HW1 1358   2.757   0.894   1.453
  153SOL    HW2 1359   2.706   0.828   1.313
  154SOL     OW 1360   0.661   2.015   2.239
  154SOL    HW1 1361   0.695   2.000   2.146
  154SOL    HW2 1362   0.572   2.059   2.235
  155SOL     OW 1363   7.000   1.521   3.418
  155SOL    HW1 1364   6.933   1.558   3.482
  155SOL    HW2 1365   6.965   1.434   3.381
  156SOL     OW 1366   0.193   2.468   0.576
  156SOL    HW1 1367   0.213   2.385   0.627
  156SOL    HW2 1368   0.137   2.529   0.632
  157SOL     OW 1369   5.745   3.158   1.761
  157SOL    HW1 1370   5.817   3.132   1.697
  157SOL    HW2 1371   5.755   3.106   1.846
  158SOL     OW 1372   2.454   4.848   2.181
  158SOL    HW1 1373   2.494   4.903   2.254
  158SOL    HW2 1374   2.528   4.800   2.132
  159SOL     OW 1375   4.676   4.713   2.299
  159SOL    HW1 1376   4.652   4.793   2.243
  159SOL    HW2 1377   4.630   4.632   2.262
  160SOL     OW 1378   5.237   5.285   0.670
  160SOL    HW1 1379   5.194   5.202   0.637
  160SOL    HW2 1380   5.251   5.279   0.768
  161SOL     OW 1381   1.730   5.738   4.091
  161SOL    HW1 1382   1.693   5.827   4.065
  161SOL    HW2 1383   1.827   5.749   4.115
  162SOL     OW 1384   3.743   5.802   0.298
  162SOL    HW1 1385   3.707   5.867   0.366
  162SOL    HW2 1386   3.718   5.709   0.325
  163SOL     OW 1387   6.307   5.147   1.256
  163SOL    HW1 1388   6.355   5.139   1.169
  163SOL    HW2 1389   6.221   5.096   1.252
  164SOL     OW 1390   6.982   4.845   0.689
  164SOL    HW1 1391   6.927   4.833   0.771
  164SOL    HW2 1392   6.972   4.765   0.629
  165SOL     OW 1393   4.912   3.230   1.325
  165SOL    HW1 1394   4.921   3.229   1.425
  165SOL    HW2 1395   4.815   3.227   1.301
  166SOL     OW 1396   0.009   3.843   2.908
  166SOL    HW1 1397   0.083   3.855   2.975
  166SOL    HW2 1398   6.954   3.893   2.938
  167SOL     OW 1399   4.914   2.950   0.334
  167SOL    HW1 1400   4.827   2.937   0.381
  167SOL    HW2 1401   4.940   2.866   0.287
  168SOL     OW 1402   2.669   3.560   1.118
  168SOL    HW1 1403   2.585   3.539   1.068
  168SOL    HW2 1404   2.654   3.543   1.216
  169SOL     OW 1405   4.872   1.570   1.856
  169SOL    HW1 1406   4.905   1.661   1.832
  169SOL    HW2 1407   4.772   1.571   1.862
  170SOL     OW 1408   1.056   1.047   3.505
  170SOL    HW1 1409   1.113   1.030   3.424
  170SOL    HW2 1410   1.004   1.132   3.492
  171SOL     OW 1411   3.566   4.359   6.512
  171SOL    HW1 1412   3.505   4.397   6.582
  171SOL    HW2 1413   3.574   4.423   6.436
  172SOL     OW 1414   6.013   1.907   3.087
  172SOL    HW1 1415   6.044   1.923   3.181
  172SOL    HW2 1416   5.956   1.984   3.057
  173SOL     OW 1417   6.296   1.882   4.442
  173SOL    HW1 1418   6.324   1.796   4.399
  173SOL    HW2 1419   6.199   1.898   4.424
  174SOL     OW 1420   4.002   5.318   3.245
  174SOL    HW1 1421   4.097   5.323   3.275
  174SOL    HW2 1422   3.954   5.247   3.296
  175SOL     OW 1423   2.494   0.122   1.577
  175SOL    HW1 1424   2.506   0.174   1.661
  175SOL    HW2 1425   2.578   0.125   1.522
  176SOL     OW 1426   0.801   4.858   0.700
  176SOL    HW1 1427   0.810   4.922   0.623
  176SOL    HW2 1428   0.795   4.765   0.665
  177SOL     OW 1429   5.710   3.104   2.799
  177SOL    HW1 1430   5.782   3.137   2.738
  177SOL    HW2 1431   5.645   3.178   2.817
  178SOL     OW 1432   2.182   3.107   6.885
  178SOL    HW1 1433   2.200   3.059   6.971
  178SOL    HW2 1434   2.108   3.173   6.900
  179SOL     OW 1435   3.684   0.868   5.250
  179SOL    HW1 1436   3.607   0.806   5.261
  179SOL    HW2 1437   3.750   0.854   5.324
  180SOL     OW 1438   1.708   6.518   0.345
  180SOL    HW1 1439   1.770   6.439   0.346
  180SOL    HW2 1440   1.619   6.490   0.382
  181SOL     OW 1441   3.340   2.949   6.185
  181SOL    HW1 1442   3.369   2.860   6.151
  181SOL    HW2 1443   3.249   2.941   6.225
  182SOL     OW 1444   3.996   1.736   5.159
  182SOL    HW1 1445   3.931   1.781   5.098
  182SOL    HW2 1446   4.078   1.792   5.169
  183SOL     OW 1447   3.981   2.063   3.029
  183SOL    HW1 1448   4.070   2.105   3.044
  183SOL    HW2 1449   3.925   2.073   3.111
  184SOL     OW 1450   1.018   6.455   4.398
  184SOL    HW1 1451   0.966   6.378   4.362
  184SOL    HW2 1452   0.972   6.491   4.479
  185SOL     OW 1453   0.367   1.374   6.058
  185SOL    HW1 1454   0.356   1.459   6.110
  185SOL    HW2 1455   0.461   1.343   6.065
  186SOL     OW 1456   5.812   0.767   4.923
  186SOL    HW1 1457   5.806   0.864   4.943
  186SOL    HW2 1458   5.766   0.715   4.996
  187SOL     OW 1459   4.067   0.091   2.969
  187SOL    HW1 1460   4.125   0.071   3.048
  187SOL    HW2 1461   4.018   0.177   2.984
  188SOL     OW 1462   0.644   1.589   3.125
  188SOL    HW1 1463   0.712   1.604   3.053
  188SOL    HW2 1464   0.666   1.648   3.203
  189SOL     OW 1465   2.399   5.273   1.439
  189SOL    HW1 1466   2.333   5.346   1.426
  189SOL    HW2 1467   2.366   5.208   1.507
  190SOL     OW 1468   5.253   2.341   4.692
  190SOL    HW1 1469   5.257   2.429   4.739
  190SOL    HW2 1470   5.188   2.348   4.616
  191SOL     OW 1471   6.030   6.604   6.923
  191SOL    HW1 1472   5.966   6.546   6.973
  191SOL    HW2 1473   5.984   6.689   6.896
  192SOL     OW 1474   1.072   5.874   2.041
  192SOL    HW1 1475   1.165   5.865   2.079
  192SOL    HW2 1476   1.047   5.789   1.995
  193SOL     OW 1477   4.547   2.630   5.376
  193SOL    HW1 1478   4.547   2.688   5.295
  193SOL    HW2 1479   4.513   2.682   5.454
  194SOL     OW 1480   3.647   0.533   3.214
  194SOL    HW1 1481   3.635   0.632   3.214
  194SOL    HW2 1482   3.742   0.511   3.191
  195SOL     OW 1483   2.159   0.183   5.191
  195SOL    HW1 1484   2.237   0.193   5.129
  195SOL    HW2 1485   2.076   0.216   5.144
  196SOL     OW 1486   2.887   0.085   0.724
  196SOL    HW1 1487   2.787   0.089   0.726
  196SOL    HW2 1488   2.924   0.169   0.763
  197SOL     OW 1489   2.533   6.883   1.383
  197SOL    HW1 1490   2.454   6.851   1.330
  197SOL    HW2 1491   2.539   6.832   1.469
  198SOL     OW 1492   4.368   0.614   2.298
  198SOL    HW1 1493   4.449   0.665   2.271
  198SOL    HW2 1494   4.287   0.673   2.289
  199SOL     OW 1495   6.781   1.829   3.915
  199SOL    HW1 1496   6.708   1.838   3.847
  199SOL    HW2 1497   6.808   1.733   3.922
  200SOL     OW 1498   0.884   4.406   1.238
  200SOL    HW1 1499   0.894   4.336   1.308
  200SOL    HW2 1500   0.896   4.364   1.148
  201SOL     OW 1501   6.993   0.345   5.514
  201SOL    HW1 1502   6.904   0.347   5.467
  201SOL    HW2 1503   0.012   0.257   5.497
  202SOL     OW 1504   4.140   0.882   0.186
  202SOL    HW1 1505   4.045   0.854   0.171
  202SOL    HW2 1506   4.159   0.887   0.284
  203SOL     OW 1507   6.013   2.344   5.196
  203SOL    HW1 1508   6.061   2.414   5.142
  203SOL    HW2 1509   5.963   2.284   5.135
  204SOL     OW 1510   1.162   0.466   5.362
  204SOL    HW1 1511   1.163   0.530   5.439
  204SOL    HW2 1512   1.193   0.512   5.280
  205SOL     OW 1513   0.042   2.148   2.981
  205SOL    HW1 1514   0.003   2.162   2.890
  205SOL    HW2 1515   7.000   2.105   3.041
  206SOL     OW 1516   0.897   4.542   0.816
  206SOL    HW1 1517   0.993   4.567   0.800
  206SOL    HW2 1518   0.861   4.595   0.893
  207SOL     OW 1519   6.350   1.585   3.650
  207SOL    HW1 1520   6.389   1.530   3.724
  207SOL    HW2 1521   6.250   1.582   3.655
  208SOL     OW 1522   6.675   3.747   5.054
  208SOL    HW1 1523   6.594   3.716   5.102
  208SOL    HW2 1524   6.664   3.843   5.026
  209SOL     OW 1525   0.376   5.614   4.703
  209SOL    HW1 1526   0.427   5.529   4.692
  209SOL    HW2 1527   0.410   5.683   4.639
  210SOL     OW 1528   4.224   2.084   0.508
  210SOL    HW1 1529   4.310   2.044   0.541
  210SOL    HW2 1530   4.197   2.040   0.423
  211SOL     OW 1531   1.900   6.317   2.643
  211SOL    HW1 1532   1.820   6.375   2.628
  211SOL    HW2 1533   1.889   6.231   2.593
  212SOL     OW 1534   1.090   4.058   2.130
  212SOL    HW1 1535   0.994   4.084   2.132
  212SOL    HW2 1536   1.098   3.959   2.125
  213SOL     OW 1537   3.145   0.392   0.534
  213SOL    HW1 1538   3.127   0.466   0.470
  213SOL    HW2 1539   3.202   0.323   0.490
  214SOL     OW 1540   4.479   4.922   2.153
  214SOL    HW1 1541   4.412   4.892   2.220
  214SOL    HW2 1542   4.443   4.907   2.061
  215SOL     OW 1543   2.296   4.042   0.430
  215SOL    HW1 1544   2.270   4.137   0.449
  215SOL    HW2 1545   2.269   3.984   0.506
  216SOL     OW 1546   1.868   6.072   3.858
  216SOL    HW1 1547   1.939   6.045   3.922
  216SOL    HW2 1548   1.779   6.040   3.891
  217SOL     OW 1549   1.667   2.565   4.156
  217SOL    HW1 1550   1.620   2.533   4.074
  217SOL    HW2 1551   1.734   2.635   4.130
  218SOL     OW 1552   0.325   3.428   4.618
  218SOL    HW1 1553   0.419   3.422   4.652
  218SOL    HW2 1554   0.288   3.519   4.638
  219SOL     OW 1555   4.536   0.456   0.149
  219SOL    HW1 1556   4.573   0.530   0.205
  219SOL    HW2 1557   4.438   0.470   0.135
  220SOL     OW 1558   2.967   6.467   1.767
  220SOL    HW1 1559   2.905   6.389   1.767
  220SOL    HW2 1560   3.017   6.470   1.681
  221SOL     OW 1561   6.501   4.097   0.907
  221SOL    HW1 1562   6.442   4.170   0.941
  221SOL    HW2 1563   6.445   4.024   0.867
  222SOL     OW 1564   1.830   4.695   5.867
  222SOL    HW1 1565   1.788   4.698   5.958
  222SOL    HW2 1566   1.830   4.787   5.828
  223SOL     OW 1567   6.183   3.658   6.583
  223SOL    HW1 1568   6.258   3.592   6.587
  223SOL    HW2 1569   6.154   3.670   6.488
  224SOL     OW 1570   2.481   1.823   4.665
  224SOL    HW1 1571   2.476   1.842   4.762
  224SOL    HW2 1572   2.485   1.909   4.614
  225SOL     OW 1573   4.610   3.933   6.412
  225SOL    HW1 1574   4.697   3.979   6.393
  225SOL    HW2 1575   4.577   3.961   6.502
  226SOL     OW 1576   1.268   1.786   5.500
  226SOL    HW1 1577   1.322   1.806   5.418
  226SOL    HW2 1578   1.328   1.783   5.580
  227SOL     OW 1579   1.630   3.920   1.841
  227SOL    HW1 1580   1.723   3.894   1.815
  227SOL    HW2 1581   1.605   3.875   1.926
  228SOL     OW 1582   2.641   6.947   3.585
  228SOL    HW1 1583   2.543   6.954   3.563
  228SOL    HW2 1584   2.674   0.010   3.619
  229SOL     OW 1585   6.045   6.228   6.738
  229SOL    HW1 1586   6.101   6.288   6.680
  229SOL    HW2 1587   6.095   6.207   6.822
  230SOL     OW 1588   3.302   4.888   3.561
  230SOL    HW1 1589   3.378   4.845   3.609
  230SOL    HW2 1590   3.230   4.910   3.627
  231SOL     OW 1591   6.324   1.895   6.754
  231SOL    HW1 1592   6.387   1.973   6.758
  231SOL    HW2 1593   6.236   1.925   6.717
  232SOL     OW 1594   0.646   3.321   6.899
  232SOL    HW1 1595   0.614   3.246   6.956
  232SOL    HW2 1596   0.724   3.367   6.943
  233SOL     OW 1597   3.245   1.228   2.752
  233SOL    HW1 1598   3.320   1.168   2.778
  233SOL    HW2 1599   3.257   1.317   2.794
  234SOL     OW 1600   5.644   0.489   5.893
  234SOL    HW1 1601   5.674   0.441   5.811
  234SOL    HW2 1602   5.586   0.566   5.868
  235SOL     OW 1603   4.157   2.564   1.599
  235SOL    HW1 1604   4.230   2.565   1.668
  235SOL    HW2 1605   4.077   2.517   1.637
  236SOL     OW 1606   5.398   2.790   6.600
  236SOL    HW1 1607   5.480   2.847   6.600
  236SOL    HW2 1608   5.317   2.849   6.594
  237SOL     OW 1609   6.393   4.496   1.832
  237SOL    HW1 1610   6.446   4.481   1.915
  237SOL    HW2 1611   6.451   4.537   1.762
  238SOL     OW 1612   5.262   1.679   0.466
  238SOL    HW1 1613   5.309   1.767   0.468
  238SOL    HW2 1614   5.167   1.691   0.496
  239SOL     OW 1615   0.534   5.142   0.113
  239SOL    HW1 1616   0.469   5.216   0.098
  239SOL    HW2 1617   0.619   5.160   0.063
  240SOL     OW 1618   0.216   3.214   3.454
  240SOL    HW1 1619   0.223   3.119   3.422
  240SOL    HW2 1620   0.174   3.215   3.545
  241SOL     OW 1621   2.782   1.924   4.931
  241SOL    HW1 1622   2.737   1.834   4.934
  241SOL    HW2 1623   2.752   1.979   5.008
  242SOL     OW 1624   3.458   3.664   3.979
  242SOL    HW1 1625   3.535   3.638   4.038
  242SOL    HW2 1626   3.414   3.582   3.943
  243SOL     OW 1627   4.510   0.532   6.460
  243SOL    HW1 1628   4.434   0.594   6.479
  243SOL    HW2 1629   4.536   0.538   6.364
  244SOL     OW 1630   6.163   2.497   5.490
  244SOL    HW1 1631   6.176   2.474   5.586
  244SOL    HW2 1632   6.067   2.519   5.473
  245SOL     OW 1633   5.343   3.731   4.111
  245SOL    HW1 1634   5.402   3.651   4.119
  245SOL    HW2 1635   5.368   3.798   4.181
  246SOL     OW 1636   4.335   2.338   3.633
  246SOL    HW1 1637   4.341   2.385   3.721
  246SOL    HW2 1638   4.368   2.399   3.560
  247SOL     OW 1639   2.670   2.033   1.038
  247SOL    HW1 1640   2.762   1.996   1.047
  247SOL    HW2 1641   2.674   2.128   1.006
  248SOL     OW 1642   3.690   1.049   2.349
  248SOL    HW1 1643   3.664   0.953   2.347
  248SOL    HW2 1644   3.624   1.103   2.296
  249SOL     OW 1645   4.128   6.730   4.663
  249SOL    HW1 1646   4.080   6.796   4.722
  249SOL    HW2 1647   4.118   6.638   4.702
  250SOL     OW 1648   5.255   2.908   0.219
  250SOL    HW1 1649   5.200   2.978   0.265
  250SOL    HW2 1650   5.199   2.826   0.205
  251SOL     OW 1651   4.555   4.166   5.599
  251SOL    HW1 1652   4.645   4.137   5.568
  251SOL    HW2 1653   4.493   4.088   5.600
  252SOL     OW 1654   6.635   5.766   6.775
  252SOL    HW1 1655   6.678   5.697   6.833
  252SOL    HW2 1656   6.676   5.763   6.684
  253SOL     OW 1657   2.429   5.220   5.948
  253SOL    HW1 1658   2.400   5.155   6.018
  253SOL    HW2 1659   2.528   5.217   5.938
  254SOL     OW 1660   5.892   2.672   3.648
  254SOL    HW1 1661   5.886   2.580   3.687
  254SOL    HW2 1662   5.801   2.710   3.639
  255SOL     OW 1663   1.563   4.984   5.355
  255SOL    HW1 1664   1.503   4.967   5.277
  255SOL    HW2 1665   1.562   5.082   5.377
  256SOL     OW 1666   6.201   3.650   6.023
  256SOL    HW1 1667   6.116   3.623   5.977
  256SOL    HW2 1668   6.265   3.574   6.023
  257SOL     OW 1669   4.894   0.323   3.912
  257SOL    HW1 1670   4.799   0.315   3.941
  257SOL    HW2 1671   4.898   0.337   3.813
  258SOL     OW 1672   2.213   4.920   4.791
  258SOL    HW1 1673   2.134   4.961   4.744
  258SOL    HW2 1674   2.182   4.871   4.872
  259SOL     OW 1675   0.272   1.513   2.631
  259SOL    HW1 1676   0.264   1.443   2.702
  259SOL    HW2 1677   0.358   1.562   2.642
  260SOL     OW 1678   4.454   0.564   1.440
  260SOL    HW1 1679   4.458   0.580   1.342
  260SOL    HW2 1680   4.363   0.530   1.464
  261SOL     OW 1681   6.981   3.213   0.750
  261SOL    HW1 1682   0.005   3.275   0.688
  261SOL    HW2 1683   6.930   3.267   0.817
  262SOL     OW 1684   0.423   3.667   0.125
  262SOL    HW1 1685   0.352   3.603   0.156
  262SOL    HW2 1686   0.511   3.639   0.164
  263SOL     OW 1687   2.120   0.623   4.128
  263SOL    HW1 1688   2.081   0.683   4.198
  263SOL    HW2 1689   2.047   0.584   4.073
  264SOL     OW 1690   6.155   3.183   6.740
  264SOL    HW1 1691   6.092   3.214   6.669
  264SOL    HW2 1692   6.149   3.244   6.819
  265SOL     OW 1693   5.159   6.528   2.366
  265SOL    HW1 1694   5.254   6.502   2.382
  265SOL    HW2 1695   5.156   6.609   2.308
  266SOL     OW 1696   3.313   2.761   5.711
  266SOL    HW1 1697   3.384   2.832   5.711
  266SOL    HW2 1698   3.252   2.775   5.633
  267SOL     OW 1699   0.578   1.372   6.808
  267SOL    HW1 1700   0.496   1.420   6.776
  267SOL    HW2 1701   0.559   1.275   6.817
  268SOL     OW 1702   3.459   0.865   5.835
  268SOL    HW1 1703   3.555   0.887   5.850
  268SOL    HW2 1704   3.440   0.867   5.737
  269SOL     OW 1705   0.739   3.292   2.010
  269SOL    HW1 1706   0.664   3.272   1.946
  269SOL    HW2 1707   0.816   3.232   1.990
  270SOL     OW 1708   1.036   0.031   0.536
  270SOL    HW1 1709   0.978   7.007   0.601
  270SOL    HW2 1710   0.983   0.105   0.494
  271SOL     OW 1711   0.053   1.783   6.846
  271SOL    HW1 1712   0.072   1.689   6.875
  271SOL    HW2 1713   6.985   1.789   6.813
  272SOL     OW 1714   3.646   5.473   4.513
  272SOL    HW1 1715   3.568   5.462   4.452
  272SOL    HW2 1716   3.702   5.550   4.482
  273SOL     OW 1717   1.733   4.284   4.901
  273SOL    HW1 1718   1.727   4.185   4.890
  273SOL    HW2 1719   1.827   4.309   4.927
  274SOL     OW 1720   4.253   2.157   3.066
  274SOL    HW1 1721   4.235   2.200   2.978
  274SOL    HW2 1722   4.280   2.062   3.052
  275SOL     OW 1723   6.262   4.593   5.248
  275SOL    HW1 1724   6.166   4.576   5.271
  275SOL    HW2 1725   6.317   4.588   5.331
  276SOL     OW 1726   6.939   6.698   2.945
  276SOL    HW1 1727   6.866   6.712   3.013
  276SOL    HW2 1728   6.954   6.600   2.932
  277SOL     OW 1729   1.396   3.953   0.521
  277SOL    HW1 1730   1.448   4.004   0.453
  277SOL    HW2 1731   1.301   3.943   0.490
  278SOL     OW 1732   6.398   5.016   2.188
  278SOL    HW1 1733   6.372   5.061   2.102
  278SOL    HW2 1734   6.477   5.064   2.228
  279SOL     OW 1735   6.654   3.074   4.038
  279SOL    HW1 1736   6.750   3.090   4.061
  279SOL    HW2 1737   6.631   2.978   4.055
  280SOL     OW 1738   2.967   0.138   3.155
  280SOL    HW1 1739   2.957   0.145   3.254
  280SOL    HW2 1740   3.053   0.180   3.127
  281SOL     OW 1741   2.515   4.616   1.972
  281SOL    HW1 1742   2.467   4.606   2.060
  281SOL    HW2 1743   2.613   4.613   1.988
  282SOL     OW 1744   3.267   1.592   5.731
  282SOL    HW1 1745   3.219   1.532   5.796
  282SOL    HW2 1746   3.344   1.636   5.777
  283SOL     OW 1747   5.979   1.295   6.889
  283SOL    HW1 1748   6.033   1.376   6.912
  283SOL    HW2 1749   5.969   1.238   6.970
  284SOL     OW 1750   1.413   4.281   3.203
  284SOL    HW1 1751   1.427   4.184   3.224
  284SOL    HW2 1752   1.416   4.334   3.288
  285SOL     OW 1753   6.016   4.731   5.386
  285SOL    HW1 1754   6.015   4.830   5.400
  285SOL    HW2 1755   6.007   4.684   5.474
  286SOL     OW 1756   3.329   5.718   5.970
  286SOL    HW1 1757   3.308   5.814   5.986
  286SOL    HW2 1758   3.261   5.678   5.909
  287SOL     OW 1759   0.266   4.106   0.616
  287SOL    HW1 1760   0.187   4.128   0.673
  287SOL    HW2 1761   0.305   4.191   0.579
  288SOL     OW 1762   4.088   0.879   6.061
  288SOL    HW1 1763   4.102   0.819   5.982
  288SOL    HW2 1764   4.167   0.874   6.122
  289SOL     OW 1765   0.182   4.366   5.474
  289SOL    HW1 1766   0.258   4.305   5.495
  289SOL    HW2 1767   0.124   4.375   5.555
  290SOL     OW 1768   6.057   1.723   4.477
  290SOL    HW1 1769   5.959   1.713   4.458
  290SOL    HW2 1770   6.076   1.691   4.570
  291SOL     OW 1771   1.619   2.497   4.441
  291SOL    HW1 1772   1.523   2.477   4.460
  291SOL    HW2 1773   1.634   2.501   4.342
  292SOL     OW 1774   1.696   2.229   3.448
  292SOL    HW1 1775   1.696   2.133   3.476
  292SOL    HW2 1776   1.739   2.284   3.520
  293SOL     OW 1777   4.308   5.586   1.812
  293SOL    HW1 1778   4.306   5.501   1.865
  293SOL    HW2 1779   4.397   5.630   1.825
  294SOL     OW 1780   0.323   5.496   6.374
  294SOL    HW1 1781   0.408   5.451   6.344
  294SOL    HW2 1782   0.245   5.443   6.342
  295SOL     OW 1783   3.532   1.794   4.208
  295SOL    HW1 1784   3.593   1.715   4.205
  295SOL    HW2 1785   3.574   1.870   4.158
  296SOL     OW 1786   4.577   1.955   2.945
  296SOL    HW1 1787   4.557   1.978   3.040
  296SOL    HW2 1788   4.672   1.980   2.925
  297SOL     OW 1789   2.559   4.693   3.049
  297SOL    HW1 1790   2.533   4.787   3.070
  297SOL    HW2 1791   2.658   4.686   3.040
  298SOL     OW 1792   4.260   6.322   1.277
  298SOL    HW1 1793   4.195   6.269   1.222
  298SOL    HW2 1794   4.312   6.383   1.216
  299SOL     OW 1795   5.423   3.425   5.936
  299SOL    HW1 1796   5.432   3.504   5.875
  299SOL    HW2 1797   5.327   3.418   5.966
  300SOL     OW 1798   6.665   1.014   1.811
  300SOL    HW1 1799   6.701   0.923   1.827
  300SOL    HW2 1800   6.738   1.073   1.775
  301SOL     OW 1801   4.722   3.675   1.159
  301SOL    HW1 1802   4.753   3.623   1.239
  301SOL    HW2 1803   4.751   3.629   1.075
  302SOL     OW 1804   0.949   0.891   3.176
  302SOL    HW1 1805   0.909   0.813   3.128
  302SOL    HW2 1806   0.946   0.874   3.275
  303SOL     OW 1807   5.725   0.881   2.299
  303SOL    HW1 1808   5.756   0.975   2.283
  303SOL    HW2 1809   5.634   0.869   2.260
  304SOL     OW 1810   2.320   6.993   3.910
  304SOL    HW1 1811   2.348   6.914   3.855
  304SOL    HW2 1812   2.401   0.018   3.938
  305SOL     OW 1813   0.654   3.546   0.215
  305SOL    HW1 1814   0.701   3.527   0.129
  305SOL    HW2 1815   0.632   3.460   0.261
  306SOL     OW 1816   2.334   1.433   3.252
  306SOL    HW1 1817   2.284   1.518   3.239
  306SOL    HW2 1818   2.402   1.444   3.325
  307SOL     OW 1819   4.950   0.263   1.127
  307SOL    HW1 1820   4.877   0.245   1.062
  307SOL    HW2 1821   5.037   0.272   1.079
  308SOL     OW 1822   5.971   3.231   4.689
  308SOL    HW1 1823   5.995   3.321   4.654
  308SOL    HW2 1824   5.953   3.169   4.612
  309SOL     OW 1825   2.962   5.242   6.619
  309SOL    HW1 1826   2.873   5.283   6.598
  309SOL    HW2 1827   2.957   5.197   6.708
  310SOL     OW 1828   5.903   6.837   5.431
  310SOL    HW1 1829   5.837   6.912   5.440
  310SOL    HW2 1830   5.866   6.767   5.370
  311SOL     OW 1831   5.891   4.620   1.735
  311SOL    HW1 1832   5.896   4.630   1.635
  311SOL    HW2 1833   5.970   4.566   1.766
  312SOL     OW 1834   4.125   1.350   5.694
  312SOL    HW1 1835   4.214   1.306   5.702
  312SOL    HW2 1836   4.136   1.439   5.648
  313SOL     OW 1837   3.330   4.439   1.672
  313SOL    HW1 1838   3.342   4.531   1.710
  313SOL    HW2 1839   3.238   4.406   1.695
  314SOL     OW 1840   3.352   5.046   6.739
  314SOL    HW1 1841   3.395   5.128   6.701
  314SOL    HW2 1842   3.411   5.007   6.811
  315SOL     OW 1843   1.036   3.210   3.640
  315SOL    HW1 1844   0.976   3.238   3.566
  315SOL    HW2 1845   1.129   3.244   3.623
  316SOL     OW 1846   2.830   1.911   4.222
  316SOL    HW1 1847   2.902   1.861   4.174
  316SOL    HW2 1848   2.765   1.846   4.262
  317SOL     OW 1849   1.119   0.570   0.853
  317SOL    HW1 1850   1.171   0.627   0.790
  317SOL    HW2 1851   1.042   0.622   0.890
  318SOL     OW 1852   1.327   6.184   6.706
  318SOL    HW1 1853   1.334   6.242   6.788
  318SOL    HW2 1854   1.352   6.238   6.626
  319SOL     OW 1855   6.686   0.720   3.461
  319SOL    HW1 1856   6.746   0.684   3.533
  319SOL    HW2 1857   6.739   0.781   3.402
  320SOL     OW 1858   6.159   1.986   0.414
  320SOL    HW1 1859   6.079   2.037   0.382
  320SOL    HW2 1860   6.196   2.030   0.496
  321SOL     OW 1861   3.603   1.522   1.228
  321SOL    HW1 1862   3.620   1.490   1.321
  321SOL    HW2 1863   3.564   1.448   1.174
  322SOL     OW 1864   3.796   3.860   4.730
  322SOL    HW1 1865   3.805   3.790   4.800
  322SOL    HW2 1866   3.786   3.950   4.773
  323SOL     OW 1867   0.929   3.692   6.287
  323SOL    HW1 1868   0.974   3.602   6.280
  323SOL    HW2 1869   0.856   3.687   6.356
  324SOL     OW 1870   2.147   2.278   3.919
  324SOL    HW1 1871   2.175   2.195   3.872
  324SOL    HW2 1872   2.201   2.355   3.886
  325SOL     OW 1873   1.349   2.823   1.577
  325SOL    HW1 1874   1.394   2.747   1.625
  325SOL    HW2 1875   1.266   2.791   1.533
  326SOL     OW 1876   1.246   4.825   6.774
  326SOL    HW1 1877   1.293   4.913   6.786
  326SOL    HW2 1878   1.259   4.793   6.680
  327SOL     OW 1879   1.337   5.158   3.721
  327SOL    HW1 1880   1.281   5.111   3.790
  327SOL    HW2 1881   1.332   5.107   3.635
  328SOL     OW 1882   1.864   6.171   1.865
  328SOL    HW1 1883   1.785   6.231   1.884
  328SOL    HW2 1884   1.853   6.129   1.775
  329SOL     OW 1885   3.471   4.134   4.486
  329SOL    HW1 1886   3.569   4.151   4.498
  329SOL    HW2 1887   3.452   4.115   4.389
  330SOL     OW 1888   3.174   6.878   1.112
  330SOL    HW1 1889   3.199   6.964   1.067
  330SOL    HW2 1890   3.227   6.867   1.196
  331SOL     OW 1891   3.771   5.277   0.156
  331SOL    HW1 1892   3.848   5.340   0.142
  331SOL    HW2 1893   3.797   5.208   0.223
  332SOL     OW 1894   3.099   1.591   4.509
  332SOL    HW1 1895   3.102   1.691   4.513
  332SOL    HW2 1896   3.182   1.557   4.465
  333SOL     OW 1897   3.195   6.827   6.264
  333SOL    HW1 1898   3.221   6.916   6.227
  333SOL    HW2 1899   3.169   6.766   6.189
  334SOL     OW 1900   2.631   0.350   0.981
  334SOL    HW1 1901   2.731   0.352   0.975
  334SOL    HW2 1902   2.599   0.434   1.024
  335SOL     OW 1903   3.411   6.756   4.015
  335SOL    HW1 1904   3.322   6.790   4.044
  335SOL    HW2 1905   3.464   6.831   3.975
  336SOL     OW 1906   2.758   1.459   3.349
  336SOL    HW1 1907   2.694   1.404   3.296
  336SOL    HW2 1908   2.766   1.550   3.306
  337SOL     OW 1909   6.753   2.892   0.369
  337SOL    HW1 1910   6.656   2.888   0.344
  337SOL    HW2 1911   6.775   2.985   0.401
  338SOL     OW 1912   3.337   2.950   1.160
  338SOL    HW1 1913   3.266   3.020   1.154
  338SOL    HW2 1914   3.359   2.917   1.068
  339SOL     OW 1915   3.593   5.956   4.268
  339SOL    HW1 1916   3.671   6.012   4.295
  339SOL    HW2 1917   3.511   6.014   4.260
  340SOL     OW 1918   4.870   4.327   5.581
  340SOL    HW1 1919   4.904   4.421   5.570
  340SOL    HW2 1920   4.876   4.300   5.677
  341SOL     OW 1921   6.527   0.353   4.750
  341SOL    HW1 1922   6.439   0.342   4.797
  341SOL    HW2 1923   6.544   0.273   4.693
  342SOL     OW 1924   5.868   3.768   6.560
  342SOL    HW1 1925   5.858   3.693   6.625
  342SOL    HW2 1926   5.822   3.744   6.474
  343SOL     OW 1927   1.978   5.401   0.688
  343SOL    HW1 1928   2.010   5.385   0.782
  343SOL    HW2 1929   2.057   5.402   0.626
  344SOL     OW 1930   1.563   4.800   2.074
  344SOL    HW1 1931   1.556   4.772   1.978
  344SOL    HW2 1932   1.572   4.720   2.133
  345SOL     OW 1933   6.434   1.460   5.049
  345SOL    HW1 1934   6.467   1.375   5.009
  345SOL    HW2 1935   6.419   1.447   5.147
  346SOL     OW 1936   1.406   0.846   2.307
  346SOL    HW1 1937   1.400   0.941   2.275
  346SOL    HW2 1938   1.362   0.838   2.396
  347SOL     OW 1939   3.422   6.302   6.042
  347SOL    HW1 1940   3.447   6.286   5.946
  347SOL    HW2 1941   3.490   6.260   6.102
  348SOL     OW 1942   5.226   5.099   1.440
  348SOL    HW1 1943   5.275   5.042   1.506
  348SOL    HW2 1944   5.131   5.069   1.434
  349SOL     OW 1945   6.534   4.297   1.319
  349SOL    HW1 1946   6.596   4.283   1.242
  349SOL    HW2 1947   6.506   4.208   1.356
  350SOL     OW 1948   3.357   3.405   1.162
  350SOL    HW1 1949   3.388   3.422   1.255
  350SOL    HW2 1950   3.333   3.491   1.118
  351SOL     OW 1951   2.370   3.001   0.549
  351SOL    HW1 1952   2.435   2.963   0.615
  351SOL    HW2 1953   2.302   3.057   0.597
  352SOL     OW 1954   3.449   0.396   4.988
  352SOL    HW1 1955   3.500   0.348   4.916
  352SOL    HW2 1956   3.397   0.471   4.947
  353SOL     OW 1957   2.416   6.978   0.863
  353SOL    HW1 1958   2.471   0.035   0.863
  353SOL    HW2 1959   2.456   6.911   0.925
  354SOL     OW 1960   3.545   2.219   0.162
  354SOL    HW1 1961   3.631   2.212   0.213
  354SOL    HW2 1962   3.565   2.233   0.065
  355SOL     OW 1963   0.004   3.227   2.820
  355SOL    HW1 1964   6.970   3.245   2.899
  355SOL    HW2 1965   0.067   3.304   2.807
  356SOL     OW 1966   3.799   5.714   5.392
  356SOL    HW1 1967   3.896   5.700   5.412
  356SOL    HW2 1968   3.787   5.735   5.295
  357SOL     OW 1969   6.353   6.774   5.555
  357SOL    HW1 1970   6.363   6.739   5.462
  357SOL    HW2 1971   6.276   6.728   5.599
  358SOL     OW 1972   5.839   7.000   1.850
  358SOL    HW1 1973   5.767   6.995   1.782
  358SOL    HW2 1974   5.851   0.069   1.880
  359SOL     OW 1975   1.710   2.194   2.390
  359SOL    HW1 1976   1.796   2.226   2.350
  359SOL    HW2 1977   1.731   2.124   2.459
  360SOL     OW 1978   1.480   5.594   6.498
  360SOL    HW1 1979   1.386   5.570   6.524
  360SOL    HW2 1980   1.518   5.520   6.442
  361SOL     OW 1981   5.278   5.889   2.859
  361SOL    HW1 1982   5.328   5.854   2.938
  361SOL    HW2 1983   5.199   5.830   2.842
  362SOL     OW 1984   3.782   4.222   1.125
  362SOL    HW1 1985   3.798   4.123   1.135
  362SOL    HW2 1986   3.858   4.263   1.075
  363SOL     OW 1987   4.682   4.470   3.305
  363SOL    HW1 1988   4.676   4.418   3.219
  363SOL    HW2 1989   4.618   4.432   3.371
  364SOL     OW 1990   0.107   5.826   6.122
  364SOL    HW1 1991   0.116   5.851   6.026
  364SOL    HW2 1992   0.190   5.781   6.153
  365SOL     OW 1993   4.782   5.300   2.248
  365SOL    HW1 1994   4.804   5.312   2.345
  365SOL    HW2 1995   4.763   5.203   2.230
  366SOL     OW 1996   6.392   0.725   0.391
  366SOL    HW1 1997   6.437   0.776   0.317
  366SOL    HW2 1998   6.386   0.783   0.472
  367SOL     OW 1999   4.757   2.941   1.412
  367SOL    HW1 2000   4.673   2.957   1.361
  367SOL    HW2 2001   4.769   2.844   1.429
  368SOL     OW 2002   0.795   3.546   4.860
  368SOL    HW1 2003   0.749   3.458   4.871
  368SOL    HW2 2004   0.736   3.620   4.892
  369SOL     OW 2005   6.479   4.867   1.876
  369SOL    HW1 2006   6.506   4.775   1.847
  369SOL    HW2 2007   6.499   4.932   1.803
  370SOL     OW 2008   2.863   1.585   5.143
  370SOL    HW1 2009   2.847   1.551   5.050
  370SOL    HW2 2010   2.951   1.632   5.147
  371SOL     OW 2011   2.682   3.540   6.357
  371SOL    HW1 2012   2.659   3.620   6.302
  371SOL    HW2 2013   2.643   3.458   6.315
  372SOL     OW 2014   6.892   0.587   5.129
  372SOL    HW1 2015   6.952   0.507   5.124
  372SOL    HW2 2016   6.863   0.613   5.037
  373SOL     OW 2017   6.034   6.037   5.508
  373SOL    HW1 2018   6.099   6.049   5.584
  373SOL    HW2 2019   5.953   6.092   5.525
  374SOL     OW 2020   3.572   0.134   2.200
  374SOL    HW1 2021   3.554   0.047   2.246
  374SOL    HW2 2022   3.485   0.178   2.176
  375SOL     OW 2023   0.876   4.609   3.684
  375SOL    HW1 2024   0.830   4.638   3.768
  375SOL    HW2 2025   0.862   4.511   3.670
  376SOL     OW 2026   1.691   3.176   4.178
  376SOL    HW1 2027   1.610   3.219   4.137
  376SOL    HW2 2028   1.717   3.224   4.261
  377SOL     OW 2029   6.930   2.574   1.988
  377SOL    HW1 2030   6.847   2.525   1.961
  377SOL    HW2 2031   6.926   2.668   1.954
  378SOL     OW 2032   3.546   2.957   5.690
  378SOL    HW1 2033   3.624   2.951   5.628
  378SOL    HW2 2034   3.571   2.915   5.778
  379SOL     OW 2035   6.312   4.086   1.584
  379SOL    HW1 2036   6.238   4.152   1.571
  379SOL    HW2 2037   6.339   4.085   1.681
  380SOL     OW 2038   2.474   0.933   2.060
  380SOL    HW1 2039   2.499   0.969   2.149
  380SOL    HW2 2040   2.554   0.932   2.000
  381SOL     OW 2041   1.840   4.803   1.579
  381SOL    HW1 2042   1.872   4.849   1.496
  381SOL    HW2 2043   1.918   4.774   1.633
  382SOL     OW 2044   5.385   6.581   6.519
  382SOL    HW1 2045   5.425   6.517   6.584
  382SOL    HW2 2046   5.435   6.576   6.433
  383SOL     OW 2047   5.866   2.573   6.021
  383SOL    HW1 2048   5.859   2.636   6.099
  383SOL    HW2 2049   5.953   2.586   5.975
  384SOL     OW 2050   6.956   4.415   4.578
  384SOL    HW1 2051   6.984   4.388   4.487
  384SOL    HW2 2052   6.947   4.515   4.583
  385SOL     OW 2053   4.195   6.360   6.560
  385SOL    HW1 2054   4.128   6.336   6.490
  385SOL    HW2 2055   4.181   6.455   6.588
  386SOL     OW 2056   3.483   0.003   5.017
  386SOL    HW1 2057   3.513   0.021   4.924
  386SOL    HW2 2058   3.562   0.004   5.078
  387SOL     OW 2059   6.772   6.553   3.250
  387SOL    HW1 2060   6.767   6.466   3.201
  387SOL    HW2 2061   6.742   6.627   3.191
  388SOL     OW 2062   0.669   2.450   3.793
  388SOL    HW1 2063   0.697   2.410   3.706
  388SOL    HW2 2064   0.713   2.539   3.804
  389SOL     OW 2065   4.358   4.391   1.660
  389SOL    HW1 2066   4.373   4.468   1.722
  389SOL    HW2 2067   4.375   4.305   1.708
  390SOL     OW 2068   3.317   1.888   0.324
  390SOL    HW1 2069   3.333   1.871   0.421
  390SOL    HW2 2070   3.402   1.877   0.274
  391SOL     OW 2071   2.323   3.903   5.414
  391SOL    HW1 2072   2.245   3.962   5.392
  391SOL    HW2 2073   2.378   3.890   5.331
  392SOL     OW 2074   1.885   3.054   2.173
  392SOL    HW1 2075   1.867   3.077   2.269
  392SOL    HW2 2076   1.920   3.134   2.125
  393SOL     OW 2077   1.416   5.565   0.467
  393SOL    HW1 2078   1.396   5.641   0.406
  393SOL    HW2 2079   1.514   5.549   0.471
  394SOL     OW 2080   1.106   2.844   6.867
  394SOL    HW1 2081   1.179   2.796   6.818
  394SOL    HW2 2082   1.070   2.785   6.939
  395SOL     OW 2083   5.489   4.212   2.146
  395SOL    HW1 2084   5.464   4.115   2.145
  395SOL    HW2 2085   5.545   4.232   2.226
  396SOL     OW 2086   2.565   2.497   2.266
  396SOL    HW1 2087   2.644   2.557   2.282
  396SOL    HW2 2088   2.597   2.412   2.224
  397SOL     OW 2089   5.531   1.750   6.800
  397SOL    HW1 2090   5.464   1.760   6.726
  397SOL    HW2 2091   5.486   1.765   6.888
  398SOL     OW 2092   1.436   6.266   4.105
  398SOL    HW1 2093   1.357   6.217   4.069
  398SOL    HW2 2094   1.490   6.304   4.030
  399SOL     OW 2095   6.058   5.729   4.743
  399SOL    HW1 2096   6.105   5.766   4.662
  399SOL    HW2 2097   5.967   5.768   4.750
  400SOL     OW 2098   6.102   6.282   5.233
  400SOL    HW1 2099   6.138   6.333   5.155
  400SOL    HW2 2100   6.145   6.191   5.237
  401SOL     OW 2101   5.740   0.078   6.233
  401SOL    HW1 2102   5.679   7.025   6.244
  401SOL    HW2 2103   5.719   0.125   6.147
  402SOL     OW 2104   6.376   6.798   2.813
  402SOL    HW1 2105   6.366   6.807   2.714
  402SOL    HW2 2106   6.466   6.832   2.841
  403SOL     OW 2107   3.284   0.009   6.102
  403SOL    HW1 2108   3.313   0.077   6.035
  403SOL    HW2 2109   3.342   6.953   6.095
  404SOL     OW 2110   2.119   5.126   5.501
  404SOL    HW1 2111   2.213   5.158   5.485
  404SOL    HW2 2112   2.118   5.026   5.499
  405SOL     OW 2113   1.975   4.208   3.516
  405SOL    HW1 2114   2.067   4.193   3.478
  405SOL    HW2 2115   1.945   4.126   3.564
  406SOL     OW 2116   0.667   4.736   5.316
  406SOL    HW1 2117   0.666   4.775   5.224
  406SOL    HW2 2118   0.575   4.707   5.342
  407SOL     OW 2119   2.298   2.830   4.057
  407SOL    HW1 2120   2.303   2.863   3.962
  407SOL    HW2 2121   2.353   2.747   4.066
  408SOL     OW 2122   3.417   2.061   2.775
  408SOL    HW1 2123   3.336   2.102   2.733
  408SOL    HW2 2124   3.494   2.065   2.712
  409SOL     OW 2125   6.771   3.474   1.890
  409SOL    HW1 2126   6.838   3.419   1.939
  409SOL    HW2 2127   6.745   3.554   1.946
  410SOL     OW 2128   1.735   1.824   1.008
  410SOL    HW1 2129   1.740   1.728   1.034
  410SOL    HW2 2130   1.751   1.881   1.088
  411SOL     OW 2131   6.183   1.440   1.820
  411SOL    HW1 2132   6.237   1.410   1.742
  411SOL    HW2 2133   6.151   1.360   1.871
  412SOL     OW 2134   3.689   4.997   2.721
  412SOL    HW1 2135   3.600   4.986   2.765
  412SOL    HW2 2136   3.682   4.971   2.625
  413SOL     OW 2137   4.608   5.164   1.688
  413SOL    HW1 2138   4.571   5.093   1.628
  413SOL    HW2 2139   4.551   5.247   1.680
  414SOL     OW 2140   3.795   0.418   4.356
  414SOL    HW1 2141   3.698   0.444   4.354
  414SOL    HW2 2142   3.811   0.345   4.289
  415SOL     OW 2143   0.066   1.512   6.886
  415SOL    HW1 2144   0.007   1.433   6.867
  415SOL    HW2 2145   0.162   1.483   6.882
  416SOL     OW 2146   5.111   4.528   4.272
  416SOL    HW1 2147   5.187   4.589   4.293
  416SOL    HW2 2148   5.040   4.579   4.223
  417SOL     OW 2149   1.814   1.292   6.472
  417SOL    HW1 2150   1.736   1.277   6.412
  417SOL    HW2 2151   1.898   1.294   6.418
  418SOL     OW 2152   2.941   0.110   5.352
  418SOL    HW1 2153   3.014   0.179   5.357
  418SOL    HW2 2154   2.972   0.034   5.295
  419SOL     OW 2155   0.158   6.846   2.966
  419SOL    HW1 2156   0.085   6.778   2.962
  419SOL    HW2 2157   0.122   6.933   3.000
  420SOL     OW 2158   5.585   1.427   6.607
  420SOL    HW1 2159   5.665   1.403   6.553
  420SOL    HW2 2160   5.574   1.526   6.609
  421SOL     OW 2161   5.649   3.744   5.090
  421SOL    HW1 2162   5.608   3.831   5.118
  421SOL    HW2 2163   5.583   3.693   5.035
  422SOL     OW 2164   5.402   2.144   0.745
  422SOL    HW1 2165   5.395   2.182   0.837
  422SOL    HW2 2166   5.338   2.067   0.736
  423SOL     OW 2167   2.246   1.438   6.863
  423SOL    HW1 2168   2.156   1.396   6.857
  423SOL    HW2 2169   2.293   1.403   6.944
  424SOL     OW 2170   2.027   4.998   2.725
  424SOL    HW1 2171   2.075   5.056   2.790
  424SOL    HW2 2172   2.086   4.982   2.646
  425SOL     OW 2173   4.852   0.778   4.870
  425SOL    HW1 2174   4.802   0.859   4.841
  425SOL    HW2 2175   4.872   0.784   4.968
  426SOL     OW 2176   2.278   2.770   5.225
  426SOL    HW1 2177   2.320   2.854   5.191
  426SOL    HW2 2178   2.261   2.708   5.148
  427SOL     OW 2179   5.040   1.091   4.394
  427SOL    HW1 2180   5.066   0.998   4.422
  427SOL    HW2 2181   4.966   1.086   4.328
  428SOL     OW 2182   2.583   0.558   3.844
  428SOL    HW1 2183   2.568   0.495   3.920
  428SOL    HW2 2184   2.669   0.608   3.857
  429SOL     OW 2185   0.663   5.509   4.546
  429SOL    HW1 2186   0.616   5.437   4.597
  429SOL    HW2 2187   0.632   5.508   4.451
  430SOL     OW 2188   1.620   6.849   3.675
  430SOL    HW1 2189   1.559   6.814   3.603
  430SOL    HW2 2190   1.588   6.938   3.706
  431SOL     OW 2191   2.448   2.196   0.612
  431SOL    HW1 2192   2.446   2.291   0.580
  431SOL    HW2 2193   2.400   2.138   0.546
  432SOL     OW 2194   5.738   1.901   1.146
  432SOL    HW1 2195   5.794   1.974   1.188
  432SOL    HW2 2196   5.720   1.924   1.050
  433SOL     OW 2197   3.455   6.564   6.131
  433SOL    HW1 2198   3.432   6.608   6.218
  433SOL    HW2 2199   3.429   6.468   6.135
  434SOL     OW 2200   4.063   5.245   4.224
  434SOL    HW1 2201   4.154   5.279   4.200
  434SOL    HW2 2202   4.068   5.149   4.250
  435SOL     OW 2203   3.963   1.175   5.569
  435SOL    HW1 2204   3.869   1.207   5.558
  435SOL    HW2 2205   4.019   1.247   5.610
  436SOL     OW 2206   3.330   6.005   2.784
  436SOL    HW1 2207   3.408   6.010   2.722
  436SOL    HW2 2208   3.299   6.098   2.806
  437SOL     OW 2209   0.119   1.314   4.959
  437SOL    HW1 2210   0.215   1.341   4.951
  437SOL    HW2 2211   0.072   1.376   5.021
  438SOL     OW 2212   1.276   4.441   2.954
  438SOL    HW1 2213   1.316   4.393   3.032
  438SOL    HW2 2214   1.215   4.513   2.988
  439SOL     OW 2215   5.706   0.554   2.579
  439SOL    HW1 2216   5.691   0.472   2.524
  439SOL    HW2 2217   5.767   0.532   2.655
  440SOL     OW 2218   3.658   1.163   6.750
  440SOL    HW1 2219   3.710   1.149   6.665
  440SOL    HW2 2220   3.620   1.256   6.751
  441SOL     OW 2221   5.751   4.428   3.014
  441SOL    HW1 2222   5.762   4.518   3.055
  441SOL    HW2 2223   5.660   4.421   2.972
  442SOL     OW 2224   4.922   4.245   5.849
  442SOL    HW1 2225   4.871   4.325   5.881
  442SOL    HW2 2226   4.877   4.162   5.883
  443SOL     OW 2227   5.506   4.884   3.890
  443SOL    HW1 2228   5.437   4.952   3.912
  443SOL    HW2 2229   5.466   4.811   3.835
  444SOL     OW 2230   4.323   1.175   6.462
  444SOL    HW1 2231   4.317   1.178   6.561
  444SOL    HW2 2232   4.309   1.267   6.425
  445SOL     OW 2233   2.483   6.474   2.897
  445SOL    HW1 2234   2.470   6.573   2.900
  445SOL    HW2 2235   2.552   6.448   2.965
  446SOL     OW 2236   4.376   5.761   3.124
  446SOL    HW1 2237   4.287   5.800   3.145
  446SOL    HW2 2238   4.375   5.663   3.144
  447SOL     OW 2239   6.292   3.196   5.550
  447SOL    HW1 2240   6.361   3.257   5.511
  447SOL    HW2 2241   6.232   3.162   5.477
  448SOL     OW 2242   1.961   1.686   3.164
  448SOL    HW1 2243   1.877   1.702   3.216
  448SOL    HW2 2244   1.938   1.645   3.076
  449SOL     OW 2245   2.397   2.607   3.142
  449SOL    HW1 2246   2.421   2.557   3.225
  449SOL    HW2 2247   2.467   2.591   3.072
  450SOL     OW 2248   1.130   4.632   3.076
  450SOL    HW1 2249   1.179   4.650   3.162
  450SOL    HW2 2250   1.032   4.636   3.093
  451SOL     OW 2251   0.318   2.937   3.672
  451SOL    HW1 2252   0.307   2.957   3.575
  451SOL    HW2 2253   0.412   2.960   3.700
  452SOL     OW 2254   3.150   0.038   2.078
  452SOL    HW1 2255   3.237   7.016   2.087
  452SOL    HW2 2256   3.076   6.996   2.072
  453SOL     OW 2257   4.064   0.363   6.610
  453SOL    HW1 2258   4.042   0.418   6.690
  453SOL    HW2 2259   4.093   0.423   6.535
  454SOL     OW 2260   0.171   4.097   6.827
  454SOL    HW1 2261   0.079   4.087   6.864
  454SOL    HW2 2262   0.177   4.182   6.774
  455SOL     OW 2263   6.484   3.368   5.457
  455SOL    HW1 2264   6.577   3.342   5.481
  455SOL    HW2 2265   6.486   3.439   5.386
  456SOL     OW 2266   1.738   0.753   3.884
  456SOL    HW1 2267   1.750   0.786   3.791
  456SOL    HW2 2268   1.707   0.827   3.943
  457SOL     OW 2269   1.000   5.501   5.729
  457SOL    HW1 2270   1.042   5.591   5.732
  457SOL    HW2 2271   1.031   5.447   5.807
  458SOL     OW 2272   2.656   1.044   2.646
  458SOL    HW1 2273   2.704   1.120   2.690
  458SOL    HW2 2274   2.721   0.989   2.594
  459SOL     OW 2275   2.102   0.636   5.732
  459SOL    HW1 2276   2.095   0.563   5.801
  459SOL    HW2 2277   2.146   0.600   5.650
  460SOL     OW 2278   1.128   1.558   5.239
  460SOL    HW1 2279   1.171   1.553   5.329
  460SOL    HW2 2280   1.158   1.642   5.193
  461SOL     OW 2281   6.634   4.798   5.523
  461SOL    HW1 2282   6.612   4.850   5.605
  461SOL    HW2 2283   6.695   4.722   5.547
  462SOL     OW 2284   3.792   3.634   4.903
  462SOL    HW1 2285   3.758   3.603   4.814
  462SOL    HW2 2286   3.892   3.632   4.903
  463SOL     OW 2287   6.694   6.728   2.720
  463SOL    HW1 2288   6.788   6.725   2.684
  463SOL    HW2 2289   6.677   6.818   2.760
  464SOL     OW 2290   3.084   6.700   6.052
  464SOL    HW1 2291   3.130   6.629   6.000
  464SOL    HW2 2292   3.004   6.661   6.097
  465SOL     OW 2293   1.263   2.445   0.151
  465SOL    HW1 2294   1.241   2.448   0.053
  465SOL    HW2 2295   1.206   2.377   0.196
  466SOL     OW 2296   3.403   6.151   4.215
  466SOL    HW1 2297   3.395   6.234   4.161
  466SOL    HW2 2298   3.359   6.165   4.304
  467SOL     OW 2299   0.686   1.709   2.304
  467SOL    HW1 2300   0.722   1.778   2.367
  467SOL    HW2 2301   0.601   1.743   2.263
  468SOL     OW 2302   4.859   0.024   6.172
  468SOL    HW1 2303   4.926   7.014   6.237
  468SOL    HW2 2304   4.905   0.083   6.106
  469SOL     OW 2305   2.868   4.383   5.769
  469SOL    HW1 2306   2.852   4.311   5.837
  469SOL    HW2 2307   2.919   4.458   5.811
  470SOL     OW 2308   3.413   6.072   3.092
  470SOL    HW1 2309   3.362   6.157   3.082
  470SOL    HW2 2310   3.354   6.001   3.130
  471SOL     OW 2311   2.749   2.339   4.126
  471SOL    HW1 2312   2.693   2.293   4.057
  471SOL    HW2 2313   2.846   2.323   4.108
  472SOL     OW 2314   5.897   4.869   6.892
  472SOL    HW1 2315   5.994   4.860   6.914
  472SOL    HW2 2316   5.878   4.963   6.863
  473SOL     OW 2317   0.239   2.535   2.492
  473SOL    HW1 2318   0.177   2.529   2.570
  473SOL    HW2 2319   0.317   2.593   2.515
  474SOL     OW 2320   6.124   5.179   5.431
  474SOL    HW1 2321   6.170   5.173   5.519
  474SOL    HW2 2322   6.178   5.236   5.369
  475SOL     OW 2323   5.908   3.126   0.002
  475SOL    HW1 2324   5.994   3.076   0.006
  475SOL    HW2 2325   5.834   3.068   0.035
  476SOL     OW 2326   0.185   3.910   2.047
  476SOL    HW1 2327   0.115   3.841   2.028
  476SOL    HW2 2328   0.200   3.965   1.966
  477SOL     OW 2329   2.442   6.042   3.676
  477SOL    HW1 2330   2.456   6.049   3.774
  477SOL    HW2 2331   2.390   6.121   3.644
  478SOL     OW 2332   4.402   5.698   2.847
  478SOL    HW1 2333   4.350   5.764   2.794
  478SOL    HW2 2334   4.378   5.705   2.943
  479SOL     OW 2335   3.794   3.112   4.119
  479SOL    HW1 2336   3.730   3.036   4.115
  479SOL    HW2 2337   3.773   3.178   4.046
  480SOL     OW 2338   1.612   0.051   2.517
  480SOL    HW1 2339   1.528   0.066   2.570
  480SOL    HW2 2340   1.589   0.004   2.432
  481SOL     OW 2341   1.010   6.215   1.309
  481SOL    HW1 2342   1.062   6.134   1.335
  481SOL    HW2 2343   0.999   6.275   1.388
  482SOL     OW 2344   5.363   4.849   2.969
  482SOL    HW1 2345   5.374   4.891   3.059
  482SOL    HW2 2346   5.355   4.921   2.900
  483SOL     OW 2347   6.611   2.776   2.663
  483SOL    HW1 2348   6.671   2.855   2.655
  483SOL    HW2 2349   6.588   2.761   2.759
  484SOL     OW 2350   1.714   4.332   4.523
  484SOL    HW1 2351   1.795   4.306   4.574
  484SOL    HW2 2352   1.729   4.318   4.425
  485SOL     OW 2353   5.427   3.624   2.101
  485SOL    HW1 2354   5.477   3.708   2.080
  485SOL    HW2 2355   5.483   3.564   2.159
  486SOL     OW 2356   5.813   0.391   6.578
  486SOL    HW1 2357   5.780   0.313   6.524
  486SOL    HW2 2358   5.843   0.359   6.668
  487SOL     OW 2359   0.097   0.549   3.518
  487SOL    HW1 2360   0.053   0.607   3.449
  487SOL    HW2 2361   0.192   0.533   3.492
  488SOL     OW 2362   1.734   6.973   2.905
  488SOL    HW1 2363   1.806   6.905   2.894
  488SOL    HW2 2364   1.723   6.996   3.001
  489SOL     OW 2365   6.317   5.604   4.831
  489SOL    HW1 2366   6.228   5.649   4.825
  489SOL    HW2 2367   6.369   5.641   4.908
  490SOL     OW 2368   1.320   5.844   5.264
  490SOL    HW1 2369   1.405   5.886   5.231
  490SOL    HW2 2370   1.325   5.745   5.256
  491SOL     OW 2371   0.489   3.656   0.690
  491SOL    HW1 2372   0.496   3.741   0.637
  491SOL    HW2 2373   0.482   3.678   0.787
  492SOL     OW 2374   1.514   1.240   5.770
  492SOL    HW1 2375   1.483   1.152   5.734
  492SOL    HW2 2376   1.564   1.289   5.699
  493SOL     OW 2377   2.674   0.117   5.259
  493SOL    HW1 2378   2.694   0.030   5.213
  493SOL    HW2 2379   2.759   0.156   5.294
  494SOL     OW 2380   2.609   1.193   5.794
  494SOL    HW1 2381   2.690   1.138   5.812
  494SOL    HW2 2382   2.528   1.145   5.827
  495SOL     OW 2383   4.517   5.907   5.698
  495SOL    HW1 2384   4.555   5.886   5.607
  495SOL    HW2 2385   4.417   5.905   5.694
  496SOL     OW 2386   6.407   1.842   2.603
  496SOL    HW1 2387   6.480   1.845   2.534
  496SOL    HW2 2388   6.373   1.748   2.611
  497SOL     OW 2389   3.776   1.238   5.850
  497SOL    HW1 2390   3.723   1.303   5.797
  497SOL    HW2 2391   3.780   1.150   5.802
  498SOL     OW 2392   6.826   5.111   1.676
  498SOL    HW1 2393   6.862   5.026   1.638
  498SOL    HW2 2394   6.882   5.141   1.752
  499SOL     OW 2395   2.703   5.188   5.910
  499SOL    HW1 2396   2.794   5.199   5.869
  499SOL    HW2 2397   2.710   5.201   6.009
  500SOL     OW 2398   5.090   2.716   6.275
  500SOL    HW1 2399   5.080   2.695   6.178
  500SOL    HW2 2400   5.173   2.673   6.310
  501SOL     OW 2401   1.860   6.943   2.317
  501SOL    HW1 2402   1.957   6.920   2.325
  501SOL    HW2 2403   1.832   7.002   2.392
  502SOL     OW 2404   1.659   4.635   6.084
  502SOL    HW1 2405   1.690   4.719   6.127
  502SOL    HW2 2406   1.593   4.657   6.011
  503SOL     OW 2407   2.849   4.964   6.418
  503SOL    HW1 2408   2.782   5.022   6.465
  503SOL    HW2 2409   2.934   4.962   6.472
  504SOL     OW 2410   6.637   5.911   2.489
  504SOL    HW1 2411   6.598   5.861   2.566
  504SOL    HW2 2412   6.567   5.921   2.417
  505SOL     OW 2413   4.162   6.882   5.305
  505SOL    HW1 2414   4.260   6.864   5.314
  505SOL    HW2 2415   4.147   6.958   5.242
  506SOL     OW 2416   2.889   5.247   2.705
  506SOL    HW1 2417   2.900   5.184   2.627
  506SOL    HW2 2418   2.971   5.242   2.763
  507SOL     OW 2419   4.400   1.343   2.023
  507SOL    HW1 2420   4.302   1.353   2.008
  507SOL    HW2 2421   4.444   1.312   1.939
  508SOL     OW 2422   6.725   2.627   3.650
  508SOL    HW1 2423   6.654   2.677   3.600
  508SOL    HW2 2424   6.787   2.583   3.585
  509SOL     OW 2425   4.895   0.471   0.186
  509SOL    HW1 2426   4.837   0.502   0.110
  509SOL    HW2 2427   4.888   0.536   0.262
  510SOL     OW 2428   6.896   4.969   5.694
  510SOL    HW1 2429   6.914   4.975   5.792
  510SOL    HW2 2430   6.853   5.053   5.662
  511SOL     OW 2431   1.189   2.116   6.389
  511SOL    HW1 2432   1.212   2.021   6.410
  511SOL    HW2 2433   1.257   2.177   6.431
  512SOL     OW 2434   5.692   2.190   0.013
  512SOL    HW1 2435   5.609   2.224   0.056
  512SOL    HW2 2436   5.701   2.091   0.030
  513SOL     OW 2437   6.039   6.610   2.601
  513SOL    HW1 2438   6.135   6.599   2.574
  513SOL    HW2 2439   6.033   6.678   2.674
  514SOL     OW 2440   0.133   6.584   3.721
  514SOL    HW1 2441   0.148   6.621   3.630
  514SOL    HW2 2442   0.195   6.630   3.786
  515SOL     OW 2443   2.856   0.671   6.085
  515SOL    HW1 2444   2.892   0.676   6.178
  515SOL    HW2 2445   2.765   0.714   6.082
  516SOL     OW 2446   2.473   4.385   1.816
  516SOL    HW1 2447   2.473   4.478   1.853
  516SOL    HW2 2448   2.556   4.371   1.762
  517SOL     OW 2449   3.878   4.855   2.439
  517SOL    HW1 2450   3.892   4.952   2.460
  517SOL    HW2 2451   3.781   4.833   2.447
  518SOL     OW 2452   2.226   2.971   3.806
  518SOL    HW1 2453   2.133   3.004   3.792
  518SOL    HW2 2454   2.268   2.951   3.718
  519SOL     OW 2455   6.833   6.843   4.266
  519SOL    HW1 2456   6.812   6.752   4.303
  519SOL    HW2 2457   6.892   6.833   4.186
  520SOL     OW 2458   1.011   3.695   0.149
  520SOL    HW1 2459   0.996   3.768   0.082
  520SOL    HW2 2460   1.101   3.654   0.133
  521SOL     OW 2461   4.700   5.922   4.467
  521SOL    HW1 2462   4.754   5.934   4.550
  521SOL    HW2 2463   4.706   5.827   4.436
  522SOL     OW 2464   4.403   3.783   1.384
  522SOL    HW1 2465   4.395   3.687   1.411
  522SOL    HW2 2466   4.389   3.841   1.465
  523SOL     OW 2467   6.885   6.443   1.857
  523SOL    HW1 2468   6.855   6.394   1.939
  523SOL    HW2 2469   6.817   6.512   1.833
  524SOL     OW 2470   0.997   2.910   2.156
  524SOL    HW1 2471   1.083   2.925   2.108
  524SOL    HW2 2472   0.991   2.814   2.185
  525SOL     OW 2473   1.278   3.125   6.841
  525SOL    HW1 2474   1.180   3.107   6.851
  525SOL    HW2 2475   1.295   3.223   6.849
  526SOL     OW 2476   2.876   6.779   3.934
  526SOL    HW1 2477   2.811   6.852   3.913
  526SOL    HW2 2478   2.962   6.819   3.965
  527SOL     OW 2479   0.975   2.428   0.055
  527SOL    HW1 2480   0.993   2.370   7.001
  527SOL    HW2 2481   1.043   2.411   0.126
  528SOL     OW 2482   0.794   3.561   3.935
  528SOL    HW1 2483   0.813   3.551   3.838
  528SOL    HW2 2484   0.880   3.567   3.985
  529SOL     OW 2485   2.287   0.532   5.542
  529SOL    HW1 2486   2.360   0.522   5.610
  529SOL    HW2 2487   2.267   0.444   5.501
  530SOL     OW 2488   3.703   2.864   2.405
  530SOL    HW1 2489   3.620   2.869   2.462
  530SOL    HW2 2490   3.682   2.898   2.313
  531SOL     OW 2491   2.133   0.789   2.599
  531SOL    HW1 2492   2.134   0.740   2.512
  531SOL    HW2 2493   2.120   0.724   2.674
  532SOL     OW 2494   1.613   3.874   0.782
  532SOL    HW1 2495   1.611   3.806   0.709
  532SOL    HW2 2496   1.629   3.965   0.743
  533SOL     OW 2497   5.485   6.880   3.597
  533SOL    HW1 2498   5.399   6.903   3.551
  533SOL    HW2 2499   5.522   6.961   3.642
  534SOL     OW 2500   0.505   5.982   1.991
  534SOL    HW1 2501   0.556   5.913   1.939
  534SOL    HW2 2502   0.501   6.066   1.938
  535SOL     OW 2503   6.498   4.409   3.336
  535SOL    HW1 2504   6.442   4.471   3.281
  535SOL    HW2 2505   6.541   4.459   3.411
  536SOL     OW 2506   6.484   5.957   2.890
  536SOL    HW1 2507   6.557   5.989   2.829
  536SOL    HW2 2508   6.444   5.874   2.853
  537SOL     OW 2509   3.577   6.661   4.214
  537SOL    HW1 2510   3.525   6.689   4.133
  537SOL    HW2 2511   3.515   6.622   4.282
  538SOL     OW 2512   1.226   5.438   5.515
  538SOL    HW1 2513   1.142   5.466   5.563
  538SOL    HW2 2514   1.214   5.345   5.480
  539SOL     OW 2515   1.553   5.659   1.946
  539SOL    HW1 2516   1.506   5.664   1.858
  539SOL    HW2 2517   1.652   5.653   1.931
  540SOL     OW 2518   1.767   1.211   4.182
  540SOL    HW1 2519   1.866   1.205   4.168
  540SOL    HW2 2520   1.743   1.305   4.208
  541SOL     OW 2521   4.478   6.202   3.363
  541SOL    HW1 2522   4.463   6.278   3.425
  541SOL    HW2 2523   4.479   6.116   3.414
  542SOL     OW 2524   3.131   6.585   6.684
  542SOL    HW1 2525   3.224   6.556   6.661
  542SOL    HW2 2526   3.119   6.681   6.662
  543SOL     OW 2527   5.483   3.725   3.716
  543SOL    HW1 2528   5.576   3.690   3.702
  543SOL    HW2 2529   5.418   3.649   3.708
  544SOL     OW 2530   0.620   5.149   0.395
  544SOL    HW1 2531   0.582   5.161   0.303
  544SOL    HW2 2532   0.662   5.059   0.402
  545SOL     OW 2533   4.189   1.108   1.244
  545SOL    HW1 2534   4.121   1.174   1.212
  545SOL    HW2 2535   4.274   1.157   1.265
  546SOL     OW 2536   0.739   3.992   1.492
  546SOL    HW1 2537   0.694   4.072   1.453
  546SOL    HW2 2538   0.837   3.997   1.474
  547SOL     OW 2539   3.367   2.719   0.932
  547SOL    HW1 2540   3.459   2.742   0.961
  547SOL    HW2 2541   3.318   2.676   1.008
  548SOL     OW 2542   3.562   3.590   0.824
  548SOL    HW1 2543   3.640   3.651   0.814
  548SOL    HW2 2544   3.512   3.585   0.738
  549SOL     OW 2545   5.703   2.485   1.436
  549SOL    HW1 2546   5.625   2.436   1.397
  549SOL    HW2 2547   5.675   2.578   1.461
  550SOL     OW 2548   0.331   5.145   3.594
  550SOL    HW1 2549   0.282   5.058   3.601
  550SOL    HW2 2550   0.304   5.192   3.510
  551SOL     OW 2551   6.987   0.648   1.138
  551SOL    HW1 2552   6.996   0.659   1.237
  551SOL    HW2 2553   0.031   0.583   1.105
  552SOL     OW 2554   4.940   5.103   5.229
  552SOL    HW1 2555   5.009   5.086   5.300
  552SOL    HW2 2556   4.923   5.019   5.178
  553SOL     OW 2557   3.331   0.176   3.958
  553SOL    HW1 2558   3.406   0.242   3.965
  553SOL    HW2 2559   3.339   0.126   3.872
  554SOL     OW 2560   5.597   5.737   0.016
  554SOL    HW1 2561   5.643   5.823   7.021
  554SOL    HW2 2562   5.538   5.748   0.096
  555SOL     OW 2563   3.265   5.098   5.155
  555SOL    HW1 2564   3.257   5.002   5.181
  555SOL    HW2 2565   3.180   5.128   5.112
  556SOL     OW 2566   5.463   1.603   4.355
  556SOL    HW1 2567   5.543   1.550   4.385
  556SOL    HW2 2568   5.463   1.609   4.255
  557SOL     OW 2569   0.350   5.171   6.332
  557SOL    HW1 2570   0.326   5.222   6.414
  557SOL    HW2 2571   0.267   5.146   6.283
  558SOL     OW 2572   3.822   3.092   3.740
  558SOL    HW1 2573   3.821   3.122   3.835
  558SOL    HW2 2574   3.822   3.172   3.680
  559SOL     OW 2575   6.675   6.218   5.919
  559SOL    HW1 2576   6.611   6.152   5.958
  559SOL    HW2 2577   6.670   6.304   5.970
  560SOL     OW 2578   6.278   3.753   3.292
  560SOL    HW1 2579   6.188   3.736   3.251
  560SOL    HW2 2580   6.347   3.760   3.220
  561SOL     OW 2581   6.780   2.589   6.932
  561SOL    HW1 2582   6.720   2.593   6.852
  561SOL    HW2 2583   6.857   2.529   6.913
  562SOL     OW 2584   4.601   0.536   5.862
  562SOL    HW1 2585   4.582   0.607   5.930
  562SOL    HW2 2586   4.518   0.482   5.848
  563SOL     OW 2587   2.249   1.164   3.163
  563SOL    HW1 2588   2.281   1.258   3.171
  563SOL    HW2 2589   2.296   1.119   3.087
  564SOL     OW 2590   0.033   2.148   6.631
  564SOL    HW1 2591   0.090   2.213   6.682
  564SOL    HW2 2592   0.088   2.067   6.609
  565SOL     OW 2593   3.247   3.832   3.502
  565SOL    HW1 2594   3.264   3.880   3.588
  565SOL    HW2 2595   3.158   3.859   3.466
  566SOL     OW 2596   1.947   3.970   3.261
  566SOL    HW1 2597   1.943   3.889   3.320
  566SOL    HW2 2598   2.043   3.994   3.243
  567SOL     OW 2599   3.150   2.979   0.728
  567SOL    HW1 2600   3.247   2.980   0.751
  567SOL    HW2 2601   3.114   3.072   0.727
  568SOL     OW 2602   5.768   6.609   0.239
  568SOL    HW1 2603   5.722   6.528   0.204
  568SOL    HW2 2604   5.741   6.624   0.334
  569SOL     OW 2605   1.196   2.718   1.157
  569SOL    HW1 2606   1.198   2.807   1.202
  569SOL    HW2 2607   1.169   2.729   1.061
  570SOL     OW 2608   3.309   0.483   6.741
  570SOL    HW1 2609   3.390   0.442   6.700
  570SOL    HW2 2610   3.260   0.536   6.672
  571SOL     OW 2611   2.776   4.874   3.768
  571SOL    HW1 2612   2.744   4.780   3.764
  571SOL    HW2 2613   2.750   4.915   3.855
  572SOL     OW 2614   1.926   5.134   5.119
  572SOL    HW1 2615   1.834   5.146   5.082
  572SOL    HW2 2616   1.920   5.123   5.218
  573SOL     OW 2617   6.164   1.018   5.711
  573SOL    HW1 2618   6.242   0.990   5.767
  573SOL    HW2 2619   6.109   1.085   5.761
  574SOL     OW 2620   3.843   0.248   5.204
  574SOL    HW1 2621   3.842   0.298   5.291
  574SOL    HW2 2622   3.827   0.312   5.129
  575SOL     OW 2623   4.329   2.670   1.417
  575SOL    HW1 2624   4.265   2.631   1.484
  575SOL    HW2 2625   4.277   2.717   1.345
  576SOL     OW 2626   1.488   3.344   2.942
  576SOL    HW1 2627   1.443   3.266   2.900
  576SOL    HW2 2628   1.435   3.373   3.022
  577SOL     OW 2629   1.543   0.613   2.176
  577SOL    HW1 2630   1.491   0.694   2.204
  577SOL    HW2 2631   1.480   0.537   2.161
  578SOL     OW 2632   1.234   5.661   5.738
  578SOL    HW1 2633   1.305   5.648   5.668
  578SOL    HW2 2634   1.221   5.759   5.753
  579SOL     OW 2635   1.323   4.847   2.900
  579SOL    HW1 2636   1.311   4.914   2.826
  579SOL    HW2 2637   1.420   4.836   2.918
  580SOL     OW 2638   3.976   4.670   5.937
  580SOL    HW1 2639   3.990   4.766   5.957
  580SOL    HW2 2640   4.053   4.635   5.884
  581SOL     OW 2641   1.410   2.706   3.333
  581SOL    HW1 2642   1.488   2.643   3.331
  581SOL    HW2 2643   1.340   2.670   3.395
  582SOL     OW 2644   4.474   5.996   2.949
  582SOL    HW1 2645   4.472   6.086   2.992
  582SOL    HW2 2646   4.412   5.934   2.998
  583SOL     OW 2647   2.548   6.037   5.194
  583SOL    HW1 2648   2.623   6.102   5.179
  583SOL    HW2 2649   2.542   5.975   5.116
  584SOL     OW 2650   3.366   0.102   6.962
  584SOL    HW1 2651   3.452   0.152   6.964
  584SOL    HW2 2652   3.297   0.157   6.915
  585SOL     OW 2653   4.401   1.108   0.635
  585SOL    HW1 2654   4.370   1.109   0.730
  585SOL    HW2 2655   4.360   1.030   0.587
  586SOL     OW 2656   3.616   0.406   0.913
  586SOL    HW1 2657   3.680   0.459   0.970
  586SOL    HW2 2658   3.524   0.412   0.952
  587SOL     OW 2659   4.964   2.472   2.679
  587SOL    HW1 2660   5.042   2.447   2.736
  587SOL    HW2 2661   4.979   2.563   2.640
  588SOL     OW 2662   2.055   4.878   0.793
  588SOL    HW1 2663   2.102   4.848   0.876
  588SOL    HW2 2664   1.988   4.948   0.816
  589SOL     OW 2665   3.879   5.646   1.422
  589SOL    HW1 2666   3.970   5.686   1.434
  589SOL    HW2 2667   3.888   5.557   1.378
  590SOL     OW 2668   5.691   1.507   0.970
  590SOL    HW1 2669   5.634   1.567   0.915
  590SOL    HW2 2670   5.633   1.452   1.031
  591SOL     OW 2671   4.157   6.478   4.134
  591SOL    HW1 2672   4.256   6.489   4.148
  591SOL    HW2 2673   4.113   6.464   4.223
  592SOL     OW 2674   4.528   0.498   2.779
  592SOL    HW1 2675   4.596   0.446   2.727
  592SOL    HW2 2676   4.451   0.520   2.720
  593SOL     OW 2677   4.590   2.050   4.511
  593SOL    HW1 2678   4.546   2.108   4.579
  593SOL    HW2 2679   4.677   2.016   4.547
  594SOL     OW 2680   6.575   1.141   0.717
  594SOL    HW1 2681   6.639   1.079   0.672
  594SOL    HW2 2682   6.623   1.195   0.785
  595SOL     OW 2683   5.959   6.755   3.632
  595SOL    HW1 2684   5.918   6.762   3.723
  595SOL    HW2 2685   6.050   6.714   3.639
  596SOL     OW 2686   0.219   5.251   3.388
  596SOL    HW1 2687   0.234   5.246   3.289
  596SOL    HW2 2688   0.125   5.225   3.409
  597SOL     OW 2689   2.567   6.274   6.148
  597SOL    HW1 2690   2.627   6.286   6.227
  597SOL    HW2 2691   2.479   6.236   6.177
  598SOL     OW 2692   3.391   4.105   4.753
  598SOL    HW1 2693   3.400   4.111   4.653
  598SOL    HW2 2694   3.465   4.050   4.790
  599SOL     OW 2695   1.992   5.739   3.053
  599SOL    HW1 2696   2.065   5.718   2.988
  599SOL    HW2 2697   1.909   5.766   3.004
  600SOL     OW 2698   6.615   2.931   5.989
  600SOL    HW1 2699   6.673   2.951   5.910
  600SOL    HW2 2700   6.658   2.968   6.071
  601SOL     OW 2701   1.234   1.885   4.492
  601SOL    HW1 2702   1.214   1.788   4.480
  601SOL    HW2 2703   1.169   1.939   4.439
  602SOL     OW 2704   2.539   0.828   5.816
  602SOL    HW1 2705   2.459   0.888   5.806
  602SOL    HW2 2706   2.590   0.855   5.897
  603SOL     OW 2707   2.169   2.215   5.465
  603SOL    HW1 2708   2.217   2.231   5.379
  603SOL    HW2 2709   2.199   2.281   5.533
  604SOL     OW 2710   1.426   2.008   1.533
  604SOL    HW1 2711   1.357   1.949   1.491
  604SOL    HW2 2712   1.388   2.101   1.544
  605SOL     OW 2713   6.954   4.480   1.639
  605SOL    HW1 2714   6.978   4.445   1.548
  605SOL    HW2 2715   7.013   4.438   1.708
  606SOL     OW 2716   4.732   6.334   5.383
  606SOL    HW1 2717   4.669   6.412   5.388
  606SOL    HW2 2718   4.823   6.363   5.412
  607SOL     OW 2719   6.938   4.864   5.199
  607SOL    HW1 2720   6.849   4.863   5.153
  607SOL    HW2 2721   6.933   4.806   5.280
  608SOL     OW 2722   3.829   6.651   6.605
  608SOL    HW1 2723   3.877   6.594   6.672
  608SOL    HW2 2724   3.742   6.683   6.644
  609SOL     OW 2725   3.833   2.940   1.889
  609SOL    HW1 2726   3.883   2.864   1.848
  609SOL    HW2 2727   3.771   2.906   1.960
  610SOL     OW 2728   5.599   2.571   0.186
  610SOL    HW1 2729   5.551   2.591   0.100
  610SOL    HW2 2730   5.539   2.518   0.246
  611SOL     OW 2731   3.858   6.677   2.117
  611SOL    HW1 2732   3.831   6.707   2.025
  611SOL    HW2 2733   3.873   6.757   2.174
  612SOL     OW 2734   2.970   6.068   4.845
  612SOL    HW1 2735   2.970   6.004   4.922
  612SOL    HW2 2736   2.876   6.080   4.813
  613SOL     OW 2737   5.110   3.962   5.168
  613SOL    HW1 2738   5.130   3.998   5.260
  613SOL    HW2 2739   5.196   3.947   5.119
  614SOL     OW 2740   5.474   5.377   5.216
  614SOL    HW1 2741   5.404   5.340   5.155
  614SOL    HW2 2742   5.528   5.446   5.167
  615SOL     OW 2743   0.163   2.659   0.973
  615SOL    HW1 2744   0.113   2.593   1.028
  615SOL    HW2 2745   0.249   2.681   1.019
  616SOL     OW 2746   6.330   2.419   2.662
  616SOL    HW1 2747   6.254   2.358   2.683
  616SOL    HW2 2748   6.345   2.480   2.739
  617SOL     OW 2749   1.042   4.599   5.951
  617SOL    HW1 2750   1.064   4.573   6.045
  617SOL    HW2 2751   0.943   4.592   5.937
  618SOL     OW 2752   1.626   2.709   0.972
  618SOL    HW1 2753   1.707   2.741   1.021
  618SOL    HW2 2754   1.639   2.614   0.944
  619SOL     OW 2755   2.330   2.169   0.862
  619SOL    HW1 2756   2.349   2.080   0.906
  619SOL    HW2 2757   2.380   2.174   0.776
  620SOL     OW 2758   4.599   2.430   0.295
  620SOL    HW1 2759   4.674   2.443   0.230
  620SOL    HW2 2760   4.631   2.449   0.387
  621SOL     OW 2761   3.832   5.039   6.711
  621SOL    HW1 2762   3.802   5.057   6.617
  621SOL    HW2 2763   3.866   4.945   6.717
  622SOL     OW 2764   0.821   1.382   6.380
  622SOL    HW1 2765   0.851   1.477   6.383
  622SOL    HW2 2766   0.724   1.377   6.402
  623SOL     OW 2767   0.433   6.495   6.340
  623SOL    HW1 2768   0.366   6.495   6.265
  623SOL    HW2 2769   0.497   6.419   6.327
  624SOL     OW 2770   0.840   2.465   1.638
  624SOL    HW1 2771   0.837   2.388   1.574
  624SOL    HW2 2772   0.854   2.550   1.588
  625SOL     OW 2773   2.441   2.391   1.281
  625SOL    HW1 2774   2.383   2.386   1.200
  625SOL    HW2 2775   2.535   2.367   1.255
  626SOL     OW 2776   2.703   5.499   3.447
  626SOL    HW1 2777   2.678   5.593   3.472
  626SOL    HW2 2778   2.797   5.481   3.478
  627SOL     OW 2779   5.231   0.499   0.810
  627SOL    HW1 2780   5.175   0.424   0.844
  627SOL    HW2 2781   5.209   0.582   0.860
  628SOL     OW 2782   5.290   4.652   5.258
  628SOL    HW1 2783   5.367   4.589   5.248
  628SOL    HW2 2784   5.207   4.610   5.221
  629SOL     OW 2785   0.222   6.597   1.205
  629SOL    HW1 2786   0.274   6.661   1.149
  629SOL    HW2 2787   0.159   6.648   1.264
  630SOL     OW 2788   5.639   2.190   2.714
  630SOL    HW1 2789   5.639   2.290   2.710
  630SOL    HW2 2790   5.721   2.154   2.671
  631SOL     OW 2791   3.640   7.003   5.506
  631SOL    HW1 2792   3.582   0.022   5.438
  631SOL    HW2 2793   3.643   6.905   5.488
  632SOL     OW 2794   2.980   1.983   7.020
  632SOL    HW1 2795   3.048   1.977   6.946
  632SOL    HW2 2796   2.945   1.891   0.015
  633SOL     OW 2797   3.613   5.132   7.019
  633SOL    HW1 2798   3.667   5.189   0.056
  633SOL    HW2 2799   3.638   5.155   6.925
  634SOL     OW 2800   4.424   4.558   1.867
  634SOL    HW1 2801   4.446   4.469   1.905
  634SOL    HW2 2802   4.507   4.613   1.860
  635SOL     OW 2803   4.802   6.340   2.369
  635SOL    HW1 2804   4.851   6.257   2.340
  635SOL    HW2 2805   4.859   6.390   2.435
  636SOL     OW 2806   5.087   6.320   6.135
  636SOL    HW1 2807   5.044   6.406   6.106
  636SOL    HW2 2808   5.114   6.267   6.054
  637SOL     OW 2809   5.347   4.321   1.582
  637SOL    HW1 2810   5.438   4.292   1.613
  637SOL    HW2 2811   5.348   4.334   1.483
  638SOL     OW 2812   5.242   1.129   2.086
  638SOL    HW1 2813   5.327   1.180   2.067
  638SOL    HW2 2814   5.212   1.149   2.179
  639SOL     OW 2815   5.106   3.976   2.360
  639SOL    HW1 2816   5.134   3.880   2.352
  639SOL    HW2 2817   5.153   4.017   2.438
  640SOL     OW 2818   2.286   4.558   4.908
  640SOL    HW1 2819   2.261   4.550   5.004
  640SOL    HW2 2820   2.385   4.573   4.901
  641SOL     OW 2821   0.352   5.604   4.990
  641SOL    HW1 2822   0.294   5.541   5.042
  641SOL    HW2 2823   0.349   5.579   4.893
  642SOL     OW 2824   0.158   4.219   3.888
  642SOL    HW1 2825   0.183   4.130   3.849
  642SOL    HW2 2826   0.134   4.207   3.984
  643SOL     OW 2827   5.877   4.677   5.151
  643SOL    HW1 2828   5.952   4.681   5.218
  643SOL    HW2 2829   5.886   4.593   5.097
  644SOL     OW 2830   0.966   5.460   2.803
  644SOL    HW1 2831   0.874   5.422   2.791
  644SOL    HW2 2832   1.012   5.414   2.879
  645SOL     OW 2833   5.259   2.687   4.351
  645SOL    HW1 2834   5.231   2.591   4.360
  645SOL    HW2 2835   5.192   2.736   4.295
  646SOL     OW 2836   2.739   2.005   3.428
  646SOL    HW1 2837   2.812   1.961   3.481
  646SOL    HW2 2838   2.763   2.004   3.331
  647SOL     OW 2839   5.636   2.604   5.882
  647SOL    HW1 2840   5.710   2.608   5.949
  647SOL    HW2 2841   5.665   2.552   5.802
  648SOL     OW 2842   6.340   3.561   2.833
  648SOL    HW1 2843   6.361   3.497   2.907
  648SOL    HW2 2844   6.363   3.519   2.745
  649SOL     OW 2845   4.510   4.070   0.044
  649SOL    HW1 2846   4.545   4.163   0.058
  649SOL    HW2 2847   4.439   4.051   0.112
  650SOL     OW 2848   5.340   3.966   0.497
  650SOL    HW1 2849   5.409   4.031   0.464
  650SOL    HW2 2850   5.385   3.895   0.551
  651SOL     OW 2851   0.448   6.900   6.834
  651SOL    HW1 2852   0.357   6.867   6.807
  651SOL    HW2 2853   0.493   6.830   6.889
  652SOL     OW 2854   4.907   6.057   3.679
  652SOL    HW1 2855   4.835   5.993   3.654
  652SOL    HW2 2856   4.868   6.148   3.692
  653SOL     OW 2857   3.362   5.463   5.718
  653SOL    HW1 2858   3.421   5.502   5.789
  653SOL    HW2 2859   3.417   5.405   5.657
  654SOL     OW 2860   6.993   4.731   6.006
  654SOL    HW1 2861   0.026   4.782   5.943
  654SOL    HW2 2862   7.019   4.635   6.006
  655SOL     OW 2863   0.543   6.779   2.417
  655SOL    HW1 2864   0.482   6.793   2.339
  655SOL    HW2 2865   0.539   6.684   2.446
  656SOL     OW 2866   2.196   5.842   0.990
  656SOL    HW1 2867   2.233   5.932   0.968
  656SOL    HW2 2868   2.261   5.792   1.047
  657SOL     OW 2869   2.519   1.960   1.713
  657SOL    HW1 2870   2.446   1.928   1.653
  657SOL    HW2 2871   2.576   1.882   1.739
  658SOL     OW 2872   3.102   2.928   5.959
  658SOL    HW1 2873   3.175   2.865   5.983
  658SOL    HW2 2874   3.046   2.889   5.886
  659SOL     OW 2875   2.903   6.726   6.416
  659SOL    HW1 2876   2.881   6.661   6.343
  659SOL    HW2 2877   3.000   6.748   6.412
  660SOL     OW 2878   4.906   4.367   1.606
  660SOL    HW1 2879   4.979   4.370   1.674
  660SOL    HW2 2880   4.827   4.319   1.644
  661SOL     OW 2881   4.743   6.296   3.673
  661SOL    HW1 2882   4.722   6.330   3.764
  661SOL    HW2 2883   4.784   6.370   3.619
  662SOL     OW 2884   3.950   0.572   5.509
  662SOL    HW1 2885   3.892   0.524   5.444
  662SOL    HW2 2886   3.954   0.520   5.595
  663SOL     OW 2887   2.410   3.663   5.937
  663SOL    HW1 2888   2.461   3.732   5.988
  663SOL    HW2 2889   2.405   3.689   5.841
  664SOL     OW 2890   0.204   6.216   6.684
  664SOL    HW1 2891   0.231   6.195   6.778
  664SOL    HW2 2892   0.123   6.163   6.660
  665SOL     OW 2893   4.264   5.333   1.926
  665SOL    HW1 2894   4.243   5.353   2.021
  665SOL    HW2 2895   4.234   5.240   1.903
  666SOL     OW 2896   5.022   0.909   2.104
  666SOL    HW1 2897   5.117   0.924   2.076
  666SOL    HW2 2898   4.962   0.925   2.025
  667SOL     OW 2899   0.970   4.894   2.616
  667SOL    HW1 2900   0.952   4.845   2.702
  667SOL    HW2 2901   0.906   4.970   2.607
  668SOL     OW 2902   4.894   6.623   6.258
  668SOL    HW1 2903   4.940   6.599   6.172
  668SOL    HW2 2904   4.820   6.687   6.240
  669SOL     OW 2905   5.404   0.658   3.774
  669SOL    HW1 2906   5.361   0.576   3.811
  669SOL    HW2 2907   5.504   0.650   3.779
  670SOL     OW 2908   3.038   1.922   1.884
  670SOL    HW1 2909   3.039   1.988   1.809
  670SOL    HW2 2910   2.961   1.940   1.944
  671SOL     OW 2911   2.902   6.118   0.954
  671SOL    HW1 2912   2.910   6.186   0.881
  671SOL    HW2 2913   2.970   6.046   0.939
  672SOL     OW 2914   6.514   5.576   2.201
  672SOL    HW1 2915   6.454   5.496   2.210
  672SOL    HW2 2916   6.608   5.550   2.224
  673SOL     OW 2917   6.420   6.673   0.933
  673SOL    HW1 2918   6.437   6.662   1.031
  673SOL    HW2 2919   6.406   6.770   0.913
  674SOL     OW 2920   0.435   1.481   4.497
  674SOL    HW1 2921   0.522   1.506   4.540
  674SOL    HW2 2922   0.360   1.527   4.544
  675SOL     OW 2923   5.678   2.481   2.645
  675SOL    HW1 2924   5.661   2.501   2.548
  675SOL    HW2 2925   5.776   2.481   2.662
  676SOL     OW 2926   3.051   5.423   4.105
  676SOL    HW1 2927   2.962   5.384   4.127
  676SOL    HW2 2928   3.080   5.393   4.015
  677SOL     OW 2929   5.084   0.996   0.780
  677SOL    HW1 2930   5.181   1.019   0.791
  677SOL    HW2 2931   5.057   0.930   0.850
  678SOL     OW 2932   2.750   6.199   5.042
  678SOL    HW1 2933   2.753   6.147   4.956
  678SOL    HW2 2934   2.733   6.295   5.023
  679SOL     OW 2935   5.121   1.784   4.022
  679SOL    HW1 2936   5.217   1.810   4.027
  679SOL    HW2 2937   5.081   1.818   3.937
  680SOL     OW 2938   4.690   5.722   4.793
  680SOL    HW1 2939   4.692   5.822   4.786
  680SOL    HW2 2940   4.746   5.692   4.870
  681SOL     OW 2941   4.727   5.766   1.705
  681SOL    HW1 2942   4.805   5.784   1.645
  681SOL    HW2 2943   4.757   5.766   1.800
  682SOL     OW 2944   5.846   1.065   1.671
  682SOL    HW1 2945   5.905   1.121   1.613
  682SOL    HW2 2946   5.811   1.121   1.746
  683SOL     OW 2947   4.813   2.660   0.316
  683SOL    HW1 2948   4.856   2.576   0.349
  683SOL    HW2 2949   4.729   2.677   0.368
  684SOL     OW 2950   6.719   0.924   0.639
  684SOL    HW1 2951   6.702   0.853   0.708
  684SOL    HW2 2952   6.690   0.891   0.549
  685SOL     OW 2953   3.193   1.983   3.934
  685SOL    HW1 2954   3.215   2.033   3.851
  685SOL    HW2 2955   3.259   1.909   3.946
  686SOL     OW 2956   4.632   2.356   4.393
  686SOL    HW1 2957   4.595   2.390   4.480
  686SOL    HW2 2958   4.567   2.290   4.353
  687SOL     OW 2959   0.807   2.021   3.888
  687SOL    HW1 2960   0.809   2.015   3.988
  687SOL    HW2 2961   0.851   2.106   3.859
  688SOL     OW 2962   0.096   1.641   6.360
  688SOL    HW1 2963   0.182   1.637   6.410
  688SOL    HW2 2964   0.064   1.548   6.341
  689SOL     OW 2965   1.360   4.634   5.946
  689SOL    HW1 2966   1.291   4.572   5.983
  689SOL    HW2 2967   1.352   4.723   5.989
  690SOL     OW 2968   7.006   3.807   3.288
  690SOL    HW1 2969   6.964   3.897   3.282
  690SOL    HW2 2970   0.017   3.793   3.380
  691SOL     OW 2971   3.383   1.431   6.968
  691SOL    HW1 2972   3.333   1.475   0.017
  691SOL    HW2 2973   3.426   1.347   7.001
  692SOL     OW 2974   4.282   2.143   4.617
  692SOL    HW1 2975   4.203   2.173   4.671
  692SOL    HW2 2976   4.269   2.170   4.522
  693SOL     OW 2977   4.687   6.437   3.937
  693SOL    HW1 2978   4.674   6.359   3.999
  693SOL    HW2 2979   4.622   6.509   3.960
  694SOL     OW 2980   4.352   6.673   5.109
  694SOL    HW1 2981   4.260   6.649   5.077
  694SOL    HW2 2982   4.417   6.658   5.035
  695SOL     OW 2983   4.004   6.662   3.987
  695SOL    HW1 2984   3.922   6.691   4.037
  695SOL    HW2 2985   4.060   6.604   4.046
  696SOL     OW 2986   4.891   4.640   3.510
  696SOL    HW1 2987   4.851   4.731   3.516
  696SOL    HW2 2988   4.829   4.580   3.459
  697SOL     OW 2989   1.697   3.998   2.448
  697SOL    HW1 2990   1.759   4.063   2.493
  697SOL    HW2 2991   1.608   4.042   2.434
  698SOL     OW 2992   5.626   6.064   1.183
  698SOL    HW1 2993   5.725   6.075   1.188
  698SOL    HW2 2994   5.581   6.143   1.224
  699SOL     OW 2995   1.306   3.387   6.904
  699SOL    HW1 2996   1.385   3.393   6.843
  699SOL    HW2 2997   1.318   3.452   6.980
  700SOL     OW 2998   3.356   6.886   2.014
  700SOL    HW1 2999   3.455   6.892   2.024
  700SOL    HW2 3000   3.333   6.872   1.918
  701SOL     OW 3001   0.034   3.882   0.106
  701SOL    HW1 3002   0.133   3.887   0.116
  701SOL    HW2 3003   7.016   3.877   0.196
  702SOL     OW 3004   2.081   6.652   4.764
  702SOL    HW1 3005   2.063   6.719   4.836
  702SOL    HW2 3006   2.009   6.657   4.695
  703SOL     OW 3007   3.575   3.353   5.460
  703SOL    HW1 3008   3.600   3.293   5.383
  703SOL    HW2 3009   3.587   3.449   5.433
  704SOL     OW 3010   1.678   2.617   6.315
  704SOL    HW1 3011   1.771   2.645   6.288
  704SOL    HW2 3012   1.620   2.698   6.321
  705SOL     OW 3013   5.893   5.549   2.868
  705SOL    HW1 3014   5.991   5.538   2.883
  705SOL    HW2 3015   5.863   5.636   2.908
  706SOL     OW 3016   4.418   1.689   5.302
  706SOL    HW1 3017   4.337   1.739   5.331
  706SOL    HW2 3018   4.498   1.721   5.353
  707SOL     OW 3019   4.244   4.679   2.978
  707SOL    HW1 3020   4.326   4.637   3.018
  707SOL    HW2 3021   4.225   4.637   2.889
  708SOL     OW 3022   2.571   1.149   2.391
  708SOL    HW1 3023   2.658   1.196   2.409
  708SOL    HW2 3024   2.508   1.166   2.466
  709SOL     OW 3025   1.330   5.937   0.458
  709SOL    HW1 3026   1.268   6.007   0.423
  709SOL    HW2 3027   1.407   5.981   0.505
  710SOL     OW 3028   4.259   1.991   1.566
  710SOL    HW1 3029   4.160   1.983   1.570
  710SOL    HW2 3030   4.288   2.002   1.471
  711SOL     OW 3031   0.066   3.245   5.931
  711SOL    HW1 3032   0.102   3.216   6.020
  711SOL    HW2 3033   0.134   3.226   5.860
  712SOL     OW 3034   4.737   2.402   0.574
  712SOL    HW1 3035   4.774   2.484   0.617
  712SOL    HW2 3036   4.652   2.376   0.618
  713SOL     OW 3037   4.147   3.271   5.740
  713SOL    HW1 3038   4.094   3.332   5.681
  713SOL    HW2 3039   4.146   3.306   5.833
  714SOL     OW 3040   0.212   5.556   3.714
  714SOL    HW1 3041   0.225   5.497   3.794
  714SOL    HW2 3042   0.115   5.567   3.696
  715SOL     OW 3043   5.558   5.869   6.557
  715SOL    HW1 3044   5.542   5.814   6.639
  715SOL    HW2 3045   5.656   5.875   6.539
  716SOL     OW 3046   1.047   1.184   2.555
  716SOL    HW1 3047   1.030   1.220   2.647
  716SOL    HW2 3048   1.014   1.090   2.549
  717SOL     OW 3049   6.787   4.851   3.756
  717SOL    HW1 3050   6.728   4.923   3.793
  717SOL    HW2 3051   6.758   4.762   3.791
  718SOL     OW 3052   4.804   3.066   5.359
  718SOL    HW1 3053   4.836   2.975   5.385
  718SOL    HW2 3054   4.748   3.059   5.277
  719SOL     OW 3055   5.792   0.050   2.425
  719SOL    HW1 3056   5.815   7.000   2.363
  719SOL    HW2 3057   5.746   0.013   2.506
  720SOL     OW 3058   2.172   0.764   5.967
  720SOL    HW1 3059   2.251   0.707   5.992
  720SOL    HW2 3060   2.142   0.739   5.875
  721SOL     OW 3061   2.046   1.342   1.761
  721SOL    HW1 3062   2.128   1.359   1.707
  721SOL    HW2 3063   1.996   1.264   1.724
  722SOL     OW 3064   3.217   1.201   5.409
  722SOL    HW1 3065   3.267   1.216   5.494
  722SOL    HW2 3066   3.158   1.279   5.390
  723SOL     OW 3067   2.049   5.142   3.685
  723SOL    HW1 3068   1.963   5.134   3.634
  723SOL    HW2 3069   2.125   5.115   3.625
  724SOL     OW 3070   0.565   1.417   3.470
  724SOL    HW1 3071   0.534   1.407   3.375
  724SOL    HW2 3072   0.535   1.505   3.506
  725SOL     OW 3073   1.576   4.564   2.209
  725SOL    HW1 3074   1.652   4.499   2.208
  725SOL    HW2 3075   1.490   4.514   2.216
  726SOL     OW 3076   2.816   5.172   1.246
  726SOL    HW1 3077   2.801   5.268   1.220
  726SOL    HW2 3078   2.728   5.126   1.258
  727SOL     OW 3079   5.079   4.834   6.391
  727SOL    HW1 3080   5.057   4.749   6.343
  727SOL    HW2 3081   4.996   4.889   6.399
  728SOL     OW 3082   6.816   3.374   3.969
  728SOL    HW1 3083   6.860   3.462   3.950
  728SOL    HW2 3084   6.776   3.375   4.060
  729SOL     OW 3085   0.567   2.818   0.957
  729SOL    HW1 3086   0.638   2.888   0.949
  729SOL    HW2 3087   0.486   2.847   0.906
  730SOL     OW 3088   6.380   0.281   4.385
  730SOL    HW1 3089   6.325   0.204   4.355
  730SOL    HW2 3090   6.435   0.314   4.309
  731SOL     OW 3091   4.652   5.213   0.104
  731SOL    HW1 3092   4.646   5.277   0.027
  731SOL    HW2 3093   4.661   5.265   0.189
  732SOL     OW 3094   6.001   2.974   2.562
  732SOL    HW1 3095   5.932   3.034   2.602
  732SOL    HW2 3096   5.960   2.884   2.544
  733SOL     OW 3097   5.825   0.393   5.381
  733SOL    HW1 3098   5.821   0.467   5.314
  733SOL    HW2 3099   5.772   0.315   5.348
  734SOL     OW 3100   6.191   5.226   2.612
  734SOL    HW1 3101   6.129   5.252   2.538
  734SOL    HW2 3102   6.242   5.144   2.585
  735SOL     OW 3103   4.249   1.749   0.574
  735SOL    HW1 3104   4.199   1.667   0.604
  735SOL    HW2 3105   4.184   1.823   0.557
  736SOL     OW 3106   1.126   1.241   4.163
  736SOL    HW1 3107   1.159   1.147   4.153
  736SOL    HW2 3108   1.039   1.251   4.114
  737SOL     OW 3109   5.472   1.670   6.438
  737SOL    HW1 3110   5.431   1.623   6.360
  737SOL    HW2 3111   5.406   1.672   6.514
  738SOL     OW 3112   2.818   4.082   1.640
  738SOL    HW1 3113   2.821   4.007   1.707
  738SOL    HW2 3114   2.900   4.079   1.584
  739SOL     OW 3115   4.068   0.187   4.633
  739SOL    HW1 3116   4.048   0.238   4.716
  739SOL    HW2 3117   4.155   0.219   4.594
  740SOL     OW 3118   5.652   1.671   3.072
  740SOL    HW1 3119   5.662   1.690   2.975
  740SOL    HW2 3120   5.611   1.580   3.085
  741SOL     OW 3121   1.966   0.333   3.817
  741SOL    HW1 3122   2.008   0.245   3.841
  741SOL    HW2 3123   2.036   0.394   3.780
  742SOL     OW 3124   2.094   6.088   1.247
  742SOL    HW1 3125   2.019   6.026   1.222
  742SOL    HW2 3126   2.134   6.128   1.165
  743SOL     OW 3127   0.029   5.647   2.963
  743SOL    HW1 3128   6.971   5.594   2.945
  743SOL    HW2 3129   0.085   5.649   2.880
  744SOL     OW 3130   5.992   0.562   0.571
  744SOL    HW1 3131   6.072   0.548   0.629
  744SOL    HW2 3132   5.969   0.659   0.569
  745SOL     OW 3133   2.075   5.369   5.163
  745SOL    HW1 3134   2.025   5.284   5.181
  745SOL    HW2 3135   2.170   5.348   5.140
  746SOL     OW 3136   5.942   3.965   5.766
  746SOL    HW1 3137   5.886   3.976   5.684
  746SOL    HW2 3138   5.887   3.984   5.847
  747SOL     OW 3139   4.433   6.093   4.878
  747SOL    HW1 3140   4.398   6.118   4.968
  747SOL    HW2 3141   4.386   6.010   4.846
  748SOL     OW 3142   4.725   5.498   2.007
  748SOL    HW1 3143   4.629   5.519   2.026
  748SOL    HW2 3144   4.771   5.472   2.092
  749SOL     OW 3145   5.908   3.599   4.360
  749SOL    HW1 3146   5.992   3.647   4.337
  749SOL    HW2 3147   5.841   3.611   4.286
  750SOL     OW 3148   2.353   1.304   1.059
  750SOL    HW1 3149   2.340   1.391   1.012
  750SOL    HW2 3150   2.406   1.318   1.142
  751SOL     OW 3151   4.038   1.133   0.602
  751SOL    HW1 3152   4.089   1.161   0.684
  751SOL    HW2 3153   3.965   1.070   0.628
  752SOL     OW 3154   3.002   2.922   0.227
  752SOL    HW1 3155   3.073   2.984   0.261
  752SOL    HW2 3156   3.045   2.837   0.195
  753SOL     OW 3157   1.686   3.510   5.923
  753SOL    HW1 3158   1.778   3.508   5.963
  753SOL    HW2 3159   1.688   3.473   5.830
  754SOL     OW 3160   4.781   1.574   6.695
  754SOL    HW1 3161   4.709   1.505   6.703
  754SOL    HW2 3162   4.859   1.547   6.751
  755SOL     OW 3163   3.012   4.657   5.541
  755SOL    HW1 3164   3.035   4.663   5.638
  755SOL    HW2 3165   3.065   4.583   5.499
  756SOL     OW 3166   2.737   4.947   0.031
  756SOL    HW1 3167   2.650   4.988   0.058
  756SOL    HW2 3168   2.724   4.849   0.013
  757SOL     OW 3169   2.006   6.000   3.145
  757SOL    HW1 3170   1.939   6.046   3.088
  757SOL    HW2 3171   2.007   5.902   3.124
  758SOL     OW 3172   4.075   0.819   3.717
  758SOL    HW1 3173   4.165   0.791   3.685
  758SOL    HW2 3174   4.084   0.901   3.774
  759SOL     OW 3175   0.208   3.036   2.758
  759SOL    HW1 3176   0.236   3.083   2.674
  759SOL    HW2 3177   0.134   3.086   2.801
  760SOL     OW 3178   6.399   6.841   4.183
  760SOL    HW1 3179   6.371   6.858   4.089
  760SOL    HW2 3180   6.485   6.889   4.202
  761SOL     OW 3181   5.858   4.142   6.419
  761SOL    HW1 3182   5.879   4.082   6.496
  761SOL    HW2 3183   5.828   4.231   6.454
  762SOL     OW 3184   2.911   0.127   5.626
  762SOL    HW1 3185   2.913   0.099   5.530
  762SOL    HW2 3186   2.821   0.165   5.648
  763SOL     OW 3187   4.485   6.691   6.501
  763SOL    HW1 3188   4.524   6.765   6.556
  763SOL    HW2 3189   4.470   6.611   6.560
  764SOL     OW 3190   5.472   0.686   5.928
  764SOL    HW1 3191   5.380   0.722   5.910
  764SOL    HW2 3192   5.482   0.667   6.025
  765SOL     OW 3193   1.678   6.302   0.594
  765SOL    HW1 3194   1.711   6.299   0.500
  765SOL    HW2 3195   1.747   6.345   0.652
  766SOL     OW 3196   3.008   1.963   5.497
  766SOL    HW1 3197   3.066   1.964   5.579
  766SOL    HW2 3198   3.054   2.016   5.424
  767SOL     OW 3199   6.297   6.544   3.927
  767SOL    HW1 3200   6.393   6.520   3.943
  767SOL    HW2 3201   6.259   6.586   4.009
  768SOL     OW 3202   2.141   5.404   3.456
  768SOL    HW1 3203   2.139   5.448   3.546
  768SOL    HW2 3204   2.141   5.474   3.384
  769SOL     OW 3205   2.776   1.135   5.224
  769SOL    HW1 3206   2.694   1.078   5.232
  769SOL    HW2 3207   2.775   1.184   5.137
  770SOL     OW 3208   1.450   5.405   3.788
  770SOL    HW1 3209   1.424   5.323   3.737
  770SOL    HW2 3210   1.528   5.384   3.847
  771SOL     OW 3211   1.199   4.653   2.702
  771SOL    HW1 3212   1.243   4.713   2.768
  771SOL    HW2 3213   1.103   4.639   2.728
  772SOL     OW 3214   6.006   4.748   6.417
  772SOL    HW1 3215   6.065   4.687   6.469
  772SOL    HW2 3216   6.038   4.843   6.428
  773SOL     OW 3217   0.567   4.136   2.974
  773SOL    HW1 3218   0.661   4.171   2.975
  773SOL    HW2 3219   0.503   4.212   2.983
  774SOL     OW 3220   1.602   1.411   2.817
  774SOL    HW1 3221   1.623   1.331   2.874
  774SOL    HW2 3222   1.676   1.426   2.752
  775SOL     OW 3223   2.213   1.789   4.492
  775SOL    HW1 3224   2.262   1.703   4.503
  775SOL    HW2 3225   2.229   1.824   4.399
  776SOL     OW 3226   6.949   0.422   6.177
  776SOL    HW1 3227   7.021   0.388   6.237
  776SOL    HW2 3228   6.908   0.345   6.128
  777SOL     OW 3229   1.921   4.346   1.055
  777SOL    HW1 3230   1.828   4.312   1.043
  777SOL    HW2 3231   1.936   4.368   1.151
  778SOL     OW 3232   2.353   0.169   1.360
  778SOL    HW1 3233   2.387   0.105   1.291
  778SOL    HW2 3234   2.407   0.159   1.444
  779SOL     OW 3235   6.871   1.946   1.828
  779SOL    HW1 3236   6.841   1.982   1.916
  779SOL    HW2 3237   6.859   1.847   1.826
  780SOL     OW 3238   0.899   2.345   3.952
  780SOL    HW1 3239   0.914   2.389   4.041
  780SOL    HW2 3240   0.881   2.415   3.883
  781SOL     OW 3241   6.001   5.005   0.495
  781SOL    HW1 3242   5.917   5.022   0.442
  781SOL    HW2 3243   6.004   5.067   0.573
  782SOL     OW 3244   1.943   3.938   5.809
  782SOL    HW1 3245   1.891   4.022   5.828
  782SOL    HW2 3246   1.964   3.891   5.894
  783SOL     OW 3247   5.608   4.418   1.406
  783SOL    HW1 3248   5.703   4.443   1.389
  783SOL    HW2 3249   5.605   4.333   1.459
  784SOL     OW 3250   4.254   5.090   1.638
  784SOL    HW1 3251   4.251   5.067   1.735
  784SOL    HW2 3252   4.165   5.075   1.597
  785SOL     OW 3253   0.286   1.019   3.623
  785SOL    HW1 3254   0.205   1.044   3.570
  785SOL    HW2 3255   0.326   1.101   3.663
  786SOL     OW 3256   6.799   1.067   2.739
  786SOL    HW1 3257   6.882   1.072   2.684
  786SOL    HW2 3258   6.803   0.986   2.798
  787SOL     OW 3259   1.807   6.879   6.973
  787SOL    HW1 3260   1.737   6.889   6.903
  787SOL    HW2 3261   1.780   6.809   0.014
  788SOL     OW 3262   4.406   2.295   1.052
  788SOL    HW1 3263   4.406   2.325   1.147
  788SOL    HW2 3264   4.355   2.361   0.997
  789SOL     OW 3265   4.514   5.249   2.140
  789SOL    HW1 3266   4.485   5.154   2.129
  789SOL    HW2 3267   4.591   5.268   2.079
  790SOL     OW 3268   2.190   1.036   2.063
  790SOL    HW1 3269   2.162   1.125   2.027
  790SOL    HW2 3270   2.288   1.023   2.045
  791SOL     OW 3271   2.477   5.864   5.386
  791SOL    HW1 3272   2.519   5.919   5.314
  791SOL    HW2 3273   2.410   5.801   5.345
  792SOL     OW 3274   0.536   0.628   2.254
  792SOL    HW1 3275   0.442   0.627   2.220
  792SOL    HW2 3276   0.597   0.585   2.187
  793SOL     OW 3277   5.138   5.654   5.338
  793SOL    HW1 3278   5.222   5.602   5.352
  793SOL    HW2 3279   5.089   5.617   5.259
  794SOL     OW 3280   3.031   3.531   5.876
  794SOL    HW1 3281   3.002   3.595   5.805
  794SOL    HW2 3282   3.050   3.442   5.835
  795SOL     OW 3283   3.927   0.441   5.747
  795SOL    HW1 3284   3.911   0.395   5.835
  795SOL    HW2 3285   4.012   0.407   5.708
  796SOL     OW 3286   1.733   2.994   0.392
  796SOL    HW1 3287   1.809   3.022   0.451
  796SOL    HW2 3288   1.652   3.047   0.416
  797SOL     OW 3289   4.109   0.377   0.933
  797SOL    HW1 3290   4.129   0.451   0.869
  797SOL    HW2 3291   4.060   0.415   1.012
  798SOL     OW 3292   3.826   6.032   1.202
  798SOL    HW1 3293   3.830   5.996   1.295
  798SOL    HW2 3294   3.783   6.122   1.202
  799SOL     OW 3295   0.482   1.179   6.302
  799SOL    HW1 3296   0.515   1.182   6.207
  799SOL    HW2 3297   0.513   1.261   6.351
  800SOL     OW 3298   6.562   1.554   2.449
  800SOL    HW1 3299   6.631   1.513   2.510
  800SOL    HW2 3300   6.597   1.556   2.356
  801SOL     OW 3301   2.216   4.129   5.279
  801SOL    HW1 3302   2.243   4.224   5.264
  801SOL    HW2 3303   2.271   4.069   5.221
  802SOL     OW 3304   3.614   1.905   7.017
  802SOL    HW1 3305   3.601   1.848   6.936
  802SOL    HW2 3306   3.707   1.942   7.018
  803SOL     OW 3307   1.695   6.761   5.948
  803SOL    HW1 3308   1.725   6.812   5.868
  803SOL    HW2 3309   1.613   6.803   5.986
  804SOL     OW 3310   6.633   6.892   1.748
  804SOL    HW1 3311   6.607   6.910   1.654
  804SOL    HW2 3312   6.704   6.957   1.776
  805SOL     OW 3313   1.455   0.264   3.997
  805SOL    HW1 3314   1.388   0.330   3.966
  805SOL    HW2 3315   1.423   0.171   3.975
  806SOL     OW 3316   6.349   0.326   6.538
  806SOL    HW1 3317   6.280   0.351   6.606
  806SOL    HW2 3318   6.351   0.394   6.465
  807SOL     OW 3319   0.527   6.786   3.679
  807SOL    HW1 3320   0.485   6.788   3.770
  807SOL    HW2 3321   0.516   6.875   3.635
  808SOL     OW 3322   5.061   3.035   6.756
  808SOL    HW1 3323   5.141   3.040   6.816
  808SOL    HW2 3324   5.090   3.014   6.663
  809SOL     OW 3325   1.144   4.930   0.815
  809SOL    HW1 3326   1.091   4.971   0.890
  809SOL    HW2 3327   1.098   4.948   0.728
  810SOL     OW 3328   3.238   3.643   0.278
  810SOL    HW1 3329   3.144   3.673   0.297
  810SOL    HW2 3330   3.302   3.706   0.320
  811SOL     OW 3331   5.142   5.001   3.973
  811SOL    HW1 3332   5.099   5.084   3.937
  811SOL    HW2 3333   5.170   5.017   4.068
  812SOL     OW 3334   0.502   1.845   1.787
  812SOL    HW1 3335   0.452   1.807   1.709
  812SOL    HW2 3336   0.465   1.808   1.872
  813SOL     OW 3337   2.601   0.193   4.463
  813SOL    HW1 3338   2.617   0.277   4.515
  813SOL    HW2 3339   2.505   0.189   4.435
  814SOL     OW 3340   6.475   6.197   2.493
  814SOL    HW1 3341   6.483   6.116   2.434
  814SOL    HW2 3342   6.563   6.214   2.537
  815SOL     OW 3343   5.419   2.946   3.145
  815SOL    HW1 3344   5.479   2.886   3.198
  815SOL    HW2 3345   5.343   2.893   3.107
  816SOL     OW 3346   4.971   5.095   0.386
  816SOL    HW1 3347   5.005   5.040   0.310
  816SOL    HW2 3348   5.024   5.180   0.393
  817SOL     OW 3349   1.057   5.368   1.675
  817SOL    HW1 3350   1.053   5.314   1.759
  817SOL    HW2 3351   1.134   5.431   1.680
  818SOL     OW 3352   5.980   3.023   3.631
  818SOL    HW1 3353   5.941   3.016   3.722
  818SOL    HW2 3354   5.907   3.020   3.563
  819SOL     OW 3355   6.289   2.597   1.715
  819SOL    HW1 3356   6.301   2.631   1.808
  819SOL    HW2 3357   6.378   2.595   1.669
  820SOL     OW 3358   3.199   2.088   4.813
  820SOL    HW1 3359   3.175   2.022   4.884
  820SOL    HW2 3360   3.188   2.181   4.848
  821SOL     OW 3361   6.140   4.869   5.981
  821SOL    HW1 3362   6.084   4.816   6.044
  821SOL    HW2 3363   6.227   4.822   5.966
  822SOL     OW 3364   0.496   3.917   3.136
  822SOL    HW1 3365   0.505   4.004   3.087
  822SOL    HW2 3366   0.565   3.912   3.208
  823SOL     OW 3367   6.569   4.557   6.667
  823SOL    HW1 3368   6.545   4.508   6.583
  823SOL    HW2 3369   6.659   4.526   6.699
  824SOL     OW 3370   4.812   0.966   5.397
  824SOL    HW1 3371   4.871   1.005   5.326
  824SOL    HW2 3372   4.783   0.874   5.369
  825SOL     OW 3373   6.527   5.772   1.165
  825SOL    HW1 3374   6.580   5.855   1.146
  825SOL    HW2 3375   6.551   5.701   1.098
  826SOL     OW 3376   3.401   2.513   5.630
  826SOL    HW1 3377   3.413   2.503   5.531
  826SOL    HW2 3378   3.388   2.609   5.653
  827SOL     OW 3379   2.862   3.956   5.216
  827SOL    HW1 3380   2.942   4.012   5.236
  827SOL    HW2 3381   2.861   3.934   5.118
  828SOL     OW 3382   5.806   5.991   6.288
  828SOL    HW1 3383   5.838   5.960   6.378
  828SOL    HW2 3384   5.739   6.064   6.301
  829SOL     OW 3385   3.542   3.497   1.984
  829SOL    HW1 3386   3.588   3.411   2.005
  829SOL    HW2 3387   3.481   3.522   2.061
  830SOL     OW 3388   5.372   5.416   6.939
  830SOL    HW1 3389   5.364   5.320   6.912
  830SOL    HW2 3390   5.421   5.466   6.867
  831SOL     OW 3391   6.228   0.026   1.568
  831SOL    HW1 3392   6.194   0.054   1.657
  831SOL    HW2 3393   6.217   6.952   1.557
  832SOL     OW 3394   4.288   1.661   4.222
  832SOL    HW1 3395   4.374   1.666   4.171
  832SOL    HW2 3396   4.211   1.673   4.159
  833SOL     OW 3397   2.093   3.544   6.332
  833SOL    HW1 3398   2.120   3.576   6.241
  833SOL    HW2 3399   2.049   3.618   6.382
  834SOL     OW 3400   5.508   3.020   0.360
  834SOL    HW1 3401   5.477   3.115   0.360
  834SOL    HW2 3402   5.440   2.963   0.313
  835SOL     OW 3403   2.349   0.818   4.793
  835SOL    HW1 3404   2.403   0.742   4.830
  835SOL    HW2 3405   2.277   0.842   4.858
  836SOL     OW 3406   3.035   1.077   5.174
  836SOL    HW1 3407   3.099   1.010   5.214
  836SOL    HW2 3408   2.958   1.090   5.236
  837SOL     OW 3409   0.515   7.022   0.920
  837SOL    HW1 3410   0.589   7.004   0.984
  837SOL    HW2 3411   0.550   0.051   0.843
  838SOL     OW 3412   2.222   5.908   4.253
  838SOL    HW1 3413   2.260   5.847   4.323
  838SOL    HW2 3414   2.292   5.974   4.225
  839SOL     OW 3415   2.332   1.420   1.696
  839SOL    HW1 3416   2.365   1.350   1.633
  839SOL    HW2 3417   2.409   1.455   1.749
  840SOL     OW 3418   6.201   5.324   0.473
  840SOL    HW1 3419   6.290   5.278   0.471
  840SOL    HW2 3420   6.163   5.319   0.566
  841SOL     OW 3421   3.077   5.940   6.122
  841SOL    HW1 3422   3.075   6.008   6.049
  841SOL    HW2 3423   3.035   5.977   6.204
  842SOL     OW 3424   3.535   6.692   6.801
  842SOL    HW1 3425   3.571   6.641   6.879
  842SOL    HW2 3426   3.604   6.755   6.767
  843SOL     OW 3427   1.812   1.908   1.946
  843SOL    HW1 3428   1.809   2.008   1.937
  843SOL    HW2 3429   1.898   1.874   1.908
  844SOL     OW 3430   0.237   6.653   1.546
  844SOL    HW1 3431   0.327   6.610   1.543
  844SOL    HW2 3432   0.175   6.598   1.602
  845SOL     OW 3433   5.602   3.284   3.424
  845SOL    HW1 3434   5.547   3.367   3.428
  845SOL    HW2 3435   5.583   3.235   3.338
  846SOL     OW 3436   3.026   0.805   5.919
  846SOL    HW1 3437   2.959   0.761   5.980
  846SOL    HW2 3438   3.054   0.740   5.849
  847SOL     OW 3439   2.019   3.320   2.038
  847SOL    HW1 3440   2.082   3.396   2.025
  847SOL    HW2 3441   1.951   3.344   2.108
  848SOL     OW 3442   6.590   6.862   5.674
  848SOL    HW1 3443   6.543   6.835   5.590
  848SOL    HW2 3444   6.524   6.897   5.740
  849SOL     OW 3445   6.369   4.276   6.014
  849SOL    HW1 3446   6.449   4.334   6.025
  849SOL    HW2 3447   6.286   4.332   6.014
  850SOL     OW 3448   6.548   0.163   5.490
  850SOL    HW1 3449   6.486   0.108   5.545
  850SOL    HW2 3450   6.529   0.260   5.504
  851SOL     OW 3451   0.125   2.981   6.648
  851SOL    HW1 3452   0.046   2.997   6.589
  851SOL    HW2 3453   0.193   2.928   6.599
  852SOL     OW 3454   0.826   4.771   0.964
  852SOL    HW1 3455   0.746   4.710   0.961
  852SOL    HW2 3456   0.820   4.837   0.889
  853SOL     OW 3457   1.085   4.582   6.815
  853SOL    HW1 3458   1.153   4.655   6.818
  853SOL    HW2 3459   1.124   4.499   6.856
  854SOL     OW 3460   4.926   6.480   0.262
  854SOL    HW1 3461   4.909   6.389   0.225
  854SOL    HW2 3462   4.840   6.524   0.285
  855SOL     OW 3463   6.484   0.201   0.409
  855SOL    HW1 3464   6.551   0.186   0.482
  855SOL    HW2 3465   6.522   0.168   0.322
  856SOL     OW 3466   1.464   1.076   6.446
  856SOL    HW1 3467   1.389   1.115   6.393
  856SOL    HW2 3468   1.435   1.066   6.541
  857SOL     OW 3469   6.625   5.749   2.023
  857SOL    HW1 3470   6.624   5.710   1.931
  857SOL    HW2 3471   6.593   5.681   2.089
  858SOL     OW 3472   3.450   4.177   0.951
  858SOL    HW1 3473   3.512   4.113   0.995
  858SOL    HW2 3474   3.498   4.264   0.935
  859SOL     OW 3475   5.631   6.020   5.525
  859SOL    HW1 3476   5.603   5.960   5.600
  859SOL    HW2 3477   5.628   5.968   5.439
  860SOL     OW 3478   5.967   2.949   6.713
  860SOL    HW1 3479   5.972   2.875   6.780
  860SOL    HW2 3480   6.051   3.002   6.715
  861SOL     OW 3481   2.605   5.288   2.942
  861SOL    HW1 3482   2.649   5.212   2.892
  861SOL    HW2 3483   2.551   5.343   2.878
  862SOL     OW 3484   2.108   4.568   3.289
  862SOL    HW1 3485   2.094   4.513   3.371
  862SOL    HW2 3486   2.206   4.586   3.276
  863SOL     OW 3487   5.920   1.293   6.106
  863SOL    HW1 3488   5.853   1.220   6.122
  863SOL    HW2 3489   5.989   1.290   6.178
  864SOL     OW 3490   3.733   6.124   5.366
  864SOL    HW1 3491   3.710   6.205   5.420
  864SOL    HW2 3492   3.650   6.074   5.343
  865SOL     OW 3493   2.179   0.370   5.730
  865SOL    HW1 3494   2.218   0.364   5.822
  865SOL    HW2 3495   2.086   0.333   5.731
  866SOL     OW 3496   3.423   0.164   0.682
  866SOL    HW1 3497   3.518   0.187   0.660
  866SOL    HW2 3498   3.364   0.200   0.610
  867SOL     OW 3499   4.880   3.697   0.918
  867SOL    HW1 3500   4.930   3.611   0.925
  867SOL    HW2 3501   4.782   3.678   0.907
  868SOL     OW 3502   0.245   1.354   2.051
  868SOL    HW1 3503   0.282   1.406   2.127
  868SOL    HW2 3504   0.297   1.270   2.039
  869SOL     OW 3505   6.714   4.586   3.520
  869SOL    HW1 3506   6.734   4.678   3.554
  869SOL    HW2 3507   6.745   4.518   3.586
  870SOL     OW 3508   4.762   4.819   1.265
  870SOL    HW1 3509   4.757   4.732   1.315
  870SOL    HW2 3510   4.686   4.825   1.201
  871SOL     OW 3511   5.573   2.732   3.908
  871SOL    HW1 3512   5.653   2.775   3.948
  871SOL    HW2 3513   5.577   2.741   3.808
  872SOL     OW 3514   6.788   2.494   4.391
  872SOL    HW1 3515   6.875   2.536   4.364
  872SOL    HW2 3516   6.713   2.549   4.355
  873SOL     OW 3517   4.719   5.561   5.363
  873SOL    HW1 3518   4.667   5.481   5.332
  873SOL    HW2 3519   4.813   5.535   5.382
  874SOL     OW 3520   6.649   4.175   0.462
  874SOL    HW1 3521   6.600   4.162   0.376
  874SOL    HW2 3522   6.732   4.119   0.462
  875SOL     OW 3523   4.787   4.983   0.910
  875SOL    HW1 3524   4.796   4.885   0.895
  875SOL    HW2 3525   4.806   5.004   1.006
  876SOL     OW 3526   0.559   5.578   1.938
  876SOL    HW1 3527   0.556   5.598   2.036
  876SOL    HW2 3528   0.596   5.656   1.889
  877SOL     OW 3529   3.232   4.424   5.721
  877SOL    HW1 3530   3.305   4.402   5.785
  877SOL    HW2 3531   3.147   4.437   5.771
  878SOL     OW 3532   4.873   6.905   4.232
  878SOL    HW1 3533   4.972   6.913   4.240
  878SOL    HW2 3534   4.839   6.976   4.169
  879SOL     OW 3535   3.716   0.266   1.786
  879SOL    HW1 3536   3.727   0.348   1.729
  879SOL    HW2 3537   3.741   0.287   1.880
  880SOL     OW 3538   3.499   3.707   3.641
  880SOL    HW1 3539   3.451   3.692   3.555
  880SOL    HW2 3540   3.560   3.786   3.633
  881SOL     OW 3541   5.301   3.544   5.301
  881SOL    HW1 3542   5.215   3.587   5.274
  881SOL    HW2 3543   5.311   3.550   5.400
  882SOL     OW 3544   1.193   2.624   3.993
  882SOL    HW1 3545   1.284   2.634   3.952
  882SOL    HW2 3546   1.136   2.567   3.934
  883SOL     OW 3547   3.117   1.119   1.142
  883SOL    HW1 3548   3.069   1.153   1.062
  883SOL    HW2 3549   3.200   1.173   1.158
  884SOL     OW 3550   6.097   4.227   5.700
  884SOL    HW1 3551   6.073   4.135   5.732
  884SOL    HW2 3552   6.195   4.230   5.678
  885SOL     OW 3553   3.352   1.230   4.887
  885SOL    HW1 3554   3.394   1.318   4.911
  885SOL    HW2 3555   3.387   1.159   4.948
  886SOL     OW 3556   3.298   0.536   0.207
  886SOL    HW1 3557   3.293   0.600   0.131
  886SOL    HW2 3558   3.330   0.583   0.289
  887SOL     OW 3559   3.926   6.696   3.701
  887SOL    HW1 3560   3.943   6.677   3.798
  887SOL    HW2 3561   4.011   6.685   3.650
  888SOL     OW 3562   6.901   5.944   3.231
  888SOL    HW1 3563   6.853   5.858   3.214
  888SOL    HW2 3564   6.982   5.925   3.288
  889SOL     OW 3565   6.979   2.268   0.422
  889SOL    HW1 3566   6.983   2.219   0.335
  889SOL    HW2 3567   7.014   2.361   0.410
  890SOL     OW 3568   1.575   4.945   2.699
  890SOL    HW1 3569   1.553   4.850   2.675
  890SOL    HW2 3570   1.502   5.005   2.666
  891SOL     OW 3571   5.947   3.995   1.393
  891SOL    HW1 3572   5.929   3.974   1.490
  891SOL    HW2 3573   5.861   4.025   1.350
  892SOL     OW 3574   2.936   3.904   4.927
  892SOL    HW1 3575   3.007   3.975   4.923
  892SOL    HW2 3576   2.894   3.893   4.837
  893SOL     OW 3577   1.982   6.124   3.397
  893SOL    HW1 3578   1.978   6.066   3.315
  893SOL    HW2 3579   2.077   6.133   3.426
  894SOL     OW 3580   0.998   2.908   1.790
  894SOL    HW1 3581   1.016   2.814   1.819
  894SOL    HW2 3582   0.911   2.912   1.740
  895SOL     OW 3583   1.135   4.511   3.880
  895SOL    HW1 3584   1.073   4.434   3.896
  895SOL    HW2 3585   1.088   4.597   3.903
  896SOL     OW 3586   5.465   4.546   1.172
  896SOL    HW1 3587   5.440   4.509   1.082
  896SOL    HW2 3588   5.439   4.480   1.242
  897SOL     OW 3589   4.250   1.209   6.702
  897SOL    HW1 3590   4.245   1.306   6.727
  897SOL    HW2 3591   4.280   1.155   6.780
  898SOL     OW 3592   3.318   6.282   2.885
  898SOL    HW1 3593   3.251   6.354   2.898
  898SOL    HW2 3594   3.383   6.308   2.814
  899SOL     OW 3595   0.310   6.605   0.544
  899SOL    HW1 3596   0.229   6.599   0.486
  899SOL    HW2 3597   0.327   6.701   0.567
  900SOL     OW 3598   5.767   0.429   0.513
  900SOL    HW1 3599   5.858   0.463   0.536
  900SOL    HW2 3600   5.760   0.414   0.415
  901SOL     OW 3601   2.113   0.036   3.549
  901SOL    HW1 3602   2.183   6.991   3.540
  901SOL    HW2 3603   2.040   0.004   3.610
  902SOL     OW 3604   1.618   2.247   1.025
  902SOL    HW1 3605   1.650   2.214   1.114
  902SOL    HW2 3606   1.518   2.249   1.025
  903SOL     OW 3607   0.356   2.893   6.563
  903SOL    HW1 3608   0.424   2.967   6.566
  903SOL    HW2 3609   0.402   2.805   6.551
  904SOL     OW 3610   1.958   1.512   2.437
  904SOL    HW1 3611   1.957   1.437   2.370
  904SOL    HW2 3612   1.946   1.599   2.389
  905SOL     OW 3613   5.396   2.485   6.323
  905SOL    HW1 3614   5.372   2.441   6.237
  905SOL    HW2 3615   5.492   2.468   6.344
  906SOL     OW 3616   6.892   2.218   6.398
  906SOL    HW1 3617   6.894   2.141   6.335
  906SOL    HW2 3618   6.946   2.197   6.480
  907SOL     OW 3619   5.586   2.926   0.596
  907SOL    HW1 3620   5.532   2.954   0.516
  907SOL    HW2 3621   5.582   2.827   0.606
  908SOL     OW 3622   2.826   4.706   3.035
  908SOL    HW1 3623   2.921   4.702   3.002
  908SOL    HW2 3624   2.825   4.708   3.135
  909SOL     OW 3625   4.126   6.595   1.370
  909SOL    HW1 3626   4.081   6.569   1.456
  909SOL    HW2 3627   4.214   6.548   1.364
  910SOL     OW 3628   3.525   1.751   0.820
  910SOL    HW1 3629   3.499   1.819   0.752
  910SOL    HW2 3630   3.525   1.792   0.911
  911SOL     OW 3631   1.460   6.568   6.199
  911SOL    HW1 3632   1.474   6.510   6.119
  911SOL    HW2 3633   1.449   6.511   6.281
  912SOL     OW 3634   5.980   2.175   3.208
  912SOL    HW1 3635   6.025   2.263   3.226
  912SOL    HW2 3636   6.027   2.103   3.259
  913SOL     OW 3637   3.572   0.472   3.468
  913SOL    HW1 3638   3.644   0.532   3.501
  913SOL    HW2 3639   3.581   0.459   3.369
  914SOL     OW 3640   2.156   0.380   6.076
  914SOL    HW1 3641   2.202   0.323   6.143
  914SOL    HW2 3642   2.215   0.457   6.051
  915SOL     OW 3643   6.399   4.051   6.864
  915SOL    HW1 3644   6.314   4.008   6.833
  915SOL    HW2 3645   6.453   4.080   6.784
  916SOL     OW 3646   1.560   2.982   2.149
  916SOL    HW1 3647   1.634   2.937   2.198
  916SOL    HW2 3648   1.574   2.972   2.050
  917SOL     OW 3649   0.755   0.047   1.617
  917SOL    HW1 3650   0.823   0.119   1.601
  917SOL    HW2 3651   0.748   7.016   1.536
  918SOL     OW 3652   3.713   0.837   1.158
  918SOL    HW1 3653   3.658   0.855   1.239
  918SOL    HW2 3654   3.804   0.877   1.170
  919SOL     OW 3655   6.227   0.939   2.210
  919SOL    HW1 3656   6.322   0.928   2.180
  919SOL    HW2 3657   6.169   0.873   2.163
  920SOL     OW 3658   2.343   4.277   2.263
  920SOL    HW1 3659   2.337   4.250   2.167
  920SOL    HW2 3660   2.311   4.201   2.321
  921SOL     OW 3661   3.670   5.551   4.194
  921SOL    HW1 3662   3.611   5.472   4.211
  921SOL    HW2 3663   3.766   5.522   4.194
  922SOL     OW 3664   3.404   3.371   4.745
  922SOL    HW1 3665   3.400   3.321   4.831
  922SOL    HW2 3666   3.315   3.365   4.699
  923SOL     OW 3667   2.266   3.498   6.742
  923SOL    HW1 3668   2.189   3.556   6.716
  923SOL    HW2 3669   2.296   3.445   6.662
  924SOL     OW 3670   6.628   3.577   1.656
  924SOL    HW1 3671   6.618   3.519   1.575
  924SOL    HW2 3672   6.652   3.520   1.735
  925SOL     OW 3673   0.204   2.015   6.897
  925SOL    HW1 3674   0.152   1.934   6.871
  925SOL    HW2 3675   0.231   2.008   6.993
  926SOL     OW 3676   6.483   1.262   1.322
  926SOL    HW1 3677   6.529   1.333   1.376
  926SOL    HW2 3678   6.506   1.273   1.225
  927SOL     OW 3679   5.499   3.535   3.119
  927SOL    HW1 3680   5.513   3.568   3.212
  927SOL    HW2 3681   5.408   3.494   3.112
  928SOL     OW 3682   2.372   6.041   0.313
  928SOL    HW1 3683   2.467   6.013   0.327
  928SOL    HW2 3684   2.365   6.094   0.229
  929SOL     OW 3685   0.334   0.871   6.752
  929SOL    HW1 3686   0.405   0.816   6.708
  929SOL    HW2 3687   0.354   0.968   6.740
  930SOL     OW 3688   5.340   6.795   6.675
  930SOL    HW1 3689   5.401   6.867   6.643
  930SOL    HW2 3690   5.350   6.715   6.616
  931SOL     OW 3691   6.709   0.908   4.689
  931SOL    HW1 3692   6.715   1.005   4.713
  931SOL    HW2 3693   6.657   0.860   4.760
  932SOL     OW 3694   2.611   1.070   3.084
  932SOL    HW1 3695   2.700   1.078   3.039
  932SOL    HW2 3696   2.621   1.021   3.170
  933SOL     OW 3697   1.286   4.874   3.240
  933SOL    HW1 3698   1.267   4.776   3.249
  933SOL    HW2 3699   1.300   4.896   3.143
  934SOL     OW 3700   2.507   5.738   0.089
  934SOL    HW1 3701   2.563   5.720   0.170
  934SOL    HW2 3702   2.559   5.711   0.007
  935SOL     OW 3703   5.169   4.105   4.371
  935SOL    HW1 3704   5.146   4.161   4.451
  935SOL    HW2 3705   5.266   4.080   4.375
  936SOL     OW 3706   0.253   0.368   5.585
  936SOL    HW1 3707   0.168   0.326   5.616
  936SOL    HW2 3708   0.279   0.442   5.648
  937SOL     OW 3709   5.792   1.390   6.456
  937SOL    HW1 3710   5.866   1.425   6.398
  937SOL    HW2 3711   5.800   1.291   6.464
  938SOL     OW 3712   5.951   4.956   5.584
  938SOL    HW1 3713   5.942   5.055   5.585
  938SOL    HW2 3714   6.048   4.931   5.577
  939SOL     OW 3715   0.092   6.951   3.887
  939SOL    HW1 3716   0.021   6.955   3.817
  939SOL    HW2 3717   0.138   0.014   3.894
  940SOL     OW 3718   0.512   3.914   0.590
  940SOL    HW1 3719   0.579   3.980   0.622
  940SOL    HW2 3720   0.420   3.947   0.611
  941SOL     OW 3721   5.813   1.261   0.213
  941SOL    HW1 3722   5.820   1.360   0.222
  941SOL    HW2 3723   5.717   1.233   0.216
  942SOL     OW 3724   5.693   0.226   2.186
  942SOL    HW1 3725   5.701   0.231   2.086
  942SOL    HW2 3726   5.748   0.150   2.220
  943SOL     OW 3727   1.434   4.421   2.581
  943SOL    HW1 3728   1.489   4.363   2.640
  943SOL    HW2 3729   1.453   4.517   2.602
  944SOL     OW 3730   0.029   6.025   5.344
  944SOL    HW1 3731   0.094   6.022   5.268
  944SOL    HW2 3732   6.962   6.043   5.309
  945SOL     OW 3733   0.624   4.767   6.390
  945SOL    HW1 3734   0.597   4.718   6.307
  945SOL    HW2 3735   0.594   4.716   6.470
  946SOL     OW 3736   4.820   3.854   5.653
  946SOL    HW1 3737   4.813   3.945   5.613
  946SOL    HW2 3738   4.731   3.809   5.649
  947SOL     OW 3739   3.429   3.250   3.346
  947SOL    HW1 3740   3.369   3.314   3.395
  947SOL    HW2 3741   3.413   3.157   3.378
  948SOL     OW 3742   5.035   1.314   3.024
  948SOL    HW1 3743   5.010   1.338   2.931
  948SOL    HW2 3744   5.092   1.386   3.063
  949SOL     OW 3745   2.931   5.771   0.195
  949SOL    HW1 3746   2.984   5.839   0.143
  949SOL    HW2 3747   2.986   5.689   0.207
  950SOL     OW 3748   6.185   5.251   2.327
  950SOL    HW1 3749   6.253   5.185   2.357
  950SOL    HW2 3750   6.226   5.313   2.260
  951SOL     OW 3751   0.968   6.938   3.841
  951SOL    HW1 3752   0.987   7.022   3.790
  951SOL    HW2 3753   1.054   6.890   3.858
  952SOL     OW 3754   4.711   2.478   2.960
  952SOL    HW1 3755   4.619   2.457   2.925
  952SOL    HW2 3756   4.725   2.430   3.047
  953SOL     OW 3757   5.727   5.422   4.859
  953SOL    HW1 3758   5.820   5.387   4.843
  953SOL    HW2 3759   5.676   5.420   4.774
  954SOL     OW 3760   3.600   5.863   2.659
  954SOL    HW1 3761   3.553   5.894   2.576
  954SOL    HW2 3762   3.692   5.832   2.635
  955SOL     OW 3763   1.410   4.470   0.833
  955SOL    HW1 3764   1.318   4.494   0.865
  955SOL    HW2 3765   1.409   4.377   0.796
  956SOL     OW 3766   6.413   0.580   1.796
  956SOL    HW1 3767   6.512   0.568   1.783
  956SOL    HW2 3768   6.364   0.517   1.736
  957SOL     OW 3769   5.596   2.549   1.753
  957SOL    HW1 3770   5.580   2.647   1.756
  957SOL    HW2 3771   5.641   2.524   1.667
  958SOL     OW 3772   3.782   0.058   1.256
  958SOL    HW1 3773   3.765   0.142   1.308
  958SOL    HW2 3774   3.777   7.004   1.317
  959SOL     OW 3775   3.593   6.561   4.516
  959SOL    HW1 3776   3.690   6.551   4.496
  959SOL    HW2 3777   3.563   6.488   4.577
  960SOL     OW 3778   0.962   0.294   0.954
  960SOL    HW1 3779   0.980   0.333   0.864
  960SOL    HW2 3780   0.938   0.198   0.946
  961SOL     OW 3781   4.102   6.690   3.004
  961SOL    HW1 3782   4.073   6.686   2.909
  961SOL    HW2 3783   4.191   6.736   3.010
  962SOL     OW 3784   6.701   0.551   4.912
  962SOL    HW1 3785   6.785   0.520   4.867
  962SOL    HW2 3786   6.623   0.534   4.852
  963SOL     OW 3787   4.921   0.831   0.128
  963SOL    HW1 3788   4.962   0.782   0.051
  963SOL    HW2 3789   4.943   0.784   0.213
  964SOL     OW 3790   4.986   5.073   5.914
  964SOL    HW1 3791   5.072   5.024   5.933
  964SOL    HW2 3792   4.951   5.112   6.000
  965SOL     OW 3793   6.319   1.575   2.568
  965SOL    HW1 3794   6.272   1.495   2.529
  965SOL    HW2 3795   6.416   1.569   2.548
  966SOL     OW 3796   5.771   2.653   2.963
  966SOL    HW1 3797   5.742   2.724   2.898
  966SOL    HW2 3798   5.744   2.563   2.927
  967SOL     OW 3799   3.215   4.518   0.544
  967SOL    HW1 3800   3.138   4.473   0.499
  967SOL    HW2 3801   3.300   4.472   0.516
  968SOL     OW 3802   4.007   0.118   1.837
  968SOL    HW1 3803   3.952   0.170   1.772
  968SOL    HW2 3804   3.948   0.083   1.910
  969SOL     OW 3805   2.598   4.941   5.798
  969SOL    HW1 3806   2.585   5.031   5.841
  969SOL    HW2 3807   2.686   4.940   5.750
  970SOL     OW 3808   5.260   0.687   6.230
  970SOL    HW1 3809   5.352   0.724   6.241
  970SOL    HW2 3810   5.255   0.597   6.274
  971SOL     OW 3811   6.752   3.411   2.807
  971SOL    HW1 3812   6.833   3.466   2.828
  971SOL    HW2 3813   6.756   3.325   2.859
  972SOL     OW 3814   6.012   1.891   1.789
  972SOL    HW1 3815   5.939   1.959   1.782
  972SOL    HW2 3816   6.057   1.900   1.878
  973SOL     OW 3817   0.758   5.420   6.531
  973SOL    HW1 3818   0.752   5.339   6.589
  973SOL    HW2 3819   0.835   5.477   6.562
  974SOL     OW 3820   6.852   6.032   1.754
  974SOL    HW1 3821   6.871   6.057   1.660
  974SOL    HW2 3822   6.896   5.945   1.775
  975SOL     OW 3823   2.432   0.395   0.014
  975SOL    HW1 3824   2.335   0.403   0.036
  975SOL    HW2 3825   2.469   0.313   0.056
  976SOL     OW 3826   6.948   3.309   1.010
  976SOL    HW1 3827   6.999   3.292   1.094
  976SOL    HW2 3828   6.872   3.371   1.029
  977SOL     OW 3829   0.575   0.699   2.529
  977SOL    HW1 3830   0.567   0.676   2.432
  977SOL    HW2 3831   0.566   0.798   2.541
  978SOL     OW 3832   5.632   1.700   1.252
  978SOL    HW1 3833   5.603   1.739   1.339
  978SOL    HW2 3834   5.671   1.771   1.194
  979SOL     OW 3835   0.972   3.097   0.145
  979SOL    HW1 3836   0.899   3.041   0.106
  979SOL    HW2 3837   1.021   3.044   0.214
  980SOL     OW 3838   4.494   1.839   4.154
  980SOL    HW1 3839   4.495   1.878   4.247
  980SOL    HW2 3840   4.586   1.843   4.116
  981SOL     OW 3841   0.242   0.910   4.919
  981SOL    HW1 3842   0.201   0.956   4.998
  981SOL    HW2 3843   0.188   0.830   4.895
  982SOL     OW 3844   0.841   1.606   4.967
  982SOL    HW1 3845   0.885   1.693   4.990
  982SOL    HW2 3846   0.811   1.561   5.051
  983SOL     OW 3847   6.881   3.254   3.028
  983SOL    HW1 3848   6.919   3.193   3.097
  983SOL    HW2 3849   6.797   3.296   3.063
  984SOL     OW 3850   1.967   2.765   3.261
  984SOL    HW1 3851   2.039   2.742   3.196
  984SOL    HW2 3852   1.926   2.681   3.297
  985SOL     OW 3853   6.601   4.002   4.818
  985SOL    HW1 3854   6.515   3.954   4.835
  985SOL    HW2 3855   6.582   4.091   4.777
  986SOL     OW 3856   4.766   4.588   1.567
  986SOL    HW1 3857   4.838   4.521   1.585
  986SOL    HW2 3858   4.713   4.559   1.487
  987SOL     OW 3859   4.556   6.740   2.315
  987SOL    HW1 3860   4.505   6.825   2.302
  987SOL    HW2 3861   4.538   6.703   2.406
  988SOL     OW 3862   3.562   3.974   1.580
  988SOL    HW1 3863   3.641   4.000   1.525
  988SOL    HW2 3864   3.537   4.050   1.640
  989SOL     OW 3865   6.558   1.670   6.914
  989SOL    HW1 3866   6.526   1.637   7.003
  989SOL    HW2 3867   6.538   1.602   6.843
  990SOL     OW 3868   3.037   0.800   2.226
  990SOL    HW1 3869   2.943   0.787   2.258
  990SOL    HW2 3870   3.094   0.834   2.302
  991SOL     OW 3871   0.300   3.766   3.853
  991SOL    HW1 3872   0.383   3.718   3.879
  991SOL    HW2 3873   0.224   3.701   3.845
  992SOL     OW 3874   0.116   3.172   1.232
  992SOL    HW1 3875   0.049   3.104   1.203
  992SOL    HW2 3876   0.153   3.219   1.152
  993SOL     OW 3877   0.006   3.654   0.550
  993SOL    HW1 3878   0.047   3.718   0.615
  993SOL    HW2 3879   0.065   3.574   0.540
  994SOL     OW 3880   4.244   5.040   1.908
  994SOL    HW1 3881   4.312   4.967   1.915
  994SOL    HW2 3882   4.164   5.018   1.964
  995SOL     OW 3883   3.996   2.865   6.230
  995SOL    HW1 3884   4.009   2.899   6.324
  995SOL    HW2 3885   4.074   2.807   6.205
  996SOL     OW 3886   3.577   5.021   4.843
  996SOL    HW1 3887   3.553   4.975   4.757
  996SOL    HW2 3888   3.658   5.077   4.828
  997SOL     OW 3889   0.743   6.690   3.161
  997SOL    HW1 3890   0.785   6.627   3.227
  997SOL    HW2 3891   0.673   6.745   3.207
  998SOL     OW 3892   6.271   0.448   6.077
  998SOL    HW1 3893   6.207   0.479   6.148
  998SOL    HW2 3894   6.364   0.449   6.114
  999SOL     OW 3895   4.911   3.571   2.006
  999SOL    HW1 3896   5.000   3.538   1.973
  999SOL    HW2 3897   4.894   3.533   2.097
 1000SOL     OW 3898   4.221   1.498   1.633
 1000SOL    HW1 3899   4.225   1.576   1.695
 1000SOL    HW2 3900   4.128   1.487   1.598
 1001SOL     OW 3901   4.096   6.118   1.948
 1001SOL    HW1 3902   4.149   6.201   1.969
 1001SOL    HW2 3903   4.000   6.143   1.933
 1002SOL     OW 3904   5.470   2.377   1.376
 1002SOL    HW1 3905   5.435   2.392   1.468
 1002SOL    HW2 3906   5.455   2.281   1.350
 1003SOL     OW 3907   2.230   5.641   3.297
 1003SOL    HW1 3908   2.195   5.718   3.349
 1003SOL    HW2 3909   2.320   5.615   3.331
 1004SOL     OW 3910   0.242   0.676   2.263
 1004SOL    HW1 3911   0.214   0.721   2.348
 1004SOL    HW2 3912   0.251   0.578   2.278
 1005SOL     OW 3913   1.392   3.699   3.750
 1005SOL    HW1 3914   1.400   3.788   3.706
 1005SOL    HW2 3915   1.396   3.710   3.849
 1006SOL     OW 3916   1.531   4.030   0.086
 1006SOL    HW1 3917   1.516   4.046   7.014
 1006SOL    HW2 3918   1.496   3.940   0.111
 1007SOL     OW 3919   5.001   0.747   5.759
 1007SOL    HW1 3920   5.010   0.666   5.818
 1007SOL    HW2 3921   4.914   0.742   5.710
 1008SOL     OW 3922   0.090   2.478   5.202
 1008SOL    HW1 3923   0.012   2.477   5.264
 1008SOL    HW2 3924   0.065   2.525   5.118
 1009SOL     OW 3925   6.732   4.806   5.954
 1009SOL    HW1 3926   6.682   4.762   6.028
 1009SOL    HW2 3927   6.830   4.790   5.967
 1010SOL     OW 3928   2.853   3.033   1.452
 1010SOL    HW1 3929   2.899   3.065   1.535
 1010SOL    HW2 3930   2.793   3.106   1.418
 1011SOL     OW 3931   1.122   5.451   3.574
 1011SOL    HW1 3932   1.147   5.367   3.525
 1011SOL    HW2 3933   1.048   5.497   3.526
 1012SOL     OW 3934   0.205   6.451   2.154
 1012SOL    HW1 3935   0.230   6.358   2.127
 1012SOL    HW2 3936   0.259   6.516   2.101
 1013SOL     OW 3937   0.115   0.814   6.423
 1013SOL    HW1 3938   0.137   0.718   6.438
 1013SOL    HW2 3939   0.199   0.865   6.404
 1014SOL     OW 3940   0.456   3.841   4.799
 1014SOL    HW1 3941   0.387   3.894   4.850
 1014SOL    HW2 3942   0.410   3.778   4.737
 1015SOL     OW 3943   2.339   0.533   5.920
 1015SOL    HW1 3944   2.384   0.533   5.830
 1015SOL    HW2 3945   2.404   0.564   5.989
 1016SOL     OW 3946   4.731   4.709   0.862
 1016SOL    HW1 3947   4.740   4.713   0.763
 1016SOL    HW2 3948   4.634   4.721   0.887
 1017SOL     OW 3949   3.754   2.214   1.164
 1017SOL    HW1 3950   3.692   2.288   1.136
 1017SOL    HW2 3951   3.817   2.193   1.089
 1018SOL     OW 3952   0.794   4.688   3.934
 1018SOL    HW1 3953   0.833   4.609   3.981
 1018SOL    HW2 3954   0.729   4.734   3.995
 1019SOL     OW 3955   0.076   5.757   1.104
 1019SOL    HW1 3956   0.091   5.846   1.061
 1019SOL    HW2 3957   0.106   5.760   1.199
 1020SOL     OW 3958   6.340   1.601   1.469
 1020SOL    HW1 3959   6.255   1.554   1.445
 1020SOL    HW2 3960   6.323   1.667   1.542
 1021SOL     OW 3961   5.774   6.765   2.006
 1021SOL    HW1 3962   5.794   6.856   1.971
 1021SOL    HW2 3963   5.721   6.714   1.937
 1022SOL     OW 3964   2.949   4.921   5.444
 1022SOL    HW1 3965   2.852   4.899   5.436
 1022SOL    HW2 3966   2.998   4.842   5.480
 1023SOL     OW 3967   6.934   0.621   3.043
 1023SOL    HW1 3968   6.918   0.525   3.023
 1023SOL    HW2 3969   6.983   0.630   3.130
 1024SOL     OW 3970   0.433   1.715   3.855
 1024SOL    HW1 3971   0.476   1.794   3.812
 1024SOL    HW2 3972   0.385   1.743   3.938
 1025SOL     OW 3973   3.624   3.627   0.108
 1025SOL    HW1 3974   3.594   3.704   0.164
 1025SOL    HW2 3975   3.722   3.638   0.087
 1026SOL     OW 3976   2.630   3.303   1.679
 1026SOL    HW1 3977   2.650   3.341   1.589
 1026SOL    HW2 3978   2.564   3.361   1.726
 1027SOL     OW 3979   2.131   0.084   1.918
 1027SOL    HW1 3980   2.218   0.131   1.926
 1027SOL    HW2 3981   2.078   0.098   2.001
 1028SOL     OW 3982   1.419   0.142   2.694
 1028SOL    HW1 3983   1.348   0.195   2.648
 1028SOL    HW2 3984   1.449   0.190   2.777
 1029SOL     OW 3985   0.947   2.218   5.638
 1029SOL    HW1 3986   0.871   2.241   5.578
 1029SOL    HW2 3987   0.974   2.124   5.623
 1030SOL     OW 3988   3.261   3.468   1.449
 1030SOL    HW1 3989   3.205   3.385   1.453
 1030SOL    HW2 3990   3.315   3.476   1.533
 1031SOL     OW 3991   4.769   3.529   1.368
 1031SOL    HW1 3992   4.863   3.501   1.387
 1031SOL    HW2 3993   4.713   3.448   1.350
 1032SOL     OW 3994   1.994   1.273   4.958
 1032SOL    HW1 3995   2.019   1.352   5.015
 1032SOL    HW2 3996   1.950   1.204   5.015
 1033SOL     OW 3997   1.783   5.524   1.805
 1033SOL    HW1 3998   1.723   5.451   1.837
 1033SOL    HW2 3999   1.863   5.530   1.865
 1034SOL     OW 4000   1.532   5.922   4.636
 1034SOL    HW1 4001   1.484   5.956   4.555
 1034SOL    HW2 4002   1.559   6.000   4.694
 1035SOL     OW 4003   0.218   2.262   6.790
 1035SOL    HW1 4004   0.188   2.176   6.831
 1035SOL    HW2 4005   0.314   2.278   6.811
 1036SOL     OW 4006   3.886   0.998   1.905
 1036SOL    HW1 4007   3.881   0.995   2.005
 1036SOL    HW2 4008   3.981   0.980   1.876
 1037SOL     OW 4009   1.705   1.548   3.102
 1037SOL    HW1 4010   1.681   1.603   3.022
 1037SOL    HW2 4011   1.778   1.484   3.078
 1038SOL     OW 4012   1.743   1.403   5.079
 1038SOL    HW1 4013   1.770   1.306   5.084
 1038SOL    HW2 4014   1.649   1.409   5.045
 1039SOL     OW 4015   3.242   3.818   4.648
 1039SOL    HW1 4016   3.216   3.913   4.630
 1039SOL    HW2 4017   3.301   3.813   4.728
 1040SOL     OW 4018   4.916   1.099   2.278
 1040SOL    HW1 4019   4.841   1.143   2.228
 1040SOL    HW2 4020   4.952   1.024   2.224
 1041SOL     OW 4021   6.726   6.147   3.545
 1041SOL    HW1 4022   6.704   6.146   3.447
 1041SOL    HW2 4023   6.824   6.163   3.557
 1042SOL     OW 4024   4.468   5.463   2.681
 1042SOL    HW1 4025   4.382   5.431   2.640
 1042SOL    HW2 4026   4.450   5.544   2.737
 1043SOL     OW 4027   3.694   2.149   3.453
 1043SOL    HW1 4028   3.603   2.178   3.423
 1043SOL    HW2 4029   3.696   2.145   3.553
 1044SOL     OW 4030   5.851   5.059   2.068
 1044SOL    HW1 4031   5.907   5.132   2.029
 1044SOL    HW2 4032   5.855   4.979   2.008
 1045SOL     OW 4033   3.965   0.814   2.999
 1045SOL    HW1 4034   4.004   0.737   3.048
 1045SOL    HW2 4035   4.035   0.884   2.984
 1046SOL     OW 4036   1.997   1.883   6.793
 1046SOL    HW1 4037   1.922   1.941   6.760
 1046SOL    HW2 4038   2.037   1.834   6.716
 1047SOL     OW 4039   2.796   0.438   4.318
 1047SOL    HW1 4040   2.760   0.367   4.257
 1047SOL    HW2 4041   2.729   0.458   4.389
 1048SOL     OW 4042   3.031   5.876   1.909
 1048SOL    HW1 4043   3.063   5.893   2.002
 1048SOL    HW2 4044   3.103   5.829   1.858
 1049SOL     OW 4045   5.666   7.003   3.915
 1049SOL    HW1 4046   5.577   6.962   3.897
 1049SOL    HW2 4047   5.689   0.042   3.842
 1050SOL     OW 4048   3.703   5.651   2.231
 1050SOL    HW1 4049   3.626   5.608   2.277
 1050SOL    HW2 4050   3.785   5.645   2.288
 1051SOL     OW 4051   0.038   5.764   0.503
 1051SOL    HW1 4052   0.132   5.798   0.514
 1051SOL    HW2 4053   7.002   5.842   0.486
 1052SOL     OW 4054   4.658   0.721   5.379
 1052SOL    HW1 4055   4.726   0.649   5.364
 1052SOL    HW2 4056   4.577   0.702   5.322
 1053SOL     OW 4057   5.629   3.827   2.327
 1053SOL    HW1 4058   5.680   3.779   2.256
 1053SOL    HW2 4059   5.652   3.789   2.417
 1054SOL     OW 4060   2.671   3.650   0.703
 1054SOL    HW1 4061   2.572   3.637   0.692
 1054SOL    HW2 4062   2.717   3.622   0.618
 1055SOL     OW 4063   4.519   6.205   5.656
 1055SOL    HW1 4064   4.441   6.199   5.718
 1055SOL    HW2 4065   4.487   6.195   5.561
 1056SOL     OW 4066   1.404   3.797   0.214
 1056SOL    HW1 4067   1.322   3.810   0.270
 1056SOL    HW2 4068   1.471   3.743   0.265
 1057SOL     OW 4069   3.850   3.008   1.363
 1057SOL    HW1 4070   3.892   2.957   1.438
 1057SOL    HW2 4071   3.833   3.102   1.391
 1058SOL     OW 4072   5.088   2.795   4.196
 1058SOL    HW1 4073   5.157   2.823   4.129
 1058SOL    HW2 4074   5.024   2.731   4.154
 1059SOL     OW 4075   2.156   6.591   1.906
 1059SOL    HW1 4076   2.122   6.683   1.888
 1059SOL    HW2 4077   2.252   6.585   1.880
 1060SOL     OW 4078   0.287   4.637   4.258
 1060SOL    HW1 4079   0.314   4.656   4.163
 1060SOL    HW2 4080   0.320   4.710   4.317
 1061SOL     OW 4081   6.476   3.444   5.865
 1061SOL    HW1 4082   6.405   3.430   5.934
 1061SOL    HW2 4083   6.447   3.517   5.802
 1062SOL     OW 4084   4.385   5.623   6.318
 1062SOL    HW1 4085   4.345   5.670   6.240
 1062SOL    HW2 4086   4.452   5.557   6.286
 1063SOL     OW 4087   0.109   6.545   0.362
 1063SOL    HW1 4088   0.123   6.550   0.264
 1063SOL    HW2 4089   0.013   6.564   0.383
 1064SOL     OW 4090   1.524   4.319   1.920
 1064SOL    HW1 4091   1.505   4.230   1.878
 1064SOL    HW2 4092   1.459   4.387   1.885
 1065SOL     OW 4093   4.580   0.777   2.772
 1065SOL    HW1 4094   4.525   0.810   2.696
 1065SOL    HW2 4095   4.582   0.677   2.770
 1066SOL     OW 4096   4.475   6.663   2.561
 1066SOL    HW1 4097   4.517   6.654   2.651
 1066SOL    HW2 4098   4.384   6.621   2.563
 1067SOL     OW 4099   1.933   1.856   0.039
 1067SOL    HW1 4100   1.839   1.824   0.043
 1067SOL    HW2 4101   1.968   1.845   6.972
 1068SOL     OW 4102   6.519   4.009   1.399
 1068SOL    HW1 4103   6.597   4.054   1.441
 1068SOL    HW2 4104   6.434   4.043   1.439
 1069SOL     OW 4105   4.841   6.052   0.565
 1069SOL    HW1 4106   4.934   6.090   0.569
 1069SOL    HW2 4107   4.780   6.119   0.524
 1070SOL     OW 4108   1.438   0.072   2.173
 1070SOL    HW1 4109   1.522   0.086   2.122
 1070SOL    HW2 4110   1.457   0.018   2.255
 1071SOL     OW 4111   2.569   2.220   3.955
 1071SOL    HW1 4112   2.613   2.134   3.980
 1071SOL    HW2 4113   2.502   2.245   4.025
 1072SOL     OW 4114   2.614   1.131   1.095
 1072SOL    HW1 4115   2.700   1.096   1.133
 1072SOL    HW2 4116   2.539   1.107   1.157
 1073SOL     OW 4117   5.073   1.082   3.512
 1073SOL    HW1 4118   5.118   1.021   3.577
 1073SOL    HW2 4119   5.099   1.176   3.532
 1074SOL     OW 4120   2.641   5.155   1.685
 1074SOL    HW1 4121   2.685   5.244   1.669
 1074SOL    HW2 4122   2.672   5.090   1.616
 1075SOL     OW 4123   6.006   0.939   3.433
 1075SOL    HW1 4124   5.926   0.963   3.377
 1075SOL    HW2 4125   6.006   0.840   3.450
 1076SOL     OW 4126   0.702   2.543   5.944
 1076SOL    HW1 4127   0.689   2.621   5.883
 1076SOL    HW2 4128   0.733   2.463   5.891
 1077SOL     OW 4129   6.632   6.457   1.144
 1077SOL    HW1 4130   6.678   6.508   1.071
 1077SOL    HW2 4131   6.567   6.393   1.104
 1078SOL     OW 4132   6.528   0.626   2.926
 1078SOL    HW1 4133   6.612   0.678   2.911
 1078SOL    HW2 4134   6.456   0.660   2.866
 1079SOL     OW 4135   1.374   5.282   2.009
 1079SOL    HW1 4136   1.448   5.258   1.946
 1079SOL    HW2 4137   1.286   5.273   1.962
 1080SOL     OW 4138   2.432   5.633   3.736
 1080SOL    HW1 4139   2.432   5.548   3.787
 1080SOL    HW2 4140   2.524   5.652   3.702
 1081SOL     OW 4141   6.635   5.115   6.092
 1081SOL    HW1 4142   6.591   5.026   6.104
 1081SOL    HW2 4143   6.569   5.181   6.057
 1082SOL     OW 4144   5.928   1.774   5.921
 1082SOL    HW1 4145   5.901   1.841   5.852
 1082SOL    HW2 4146   5.899   1.805   6.012
 1083SOL     OW 4147   4.761   3.241   0.364
 1083SOL    HW1 4148   4.790   3.258   0.270
 1083SOL    HW2 4149   4.683   3.300   0.386
 1084SOL     OW 4150   6.468   6.990   5.891
 1084SOL    HW1 4151   6.454   6.978   5.989
 1084SOL    HW2 4152   6.470   0.062   5.869
 1085SOL     OW 4153   2.087   3.527   4.348
 1085SOL    HW1 4154   2.114   3.623   4.346
 1085SOL    HW2 4155   2.003   3.516   4.402
 1086SOL     OW 4156   6.711   4.800   0.391
 1086SOL    HW1 4157   6.796   4.843   0.419
 1086SOL    HW2 4158   6.646   4.871   0.361
 1087SOL     OW 4159   0.361   1.888   4.702
 1087SOL    HW1 4160   0.274   1.872   4.749
 1087SOL    HW2 4161   0.346   1.952   4.626
 1088SOL     OW 4162   0.304   4.960   3.271
 1088SOL    HW1 4163   0.206   4.948   3.282
 1088SOL    HW2 4164   0.324   5.054   3.242
 1089SOL     OW 4165   0.079   5.651   4.698
 1089SOL    HW1 4166   0.168   5.662   4.741
 1089SOL    HW2 4167   0.063   5.726   4.633
 1090SOL     OW 4168   3.986   2.190   2.584
 1090SOL    HW1 4169   4.030   2.116   2.534
 1090SOL    HW2 4170   3.911   2.227   2.528
 1091SOL     OW 4171   2.176   3.331   3.886
 1091SOL    HW1 4172   2.170   3.242   3.841
 1091SOL    HW2 4173   2.187   3.403   3.818
 1092SOL     OW 4174   1.139   5.267   0.665
 1092SOL    HW1 4175   1.137   5.187   0.726
 1092SOL    HW2 4176   1.055   5.320   0.677
 1093SOL     OW 4177   2.751   6.681   1.811
 1093SOL    HW1 4178   2.829   6.633   1.772
 1093SOL    HW2 4179   2.677   6.616   1.830
 1094SOL     OW 4180   0.643   6.514   2.280
 1094SOL    HW1 4181   0.544   6.527   2.290
 1094SOL    HW2 4182   0.691   6.568   2.348
 1095SOL     OW 4183   0.125   3.196   6.215
 1095SOL    HW1 4184   0.100   3.120   6.275
 1095SOL    HW2 4185   0.224   3.195   6.200
 1096SOL     OW 4186   3.502   4.511   1.469
 1096SOL    HW1 4187   3.469   4.586   1.411
 1096SOL    HW2 4188   3.443   4.502   1.549
 1097SOL     OW 4189   1.773   4.499   3.143
 1097SOL    HW1 4190   1.801   4.593   3.161
 1097SOL    HW2 4191   1.692   4.499   3.085
 1098SOL     OW 4192   5.749   3.308   6.146
 1098SOL    HW1 4193   5.825   3.361   6.182
 1098SOL    HW2 4194   5.774   3.270   6.057
 1099SOL     OW 4195   4.304   0.739   6.434
 1099SOL    HW1 4196   4.285   0.788   6.349
 1099SOL    HW2 4197   4.253   0.781   6.509
 1100SOL     OW 4198   4.100   1.110   4.390
 1100SOL    HW1 4199   4.103   1.155   4.479
 1100SOL    HW2 4200   4.191   1.111   4.349
 1101SOL     OW 4201   5.354   3.592   5.568
 1101SOL    HW1 4202   5.304   3.517   5.610
 1101SOL    HW2 4203   5.414   3.635   5.636
 1102SOL     OW 4204   1.914   0.728   4.887
 1102SOL    HW1 4205   1.836   0.675   4.854
 1102SOL    HW2 4206   1.890   0.825   4.890
 1103SOL     OW 4207   2.909   2.028   0.756
 1103SOL    HW1 4208   2.821   1.979   0.759
 1103SOL    HW2 4209   2.945   2.026   0.663
 1104SOL     OW 4210   1.457   3.963   3.676
 1104SOL    HW1 4211   1.459   4.014   3.762
 1104SOL    HW2 4212   1.545   3.972   3.630
 1105SOL     OW 4213   5.543   3.003   4.393
 1105SOL    HW1 4214   5.466   3.065   4.381
 1105SOL    HW2 4215   5.545   2.937   4.318
 1106SOL     OW 4216   0.903   2.104   1.634
 1106SOL    HW1 4217   0.998   2.131   1.645
 1106SOL    HW2 4218   0.889   2.016   1.680
 1107SOL     OW 4219   1.271   0.302   6.818
 1107SOL    HW1 4220   1.197   0.246   6.782
 1107SOL    HW2 4221   1.235   0.362   6.890
 1108SOL     OW 4222   3.415   6.785   4.926
 1108SOL    HW1 4223   3.488   6.717   4.934
 1108SOL    HW2 4224   3.453   6.876   4.942
 1109SOL     OW 4225   5.456   1.152   4.579
 1109SOL    HW1 4226   5.467   1.077   4.514
 1109SOL    HW2 4227   5.546   1.183   4.610
 1110SOL     OW 4228   4.262   1.904   2.974
 1110SOL    HW1 4229   4.343   1.901   2.915
 1110SOL    HW2 4230   4.269   1.832   3.043
 1111SOL     OW 4231   5.874   5.443   6.596
 1111SOL    HW1 4232   5.871   5.455   6.497
 1111SOL    HW2 4233   5.935   5.368   6.619
 1112SOL     OW 4234   5.829   0.942   2.978
 1112SOL    HW1 4235   5.853   0.971   3.071
 1112SOL    HW2 4236   5.900   0.970   2.914
 1113SOL     OW 4237   5.710   4.160   1.260
 1113SOL    HW1 4238   5.746   4.253   1.253
 1113SOL    HW2 4239   5.623   4.155   1.210
 1114SOL     OW 4240   3.168   1.681   6.016
 1114SOL    HW1 4241   3.255   1.731   6.017
 1114SOL    HW2 4242   3.184   1.587   6.047
 1115SOL     OW 4243   3.508   3.635   5.355
 1115SOL    HW1 4244   3.415   3.662   5.381
 1115SOL    HW2 4245   3.540   3.693   5.279
 1116SOL     OW 4246   5.548   0.314   6.991
 1116SOL    HW1 4247   5.603   0.256   0.026
 1116SOL    HW2 4248   5.501   0.257   6.924
 1117SOL     OW 4249   1.354   1.981   1.791
 1117SOL    HW1 4250   1.351   1.885   1.817
 1117SOL    HW2 4251   1.385   1.989   1.696
 1118SOL     OW 4252   2.213   5.214   0.353
 1118SOL    HW1 4253   2.200   5.272   0.273
 1118SOL    HW2 4254   2.151   5.136   0.349
 1119SOL     OW 4255   4.448   4.324   1.384
 1119SOL    HW1 4256   4.500   4.407   1.365
 1119SOL    HW2 4257   4.422   4.323   1.481
 1120SOL     OW 4258   6.348   5.838   1.340
 1120SOL    HW1 4259   6.332   5.763   1.404
 1120SOL    HW2 4260   6.419   5.812   1.274
 1121SOL     OW 4261   0.250   4.357   4.512
 1121SOL    HW1 4262   0.177   4.388   4.451
 1121SOL    HW2 4263   0.331   4.333   4.458
 1122SOL     OW 4264   6.080   2.872   2.276
 1122SOL    HW1 4265   6.048   2.839   2.364
 1122SOL    HW2 4266   6.178   2.853   2.266
 1123SOL     OW 4267   4.929   2.506   3.814
 1123SOL    HW1 4268   4.931   2.423   3.869
 1123SOL    HW2 4269   4.870   2.492   3.734
 1124SOL     OW 4270   0.042   4.523   5.762
 1124SOL    HW1 4271   0.044   4.423   5.763
 1124SOL    HW2 4272   0.135   4.559   5.768
 1125SOL     OW 4273   1.710   2.348   3.686
 1125SOL    HW1 4274   1.777   2.337   3.759
 1125SOL    HW2 4275   1.619   2.360   3.726
 1126SOL     OW 4276   6.370   5.771   5.934
 1126SOL    HW1 4277   6.309   5.772   6.013
 1126SOL    HW2 4278   6.316   5.774   5.850
 1127SOL     OW 4279   5.645   6.065   4.747
 1127SOL    HW1 4280   5.558   6.087   4.792
 1127SOL    HW2 4281   5.627   6.037   4.652
 1128SOL     OW 4282   6.087   1.388   4.801
 1128SOL    HW1 4283   5.996   1.408   4.838
 1128SOL    HW2 4284   6.131   1.473   4.773
 1129SOL     OW 4285   2.004   6.639   0.445
 1129SOL    HW1 4286   1.917   6.687   0.434
 1129SOL    HW2 4287   1.990   6.541   0.433
 1130SOL     OW 4288   2.196   4.779   0.992
 1130SOL    HW1 4289   2.286   4.818   0.976
 1130SOL    HW2 4290   2.196   4.682   0.967
 1131SOL     OW 4291   1.588   6.965   5.263
 1131SOL    HW1 4292   1.668   7.003   5.310
 1131SOL    HW2 4293   1.600   6.973   5.164
 1132SOL     OW 4294   4.223   0.330   3.351
 1132SOL    HW1 4295   4.240   0.254   3.288
 1132SOL    HW2 4296   4.135   0.373   3.328
 1133SOL     OW 4297   1.287   0.708   6.947
 1133SOL    HW1 4298   1.190   0.705   6.922
 1133SOL    HW2 4299   1.342   0.702   6.864
 1134SOL     OW 4300   5.140   0.001   3.220
 1134SOL    HW1 4301   5.042   7.019   3.200
 1134SOL    HW2 4302   5.172   0.093   3.197
 1135SOL     OW 4303   2.239   6.476   3.470
 1135SOL    HW1 4304   2.223   6.556   3.528
 1135SOL    HW2 4305   2.279   6.504   3.383
 1136SOL     OW 4306   4.099   4.772   2.595
 1136SOL    HW1 4307   4.012   4.780   2.546
 1136SOL    HW2 4308   4.135   4.864   2.612
 1137SOL     OW 4309   1.223   6.452   0.023
 1137SOL    HW1 4310   1.237   6.526   6.982
 1137SOL    HW2 4311   1.289   6.379   0.007
 1138SOL     OW 4312   6.984   1.534   5.213
 1138SOL    HW1 4313   6.899   1.484   5.230
 1138SOL    HW2 4314   6.966   1.632   5.211
 1139SOL     OW 4315   2.616   4.915   3.206
 1139SOL    HW1 4316   2.522   4.933   3.178
 1139SOL    HW2 4317   2.665   5.001   3.214
 1140SOL     OW 4318   3.010   0.492   2.237
 1140SOL    HW1 4319   2.924   0.537   2.210
 1140SOL    HW2 4320   3.045   0.439   2.160
 1141SOL     OW 4321   6.859   6.272   0.271
 1141SOL    HW1 4322   6.794   6.345   0.291
 1141SOL    HW2 4323   6.903   6.290   0.183
 1142SOL     OW 4324   3.417   0.700   4.354
 1142SOL    HW1 4325   3.464   0.772   4.404
 1142SOL    HW2 4326   3.320   0.701   4.378
 1143SOL     OW 4327   1.799   3.111   2.843
 1143SOL    HW1 4328   1.868   3.181   2.825
 1143SOL    HW2 4329   1.833   3.048   2.913
 1144SOL     OW 4330   5.707   4.566   3.822
 1144SOL    HW1 4331   5.732   4.474   3.853
 1144SOL    HW2 4332   5.781   4.604   3.767
 1145SOL     OW 4333   1.052   2.974   0.699
 1145SOL    HW1 4334   0.982   2.915   0.658
 1145SOL    HW2 4335   1.140   2.926   0.698
 1146SOL     OW 4336   0.909   1.656   2.103
 1146SOL    HW1 4337   0.925   1.557   2.103
 1146SOL    HW2 4338   0.878   1.684   2.194
 1147SOL     OW 4339   3.233   5.916   1.139
 1147SOL    HW1 4340   3.212   5.918   1.042
 1147SOL    HW2 4341   3.302   5.846   1.157
 1148SOL     OW 4342   4.534   6.166   1.032
 1148SOL    HW1 4343   4.598   6.199   1.102
 1148SOL    HW2 4344   4.489   6.244   0.989
 1149SOL     OW 4345   5.362   2.781   2.030
 1149SOL    HW1 4346   5.327   2.689   2.012
 1149SOL    HW2 4347   5.285   2.841   2.055
 1150SOL     OW 4348   0.681   3.897   0.370
 1150SOL    HW1 4349   0.610   3.888   0.440
 1150SOL    HW2 4350   0.744   3.820   0.376
 1151SOL     OW 4351   5.448   4.829   4.786
 1151SOL    HW1 4352   5.414   4.859   4.875
 1151SOL    HW2 4353   5.456   4.729   4.785
 1152SOL     OW 4354   5.195   6.526   6.789
 1152SOL    HW1 4355   5.269   6.560   6.731
 1152SOL    HW2 4356   5.108   6.536   6.741
 1153SOL     OW 4357   6.842   0.031   1.815
 1153SOL    HW1 4358   6.826   0.125   1.845
 1153SOL    HW2 4359   6.935   0.004   1.839
 1154SOL     OW 4360   0.496   4.463   0.580
 1154SOL    HW1 4361   0.469   4.399   0.652
 1154SOL    HW2 4362   0.517   4.413   0.496
 1155SOL     OW 4363   3.401   4.588   5.561
 1155SOL    HW1 4364   3.431   4.637   5.644
 1155SOL    HW2 4365   3.311   4.548   5.577
 1156SOL     OW 4366   4.598   2.233   4.871
 1156SOL    HW1 4367   4.581   2.285   4.954
 1156SOL    HW2 4368   4.692   2.248   4.840
 1157SOL     OW 4369   5.034   1.375   5.776
 1157SOL    HW1 4370   5.045   1.430   5.859
 1157SOL    HW2 4371   4.940   1.343   5.769
 1158SOL     OW 4372   6.523   5.163   5.009
 1158SOL    HW1 4373   6.437   5.166   5.060
 1158SOL    HW2 4374   6.600   5.166   5.073
 1159SOL     OW 4375   6.084   6.920   3.178
 1159SOL    HW1 4376   6.034   6.965   3.252
 1159SOL    HW2 4377   6.145   6.985   3.134
 1160SOL     OW 4378   4.675   5.409   1.498
 1160SOL    HW1 4379   4.738   5.417   1.574
 1160SOL    HW2 4380   4.582   5.431   1.528
 1161SOL     OW 4381   0.327   6.097   6.266
 1161SOL    HW1 4382   0.370   6.186   6.278
 1161SOL    HW2 4383   0.327   6.073   6.168
 1162SOL     OW 4384   2.495   2.377   5.971
 1162SOL    HW1 4385   2.508   2.420   6.060
 1162SOL    HW2 4386   2.505   2.446   5.899
 1163SOL     OW 4387   6.120   4.311   2.021
 1163SOL    HW1 4388   6.082   4.354   2.102
 1163SOL    HW2 4389   6.093   4.363   1.940
 1164SOL     OW 4390   4.544   1.970   4.908
 1164SOL    HW1 4391   4.572   2.065   4.900
 1164SOL    HW2 4392   4.625   1.911   4.913
 1165SOL     OW 4393   4.145   5.893   3.204
 1165SOL    HW1 4394   4.141   5.993   3.198
 1165SOL    HW2 4395   4.119   5.864   3.296
 1166SOL     OW 4396   2.506   6.012   0.008
 1166SOL    HW1 4397   2.458   5.925   0.022
 1166SOL    HW2 4398   2.443   6.088   0.024
 1167SOL     OW 4399   4.955   5.417   0.616
 1167SOL    HW1 4400   5.049   5.383   0.617
 1167SOL    HW2 4401   4.895   5.351   0.662
 1168SOL     OW 4402   6.039   2.620   1.627
 1168SOL    HW1 4403   6.136   2.606   1.647
 1168SOL    HW2 4404   5.988   2.537   1.650
 1169SOL     OW 4405   4.088   1.874   5.833
 1169SOL    HW1 4406   4.129   1.964   5.825
 1169SOL    HW2 4407   4.035   1.853   5.752
 1170SOL     OW 4408   5.574   0.390   3.491
 1170SOL    HW1 4409   5.633   0.349   3.560
 1170SOL    HW2 4410   5.628   0.450   3.432
 1171SOL     OW 4411   2.870   6.776   0.041
 1171SOL    HW1 4412   2.941   6.843   0.059
 1171SOL    HW2 4413   2.802   6.814   7.004
 1172SOL     OW 4414   5.477   4.203   0.814
 1172SOL    HW1 4415   5.550   4.136   0.804
 1172SOL    HW2 4416   5.390   4.163   0.783
 1173SOL     OW 4417   2.998   1.731   0.659
 1173SOL    HW1 4418   2.953   1.792   0.725
 1173SOL    HW2 4419   3.003   1.639   0.697
 1174SOL     OW 4420   3.747   3.907   1.975
 1174SOL    HW1 4421   3.740   3.917   2.075
 1174SOL    HW2 4422   3.816   3.970   1.940
 1175SOL     OW 4423   4.877   3.481   6.480
 1175SOL    HW1 4424   4.836   3.440   6.399
 1175SOL    HW2 4425   4.835   3.570   6.498
 1176SOL     OW 4426   5.227   3.492   0.159
 1176SOL    HW1 4427   5.221   3.405   0.110
 1176SOL    HW2 4428   5.321   3.527   0.154
 1177SOL     OW 4429   6.356   3.523   4.807
 1177SOL    HW1 4430   6.347   3.452   4.876
 1177SOL    HW2 4431   6.285   3.592   4.821
 1178SOL     OW 4432   2.882   4.393   0.318
 1178SOL    HW1 4433   2.795   4.443   0.326
 1178SOL    HW2 4434   2.890   4.355   0.227
 1179SOL     OW 4435   2.125   5.741   0.738
 1179SOL    HW1 4436   2.156   5.778   0.825
 1179SOL    HW2 4437   2.193   5.761   0.667
 1180SOL     OW 4438   2.439   6.622   3.996
 1180SOL    HW1 4439   2.366   6.582   3.941
 1180SOL    HW2 4440   2.486   6.693   3.942
 1181SOL     OW 4441   0.233   5.670   5.339
 1181SOL    HW1 4442   0.158   5.671   5.405
 1181SOL    HW2 4443   0.197   5.694   5.248
 1182SOL     OW 4444   4.670   5.302   3.498
 1182SOL    HW1 4445   4.638   5.208   3.494
 1182SOL    HW2 4446   4.592   5.363   3.514
 1183SOL     OW 4447   2.147   4.164   7.004
 1183SOL    HW1 4448   2.089   4.123   0.049
 1183SOL    HW2 4449   2.204   4.093   6.962
 1184SOL     OW 4450   0.003   1.003   4.693
 1184SOL    HW1 4451   0.018   0.994   4.594
 1184SOL    HW2 4452   0.032   0.919   4.739
 1185SOL     OW 4453   0.869   0.508   1.132
 1185SOL    HW1 4454   0.911   0.443   1.068
 1185SOL    HW2 4455   0.867   0.468   1.224
 1186SOL     OW 4456   5.480   6.349   6.016
 1186SOL    HW1 4457   5.387   6.387   6.020
 1186SOL    HW2 4458   5.546   6.423   6.009
 1187SOL     OW 4459   5.106   0.196   6.177
 1187SOL    HW1 4460   5.149   0.246   6.102
 1187SOL    HW2 4461   5.043   0.257   6.225
 1188SOL     OW 4462   3.505   6.029   6.162
 1188SOL    HW1 4463   3.570   6.098   6.194
 1188SOL    HW2 4464   3.489   5.962   6.235
 1189SOL     OW 4465   6.555   2.582   1.592
 1189SOL    HW1 4466   6.634   2.527   1.565
 1189SOL    HW2 4467   6.538   2.652   1.522
 1190SOL     OW 4468   3.037   5.292   3.215
 1190SOL    HW1 4469   3.060   5.382   3.178
 1190SOL    HW2 4470   3.065   5.221   3.150
 1191SOL     OW 4471   4.433   5.575   4.220
 1191SOL    HW1 4472   4.420   5.556   4.318
 1191SOL    HW2 4473   4.470   5.667   4.209
 1192SOL     OW 4474   5.087   5.002   1.966
 1192SOL    HW1 4475   5.163   5.055   2.003
 1192SOL    HW2 4476   5.046   4.948   2.040
 1193SOL     OW 4477   6.645   2.381   4.790
 1193SOL    HW1 4478   6.736   2.380   4.750
 1193SOL    HW2 4479   6.623   2.289   4.824
 1194SOL     OW 4480   6.056   6.835   1.825
 1194SOL    HW1 4481   6.112   6.866   1.902
 1194SOL    HW2 4482   5.972   6.889   1.820
 1195SOL     OW 4483   6.963   4.125   0.987
 1195SOL    HW1 4484   6.907   4.101   1.066
 1195SOL    HW2 4485   7.013   4.210   1.006
 1196SOL     OW 4486   7.022   5.601   3.282
 1196SOL    HW1 4487   6.966   5.551   3.216
 1196SOL    HW2 4488   0.001   5.698   3.256
 1197SOL     OW 4489   4.360   6.875   4.894
 1197SOL    HW1 4490   4.389   6.930   4.815
 1197SOL    HW2 4491   4.395   6.782   4.884
 1198SOL     OW 4492   1.249   3.229   2.586
 1198SOL    HW1 4493   1.264   3.198   2.680
 1198SOL    HW2 4494   1.257   3.151   2.524
 1199SOL     OW 4495   3.562   3.927   1.057
 1199SOL    HW1 4496   3.577   3.849   1.117
 1199SOL    HW2 4497   3.567   3.897   0.962
 1200SOL     OW 4498   3.189   3.746   4.173
 1200SOL    HW1 4499   3.275   3.763   4.125
 1200SOL    HW2 4500   3.180   3.808   4.251
 1201SOL     OW 4501   1.229   0.831   4.460
 1201SOL    HW1 4502   1.327   0.845   4.446
 1201SOL    HW2 4503   1.190   0.783   4.382
 1202SOL     OW 4504   0.656   5.650   5.860
 1202SOL    HW1 4505   0.587   5.694   5.918
 1202SOL    HW2 4506   0.734   5.711   5.850
 1203SOL     OW 4507   6.658   6.512   6.669
 1203SOL    HW1 4508   6.682   6.457   6.589
 1203SOL    HW2 4509   6.652   6.608   6.642
 1204SOL     OW 4510   4.250   0.425   1.578
 1204SOL    HW1 4511   4.221   0.331   1.561
 1204SOL    HW2 4512   4.321   0.425   1.649
 1205SOL     OW 4513   4.565   3.637   0.587
 1205SOL    HW1 4514   4.486   3.695   0.610
 1205SOL    HW2 4515   4.633   3.691   0.538
 1206SOL     OW 4516   2.626   2.495   5.564
 1206SOL    HW1 4517   2.596   2.404   5.592
 1206SOL    HW2 4518   2.632   2.498   5.464
 1207SOL     OW 4519   2.100   6.419   0.786
 1207SOL    HW1 4520   2.025   6.380   0.840
 1207SOL    HW2 4521   2.127   6.354   0.715
 1208SOL     OW 4522   3.328   3.633   1.004
 1208SOL    HW1 4523   3.395   3.616   0.932
 1208SOL    HW2 4524   3.246   3.673   0.964
 1209SOL     OW 4525   3.963   0.962   4.164
 1209SOL    HW1 4526   4.023   1.036   4.196
 1209SOL    HW2 4527   4.019   0.885   4.134
 1210SOL     OW 4528   2.611   0.456   3.604
 1210SOL    HW1 4529   2.515   0.439   3.581
 1210SOL    HW2 4530   2.615   0.509   3.689
 1211SOL     OW 4531   0.873   3.473   2.225
 1211SOL    HW1 4532   0.866   3.572   2.234
 1211SOL    HW2 4533   0.822   3.443   2.145
 1212SOL     OW 4534   6.299   0.375   0.521
 1212SOL    HW1 4535   6.253   0.427   0.448
 1212SOL    HW2 4536   6.392   0.353   0.491
 1213SOL     OW 4537   6.619   2.466   0.992
 1213SOL    HW1 4538   6.524   2.467   1.024
 1213SOL    HW2 4539   6.622   2.481   0.894
 1214SOL     OW 4540   0.901   2.974   6.762
 1214SOL    HW1 4541   0.962   2.911   6.810
 1214SOL    HW2 4542   0.935   2.989   6.669
 1215SOL     OW 4543   0.681   5.095   3.122
 1215SOL    HW1 4544   0.685   5.049   3.211
 1215SOL    HW2 4545   0.727   5.183   3.128
 1216SOL     OW 4546   5.284   0.332   1.329
 1216SOL    HW1 4547   5.303   0.422   1.291
 1216SOL    HW2 4548   5.303   0.262   1.260
 1217SOL     OW 4549   2.542   4.839   0.721
 1217SOL    HW1 4550   2.532   4.936   0.701
 1217SOL    HW2 4551   2.621   4.802   0.672
 1218SOL     OW 4552   1.981   4.249   4.638
 1218SOL    HW1 4553   2.046   4.284   4.705
 1218SOL    HW2 4554   2.017   4.166   4.596
 1219SOL     OW 4555   5.124   6.282   1.726
 1219SOL    HW1 4556   5.071   6.238   1.653
 1219SOL    HW2 4557   5.155   6.372   1.695
 1220SOL     OW 4558   0.569   4.674   3.209
 1220SOL    HW1 4559   0.512   4.724   3.144
 1220SOL    HW2 4560   0.613   4.597   3.163
 1221SOL     OW 4561   5.624   4.013   6.255
 1221SOL    HW1 4562   5.576   3.995   6.340
 1221SOL    HW2 4563   5.703   4.073   6.273
 1222SOL     OW 4564   6.594   0.653   6.649
 1222SOL    HW1 4565   6.643   0.738   6.668
 1222SOL    HW2 4566   6.594   0.595   6.730
 1223SOL     OW 4567   4.182   1.390   0.308
 1223SOL    HW1 4568   4.199   1.437   0.394
 1223SOL    HW2 4569   4.116   1.315   0.323
 1224SOL     OW 4570   3.468   5.387   0.504
 1224SOL    HW1 4571   3.538   5.327   0.544
 1224SOL    HW2 4572   3.406   5.333   0.448
 1225SOL     OW 4573   3.163   3.410   6.253
 1225SOL    HW1 4574   3.165   3.325   6.200
 1225SOL    HW2 4575   3.099   3.401   6.329
 1226SOL     OW 4576   3.011   5.219   1.590
 1226SOL    HW1 4577   3.023   5.124   1.621
 1226SOL    HW2 4578   2.919   5.249   1.613
 1227SOL     OW 4579   6.867   3.758   6.522
 1227SOL    HW1 4580   6.849   3.687   6.455
 1227SOL    HW2 4581   6.781   3.789   6.562
 1228SOL     OW 4582   3.366   2.028   6.615
 1228SOL    HW1 4583   3.393   2.123   6.628
 1228SOL    HW2 4584   3.445   1.974   6.584
 1229SOL     OW 4585   3.686   4.827   5.606
 1229SOL    HW1 4586   3.715   4.795   5.516
 1229SOL    HW2 4587   3.593   4.864   5.600
 1230SOL     OW 4588   4.768   0.056   2.787
 1230SOL    HW1 4589   4.807   7.003   2.835
 1230SOL    HW2 4590   4.840   0.104   2.737
 1231SOL     OW 4591   1.953   3.301   4.773
 1231SOL    HW1 4592   1.890   3.377   4.758
 1231SOL    HW2 4593   1.938   3.261   4.863
 1232SOL     OW 4594   0.725   2.056   4.875
 1232SOL    HW1 4595   0.633   2.024   4.894
 1232SOL    HW2 4596   0.791   1.993   4.917
 1233SOL     OW 4597   0.855   4.064   4.524
 1233SOL    HW1 4598   0.762   4.033   4.540
 1233SOL    HW2 4599   0.905   4.066   4.611
 1234SOL     OW 4600   6.312   3.950   4.912
 1234SOL    HW1 4601   6.267   4.040   4.922
 1234SOL    HW2 4602   6.312   3.903   5.000
 1235SOL     OW 4603   6.894   5.996   2.451
 1235SOL    HW1 4604   6.936   5.907   2.469
 1235SOL    HW2 4605   6.795   5.988   2.460
 1236SOL     OW 4606   4.878   1.176   0.721
 1236SOL    HW1 4607   4.925   1.264   0.725
 1236SOL    HW2 4608   4.928   1.108   0.774
 1237SOL     OW 4609   1.807   4.850   5.379
 1237SOL    HW1 4610   1.731   4.905   5.343
 1237SOL    HW2 4611   1.810   4.763   5.331
 1238SOL     OW 4612   2.415   0.873   0.280
 1238SOL    HW1 4613   2.442   0.802   0.215
 1238SOL    HW2 4614   2.324   0.907   0.258
 1239SOL     OW 4615   0.129   0.161   6.033
 1239SOL    HW1 4616   0.044   0.166   6.085
 1239SOL    HW2 4617   0.111   0.187   5.938
 1240SOL     OW 4618   5.221   6.118   1.912
 1240SOL    HW1 4619   5.194   6.180   1.839
 1240SOL    HW2 4620   5.306   6.150   1.953
 1241SOL     OW 4621   6.097   4.187   3.939
 1241SOL    HW1 4622   6.118   4.198   4.037
 1241SOL    HW2 4623   6.143   4.105   3.904
 1242SOL     OW 4624   6.683   3.192   1.628
 1242SOL    HW1 4625   6.684   3.238   1.540
 1242SOL    HW2 4626   6.590   3.192   1.665
 1243SOL     OW 4627   6.604   6.584   5.209
 1243SOL    HW1 4628   6.567   6.517   5.144
 1243SOL    HW2 4629   6.538   6.658   5.222
 1244SOL     OW 4630   6.688   6.968   4.692
 1244SOL    HW1 4631   6.638   0.008   4.636
 1244SOL    HW2 4632   6.730   7.015   4.769
 1245SOL     OW 4633   4.680   4.765   6.533
 1245SOL    HW1 4634   4.713   4.799   6.621
 1245SOL    HW2 4635   4.585   4.736   6.543
 1246SOL     OW 4636   2.489   6.339   1.398
 1246SOL    HW1 4637   2.417   6.389   1.446
 1246SOL    HW2 4638   2.567   6.325   1.460
 1247SOL     OW 4639   2.239   0.807   6.317
 1247SOL    HW1 4640   2.181   0.864   6.259
 1247SOL    HW2 4641   2.260   0.857   6.401
 1248SOL     OW 4642   1.846   6.667   4.643
 1248SOL    HW1 4643   1.791   6.701   4.719
 1248SOL    HW2 4644   1.810   6.704   4.557
 1249SOL     OW 4645   5.756   2.528   2.265
 1249SOL    HW1 4646   5.766   2.536   2.166
 1249SOL    HW2 4647   5.660   2.521   2.289
 1250SOL     OW 4648   6.575   5.277   4.638
 1250SOL    HW1 4649   6.557   5.260   4.541
 1250SOL    HW2 4650   6.506   5.231   4.694
 1251SOL     OW 4651   3.379   7.014   4.164
 1251SOL    HW1 4652   3.478   7.000   4.172
 1251SOL    HW2 4653   3.362   0.067   4.105
 1252SOL     OW 4654   3.940   3.109   5.290
 1252SOL    HW1 4655   3.919   3.207   5.295
 1252SOL    HW2 4656   3.898   3.071   5.208
 1253SOL     OW 4657   3.733   5.221   2.116
 1253SOL    HW1 4658   3.715   5.123   2.109
 1253SOL    HW2 4659   3.647   5.270   2.135
 1254SOL     OW 4660   0.348   2.605   2.217
 1254SOL    HW1 4661   0.267   2.559   2.180
 1254SOL    HW2 4662   0.430   2.557   2.186
 1255SOL     OW 4663   6.350   1.868   4.708
 1255SOL    HW1 4664   6.312   1.861   4.616
 1255SOL    HW2 4665   6.449   1.861   4.705
 1256SOL     OW 4666   6.568   6.375   3.622
 1256SOL    HW1 4667   6.583   6.405   3.717
 1256SOL    HW2 4668   6.622   6.293   3.604
 1257SOL     OW 4669   0.163   0.047   4.690
 1257SOL    HW1 4670   0.249   0.021   4.733
 1257SOL    HW2 4671   0.104   6.992   4.682
 1258SOL     OW 4672   1.809   5.614   3.715
 1258SOL    HW1 4673   1.752   5.692   3.743
 1258SOL    HW2 4674   1.903   5.629   3.745
 1259SOL     OW 4675   3.876   1.295   3.970
 1259SOL    HW1 4676   3.865   1.264   4.065
 1259SOL    HW2 4677   3.923   1.224   3.917
 1260SOL     OW 4678   1.497   1.343   6.680
 1260SOL    HW1 4679   1.438   1.424   6.681
 1260SOL    HW2 4680   1.569   1.353   6.748
 1261SOL     OW 4681   0.277   5.511   6.877
 1261SOL    HW1 4682   0.316   5.535   6.788
 1261SOL    HW2 4683   0.193   5.564   6.892
 1262SOL     OW 4684   4.786   4.478   1.190
 1262SOL    HW1 4685   4.806   4.486   1.092
 1262SOL    HW2 4686   4.871   4.460   1.240
 1263SOL     OW 4687   0.673   1.460   2.346
 1263SOL    HW1 4688   0.682   1.559   2.335
 1263SOL    HW2 4689   0.676   1.437   2.444
 1264SOL     OW 4690   0.286   4.497   6.912
 1264SOL    HW1 4691   0.197   4.491   6.958
 1264SOL    HW2 4692   0.312   4.593   6.901
 1265SOL     OW 4693   5.810   5.394   5.194
 1265SOL    HW1 4694   5.835   5.410   5.099
 1265SOL    HW2 4695   5.813   5.295   5.213
 1266SOL     OW 4696   0.473   0.928   4.507
 1266SOL    HW1 4697   0.571   0.951   4.502
 1266SOL    HW2 4698   0.433   0.973   4.587
 1267SOL     OW 4699   5.494   1.461   1.381
 1267SOL    HW1 4700   5.542   1.461   1.293
 1267SOL    HW2 4701   5.521   1.541   1.434
 1268SOL     OW 4702   2.742   2.969   0.166
 1268SOL    HW1 4703   2.832   2.963   0.210
 1268SOL    HW2 4704   2.696   2.881   0.171
 1269SOL     OW 4705   6.038   3.343   3.824
 1269SOL    HW1 4706   6.113   3.277   3.828
 1269SOL    HW2 4707   6.009   3.354   3.729
 1270SOL     OW 4708   2.222   4.509   2.819
 1270SOL    HW1 4709   2.165   4.563   2.757
 1270SOL    HW2 4710   2.173   4.494   2.904
 1271SOL     OW 4711   3.403   1.445   2.185
 1271SOL    HW1 4712   3.309   1.473   2.199
 1271SOL    HW2 4713   3.435   1.477   2.096
 1272SOL     OW 4714   5.647   5.205   0.047
 1272SOL    HW1 4715   5.596   5.236   0.127
 1272SOL    HW2 4716   5.610   5.118   0.015
 1273SOL     OW 4717   1.173   4.390   5.666
 1273SOL    HW1 4718   1.162   4.487   5.684
 1273SOL    HW2 4719   1.150   4.338   5.748
 1274SOL     OW 4720   0.266   4.628   0.576
 1274SOL    HW1 4721   0.351   4.575   0.572
 1274SOL    HW2 4722   0.281   4.719   0.537
 1275SOL     OW 4723   3.646   1.442   3.453
 1275SOL    HW1 4724   3.651   1.354   3.499
 1275SOL    HW2 4725   3.562   1.447   3.399
 1276SOL     OW 4726   5.529   5.200   4.923
 1276SOL    HW1 4727   5.586   5.281   4.935
 1276SOL    HW2 4728   5.439   5.216   4.964
 1277SOL     OW 4729   1.761   5.253   6.396
 1277SOL    HW1 4730   1.832   5.316   6.428
 1277SOL    HW2 4731   1.674   5.302   6.388
 1278SOL     OW 4732   1.601   0.173   5.043
 1278SOL    HW1 4733   1.522   0.234   5.046
 1278SOL    HW2 4734   1.604   0.126   4.955
 1279SOL     OW 4735   2.200   4.508   6.600
 1279SOL    HW1 4736   2.108   4.541   6.620
 1279SOL    HW2 4737   2.222   4.527   6.504
 1280SOL     OW 4738   4.348   6.959   3.310
 1280SOL    HW1 4739   4.337   6.914   3.399
 1280SOL    HW2 4740   4.419   6.912   3.257
 1281SOL     OW 4741   2.241   6.196   3.491
 1281SOL    HW1 4742   2.282   6.189   3.400
 1281SOL    HW2 4743   2.212   6.290   3.508
 1282SOL     OW 4744   6.973   2.434   6.836
 1282SOL    HW1 4745   0.031   2.386   6.863
 1282SOL    HW2 4746   6.932   2.386   6.758
 1283SOL     OW 4747   6.696   2.988   5.496
 1283SOL    HW1 4748   6.716   2.928   5.418
 1283SOL    HW2 4749   6.736   2.949   5.579
 1284SOL     OW 4750   4.109   0.856   1.821
 1284SOL    HW1 4751   4.196   0.904   1.829
 1284SOL    HW2 4752   4.120   0.778   1.759
 1285SOL     OW 4753   4.569   1.398   5.495
 1285SOL    HW1 4754   4.557   1.312   5.545
 1285SOL    HW2 4755   4.515   1.470   5.538
 1286SOL     OW 4756   4.265   2.831   0.961
 1286SOL    HW1 4757   4.196   2.780   1.012
 1286SOL    HW2 4758   4.268   2.799   0.866
 1287SOL     OW 4759   5.198   4.019   5.409
 1287SOL    HW1 4760   5.286   3.972   5.418
 1287SOL    HW2 4761   5.174   4.060   5.497
 1288SOL     OW 4762   3.721   4.703   5.861
 1288SOL    HW1 4763   3.722   4.752   5.773
 1288SOL    HW2 4764   3.814   4.693   5.895
 1289SOL     OW 4765   0.538   0.337   1.858
 1289SOL    HW1 4766   0.616   0.277   1.873
 1289SOL    HW2 4767   0.566   0.415   1.803
 1290SOL     OW 4768   1.247   0.217   0.516
 1290SOL    HW1 4769   1.228   0.254   0.425
 1290SOL    HW2 4770   1.186   0.139   0.533
 1291SOL     OW 4771   6.994   4.426   3.887
 1291SOL    HW1 4772   0.031   4.494   3.848
 1291SOL    HW2 4773   0.006   4.335   3.874
 1292SOL     OW 4774   0.503   5.908   2.311
 1292SOL    HW1 4775   0.541   6.000   2.320
 1292SOL    HW2 4776   0.422   5.910   2.253
 1293SOL     OW 4777   2.218   2.449   6.525
 1293SOL    HW1 4778   2.131   2.481   6.488
 1293SOL    HW2 4779   2.250   2.370   6.473
 1294SOL     OW 4780   0.470   3.978   5.862
 1294SOL    HW1 4781   0.397   3.958   5.928
 1294SOL    HW2 4782   0.479   4.077   5.851
 1295SOL     OW 4783   0.358   2.965   0.894
 1295SOL    HW1 4784   0.414   3.010   0.825
 1295SOL    HW2 4785   0.275   2.929   0.852
 1296SOL     OW 4786   4.572   6.570   5.340
 1296SOL    HW1 4787   4.475   6.547   5.325
 1296SOL    HW2 4788   4.603   6.630   5.267
 1297SOL     OW 4789   0.984   6.590   1.253
 1297SOL    HW1 4790   0.937   6.518   1.202
 1297SOL    HW2 4791   1.081   6.568   1.262
 1298SOL     OW 4792   5.242   6.454   3.569
 1298SOL    HW1 4793   5.158   6.468   3.517
 1298SOL    HW2 4794   5.270   6.358   3.561
 1299SOL     OW 4795   2.345   2.451   3.788
 1299SOL    HW1 4796   2.405   2.490   3.857
 1299SOL    HW2 4797   2.393   2.448   3.700
 1300SOL     OW 4798   2.164   3.487   1.313
 1300SOL    HW1 4799   2.175   3.501   1.412
 1300SOL    HW2 4800   2.067   3.476   1.292
 1301SOL     OW 4801   0.520   6.999   2.014
 1301SOL    HW1 4802   0.572   6.969   1.934
 1301SOL    HW2 4803   0.581   0.020   2.078
 1302SOL     OW 4804   5.584   0.229   5.438
 1302SOL    HW1 4805   5.514   0.193   5.500
 1302SOL    HW2 4806   5.540   0.261   5.354
 1303SOL     OW 4807   3.759   0.465   1.580
 1303SOL    HW1 4808   3.818   0.534   1.538
 1303SOL    HW2 4809   3.782   0.375   1.543
 1304SOL     OW 4810   1.806   0.410   0.722
 1304SOL    HW1 4811   1.830   0.345   0.794
 1304SOL    HW2 4812   1.712   0.394   0.693
 1305SOL     OW 4813   5.819   4.723   0.144
 1305SOL    HW1 4814   5.762   4.795   0.185
 1305SOL    HW2 4815   5.827   4.647   0.208
 1306SOL     OW 4816   1.442   6.054   4.399
 1306SOL    HW1 4817   1.392   6.140   4.412
 1306SOL    HW2 4818   1.415   6.013   4.312
 1307SOL     OW 4819   2.146   3.800   4.316
 1307SOL    HW1 4820   2.068   3.809   4.253
 1307SOL    HW2 4821   2.211   3.874   4.299
 1308SOL     OW 4822   0.030   6.987   5.767
 1308SOL    HW1 4823   6.957   6.975   5.778
 1308SOL    HW2 4824   0.049   0.047   5.719
 1309SOL     OW 4825   5.719   4.590   5.416
 1309SOL    HW1 4826   5.754   4.664   5.360
 1309SOL    HW2 4827   5.654   4.536   5.362
 1310SOL     OW 4828   0.197   3.889   3.102
 1310SOL    HW1 4829   0.295   3.880   3.119
 1310SOL    HW2 4830   0.148   3.881   3.189
 1311SOL     OW 4831   6.684   6.415   6.411
 1311SOL    HW1 4832   6.671   6.485   6.340
 1311SOL    HW2 4833   6.652   6.327   6.376
 1312SOL     OW 4834   1.480   6.808   7.017
 1312SOL    HW1 4835   1.508   6.858   6.935
 1312SOL    HW2 4836   1.465   6.873   0.067
 1313SOL     OW 4837   6.904   5.041   2.350
 1313SOL    HW1 4838   6.940   4.952   2.324
 1313SOL    HW2 4839   6.952   5.075   2.431
 1314SOL     OW 4840   3.489   1.664   4.557
 1314SOL    HW1 4841   3.548   1.734   4.517
 1314SOL    HW2 4842   3.499   1.665   4.656
 1315SOL     OW 4843   6.898   1.161   3.012
 1315SOL    HW1 4844   6.893   1.186   2.915
 1315SOL    HW2 4845   6.816   1.193   3.059
 1316SOL     OW 4846   3.318   6.931   5.503
 1316SOL    HW1 4847   3.281   6.979   5.583
 1316SOL    HW2 4848   3.358   6.997   5.440
 1317SOL     OW 4849   1.503   4.242   5.151
 1317SOL    HW1 4850   1.478   4.166   5.210
 1317SOL    HW2 4851   1.501   4.212   5.056
 1318SOL     OW 4852   1.472   2.748   0.132
 1318SOL    HW1 4853   1.554   2.732   0.186
 1318SOL    HW2 4854   1.470   2.843   0.102
 1319SOL     OW 4855   0.279   5.077   0.539
 1319SOL    HW1 4856   0.206   5.080   0.607
 1319SOL    HW2 4857   0.306   5.170   0.515
 1320SOL     OW 4858   3.507   3.408   6.999
 1320SOL    HW1 4859   3.585   3.383   6.943
 1320SOL    HW2 4860   3.536   3.474   0.043
 1321SOL     OW 4861   5.285   2.537   6.561
 1321SOL    HW1 4862   5.302   2.521   6.464
 1321SOL    HW2 4863   5.323   2.626   6.588
 1322SOL     OW 4864   3.769   1.749   4.790
 1322SOL    HW1 4865   3.753   1.651   4.790
 1322SOL    HW2 4866   3.726   1.790   4.709
 1323SOL     OW 4867   2.863   0.282   6.839
 1323SOL    HW1 4868   2.831   0.286   6.934
 1323SOL    HW2 4869   2.798   0.230   6.784
 1324SOL     OW 4870   0.136   3.236   0.122
 1324SOL    HW1 4871   0.081   3.199   0.197
 1324SOL    HW2 4872   0.076   3.263   0.048
 1325SOL     OW 4873   3.931   6.122   5.556
 1325SOL    HW1 4874   3.852   6.139   5.497
 1325SOL    HW2 4875   4.015   6.132   5.503
 1326SOL     OW 4876   4.860   3.567   5.361
 1326SOL    HW1 4877   4.876   3.468   5.364
 1326SOL    HW2 4878   4.805   3.590   5.281
 1327SOL     OW 4879   1.273   6.392   0.605
 1327SOL    HW1 4880   1.201   6.373   0.672
 1327SOL    HW2 4881   1.358   6.417   0.652
 1328SOL     OW 4882   2.622   3.406   0.277
 1328SOL    HW1 4883   2.585   3.313   0.268
 1328SOL    HW2 4884   2.598   3.459   0.196
 1329SOL     OW 4885   0.408   2.239   2.465
 1329SOL    HW1 4886   0.330   2.289   2.428
 1329SOL    HW2 4887   0.491   2.295   2.458
 1330SOL     OW 4888   1.423   1.992   1.158
 1330SOL    HW1 4889   1.523   1.995   1.157
 1330SOL    HW2 4890   1.389   2.043   1.236
 1331SOL     OW 4891   4.656   2.711   3.464
 1331SOL    HW1 4892   4.726   2.754   3.522
 1331SOL    HW2 4893   4.618   2.780   3.403
 1332SOL     OW 4894   2.921   6.875   0.864
 1332SOL    HW1 4895   2.897   6.941   0.793
 1332SOL    HW2 4896   2.980   6.919   0.932
 1333SOL     OW 4897   2.930   3.585   3.344
 1333SOL    HW1 4898   2.979   3.644   3.279
 1333SOL    HW2 4899   2.912   3.496   3.302
 1334SOL     OW 4900   6.889   1.004   4.133
 1334SOL    HW1 4901   6.858   0.910   4.131
 1334SOL    HW2 4902   6.867   1.045   4.222
 1335SOL     OW 4903   1.948   1.733   2.292
 1335SOL    HW1 4904   1.977   1.827   2.274
 1335SOL    HW2 4905   1.868   1.712   2.235
 1336SOL     OW 4906   3.447   1.734   4.820
 1336SOL    HW1 4907   3.359   1.699   4.851
 1336SOL    HW2 4908   3.508   1.744   4.899
 1337SOL     OW 4909   1.032   1.257   2.824
 1337SOL    HW1 4910   1.087   1.175   2.837
 1337SOL    HW2 4911   1.089   1.339   2.834
 1338SOL     OW 4912   0.008   3.246   4.403
 1338SOL    HW1 4913   0.094   3.266   4.357
 1338SOL    HW2 4914   0.023   3.234   4.501
 1339SOL     OW 4915   6.038   1.672   0.241
 1339SOL    HW1 4916   5.969   1.661   0.170
 1339SOL    HW2 4917   6.011   1.746   0.303
 1340SOL     OW 4918   5.449   1.310   2.693
 1340SOL    HW1 4919   5.354   1.314   2.724
 1340SOL    HW2 4920   5.478   1.215   2.685
 1341SOL     OW 4921   4.570   6.870   6.692
 1341SOL    HW1 4922   4.638   6.878   6.765
 1341SOL    HW2 4923   4.505   6.946   6.698
 1342SOL     OW 4924   2.818   5.623   6.301
 1342SOL    HW1 4925   2.766   5.582   6.375
 1342SOL    HW2 4926   2.779   5.595   6.213
 1343SOL     OW 4927   5.622   5.715   2.544
 1343SOL    HW1 4928   5.682   5.679   2.472
 1343SOL    HW2 4929   5.669   5.785   2.596
 1344SOL     OW 4930   0.664   6.350   4.189
 1344SOL    HW1 4931   0.709   6.265   4.216
 1344SOL    HW2 4932   0.652   6.351   4.089
 1345SOL     OW 4933   0.533   5.199   2.170
 1345SOL    HW1 4934   0.602   5.137   2.208
 1345SOL    HW2 4935   0.528   5.281   2.227
 1346SOL     OW 4936   1.897   5.274   5.718
 1346SOL    HW1 4937   1.954   5.277   5.800
 1346SOL    HW2 4938   1.955   5.277   5.637
 1347SOL     OW 4939   0.375   6.410   6.591
 1347SOL    HW1 4940   0.313   6.334   6.609
 1347SOL    HW2 4941   0.380   6.427   6.492
 1348SOL     OW 4942   6.898   6.349   4.839
 1348SOL    HW1 4943   6.997   6.332   4.831
 1348SOL    HW2 4944   6.848   6.263   4.829
 1349SOL     OW 4945   5.629   2.781   4.540
 1349SOL    HW1 4946   5.716   2.816   4.574
 1349SOL    HW2 4947   5.578   2.855   4.497
 1350SOL     OW 4948   5.318   4.847   5.071
 1350SOL    HW1 4949   5.355   4.931   5.110
 1350SOL    HW2 4950   5.330   4.772   5.137
 1351SOL     OW 4951   5.324   2.856   4.044
 1351SOL    HW1 4952   5.405   2.799   4.059
 1351SOL    HW2 4953   5.301   2.857   3.947
 1352SOL     OW 4954   6.303   6.026   4.830
 1352SOL    HW1 4955   6.232   6.070   4.774
 1352SOL    HW2 4956   6.261   5.988   4.912
 1353SOL     OW 4957   0.797   2.570   0.554
 1353SOL    HW1 4958   0.709   2.556   0.509
 1353SOL    HW2 4959   0.833   2.482   0.586
 1354SOL     OW 4960   6.857   4.737   1.789
 1354SOL    HW1 4961   6.877   4.789   1.706
 1354SOL    HW2 4962   6.883   4.642   1.777
 1355SOL     OW 4963   6.387   4.132   4.548
 1355SOL    HW1 4964   6.289   4.145   4.566
 1355SOL    HW2 4965   6.439   4.198   4.602
 1356SOL     OW 4966   3.631   3.239   1.992
 1356SOL    HW1 4967   3.555   3.174   1.990
 1356SOL    HW2 4968   3.709   3.198   2.038
 1357SOL     OW 4969   0.162   4.345   6.694
 1357SOL    HW1 4970   0.229   4.357   6.620
 1357SOL    HW2 4971   0.189   4.401   6.772
 1358SOL     OW 4972   6.092   6.458   6.577
 1358SOL    HW1 4973   6.103   6.510   6.662
 1358SOL    HW2 4974   6.075   6.521   6.501
 1359SOL     OW 4975   6.030   4.503   2.570
 1359SOL    HW1 4976   5.998   4.420   2.617
 1359SOL    HW2 4977   6.040   4.577   2.637
 1360SOL     OW 4978   2.497   3.863   0.339
 1360SOL    HW1 4979   2.497   3.777   0.390
 1360SOL    HW2 4980   2.419   3.919   0.368
 1361SOL     OW 4981   6.593   4.964   5.294
 1361SOL    HW1 4982   6.518   4.918   5.246
 1361SOL    HW2 4983   6.625   4.906   5.369
 1362SOL     OW 4984   4.042   3.492   3.205
 1362SOL    HW1 4985   4.090   3.575   3.176
 1362SOL    HW2 4986   4.090   3.451   3.283
 1363SOL     OW 4987   0.492   5.326   4.674
 1363SOL    HW1 4988   0.529   5.289   4.759
 1363SOL    HW2 4989   0.405   5.283   4.654
 1364SOL     OW 4990   5.514   4.146   0.373
 1364SOL    HW1 4991   5.552   4.074   0.315
 1364SOL    HW2 4992   5.456   4.206   0.317
 1365SOL     OW 4993   0.569   4.252   6.555
 1365SOL    HW1 4994   0.572   4.180   6.624
 1365SOL    HW2 4995   0.476   4.259   6.519
 1366SOL     OW 4996   1.426   6.113   5.974
 1366SOL    HW1 4997   1.332   6.127   5.944
 1366SOL    HW2 4998   1.427   6.053   6.055
 1367SOL     OW 4999   2.394   7.018   2.361
 1367SOL    HW1 5000   2.471   6.957   2.341
 1367SOL    HW2 5001   2.427   0.074   2.408
 1368SOL     OW 5002   5.098   0.015   4.362
 1368SOL    HW1 5003   5.195   0.038   4.366
 1368SOL    HW2 5004   5.063   7.023   4.454
 1369SOL     OW 5005   1.867   6.577   3.137
 1369SOL    HW1 5006   1.839   6.547   3.046
 1369SOL    HW2 5007   1.894   6.499   3.192
 1370SOL     OW 5008   3.328   0.883   1.921
 1370SOL    HW1 5009   3.282   0.951   1.863
 1370SOL    HW2 5010   3.422   0.912   1.938
 1371SOL     OW 5011   4.797   1.672   4.237
 1371SOL    HW1 5012   4.715   1.715   4.276
 1371SOL    HW2 5013   4.877   1.729   4.257
 1372SOL     OW 5014   1.949   3.070   0.723
 1372SOL    HW1 5015   1.962   3.102   0.629
 1372SOL    HW2 5016   1.886   2.993   0.723
 1373SOL     OW 5017   6.436   4.363   0.144
 1373SOL    HW1 5018   6.477   4.410   0.223
 1373SOL    HW2 5019   6.385   4.430   0.089
 1374SOL     OW 5020   3.798   2.384   0.689
 1374SOL    HW1 5021   3.807   2.393   0.789
 1374SOL    HW2 5022   3.874   2.330   0.654
 1375SOL     OW 5023   6.820   4.991   6.312
 1375SOL    HW1 5024   6.819   4.965   6.215
 1375SOL    HW2 5025   6.730   4.974   6.352
 1376SOL     OW 5026   5.038   3.234   3.391
 1376SOL    HW1 5027   4.941   3.213   3.402
 1376SOL    HW2 5028   5.066   3.300   3.461
 1377SOL     OW 5029   6.729   3.796   5.652
 1377SOL    HW1 5030   6.780   3.766   5.572
 1377SOL    HW2 5031   6.746   3.894   5.667
 1378SOL     OW 5032   6.528   2.109   4.848
 1378SOL    HW1 5033   6.572   2.061   4.772
 1378SOL    HW2 5034   6.432   2.082   4.853
 1379SOL     OW 5035   3.242   6.406   2.423
 1379SOL    HW1 5036   3.282   6.316   2.441
 1379SOL    HW2 5037   3.297   6.454   2.355
 1380SOL     OW 5038   0.033   6.971   2.530
 1380SOL    HW1 5039   0.108   0.012   2.528
 1380SOL    HW2 5040   7.001   6.987   2.610
 1381SOL     OW 5041   5.852   2.748   0.182
 1381SOL    HW1 5042   5.924   2.696   0.138
 1381SOL    HW2 5043   5.772   2.691   0.195
 1382SOL     OW 5044   6.046   5.436   6.889
 1382SOL    HW1 5045   6.098   5.391   6.962
 1382SOL    HW2 5046   5.954   5.457   6.923
 1383SOL     OW 5047   1.191   1.018   0.329
 1383SOL    HW1 5048   1.234   0.973   0.407
 1383SOL    HW2 5049   1.261   1.042   0.261
 1384SOL     OW 5050   3.459   1.484   3.248
 1384SOL    HW1 5051   3.506   1.434   3.176
 1384SOL    HW2 5052   3.426   1.572   3.211
 1385SOL     OW 5053   0.113   2.790   2.884
 1385SOL    HW1 5054   0.146   2.868   2.831
 1385SOL    HW2 5055   0.186   2.724   2.896
 1386SOL     OW 5056   2.292   2.649   4.421
 1386SOL    HW1 5057   2.209   2.621   4.371
 1386SOL    HW2 5058   2.269   2.724   4.483
 1387SOL     OW 5059   3.447   0.969   3.738
 1387SOL    HW1 5060   3.421   0.894   3.799
 1387SOL    HW2 5061   3.522   1.021   3.779
 1388SOL     OW 5062   6.611   6.573   4.347
 1388SOL    HW1 5063   6.566   6.609   4.429
 1388SOL    HW2 5064   6.710   6.581   4.358
 1389SOL     OW 5065   0.362   0.821   3.791
 1389SOL    HW1 5066   0.305   0.759   3.844
 1389SOL    HW2 5067   0.304   0.881   3.736
 1390SOL     OW 5068   4.188   1.259   0.061
 1390SOL    HW1 5069   4.175   1.305   0.149
 1390SOL    HW2 5070   4.102   1.263   0.009
 1391SOL     OW 5071   5.949   1.475   5.762
 1391SOL    HW1 5072   5.863   1.425   5.770
 1391SOL    HW2 5073   5.949   1.553   5.826
 1392SOL     OW 5074   4.515   5.853   6.180
 1392SOL    HW1 5075   4.467   5.809   6.256
 1392SOL    HW2 5076   4.547   5.943   6.208
 1393SOL     OW 5077   6.250   2.244   6.558
 1393SOL    HW1 5078   6.326   2.221   6.618
 1393SOL    HW2 5079   6.197   2.162   6.538
 1394SOL     OW 5080   4.495   6.618   4.012
 1394SOL    HW1 5081   4.499   6.718   4.020
 1394SOL    HW2 5082   4.426   6.582   4.075
 1395SOL     OW 5083   7.013   3.614   2.462
 1395SOL    HW1 5084   7.017   3.542   2.392
 1395SOL    HW2 5085   0.024   3.579   2.548
 1396SOL     OW 5086   1.623   0.462   4.233
 1396SOL    HW1 5087   1.683   0.440   4.157
 1396SOL    HW2 5088   1.528   0.451   4.205
 1397SOL     OW 5089   0.558   5.981   5.197
 1397SOL    HW1 5090   0.476   5.934   5.164
 1397SOL    HW2 5091   0.638   5.950   5.146
 1398SOL     OW 5092   1.863   1.141   0.561
 1398SOL    HW1 5093   1.932   1.154   0.632
 1398SOL    HW2 5094   1.880   1.203   0.485
 1399SOL     OW 5095   4.338   0.204   0.822
 1399SOL    HW1 5096   4.273   0.279   0.809
 1399SOL    HW2 5097   4.294   0.117   0.800
 1400SOL     OW 5098   6.639   0.668   4.389
 1400SOL    HW1 5099   6.592   0.650   4.475
 1400SOL    HW2 5100   6.707   0.598   4.372
 1401SOL     OW 5101   5.758   0.024   4.370
 1401SOL    HW1 5102   5.758   0.123   4.354
 1401SOL    HW2 5103   5.676   7.009   4.329
 1402SOL     OW 5104   5.891   4.064   0.468
 1402SOL    HW1 5105   5.839   3.979   0.472
 1402SOL    HW2 5106   5.906   4.089   0.373
 1403SOL     OW 5107   3.326   3.419   0.735
 1403SOL    HW1 5108   3.320   3.474   0.651
 1403SOL    HW2 5109   3.243   3.432   0.789
 1404SOL     OW 5110   4.624   0.285   1.385
 1404SOL    HW1 5111   4.550   0.348   1.409
 1404SOL    HW2 5112   4.686   0.330   1.320
 1405SOL     OW 5113   1.591   3.697   1.071
 1405SOL    HW1 5114   1.511   3.652   1.110
 1405SOL    HW2 5115   1.592   3.682   0.972
 1406SOL     OW 5116   2.225   3.618   1.556
 1406SOL    HW1 5117   2.322   3.610   1.579
 1406SOL    HW2 5118   2.171   3.570   1.626
 1407SOL     OW 5119   0.553   3.241   1.813
 1407SOL    HW1 5120   0.545   3.334   1.779
 1407SOL    HW2 5121   0.548   3.177   1.737
 1408SOL     OW 5122   6.266   5.921   6.624
 1408SOL    HW1 5123   6.178   5.958   6.655
 1408SOL    HW2 5124   6.278   5.829   6.662
 1409SOL     OW 5125   6.924   1.821   5.691
 1409SOL    HW1 5126   6.905   1.865   5.779
 1409SOL    HW2 5127   6.848   1.760   5.667
 1410SOL     OW 5128   2.315   3.226   6.278
 1410SOL    HW1 5129   2.298   3.128   6.270
 1410SOL    HW2 5130   2.273   3.274   6.201
 1411SOL     OW 5131   3.096   6.285   7.002
 1411SOL    HW1 5132   3.107   6.264   0.074
 1411SOL    HW2 5133   3.052   6.374   6.992
 1412SOL     OW 5134   0.716   3.070   0.768
 1412SOL    HW1 5135   0.726   3.083   0.867
 1412SOL    HW2 5136   0.760   2.985   0.741
 1413SOL     OW 5137   2.163   1.965   5.207
 1413SOL    HW1 5138   2.081   1.908   5.214
 1413SOL    HW2 5139   2.239   1.910   5.171
 1414SOL     OW 5140   1.168   3.296   1.852
 1414SOL    HW1 5141   1.214   3.207   1.856
 1414SOL    HW2 5142   1.203   3.348   1.774
 1415SOL     OW 5143   2.515   2.053   4.528
 1415SOL    HW1 5144   2.456   2.095   4.598
 1415SOL    HW2 5145   2.607   2.041   4.566
 1416SOL     OW 5146   4.083   0.125   5.154
 1416SOL    HW1 5147   4.009   0.186   5.183
 1416SOL    HW2 5148   4.044   0.047   5.104
 1417SOL     OW 5149   2.693   3.124   5.995
 1417SOL    HW1 5150   2.630   3.129   5.917
 1417SOL    HW2 5151   2.773   3.180   5.976
 1418SOL     OW 5152   3.437   3.850   0.284
 1418SOL    HW1 5153   3.468   3.905   0.362
 1418SOL    HW2 5154   3.493   3.872   0.204
 1419SOL     OW 5155   1.658   4.921   4.249
 1419SOL    HW1 5156   1.715   4.992   4.291
 1419SOL    HW2 5157   1.564   4.954   4.243
 1420SOL     OW 5158   3.933   5.165   2.532
 1420SOL    HW1 5159   3.977   5.116   2.607
 1420SOL    HW2 5160   3.846   5.203   2.564
 1421SOL     OW 5161   0.993   4.509   4.758
 1421SOL    HW1 5162   1.067   4.565   4.794
 1421SOL    HW2 5163   0.905   4.544   4.790
 1422SOL     OW 5164   2.433   4.217   5.542
 1422SOL    HW1 5165   2.522   4.242   5.504
 1422SOL    HW2 5166   2.374   4.184   5.468
 1423SOL     OW 5167   4.348   1.626   4.489
 1423SOL    HW1 5168   4.282   1.686   4.534
 1423SOL    HW2 5169   4.302   1.576   4.415
 1424SOL     OW 5170   6.033   3.096   6.281
 1424SOL    HW1 5171   6.018   3.098   6.182
 1424SOL    HW2 5172   6.120   3.050   6.301
 1425SOL     OW 5173   3.722   6.007   4.934
 1425SOL    HW1 5174   3.666   5.942   4.882
 1425SOL    HW2 5175   3.667   6.048   5.006
 1426SOL     OW 5176   2.096   1.699   6.610
 1426SOL    HW1 5177   2.174   1.691   6.548
 1426SOL    HW2 5178   2.021   1.641   6.577
 1427SOL     OW 5179   1.170   0.288   3.183
 1427SOL    HW1 5180   1.174   0.377   3.230
 1427SOL    HW2 5181   1.262   0.262   3.154
 1428SOL     OW 5182   0.589   2.486   2.100
 1428SOL    HW1 5183   0.667   2.442   2.144
 1428SOL    HW2 5184   0.622   2.551   2.031
 1429SOL     OW 5185   6.191   1.458   6.985
 1429SOL    HW1 5186   6.203   1.556   6.971
 1429SOL    HW2 5187   6.168   1.440   0.055
 1430SOL     OW 5188   2.566   4.960   4.047
 1430SOL    HW1 5189   2.517   4.976   4.133
 1430SOL    HW2 5190   2.510   4.904   3.986
 1431SOL     OW 5191   2.823   1.610   5.936
 1431SOL    HW1 5192   2.871   1.525   5.915
 1431SOL    HW2 5193   2.826   1.671   5.857
 1432SOL     OW 5194   2.495   1.274   0.663
 1432SOL    HW1 5195   2.504   1.359   0.716
 1432SOL    HW2 5196   2.479   1.198   0.725
 1433SOL     OW 5197   2.980   0.618   3.271
 1433SOL    HW1 5198   3.059   0.676   3.292
 1433SOL    HW2 5199   2.910   0.631   3.341
 1434SOL     OW 5200   0.414   2.609   6.534
 1434SOL    HW1 5201   0.462   2.523   6.517
 1434SOL    HW2 5202   0.330   2.590   6.584
 1435SOL     OW 5203   1.040   6.818   3.423
 1435SOL    HW1 5204   1.075   6.894   3.369
 1435SOL    HW2 5205   0.943   6.804   3.402
 1436SOL     OW 5206   5.677   3.242   0.547
 1436SOL    HW1 5207   5.733   3.177   0.495
 1436SOL    HW2 5208   5.599   3.270   0.492
 1437SOL     OW 5209   4.720   1.417   6.181
 1437SOL    HW1 5210   4.739   1.324   6.148
 1437SOL    HW2 5211   4.788   1.443   6.250
 1438SOL     OW 5212   2.409   0.896   1.370
 1438SOL    HW1 5213   2.504   0.922   1.387
 1438SOL    HW2 5214   2.354   0.914   1.451
 1439SOL     OW 5215   0.265   5.941   0.538
 1439SOL    HW1 5216   0.326   5.937   0.617
 1439SOL    HW2 5217   0.308   5.995   0.466
 1440SOL     OW 5218   3.246   3.196   4.118
 1440SOL    HW1 5219   3.164   3.222   4.066
 1440SOL    HW2 5220   3.276   3.105   4.090
 1441SOL     OW 5221   6.385   3.648   3.643
 1441SOL    HW1 5222   6.433   3.735   3.634
 1441SOL    HW2 5223   6.327   3.633   3.563
 1442SOL     OW 5224   5.622   4.592   0.481
 1442SOL    HW1 5225   5.566   4.515   0.511
 1442SOL    HW2 5226   5.648   4.579   0.385
 1443SOL     OW 5227   0.606   0.425   3.552
 1443SOL    HW1 5228   0.594   0.516   3.593
 1443SOL    HW2 5229   0.653   0.365   3.617
 1444SOL     OW 5230   4.401   6.798   3.012
 1444SOL    HW1 5231   4.484   6.742   3.015
 1444SOL    HW2 5232   4.425   6.893   2.993
 1445SOL     OW 5233   0.630   2.506   1.316
 1445SOL    HW1 5234   0.629   2.419   1.268
 1445SOL    HW2 5235   0.540   2.523   1.357
 1446SOL     OW 5236   4.018   2.229   0.554
 1446SOL    HW1 5237   4.090   2.159   0.549
 1446SOL    HW2 5238   4.035   2.298   0.484
 1447SOL     OW 5239   6.649   0.903   5.165
 1447SOL    HW1 5240   6.650   0.951   5.077
 1447SOL    HW2 5241   6.554   0.886   5.193
 1448SOL     OW 5242   6.207   1.685   0.589
 1448SOL    HW1 5243   6.115   1.647   0.584
 1448SOL    HW2 5244   6.213   1.765   0.529
 1449SOL     OW 5245   6.117   6.196   0.658
 1449SOL    HW1 5246   6.120   6.133   0.580
 1449SOL    HW2 5247   6.036   6.176   0.714
 1450SOL     OW 5248   6.179   3.118   2.846
 1450SOL    HW1 5249   6.175   3.030   2.892
 1450SOL    HW2 5250   6.141   3.110   2.754
 1451SOL     OW 5251   2.407   6.725   2.933
 1451SOL    HW1 5252   2.413   6.748   2.836
 1451SOL    HW2 5253   2.487   6.761   2.981
 1452SOL     OW 5254   5.182   0.568   4.877
 1452SOL    HW1 5255   5.091   0.546   4.843
 1452SOL    HW2 5256   5.250   0.545   4.807
 1453SOL     OW 5257   5.440   3.725   4.843
 1453SOL    HW1 5258   5.428   3.626   4.840
 1453SOL    HW2 5259   5.384   3.763   4.917
 1454SOL     OW 5260   5.544   2.860   1.836
 1454SOL    HW1 5261   5.498   2.893   1.753
 1454SOL    HW2 5262   5.476   2.830   1.902
 1455SOL     OW 5263   0.945   0.578   1.729
 1455SOL    HW1 5264   1.000   0.547   1.806
 1455SOL    HW2 5265   0.979   0.666   1.696
 1456SOL     OW 5266   6.863   6.916   4.984
 1456SOL    HW1 5267   6.949   6.871   5.008
 1456SOL    HW2 5268   6.818   6.948   5.068
 1457SOL     OW 5269   1.271   0.012   3.409
 1457SOL    HW1 5270   1.363   0.018   3.371
 1457SOL    HW2 5271   1.205   0.043   3.341
 1458SOL     OW 5272   4.986   0.166   5.316
 1458SOL    HW1 5273   5.050   0.223   5.368
 1458SOL    HW2 5274   4.913   0.134   5.376
 1459SOL     OW 5275   2.718   6.171   6.652
 1459SOL    HW1 5276   2.703   6.102   6.723
 1459SOL    HW2 5277   2.801   6.223   6.674
 1460SOL     OW 5278   0.552   6.432   0.209
 1460SOL    HW1 5279   0.472   6.465   0.158
 1460SOL    HW2 5280   0.566   6.335   0.189
 1461SOL     OW 5281   6.379   4.582   3.154
 1461SOL    HW1 5282   6.364   4.680   3.168
 1461SOL    HW2 5283   6.298   4.543   3.111
 1462SOL     OW 5284   6.626   1.515   0.478
 1462SOL    HW1 5285   6.718   1.523   0.517
 1462SOL    HW2 5286   6.611   1.421   0.447
 1463SOL     OW 5287   0.597   0.354   5.296
 1463SOL    HW1 5288   0.651   0.283   5.250
 1463SOL    HW2 5289   0.500   0.337   5.281
 1464SOL     OW 5290   0.164   6.886   0.096
 1464SOL    HW1 5291   0.153   6.811   0.030
 1464SOL    HW2 5292   0.098   6.875   0.170
 1465SOL     OW 5293   0.538   1.120   3.232
 1465SOL    HW1 5294   0.638   1.118   3.231
 1465SOL    HW2 5295   0.507   1.210   3.263
 1466SOL     OW 5296   6.969   6.270   2.499
 1466SOL    HW1 5297   7.025   6.334   2.447
 1466SOL    HW2 5298   6.937   6.196   2.439
 1467SOL     OW 5299   1.675   0.509   3.166
 1467SOL    HW1 5300   1.686   0.603   3.199
 1467SOL    HW2 5301   1.702   0.504   3.070
 1468SOL     OW 5302   5.704   5.696   3.217
 1468SOL    HW1 5303   5.609   5.711   3.246
 1468SOL    HW2 5304   5.761   5.686   3.298
 1469SOL     OW 5305   0.282   0.595   2.752
 1469SOL    HW1 5306   0.348   0.598   2.827
 1469SOL    HW2 5307   0.322   0.547   2.674
 1470SOL     OW 5308   1.177   1.018   2.804
 1470SOL    HW1 5309   1.116   0.955   2.852
 1470SOL    HW2 5310   1.226   0.969   2.732
 1471SOL     OW 5311   6.491   0.489   6.988
 1471SOL    HW1 5312   6.476   0.587   6.975
 1471SOL    HW2 5313   6.573   0.461   6.938
 1472SOL     OW 5314   4.858   6.242   4.669
 1472SOL    HW1 5315   4.920   6.210   4.740
 1472SOL    HW2 5316   4.865   6.183   4.589
 1473SOL     OW 5317   5.773   5.989   3.123
 1473SOL    HW1 5318   5.815   5.940   3.199
 1473SOL    HW2 5319   5.762   5.927   3.045
 1474SOL     OW 5320   6.189   5.674   4.174
 1474SOL    HW1 5321   6.117   5.605   4.162
 1474SOL    HW2 5322   6.188   5.736   4.095
 1475SOL     OW 5323   0.208   0.417   1.691
 1475SOL    HW1 5324   0.222   0.386   1.597
 1475SOL    HW2 5325   0.111   0.411   1.715
 1476SOL     OW 5326   1.136   0.927   1.851
 1476SOL    HW1 5327   1.150   0.867   1.930
 1476SOL    HW2 5328   1.059   0.987   1.868
 1477SOL     OW 5329   3.350   0.653   5.978
 1477SOL    HW1 5330   3.298   0.676   6.060
 1477SOL    HW2 5331   3.381   0.737   5.934
 1478SOL     OW 5332   6.110   4.797   1.014
 1478SOL    HW1 5333   6.049   4.786   0.936
 1478SOL    HW2 5334   6.198   4.831   0.983
 1479SOL     OW 5335   1.094   4.908   0.538
 1479SOL    HW1 5336   1.180   4.856   0.543
 1479SOL    HW2 5337   1.046   4.886   0.454
 1480SOL     OW 5338   2.259   1.046   6.484
 1480SOL    HW1 5339   2.226   1.030   6.577
 1480SOL    HW2 5340   2.215   1.128   6.447
 1481SOL     OW 5341   5.549   1.678   5.292
 1481SOL    HW1 5342   5.606   1.706   5.369
 1481SOL    HW2 5343   5.587   1.715   5.207
 1482SOL     OW 5344   5.853   1.559   1.335
 1482SOL    HW1 5345   5.774   1.619   1.324
 1482SOL    HW2 5346   5.843   1.508   1.421
 1483SOL     OW 5347   6.735   2.988   6.841
 1483SOL    HW1 5348   6.690   3.000   6.930
 1483SOL    HW2 5349   6.666   2.964   6.772
 1484SOL     OW 5350   6.619   4.509   2.842
 1484SOL    HW1 5351   6.639   4.413   2.862
 1484SOL    HW2 5352   6.525   4.519   2.811
 1485SOL     OW 5353   5.384   2.811   2.550
 1485SOL    HW1 5354   5.349   2.897   2.586
 1485SOL    HW2 5355   5.483   2.818   2.537
 1486SOL     OW 5356   4.459   2.489   3.427
 1486SOL    HW1 5357   4.432   2.465   3.334
 1486SOL    HW2 5358   4.531   2.558   3.424
 1487SOL     OW 5359   6.520   1.528   6.700
 1487SOL    HW1 5360   6.588   1.457   6.717
 1487SOL    HW2 5361   6.476   1.512   6.612
 1488SOL     OW 5362   5.077   1.983   3.075
 1488SOL    HW1 5363   5.024   2.064   3.049
 1488SOL    HW2 5364   5.060   1.909   3.010
 1489SOL     OW 5365   3.749   5.190   4.468
 1489SOL    HW1 5366   3.700   5.267   4.428
 1489SOL    HW2 5367   3.732   5.187   4.567
 1490SOL     OW 5368   0.888   1.911   0.685
 1490SOL    HW1 5369   0.930   1.820   0.685
 1490SOL    HW2 5370   0.828   1.920   0.605
 1491SOL     OW 5371   6.484   4.072   3.330
 1491SOL    HW1 5372   6.435   4.122   3.401
 1491SOL    HW2 5373   6.558   4.019   3.372
 1492SOL     OW 5374   5.077   1.926   1.548
 1492SOL    HW1 5375   5.160   1.877   1.520
 1492SOL    HW2 5376   5.085   2.022   1.523
 1493SOL     OW 5377   4.404   0.034   4.683
 1493SOL    HW1 5378   4.326   7.017   4.635
 1493SOL    HW2 5379   4.457   0.087   4.618
 1494SOL     OW 5380   3.382   2.739   5.304
 1494SOL    HW1 5381   3.402   2.646   5.335
 1494SOL    HW2 5382   3.462   2.796   5.317
 1495SOL     OW 5383   0.356   3.530   3.185
 1495SOL    HW1 5384   0.319   3.438   3.175
 1495SOL    HW2 5385   0.329   3.586   3.106
 1496SOL     OW 5386   0.340   0.650   1.640
 1496SOL    HW1 5387   0.297   0.563   1.664
 1496SOL    HW2 5388   0.407   0.675   1.710
 1497SOL     OW 5389   0.139   5.271   4.232
 1497SOL    HW1 5390   0.127   5.188   4.286
 1497SOL    HW2 5391   0.160   5.348   4.293
 1498SOL     OW 5392   2.457   4.728   6.233
 1498SOL    HW1 5393   2.401   4.655   6.272
 1498SOL    HW2 5394   2.449   4.726   6.133
 1499SOL     OW 5395   1.287   4.176   4.872
 1499SOL    HW1 5396   1.210   4.143   4.819
 1499SOL    HW2 5397   1.366   4.188   4.812
 1500SOL     OW 5398   5.862   0.111   1.074
 1500SOL    HW1 5399   5.764   0.115   1.090
 1500SOL    HW2 5400   5.885   0.164   0.993
 1501SOL     OW 5401   3.931   0.508   6.820
 1501SOL    HW1 5402   3.845   0.489   6.869
 1501SOL    HW2 5403   3.947   0.606   6.818
 1502SOL     OW 5404   6.535   6.553   0.067
 1502SOL    HW1 5405   6.451   6.602   0.093
 1502SOL    HW2 5406   6.517   6.497   7.012
 1503SOL     OW 5407   2.130   2.860   1.054
 1503SOL    HW1 5408   2.088   2.947   1.082
 1503SOL    HW2 5409   2.060   2.800   1.016
 1504SOL     OW 5410   2.657   7.015   4.681
 1504SOL    HW1 5411   2.663   0.040   4.767
 1504SOL    HW2 5412   2.672   0.052   4.604
 1505SOL     OW 5413   5.204   0.372   5.999
 1505SOL    HW1 5414   5.276   0.423   6.046
 1505SOL    HW2 5415   5.245   0.312   5.930
 1506SOL     OW 5416   1.065   4.736   3.530
 1506SOL    HW1 5417   1.000   4.672   3.570
 1506SOL    HW2 5418   1.112   4.786   3.603
 1507SOL     OW 5419   1.583   1.536   4.630
 1507SOL    HW1 5420   1.559   1.447   4.669
 1507SOL    HW2 5421   1.500   1.591   4.620
 1508SOL     OW 5422   4.726   0.227   0.970
 1508SOL    HW1 5423   4.694   0.253   0.879
 1508SOL    HW2 5424   4.727   0.128   0.978
 1509SOL     OW 5425   4.503   2.444   6.582
 1509SOL    HW1 5426   4.435   2.486   6.522
 1509SOL    HW2 5427   4.578   2.407   6.527
 1510SOL     OW 5428   6.617   2.647   4.263
 1510SOL    HW1 5429   6.659   2.706   4.194
 1510SOL    HW2 5430   6.561   2.703   4.325
 1511SOL     OW 5431   2.219   1.431   6.588
 1511SOL    HW1 5432   2.227   1.438   6.687
 1511SOL    HW2 5433   2.299   1.382   6.552
 1512SOL     OW 5434   6.809   0.032   2.360
 1512SOL    HW1 5435   6.784   7.012   2.446
 1512SOL    HW2 5436   6.906   0.016   2.341
 1513SOL     OW 5437   3.620   0.556   3.839
 1513SOL    HW1 5438   3.671   0.487   3.788
 1513SOL    HW2 5439   3.621   0.533   3.937
 1514SOL     OW 5440   5.062   1.545   5.065
 1514SOL    HW1 5441   5.007   1.461   5.055
 1514SOL    HW2 5442   5.112   1.562   4.980
 1515SOL     OW 5443   6.801   3.720   5.405
 1515SOL    HW1 5444   6.841   3.694   5.317
 1515SOL    HW2 5445   6.704   3.741   5.393
 1516SOL     OW 5446   0.984   1.069   1.157
 1516SOL    HW1 5447   0.953   0.974   1.152
 1516SOL    HW2 5448   0.905   1.130   1.147
 1517SOL     OW 5449   4.488   5.545   3.930
 1517SOL    HW1 5450   4.569   5.586   3.888
 1517SOL    HW2 5451   4.488   5.564   4.029
 1518SOL     OW 5452   6.938   4.348   6.880
 1518SOL    HW1 5453   6.936   4.249   6.892
 1518SOL    HW2 5454   7.001   4.389   6.946
 1519SOL     OW 5455   6.819   4.104   1.209
 1519SOL    HW1 5456   6.809   4.119   1.308
 1519SOL    HW2 5457   6.766   4.023   1.182
 1520SOL     OW 5458   2.165   3.678   2.474
 1520SOL    HW1 5459   2.209   3.744   2.414
 1520SOL    HW2 5460   2.130   3.601   2.420
 1521SOL     OW 5461   1.721   3.172   0.145
 1521SOL    HW1 5462   1.671   3.251   0.179
 1521SOL    HW2 5463   1.763   3.124   0.223
 1522SOL     OW 5464   6.713   1.879   6.469
 1522SOL    HW1 5465   6.621   1.912   6.448
 1522SOL    HW2 5466   6.749   1.927   6.548
 1523SOL     OW 5467   5.233   3.501   6.513
 1523SOL    HW1 5468   5.267   3.587   6.552
 1523SOL    HW2 5469   5.169   3.459   6.578
 1524SOL     OW 5470   1.022   1.800   1.546
 1524SOL    HW1 5471   0.969   1.835   1.624
 1524SOL    HW2 5472   1.004   1.702   1.537
 1525SOL     OW 5473   4.470   1.577   5.847
 1525SOL    HW1 5474   4.565   1.596   5.820
 1525SOL    HW2 5475   4.462   1.581   5.947
 1526SOL     OW 5476   0.454   1.283   0.990
 1526SOL    HW1 5477   0.501   1.355   0.939
 1526SOL    HW2 5478   0.431   1.208   0.929
 1527SOL     OW 5479   3.232   1.584   4.895
 1527SOL    HW1 5480   3.191   1.620   4.979
 1527SOL    HW2 5481   3.194   1.494   4.875
 1528SOL     OW 5482   4.935   6.096   2.583
 1528SOL    HW1 5483   4.965   6.056   2.496
 1528SOL    HW2 5484   4.870   6.034   2.627
 1529SOL     OW 5485   4.965   1.217   6.068
 1529SOL    HW1 5486   4.906   1.252   5.996
 1529SOL    HW2 5487   4.915   1.150   6.123
 1530SOL     OW 5488   3.171   6.483   1.512
 1530SOL    HW1 5489   3.247   6.437   1.466
 1530SOL    HW2 5490   3.084   6.453   1.473
 1531SOL     OW 5491   5.481   1.268   5.392
 1531SOL    HW1 5492   5.391   1.243   5.428
 1531SOL    HW2 5493   5.470   1.320   5.307
 1532SOL     OW 5494   3.040   2.008   5.039
 1532SOL    HW1 5495   2.949   1.974   5.018
 1532SOL    HW2 5496   3.041   2.108   5.032
 1533SOL     OW 5497   6.747   3.010   6.224
 1533SOL    HW1 5498   6.736   3.107   6.203
 1533SOL    HW2 5499   6.762   2.998   6.322
 1534SOL     OW 5500   1.928   5.389   0.241
 1534SOL    HW1 5501   1.909   5.364   0.335
 1534SOL    HW2 5502   1.880   5.327   0.179
 1535SOL     OW 5503   5.265   5.045   4.464
 1535SOL    HW1 5504   5.248   4.947   4.466
 1535SOL    HW2 5505   5.333   5.069   4.532
 1536SOL     OW 5506   3.106   5.127   3.950
 1536SOL    HW1 5507   3.191   5.080   3.974
 1536SOL    HW2 5508   3.034   5.101   4.014
 1537SOL     OW 5509   3.429   5.157   3.587
 1537SOL    HW1 5510   3.393   5.217   3.516
 1537SOL    HW2 5511   3.375   5.072   3.589
 1538SOL     OW 5512   3.058   4.388   6.513
 1538SOL    HW1 5513   3.105   4.467   6.473
 1538SOL    HW2 5514   2.960   4.397   6.499
 1539SOL     OW 5515   3.442   4.177   1.729
 1539SOL    HW1 5516   3.411   4.269   1.702
 1539SOL    HW2 5517   3.508   4.185   1.804
 1540SOL     OW 5518   1.171   0.338   4.363
 1540SOL    HW1 5519   1.146   0.313   4.269
 1540SOL    HW2 5520   1.239   0.273   4.397
 1541SOL     OW 5521   4.015   2.790   1.085
 1541SOL    HW1 5522   3.968   2.716   1.132
 1541SOL    HW2 5523   3.971   2.807   0.997
 1542SOL     OW 5524   0.307   5.846   2.113
 1542SOL    HW1 5525   0.377   5.893   2.060
 1542SOL    HW2 5526   0.293   5.754   2.076
 1543SOL     OW 5527   3.477   3.644   3.364
 1543SOL    HW1 5528   3.505   3.654   3.268
 1543SOL    HW2 5529   3.383   3.609   3.368
 1544SOL     OW 5530   3.017   3.818   2.022
 1544SOL    HW1 5531   2.974   3.813   2.112
 1544SOL    HW2 5532   3.054   3.910   2.008
 1545SOL     OW 5533   5.334   0.539   5.160
 1545SOL    HW1 5534   5.357   0.583   5.247
 1545SOL    HW2 5535   5.357   0.600   5.085
 1546SOL     OW 5536   6.054   0.529   6.237
 1546SOL    HW1 5537   5.992   0.524   6.158
 1546SOL    HW2 5538   6.033   0.611   6.290
 1547SOL     OW 5539   2.394   4.357   2.691
 1547SOL    HW1 5540   2.339   4.293   2.637
 1547SOL    HW2 5541   2.334   4.425   2.732
 1548SOL     OW 5542   3.999   4.382   5.745
 1548SOL    HW1 5543   3.914   4.406   5.791
 1548SOL    HW2 5544   3.996   4.413   5.650
 1549SOL     OW 5545   6.583   1.471   1.749
 1549SOL    HW1 5546   6.603   1.394   1.809
 1549SOL    HW2 5547   6.485   1.491   1.752
 1550SOL     OW 5548   2.543   6.927   5.525
 1550SOL    HW1 5549   2.640   6.914   5.507
 1550SOL    HW2 5550   2.492   6.919   5.439
 1551SOL     OW 5551   2.381   3.283   1.539
 1551SOL    HW1 5552   2.409   3.368   1.583
 1551SOL    HW2 5553   2.417   3.280   1.446
 1552SOL     OW 5554   0.946   6.945   0.740
 1552SOL    HW1 5555   0.898   6.968   0.825
 1552SOL    HW2 5556   0.950   6.846   0.729
 1553SOL     OW 5557   5.751   1.478   6.978
 1553SOL    HW1 5558   5.788   1.556   0.002
 1553SOL    HW2 5559   5.808   1.398   6.993
 1554SOL     OW 5560   4.164   2.221   2.808
 1554SOL    HW1 5561   4.081   2.217   2.753
 1554SOL    HW2 5562   4.224   2.292   2.772
 1555SOL     OW 5563   4.837   2.516   5.175
 1555SOL    HW1 5564   4.758   2.455   5.183
 1555SOL    HW2 5565   4.909   2.486   5.237
 1556SOL     OW 5566   3.529   0.000   0.880
 1556SOL    HW1 5567   3.490   0.074   0.825
 1556SOL    HW2 5568   3.512   0.018   0.977
 1557SOL     OW 5569   2.555   2.769   0.934
 1557SOL    HW1 5570   2.651   2.747   0.950
 1557SOL    HW2 5571   2.511   2.791   1.021
 1558SOL     OW 5572   6.028   2.188   5.435
 1558SOL    HW1 5573   6.047   2.197   5.338
 1558SOL    HW2 5574   6.108   2.215   5.488
 1559SOL     OW 5575   0.394   3.722   2.190
 1559SOL    HW1 5576   0.370   3.808   2.144
 1559SOL    HW2 5577   0.331   3.650   2.161
 1560SOL     OW 5578   3.812   1.467   0.346
 1560SOL    HW1 5579   3.883   1.397   0.331
 1560SOL    HW2 5580   3.809   1.491   0.442
 1561SOL     OW 5581   5.415   6.429   2.354
 1561SOL    HW1 5582   5.494   6.465   2.304
 1561SOL    HW2 5583   5.424   6.329   2.362
 1562SOL     OW 5584   2.587   6.454   2.436
 1562SOL    HW1 5585   2.526   6.472   2.512
 1562SOL    HW2 5586   2.591   6.355   2.419
 1563SOL     OW 5587   2.899   2.236   5.211
 1563SOL    HW1 5588   2.956   2.264   5.133
 1563SOL    HW2 5589   2.944   2.264   5.296
 1564SOL     OW 5590   1.209   1.405   2.238
 1564SOL    HW1 5591   1.298   1.379   2.277
 1564SOL    HW2 5592   1.141   1.412   2.310
 1565SOL     OW 5593   4.064   5.380   4.489
 1565SOL    HW1 5594   4.055   5.326   4.406
 1565SOL    HW2 5595   4.059   5.477   4.466
 1566SOL     OW 5596   5.461   4.642   3.771
 1566SOL    HW1 5597   5.549   4.597   3.785
 1566SOL    HW2 5598   5.448   4.660   3.673
 1567SOL     OW 5599   5.893   5.486   6.334
 1567SOL    HW1 5600   5.981   5.453   6.302
 1567SOL    HW2 5601   5.862   5.561   6.275
 1568SOL     OW 5602   2.471   6.104   3.948
 1568SOL    HW1 5603   2.500   6.200   3.954
 1568SOL    HW2 5604   2.372   6.099   3.959
 1569SOL     OW 5605   3.493   0.437   2.973
 1569SOL    HW1 5606   3.568   0.455   3.037
 1569SOL    HW2 5607   3.526   0.450   2.879
 1570SOL     OW 5608   2.869   6.993   6.509
 1570SOL    HW1 5609   2.906   6.977   6.601
 1570SOL    HW2 5610   2.853   6.906   6.463
 1571SOL     OW 5611   1.105   2.356   3.188
 1571SOL    HW1 5612   1.157   2.328   3.108
 1571SOL    HW2 5613   1.007   2.354   3.167
 1572SOL     OW 5614   1.775   5.605   1.546
 1572SOL    HW1 5615   1.834   5.686   1.548
 1572SOL    HW2 5616   1.762   5.571   1.639
 1573SOL     OW 5617   5.386   5.657   1.691
 1573SOL    HW1 5618   5.370   5.599   1.611
 1573SOL    HW2 5619   5.376   5.753   1.666
 1574SOL     OW 5620   5.974   3.279   1.930
 1574SOL    HW1 5621   5.897   3.333   1.965
 1574SOL    HW2 5622   5.996   3.207   1.995
 1575SOL     OW 5623   1.587   0.515   1.333
 1575SOL    HW1 5624   1.611   0.553   1.243
 1575SOL    HW2 5625   1.578   0.590   1.399
 1576SOL     OW 5626   0.790   6.085   2.380
 1576SOL    HW1 5627   0.723   6.149   2.343
 1576SOL    HW2 5628   0.778   5.995   2.337
 1577SOL     OW 5629   3.098   0.608   6.546
 1577SOL    HW1 5630   3.182   0.630   6.497
 1577SOL    HW2 5631   3.072   0.513   6.528
 1578SOL     OW 5632   4.704   1.018   0.153
 1578SOL    HW1 5633   4.776   0.950   0.141
 1578SOL    HW2 5634   4.615   0.977   0.130
 1579SOL     OW 5635   0.751   2.858   1.668
 1579SOL    HW1 5636   0.694   2.832   1.746
 1579SOL    HW2 5637   0.743   2.788   1.596
 1580SOL     OW 5638   3.354   4.184   3.408
 1580SOL    HW1 5639   3.340   4.267   3.354
 1580SOL    HW2 5640   3.339   4.104   3.351
 1581SOL     OW 5641   0.040   4.836   5.500
 1581SOL    HW1 5642   7.004   4.906   5.537
 1581SOL    HW2 5643   0.129   4.877   5.481
 1582SOL     OW 5644   4.083   5.757   4.919
 1582SOL    HW1 5645   4.085   5.788   4.824
 1582SOL    HW2 5646   4.121   5.829   4.978
 1583SOL     OW 5647   0.789   6.609   4.890
 1583SOL    HW1 5648   0.789   6.516   4.927
 1583SOL    HW2 5649   0.764   6.674   4.962
 1584SOL     OW 5650   1.290   4.426   6.934
 1584SOL    HW1 5651   1.343   4.359   6.985
 1584SOL    HW2 5652   1.352   4.497   6.898
 1585SOL     OW 5653   4.263   1.720   3.186
 1585SOL    HW1 5654   4.176   1.719   3.235
 1585SOL    HW2 5655   4.323   1.650   3.223
 1586SOL     OW 5656   3.474   4.914   3.132
 1586SOL    HW1 5657   3.409   4.973   3.180
 1586SOL    HW2 5658   3.463   4.820   3.162
 1587SOL     OW 5659   1.948   5.752   5.553
 1587SOL    HW1 5660   2.017   5.713   5.615
 1587SOL    HW2 5661   1.948   5.700   5.468
 1588SOL     OW 5662   4.478   0.007   2.615
 1588SOL    HW1 5663   4.399   0.063   2.636
 1588SOL    HW2 5664   4.561   0.052   2.648
 1589SOL     OW 5665   6.592   3.625   2.822
 1589SOL    HW1 5666   6.639   3.537   2.825
 1589SOL    HW2 5667   6.496   3.610   2.797
 1590SOL     OW 5668   5.584   2.218   3.546
 1590SOL    HW1 5669   5.563   2.245   3.452
 1590SOL    HW2 5670   5.675   2.250   3.571
 1591SOL     OW 5671   6.560   5.074   1.682
 1591SOL    HW1 5672   6.654   5.106   1.691
 1591SOL    HW2 5673   6.550   5.021   1.598
 1592SOL     OW 5674   1.447   4.286   0.098
 1592SOL    HW1 5675   1.433   4.189   0.118
 1592SOL    HW2 5676   1.454   4.337   0.184
 1593SOL     OW 5677   0.846   0.047   6.169
 1593SOL    HW1 5678   0.749   0.027   6.171
 1593SOL    HW2 5679   0.898   6.987   6.163
 1594SOL     OW 5680   6.685   6.631   1.733
 1594SOL    HW1 5681   6.651   6.725   1.737
 1594SOL    HW2 5682   6.693   6.603   1.637
 1595SOL     OW 5683   1.622   4.054   0.400
 1595SOL    HW1 5684   1.593   4.011   0.315
 1595SOL    HW2 5685   1.711   4.097   0.388
 1596SOL     OW 5686   5.775   3.566   3.083
 1596SOL    HW1 5687   5.833   3.504   3.137
 1596SOL    HW2 5688   5.679   3.544   3.100
 1597SOL     OW 5689   3.120   5.963   0.883
 1597SOL    HW1 5690   3.180   6.029   0.839
 1597SOL    HW2 5691   3.153   5.870   0.863
 1598SOL     OW 5692   1.213   5.579   6.593
 1598SOL    HW1 5693   1.160   5.527   6.660
 1598SOL    HW2 5694   1.191   5.676   6.602
 1599SOL     OW 5695   4.163   4.845   4.842
 1599SOL    HW1 5696   4.095   4.859   4.913
 1599SOL    HW2 5697   4.252   4.826   4.884
 1600SOL     OW 5698   2.800   0.192   2.021
 1600SOL    HW1 5699   2.790   0.271   2.082
 1600SOL    HW2 5700   2.852   0.219   1.940
 1601SOL     OW 5701   6.883   6.373   4.097
 1601SOL    HW1 5702   6.851   6.285   4.062
 1601SOL    HW2 5703   6.981   6.367   4.116
 1602SOL     OW 5704   4.814   5.448   4.037
 1602SOL    HW1 5705   4.741   5.401   3.987
 1602SOL    HW2 5706   4.798   5.547   4.033
 1603SOL     OW 5707   2.819   5.333   4.210
 1603SOL    HW1 5708   2.738   5.390   4.209
 1603SOL    HW2 5709   2.840   5.305   4.303
 1604SOL     OW 5710   4.163   4.701   1.532
 1604SOL    HW1 5711   4.108   4.650   1.598
 1604SOL    HW2 5712   4.148   4.799   1.545
 1605SOL     OW 5713   6.034   5.734   1.368
 1605SOL    HW1 5714   6.028   5.833   1.383
 1605SOL    HW2 5715   6.031   5.686   1.455
 1606SOL     OW 5716   3.863   5.321   5.347
 1606SOL    HW1 5717   3.798   5.374   5.292
 1606SOL    HW2 5718   3.951   5.316   5.300
 1607SOL     OW 5719   4.153   6.751   2.060
 1607SOL    HW1 5720   4.236   6.802   2.083
 1607SOL    HW2 5721   4.137   6.680   2.129
 1608SOL     OW 5722   6.661   0.242   3.459
 1608SOL    HW1 5723   6.603   0.256   3.539
 1608SOL    HW2 5724   6.756   0.267   3.482
 1609SOL     OW 5725   2.842   6.617   0.894
 1609SOL    HW1 5726   2.878   6.710   0.899
 1609SOL    HW2 5727   2.917   6.551   0.896
 1610SOL     OW 5728   4.671   6.419   0.787
 1610SOL    HW1 5729   4.694   6.322   0.775
 1610SOL    HW2 5730   4.729   6.474   0.728
 1611SOL     OW 5731   1.911   3.993   0.962
 1611SOL    HW1 5732   1.961   4.076   0.940
 1611SOL    HW2 5733   1.821   4.017   1.000
 1612SOL     OW 5734   3.056   6.136   1.449
 1612SOL    HW1 5735   3.032   6.174   1.360
 1612SOL    HW2 5736   3.143   6.087   1.442
 1613SOL     OW 5737   0.518   6.192   2.326
 1613SOL    HW1 5738   0.523   6.283   2.366
 1613SOL    HW2 5739   0.434   6.183   2.273
 1614SOL     OW 5740   5.549   2.086   6.384
 1614SOL    HW1 5741   5.630   2.091   6.442
 1614SOL    HW2 5742   5.546   1.997   6.338
 1615SOL     OW 5743   0.128   5.386   6.221
 1615SOL    HW1 5744   0.165   5.405   6.130
 1615SOL    HW2 5745   0.039   5.341   6.211
 1616SOL     OW 5746   3.828   0.567   4.664
 1616SOL    HW1 5747   3.794   0.654   4.629
 1616SOL    HW2 5748   3.928   0.565   4.657
 1617SOL     OW 5749   4.994   0.115   3.506
 1617SOL    HW1 5750   5.044   0.044   3.555
 1617SOL    HW2 5751   5.056   0.189   3.480
 1618SOL     OW 5752   1.484   5.701   2.463
 1618SOL    HW1 5753   1.464   5.621   2.521
 1618SOL    HW2 5754   1.461   5.679   2.368
 1619SOL     OW 5755   1.013   5.142   6.684
 1619SOL    HW1 5756   0.932   5.150   6.627
 1619SOL    HW2 5757   0.995   5.080   6.760
 1620SOL     OW 5758   3.210   5.191   1.358
 1620SOL    HW1 5759   3.241   5.277   1.318
 1620SOL    HW2 5760   3.278   5.157   1.423
 1621SOL     OW 5761   6.417   0.194   1.413
 1621SOL    HW1 5762   6.379   0.104   1.432
 1621SOL    HW2 5763   6.369   0.263   1.467
 1622SOL     OW 5764   0.303   3.869   6.041
 1622SOL    HW1 5765   0.355   3.826   6.115
 1622SOL    HW2 5766   0.207   3.877   6.068
 1623SOL     OW 5767   0.313   2.038   4.450
 1623SOL    HW1 5768   0.387   1.988   4.404
 1623SOL    HW2 5769   0.225   2.001   4.422
 1624SOL     OW 5770   4.449   1.244   6.955
 1624SOL    HW1 5771   4.374   1.218   7.016
 1624SOL    HW2 5772   4.469   1.341   6.966
 1625SOL     OW 5773   1.384   5.069   6.838
 1625SOL    HW1 5774   1.322   5.137   6.876
 1625SOL    HW2 5775   1.413   5.097   6.746
 1626SOL     OW 5776   2.885   1.353   2.011
 1626SOL    HW1 5777   2.898   1.451   1.997
 1626SOL    HW2 5778   2.794   1.327   1.981
 1627SOL     OW 5779   5.737   3.074   4.105
 1627SOL    HW1 5780   5.647   3.096   4.067
 1627SOL    HW2 5781   5.762   3.143   4.173
 1628SOL     OW 5782   4.736   5.894   6.767
 1628SOL    HW1 5783   4.696   5.964   6.827
 1628SOL    HW2 5784   4.819   5.858   6.810
 1629SOL     OW 5785   2.667   1.722   3.090
 1629SOL    HW1 5786   2.658   1.702   2.993
 1629SOL    HW2 5787   2.759   1.698   3.121
 1630SOL     OW 5788   6.535   4.097   5.898
 1630SOL    HW1 5789   6.626   4.096   5.941
 1630SOL    HW2 5790   6.472   4.152   5.952
 1631SOL     OW 5791   6.658   3.040   0.678
 1631SOL    HW1 5792   6.720   3.030   0.600
 1631SOL    HW2 5793   6.574   3.086   0.648
 1632SOL     OW 5794   4.864   4.807   2.702
 1632SOL    HW1 5795   4.841   4.729   2.644
 1632SOL    HW2 5796   4.815   4.799   2.789
 1633SOL     OW 5797   4.785   4.041   4.420
 1633SOL    HW1 5798   4.744   4.119   4.467
 1633SOL    HW2 5799   4.844   3.990   4.484
 1634SOL     OW 5800   4.010   0.867   4.479
 1634SOL    HW1 5801   4.028   0.798   4.409
 1634SOL    HW2 5802   4.007   0.957   4.437
 1635SOL     OW 5803   2.288   5.340   6.216
 1635SOL    HW1 5804   2.226   5.412   6.246
 1635SOL    HW2 5805   2.239   5.277   6.156
 1636SOL     OW 5806   3.931   5.307   0.698
 1636SOL    HW1 5807   3.869   5.364   0.644
 1636SOL    HW2 5808   4.022   5.348   0.699
 1637SOL     OW 5809   6.561   6.503   4.092
 1637SOL    HW1 5810   6.644   6.477   4.041
 1637SOL    HW2 5811   6.587   6.537   4.183
 1638SOL     OW 5812   0.281   2.819   1.442
 1638SOL    HW1 5813   0.268   2.882   1.518
 1638SOL    HW2 5814   0.275   2.868   1.355
 1639SOL     OW 5815   6.979   4.092   2.182
 1639SOL    HW1 5816   0.028   4.155   2.202
 1639SOL    HW2 5817   7.003   4.000   2.213
 1640SOL     OW 5818   6.916   0.120   0.720
 1640SOL    HW1 5819   6.824   0.145   0.691
 1640SOL    HW2 5820   6.934   0.025   0.694
 1641SOL     OW 5821   0.019   2.603   3.459
 1641SOL    HW1 5822   6.995   2.516   3.459
 1641SOL    HW2 5823   0.062   2.617   3.549
 1642SOL     OW 5824   0.036   2.699   6.158
 1642SOL    HW1 5825   6.997   2.766   6.122
 1642SOL    HW2 5826   0.012   2.676   6.252
 1643SOL     OW 5827   3.450   4.938   2.860
 1643SOL    HW1 5828   3.358   4.912   2.833
 1643SOL    HW2 5829   3.462   4.922   2.958
 1644SOL     OW 5830   5.813   3.333   6.872
 1644SOL    HW1 5831   5.875   3.280   6.929
 1644SOL    HW2 5832   5.741   3.374   6.929
 1645SOL     OW 5833   2.644   6.737   6.175
 1645SOL    HW1 5834   2.665   6.833   6.193
 1645SOL    HW2 5835   2.555   6.729   6.131
 1646SOL     OW 5836   1.864   6.284   0.387
 1646SOL    HW1 5837   1.871   6.188   0.415
 1646SOL    HW2 5838   1.944   6.308   0.331
 1647SOL     OW 5839   5.737   2.809   4.132
 1647SOL    HW1 5840   5.662   2.794   4.196
 1647SOL    HW2 5841   5.760   2.906   4.128
 1648SOL     OW 5842   5.366   6.331   0.324
 1648SOL    HW1 5843   5.340   6.242   0.285
 1648SOL    HW2 5844   5.287   6.370   0.372
 1649SOL     OW 5845   3.665   1.183   3.512
 1649SOL    HW1 5846   3.598   1.114   3.483
 1649SOL    HW2 5847   3.739   1.138   3.562
 1650SOL     OW 5848   1.275   5.651   6.024
 1650SOL    HW1 5849   1.259   5.666   5.927
 1650SOL    HW2 5850   1.217   5.712   6.078
 1651SOL     OW 5851   0.692   2.264   2.730
 1651SOL    HW1 5852   0.658   2.318   2.807
 1651SOL    HW2 5853   0.648   2.296   2.645
 1652SOL     OW 5854   1.098   3.546   2.060
 1652SOL    HW1 5855   1.179   3.488   2.050
 1652SOL    HW2 5856   1.036   3.505   2.127
 1653SOL     OW 5857   0.206   5.551   2.096
 1653SOL    HW1 5858   0.246   5.473   2.048
 1653SOL    HW2 5859   0.107   5.551   2.082
 1654SOL     OW 5860   0.336   2.949   1.200
 1654SOL    HW1 5861   0.345   2.885   1.124
 1654SOL    HW2 5862   0.273   3.022   1.175
 1655SOL     OW 5863   6.645   1.454   4.635
 1655SOL    HW1 5864   6.636   1.398   4.553
 1655SOL    HW2 5865   6.741   1.481   4.646
 1656SOL     OW 5866   2.842   5.586   3.961
 1656SOL    HW1 5867   2.753   5.544   3.981
 1656SOL    HW2 5868   2.911   5.515   3.952
 1657SOL     OW 5869   6.395   0.806   5.295
 1657SOL    HW1 5870   6.402   0.711   5.264
 1657SOL    HW2 5871   6.321   0.852   5.246
 1658SOL     OW 5872   0.114   0.283   0.835
 1658SOL    HW1 5873   0.181   0.208   0.831
 1658SOL    HW2 5874   0.025   0.249   0.803
 1659SOL     OW 5875   3.605   0.216   6.929
 1659SOL    HW1 5876   3.682   0.158   6.956
 1659SOL    HW2 5877   3.629   0.312   6.941
 1660SOL     OW 5878   1.232   0.337   2.356
 1660SOL    HW1 5879   1.207   0.240   2.361
 1660SOL    HW2 5880   1.307   0.349   2.290
 1661SOL     OW 5881   3.029   5.484   2.089
 1661SOL    HW1 5882   2.990   5.471   2.180
 1661SOL    HW2 5883   3.126   5.509   2.097
 1662SOL     OW 5884   6.438   0.368   5.137
 1662SOL    HW1 5885   6.375   0.355   5.213
 1662SOL    HW2 5886   6.484   0.456   5.146
 1663SOL     OW 5887   5.245   5.658   2.274
 1663SOL    HW1 5888   5.265   5.561   2.271
 1663SOL    HW2 5889   5.314   5.708   2.220
 1664SOL     OW 5890   1.816   0.025   5.387
 1664SOL    HW1 5891   1.864   6.964   5.371
 1664SOL    HW2 5892   1.871   0.101   5.353
 1665SOL     OW 5893   0.055   3.700   1.928
 1665SOL    HW1 5894   0.050   3.667   1.834
 1665SOL    HW2 5895   6.993   3.741   1.954
 1666SOL     OW 5896   5.600   6.918   6.881
 1666SOL    HW1 5897   5.579   6.837   6.936
 1666SOL    HW2 5898   5.546   6.996   6.914
 1667SOL     OW 5899   6.487   6.422   1.369
 1667SOL    HW1 5900   6.535   6.445   1.283
 1667SOL    HW2 5901   6.394   6.459   1.365
 1668SOL     OW 5902   4.936   4.686   3.183
 1668SOL    HW1 5903   4.936   4.588   3.204
 1668SOL    HW2 5904   5.001   4.733   3.243
 1669SOL     OW 5905   6.689   4.509   5.710
 1669SOL    HW1 5906   6.767   4.569   5.691
 1669SOL    HW2 5907   6.710   4.417   5.676
 1670SOL     OW 5908   0.863   4.579   5.674
 1670SOL    HW1 5909   0.850   4.496   5.620
 1670SOL    HW2 5910   0.887   4.655   5.613
 1671SOL     OW 5911   5.659   1.856   3.274
 1671SOL    HW1 5912   5.649   1.784   3.205
 1671SOL    HW2 5913   5.667   1.945   3.228
 1672SOL     OW 5914   1.488   4.413   6.118
 1672SOL    HW1 5915   1.454   4.395   6.025
 1672SOL    HW2 5916   1.571   4.469   6.113
 1673SOL     OW 5917   1.843   1.609   4.764
 1673SOL    HW1 5918   1.795   1.537   4.814
 1673SOL    HW2 5919   1.799   1.623   4.675
 1674SOL     OW 5920   6.563   2.633   2.242
 1674SOL    HW1 5921   6.553   2.582   2.328
 1674SOL    HW2 5922   6.661   2.645   2.222
 1675SOL     OW 5923   5.290   0.168   1.110
 1675SOL    HW1 5924   5.236   0.085   1.093
 1675SOL    HW2 5925   5.315   0.210   1.022
 1676SOL     OW 5926   2.210   2.306   2.257
 1676SOL    HW1 5927   2.214   2.405   2.261
 1676SOL    HW2 5928   2.249   2.267   2.341
 1677SOL     OW 5929   4.058   3.726   3.418
 1677SOL    HW1 5930   4.089   3.755   3.327
 1677SOL    HW2 5931   4.058   3.626   3.423
 1678SOL     OW 5932   0.330   5.711   1.542
 1678SOL    HW1 5933   0.242   5.673   1.568
 1678SOL    HW2 5934   0.321   5.810   1.527
 1679SOL     OW 5935   1.553   1.281   4.707
 1679SOL    HW1 5936   1.507   1.256   4.792
 1679SOL    HW2 5937   1.651   1.262   4.715
 1680SOL     OW 5938   5.389   3.289   5.612
 1680SOL    HW1 5939   5.421   3.298   5.518
 1680SOL    HW2 5940   5.291   3.306   5.616
 1681SOL     OW 5941   2.266   5.589   4.843
 1681SOL    HW1 5942   2.184   5.533   4.833
 1681SOL    HW2 5943   2.243   5.685   4.829
 1682SOL     OW 5944   2.358   1.073   5.873
 1682SOL    HW1 5945   2.380   1.049   5.968
 1682SOL    HW2 5946   2.306   0.998   5.832
 1683SOL     OW 5947   5.743   6.236   3.221
 1683SOL    HW1 5948   5.834   6.272   3.242
 1683SOL    HW2 5949   5.754   6.147   3.175
 1684SOL     OW 5950   0.807   5.002   1.860
 1684SOL    HW1 5951   0.721   5.032   1.819
 1684SOL    HW2 5952   0.789   4.959   1.948
 1685SOL     OW 5953   2.028   2.030   5.690
 1685SOL    HW1 5954   2.056   2.028   5.786
 1685SOL    HW2 5955   2.064   1.948   5.644
 1686SOL     OW 5956   3.619   5.764   4.049
 1686SOL    HW1 5957   3.656   5.684   4.096
 1686SOL    HW2 5958   3.596   5.835   4.115
 1687SOL     OW 5959   0.480   3.708   1.861
 1687SOL    HW1 5960   0.390   3.677   1.892
 1687SOL    HW2 5961   0.471   3.754   1.773
 1688SOL     OW 5962   1.926   2.556   3.619
 1688SOL    HW1 5963   1.941   2.458   3.634
 1688SOL    HW2 5964   2.010   2.606   3.640
 1689SOL     OW 5965   6.329   1.216   3.119
 1689SOL    HW1 5966   6.267   1.191   3.193
 1689SOL    HW2 5967   6.303   1.168   3.035
 1690SOL     OW 5968   1.003   3.150   4.369
 1690SOL    HW1 5969   0.925   3.180   4.423
 1690SOL    HW2 5970   1.075   3.115   4.430
 1691SOL     OW 5971   5.284   3.283   4.088
 1691SOL    HW1 5972   5.185   3.297   4.097
 1691SOL    HW2 5973   5.324   3.358   4.036
 1692SOL     OW 5974   5.385   5.345   1.266
 1692SOL    HW1 5975   5.362   5.249   1.253
 1692SOL    HW2 5976   5.485   5.356   1.262
 1693SOL     OW 5977   6.860   1.818   4.669
 1693SOL    HW1 5978   6.799   1.739   4.655
 1693SOL    HW2 5979   6.862   1.873   4.585
 1694SOL     OW 5980   6.149   0.649   4.613
 1694SOL    HW1 5981   6.190   0.558   4.604
 1694SOL    HW2 5982   6.162   0.700   4.528
 1695SOL     OW 5983   3.600   0.730   0.001
 1695SOL    HW1 5984   3.575   0.771   0.089
 1695SOL    HW2 5985   3.593   0.800   6.955
 1696SOL     OW 5986   3.875   5.807   0.684
 1696SOL    HW1 5987   3.962   5.791   0.730
 1696SOL    HW2 5988   3.838   5.895   0.713
 1697SOL     OW 5989   5.895   2.543   0.908
 1697SOL    HW1 5990   5.807   2.589   0.895
 1697SOL    HW2 5991   5.886   2.446   0.884
 1698SOL     OW 5992   3.151   0.812   1.533
 1698SOL    HW1 5993   3.178   0.850   1.621
 1698SOL    HW2 5994   3.191   0.720   1.523
 1699SOL     OW 5995   2.659   1.954   5.758
 1699SOL    HW1 5996   2.671   1.972   5.855
 1699SOL    HW2 5997   2.710   2.023   5.705
 1700SOL     OW 5998   5.710   3.262   3.739
 1700SOL    HW1 5999   5.616   3.228   3.731
 1700SOL    HW2 6000   5.710   3.349   3.790
 1701SOL     OW 6001   5.885   5.157   5.328
 1701SOL    HW1 6002   5.983   5.159   5.349
 1701SOL    HW2 6003   5.834   5.162   5.414
 1702SOL     OW 6004   1.081   1.385   6.548
 1702SOL    HW1 6005   1.003   1.431   6.507
 1702SOL    HW2 6006   1.082   1.403   6.647
 1703SOL     OW 6007   4.493   1.562   6.114
 1703SOL    HW1 6008   4.582   1.516   6.120
 1703SOL    HW2 6009   4.421   1.493   6.108
 1704SOL     OW 6010   1.095   1.841   6.674
 1704SOL    HW1 6011   1.045   1.798   6.748
 1704SOL    HW2 6012   1.147   1.919   6.709
 1705SOL     OW 6013   3.867   1.878   1.714
 1705SOL    HW1 6014   3.791   1.917   1.766
 1705SOL    HW2 6015   3.937   1.843   1.777
 1706SOL     OW 6016   4.639   1.582   1.222
 1706SOL    HW1 6017   4.578   1.503   1.222
 1706SOL    HW2 6018   4.720   1.561   1.277
 1707SOL     OW 6019   4.828   2.171   2.446
 1707SOL    HW1 6020   4.773   2.123   2.514
 1707SOL    HW2 6021   4.807   2.268   2.450
 1708SOL     OW 6022   4.421   5.368   1.627
 1708SOL    HW1 6023   4.399   5.456   1.670
 1708SOL    HW2 6024   4.349   5.302   1.647
 1709SOL     OW 6025   3.957   6.451   0.674
 1709SOL    HW1 6026   4.000   6.529   0.629
 1709SOL    HW2 6027   4.014   6.420   0.750
 1710SOL     OW 6028   4.053   4.782   3.142
 1710SOL    HW1 6029   4.105   4.739   3.068
 1710SOL    HW2 6030   3.969   4.731   3.158
 1711SOL     OW 6031   2.368   4.941   5.218
 1711SOL    HW1 6032   2.394   4.876   5.289
 1711SOL    HW2 6033   2.435   4.939   5.144
 1712SOL     OW 6034   6.880   2.276   4.691
 1712SOL    HW1 6035   6.817   2.261   4.616
 1712SOL    HW2 6036   6.963   2.321   4.657
 1713SOL     OW 6037   3.815   1.084   3.008
 1713SOL    HW1 6038   3.724   1.125   3.021
 1713SOL    HW2 6039   3.872   1.105   3.088
 1714SOL     OW 6040   3.643   1.833   0.242
 1714SOL    HW1 6041   3.621   1.878   0.156
 1714SOL    HW2 6042   3.683   1.743   0.223
 1715SOL     OW 6043   2.178   5.911   2.699
 1715SOL    HW1 6044   2.087   5.904   2.739
 1715SOL    HW2 6045   2.170   5.940   2.604
 1716SOL     OW 6046   4.606   0.103   4.035
 1716SOL    HW1 6047   4.586   0.192   3.994
 1716SOL    HW2 6048   4.687   0.063   3.992
 1717SOL     OW 6049   3.620   5.423   5.201
 1717SOL    HW1 6050   3.629   5.371   5.116
 1717SOL    HW2 6051   3.548   5.382   5.257
 1718SOL     OW 6052   2.704   1.895   2.446
 1718SOL    HW1 6053   2.626   1.877   2.386
 1718SOL    HW2 6054   2.789   1.884   2.395
 1719SOL     OW 6055   1.884   4.612   0.915
 1719SOL    HW1 6056   1.862   4.534   0.973
 1719SOL    HW2 6057   1.818   4.686   0.931
 1720SOL     OW 6058   0.148   2.658   5.668
 1720SOL    HW1 6059   0.139   2.629   5.763
 1720SOL    HW2 6060   0.192   2.748   5.663
 1721SOL     OW 6061   1.156   0.483   1.901
 1721SOL    HW1 6062   1.141   0.404   1.961
 1721SOL    HW2 6063   1.253   0.490   1.880
 1722SOL     OW 6064   3.681   1.890   3.149
 1722SOL    HW1 6065   3.692   1.988   3.161
 1722SOL    HW2 6066   3.722   1.861   3.063
 1723SOL     OW 6067   4.385   2.160   6.472
 1723SOL    HW1 6068   4.375   2.196   6.379
 1723SOL    HW2 6069   4.308   2.191   6.529
 1724SOL     OW 6070   6.561   2.266   1.833
 1724SOL    HW1 6071   6.598   2.353   1.865
 1724SOL    HW2 6072   6.615   2.233   1.756
 1725SOL     OW 6073   1.899   5.203   6.755
 1725SOL    HW1 6074   1.981   5.244   6.715
 1725SOL    HW2 6075   1.901   5.216   6.854
 1726SOL     OW 6076   5.575   3.848   3.953
 1726SOL    HW1 6077   5.537   3.919   4.013
 1726SOL    HW2 6078   5.501   3.808   3.899
 1727SOL     OW 6079   3.744   3.617   3.020
 1727SOL    HW1 6080   3.787   3.607   2.931
 1727SOL    HW2 6081   3.764   3.537   3.077
 1728SOL     OW 6082   4.784   4.076   5.504
 1728SOL    HW1 6083   4.837   4.155   5.537
 1728SOL    HW2 6084   4.806   4.059   5.408
 1729SOL     OW 6085   0.856   3.870   3.149
 1729SOL    HW1 6086   0.886   3.804   3.080
 1729SOL    HW2 6087   0.782   3.830   3.203
 1730SOL     OW 6088   3.113   6.482   5.132
 1730SOL    HW1 6089   3.035   6.504   5.191
 1730SOL    HW2 6090   3.142   6.565   5.084
 1731SOL     OW 6091   5.695   5.153   4.032
 1731SOL    HW1 6092   5.616   5.091   4.036
 1731SOL    HW2 6093   5.775   5.109   4.072
 1732SOL     OW 6094   1.859   4.474   6.531
 1732SOL    HW1 6095   1.927   4.401   6.524
 1732SOL    HW2 6096   1.836   4.490   6.627
 1733SOL     OW 6097   2.344   4.290   1.454
 1733SOL    HW1 6098   2.443   4.289   1.466
 1733SOL    HW2 6099   2.301   4.251   1.536
 1734SOL     OW 6100   5.914   3.028   1.061
 1734SOL    HW1 6101   6.004   3.042   1.019
 1734SOL    HW2 6102   5.920   3.045   1.159
 1735SOL     OW 6103   4.201   5.764   6.130
 1735SOL    HW1 6104   4.162   5.727   6.046
 1735SOL    HW2 6105   4.130   5.814   6.181
 1736SOL     OW 6106   4.272   4.047   0.711
 1736SOL    HW1 6107   4.361   4.094   0.710
 1736SOL    HW2 6108   4.239   4.040   0.805
 1737SOL     OW 6109   5.181   0.222   4.641
 1737SOL    HW1 6110   5.260   0.161   4.648
 1737SOL    HW2 6111   5.189   0.276   4.558
 1738SOL     OW 6112   1.606   3.785   4.703
 1738SOL    HW1 6113   1.648   3.768   4.792
 1738SOL    HW2 6114   1.512   3.750   4.704
 1739SOL     OW 6115   6.214   0.404   4.548
 1739SOL    HW1 6116   6.288   0.366   4.493
 1739SOL    HW2 6117   6.175   0.333   4.607
 1740SOL     OW 6118   6.748   1.889   4.959
 1740SOL    HW1 6119   6.775   1.873   4.864
 1740SOL    HW2 6120   6.667   1.834   4.980
 1741SOL     OW 6121   2.479   1.543   3.468
 1741SOL    HW1 6122   2.543   1.595   3.411
 1741SOL    HW2 6123   2.426   1.606   3.524
 1742SOL     OW 6124   5.711   1.102   6.154
 1742SOL    HW1 6125   5.667   1.188   6.178
 1742SOL    HW2 6126   5.726   1.048   6.236
 1743SOL     OW 6127   1.317   1.247   2.887
 1743SOL    HW1 6128   1.296   1.151   2.869
 1743SOL    HW2 6129   1.416   1.256   2.903
 1744SOL     OW 6130   4.921   2.654   2.993
 1744SOL    HW1 6131   4.862   2.584   2.952
 1744SOL    HW2 6132   4.972   2.614   3.069
 1745SOL     OW 6133   6.553   6.398   2.242
 1745SOL    HW1 6134   6.498   6.318   2.265
 1745SOL    HW2 6135   6.535   6.472   2.307
 1746SOL     OW 6136   2.099   3.770   3.880
 1746SOL    HW1 6137   2.102   3.679   3.920
 1746SOL    HW2 6138   2.106   3.763   3.780
 1747SOL     OW 6139   3.959   1.262   2.106
 1747SOL    HW1 6140   3.969   1.257   2.205
 1747SOL    HW2 6141   3.861   1.266   2.083
 1748SOL     OW 6142   6.281   1.361   4.431
 1748SOL    HW1 6143   6.268   1.358   4.530
 1748SOL    HW2 6144   6.379   1.358   4.409
 1749SOL     OW 6145   3.400   6.399   0.221
 1749SOL    HW1 6146   3.411   6.415   0.319
 1749SOL    HW2 6147   3.304   6.374   0.202
 1750SOL     OW 6148   4.030   0.305   4.859
 1750SOL    HW1 6149   4.110   0.310   4.920
 1750SOL    HW2 6150   3.949   0.335   4.909
 1751SOL     OW 6151   5.987   2.451   4.697
 1751SOL    HW1 6152   6.031   2.374   4.652
 1751SOL    HW2 6153   6.012   2.536   4.650
 1752SOL     OW 6154   6.238   1.171   1.294
 1752SOL    HW1 6155   6.334   1.199   1.294
 1752SOL    HW2 6156   6.223   1.102   1.223
 1753SOL     OW 6157   6.808   1.640   1.828
 1753SOL    HW1 6158   6.713   1.606   1.834
 1753SOL    HW2 6159   6.867   1.579   1.881
 1754SOL     OW 6160   2.311   6.029   5.915
 1754SOL    HW1 6161   2.406   5.999   5.927
 1754SOL    HW2 6162   2.253   5.985   5.983
 1755SOL     OW 6163   6.715   6.120   5.631
 1755SOL    HW1 6164   6.753   6.170   5.553
 1755SOL    HW2 6165   6.701   6.183   5.708
 1756SOL     OW 6166   4.418   0.033   6.471
 1756SOL    HW1 6167   4.387   0.118   6.428
 1756SOL    HW2 6168   4.514   0.017   6.448
 1757SOL     OW 6169   3.084   5.070   4.304
 1757SOL    HW1 6170   3.174   5.085   4.344
 1757SOL    HW2 6171   3.015   5.120   4.357
 1758SOL     OW 6172   1.362   6.973   4.851
 1758SOL    HW1 6173   1.273   6.969   4.806
 1758SOL    HW2 6174   1.351   7.002   4.946
 1759SOL     OW 6175   1.288   6.622   5.853
 1759SOL    HW1 6176   1.240   6.699   5.810
 1759SOL    HW2 6177   1.343   6.575   5.785
 1760SOL     OW 6178   6.234   0.987   5.182
 1760SOL    HW1 6179   6.265   1.013   5.091
 1760SOL    HW2 6180   6.292   1.031   5.251
 1761SOL     OW 6181   0.304   1.047   0.868
 1761SOL    HW1 6182   0.237   0.978   0.841
 1761SOL    HW2 6183   0.394   1.005   0.877
 1762SOL     OW 6184   0.369   1.334   4.795
 1762SOL    HW1 6185   0.322   1.414   4.757
 1762SOL    HW2 6186   0.465   1.356   4.812
 1763SOL     OW 6187   0.753   4.110   5.237
 1763SOL    HW1 6188   0.654   4.117   5.236
 1763SOL    HW2 6189   0.783   4.046   5.166
 1764SOL     OW 6190   0.828   3.772   2.212
 1764SOL    HW1 6191   0.918   3.811   2.190
 1764SOL    HW2 6192   0.763   3.797   2.140
 1765SOL     OW 6193   4.374   2.559   1.768
 1765SOL    HW1 6194   4.393   2.534   1.673
 1765SOL    HW2 6195   4.433   2.635   1.795
 1766SOL     OW 6196   5.068   4.269   4.129
 1766SOL    HW1 6197   5.097   4.323   4.207
 1766SOL    HW2 6198   5.146   4.220   4.091
 1767SOL     OW 6199   0.606   4.845   2.667
 1767SOL    HW1 6200   0.593   4.903   2.587
 1767SOL    HW2 6201   0.649   4.898   2.740
 1768SOL     OW 6202   4.741   0.527   0.847
 1768SOL    HW1 6203   4.670   0.595   0.827
 1768SOL    HW2 6204   4.722   0.443   0.796
 1769SOL     OW 6205   5.779   0.891   0.073
 1769SOL    HW1 6206   5.733   0.915   7.012
 1769SOL    HW2 6207   5.871   0.929   0.073
 1770SOL     OW 6208   0.747   4.310   6.023
 1770SOL    HW1 6209   0.824   4.246   6.027
 1770SOL    HW2 6210   0.690   4.298   6.104
 1771SOL     OW 6211   0.969   5.160   0.185
 1771SOL    HW1 6212   1.032   5.191   0.114
 1771SOL    HW2 6213   1.000   5.072   0.220
 1772SOL     OW 6214   3.793   5.381   3.801
 1772SOL    HW1 6215   3.733   5.308   3.770
 1772SOL    HW2 6216   3.885   5.345   3.817
 1773SOL     OW 6217   1.218   1.420   5.001
 1773SOL    HW1 6218   1.194   1.468   5.085
 1773SOL    HW2 6219   1.136   1.377   4.963
 1774SOL     OW 6220   5.900   6.874   2.299
 1774SOL    HW1 6221   5.880   6.849   2.204
 1774SOL    HW2 6222   5.913   6.791   2.353
 1775SOL     OW 6223   2.172   5.508   5.983
 1775SOL    HW1 6224   2.113   5.574   5.935
 1775SOL    HW2 6225   2.150   5.415   5.951
 1776SOL     OW 6226   4.738   0.722   5.683
 1776SOL    HW1 6227   4.691   0.754   5.601
 1776SOL    HW2 6228   4.677   0.660   5.734
 1777SOL     OW 6229   3.969   6.782   6.391
 1777SOL    HW1 6230   3.920   6.748   6.471
 1777SOL    HW2 6231   3.903   6.812   6.322
 1778SOL     OW 6232   5.052   1.369   4.403
 1778SOL    HW1 6233   5.052   1.270   4.419
 1778SOL    HW2 6234   5.036   1.388   4.307
 1779SOL     OW 6235   5.189   6.838   5.593
 1779SOL    HW1 6236   5.194   6.900   5.515
 1779SOL    HW2 6237   5.102   6.850   5.640
 1780SOL     OW 6238   1.584   5.040   4.555
 1780SOL    HW1 6239   1.547   5.098   4.483
 1780SOL    HW2 6240   1.597   4.948   4.521
 1781SOL     OW 6241   4.991   7.020   4.694
 1781SOL    HW1 6242   4.966   6.994   4.787
 1781SOL    HW2 6243   5.039   0.083   4.696
 1782SOL     OW 6244   1.953   1.633   2.891
 1782SOL    HW1 6245   1.862   1.614   2.855
 1782SOL    HW2 6246   2.008   1.679   2.821
 1783SOL     OW 6247   2.584   3.288   6.273
 1783SOL    HW1 6248   2.486   3.273   6.284
 1783SOL    HW2 6249   2.630   3.200   6.262
 1784SOL     OW 6250   2.215   0.696   1.336
 1784SOL    HW1 6251   2.281   0.771   1.337
 1784SOL    HW2 6252   2.263   0.609   1.323
 1785SOL     OW 6253   0.118   6.395   4.121
 1785SOL    HW1 6254   0.185   6.365   4.190
 1785SOL    HW2 6255   0.162   6.400   4.032
 1786SOL     OW 6256   1.743   5.475   0.821
 1786SOL    HW1 6257   1.697   5.403   0.872
 1786SOL    HW2 6258   1.836   5.445   0.799
 1787SOL     OW 6259   1.257   2.269   5.261
 1787SOL    HW1 6260   1.282   2.344   5.322
 1787SOL    HW2 6261   1.268   2.298   5.166
 1788SOL     OW 6262   4.880   3.834   0.307
 1788SOL    HW1 6263   4.966   3.882   0.326
 1788SOL    HW2 6264   4.896   3.763   0.238
 1789SOL     OW 6265   6.365   3.316   2.157
 1789SOL    HW1 6266   6.315   3.263   2.226
 1789SOL    HW2 6267   6.303   3.377   2.109
 1790SOL     OW 6268   2.937   1.367   4.527
 1790SOL    HW1 6269   2.854   1.398   4.572
 1790SOL    HW2 6270   3.000   1.444   4.517
 1791SOL     OW 6271   5.855   0.837   3.958
 1791SOL    HW1 6272   5.814   0.811   4.046
 1791SOL    HW2 6273   5.868   0.936   3.956
 1792SOL     OW 6274   6.805   1.710   5.342
 1792SOL    HW1 6275   6.705   1.711   5.345
 1792SOL    HW2 6276   6.839   1.804   5.335
 1793SOL     OW 6277   6.877   1.138   5.246
 1793SOL    HW1 6278   6.805   1.069   5.234
 1793SOL    HW2 6279   6.837   1.229   5.235
 1794SOL     OW 6280   6.211   0.483   6.739
 1794SOL    HW1 6281   6.171   0.420   6.805
 1794SOL    HW2 6282   6.274   0.545   6.785
 1795SOL     OW 6283   6.040   4.948   0.186
 1795SOL    HW1 6284   6.017   4.851   0.194
 1795SOL    HW2 6285   5.965   5.003   0.224
 1796SOL     OW 6286   1.527   0.943   5.426
 1796SOL    HW1 6287   1.625   0.947   5.444
 1796SOL    HW2 6288   1.488   0.864   5.475
 1797SOL     OW 6289   1.784   6.905   5.033
 1797SOL    HW1 6290   1.715   6.936   4.968
 1797SOL    HW2 6291   1.784   6.806   5.038
 1798SOL     OW 6292   3.807   3.240   4.368
 1798SOL    HW1 6293   3.759   3.205   4.288
 1798SOL    HW2 6294   3.796   3.340   4.372
 1799SOL     OW 6295   3.921   1.020   6.771
 1799SOL    HW1 6296   3.948   1.083   6.843
 1799SOL    HW2 6297   3.948   1.057   6.682
 1800SOL     OW 6298   4.946   4.412   3.925
 1800SOL    HW1 6299   4.976   4.370   4.010
 1800SOL    HW2 6300   4.879   4.484   3.946
 1801SOL     OW 6301   1.189   1.489   1.990
 1801SOL    HW1 6302   1.218   1.457   2.080
 1801SOL    HW2 6303   1.090   1.480   1.981
 1802SOL     OW 6304   6.379   5.228   3.627
 1802SOL    HW1 6305   6.324   5.237   3.710
 1802SOL    HW2 6306   6.356   5.302   3.564
 1803SOL     OW 6307   0.301   6.369   2.618
 1803SOL    HW1 6308   0.243   6.447   2.643
 1803SOL    HW2 6309   0.259   6.284   2.652
 1804SOL     OW 6310   3.081   3.623   6.128
 1804SOL    HW1 6311   3.080   3.608   6.029
 1804SOL    HW2 6312   3.121   3.543   6.174
 1805SOL     OW 6313   0.870   6.415   5.955
 1805SOL    HW1 6314   0.967   6.438   5.954
 1805SOL    HW2 6315   0.833   6.432   6.045
 1806SOL     OW 6316   6.801   2.098   2.468
 1806SOL    HW1 6317   6.839   2.143   2.387
 1806SOL    HW2 6318   6.723   2.151   2.502
 1807SOL     OW 6319   6.454   3.742   0.607
 1807SOL    HW1 6320   6.488   3.665   0.553
 1807SOL    HW2 6321   6.377   3.711   0.663
 1808SOL     OW 6322   5.357   2.644   5.089
 1808SOL    HW1 6323   5.360   2.743   5.100
 1808SOL    HW2 6324   5.305   2.604   5.164
 1809SOL     OW 6325   3.318   1.873   5.292
 1809SOL    HW1 6326   3.255   1.951   5.284
 1809SOL    HW2 6327   3.294   1.818   5.372
 1810SOL     OW 6328   0.568   0.511   3.960
 1810SOL    HW1 6329   0.496   0.476   3.899
 1810SOL    HW2 6330   0.539   0.500   4.055
 1811SOL     OW 6331   4.434   4.836   1.894
 1811SOL    HW1 6332   4.530   4.836   1.868
 1811SOL    HW2 6333   4.389   4.755   1.857
 1812SOL     OW 6334   4.249   0.167   5.952
 1812SOL    HW1 6335   4.258   0.122   6.041
 1812SOL    HW2 6336   4.297   0.113   5.883
 1813SOL     OW 6337   4.778   4.587   2.537
 1813SOL    HW1 6338   4.691   4.544   2.560
 1813SOL    HW2 6339   4.773   4.626   2.445
 1814SOL     OW 6340   0.111   6.933   0.986
 1814SOL    HW1 6341   0.163   6.983   0.917
 1814SOL    HW2 6342   0.125   6.976   1.075
 1815SOL     OW 6343   5.543   5.912   2.318
 1815SOL    HW1 6344   5.567   5.851   2.394
 1815SOL    HW2 6345   5.537   5.859   2.234
 1816SOL     OW 6346   4.161   6.155   5.413
 1816SOL    HW1 6347   4.257   6.159   5.441
 1816SOL    HW2 6348   4.156   6.139   5.314
 1817SOL     OW 6349   3.276   1.482   2.843
 1817SOL    HW1 6350   3.205   1.527   2.896
 1817SOL    HW2 6351   3.357   1.541   2.837
 1818SOL     OW 6352   1.817   6.689   0.163
 1818SOL    HW1 6353   1.784   6.632   0.238
 1818SOL    HW2 6354   1.860   6.772   0.201
 1819SOL     OW 6355   0.727   4.606   2.611
 1819SOL    HW1 6356   0.686   4.691   2.644
 1819SOL    HW2 6357   0.702   4.531   2.672
 1820SOL     OW 6358   3.682   0.131   2.941
 1820SOL    HW1 6359   3.755   0.064   2.933
 1820SOL    HW2 6360   3.645   0.129   3.034
 1821SOL     OW 6361   3.213   0.680   2.077
 1821SOL    HW1 6362   3.285   0.741   2.043
 1821SOL    HW2 6363   3.154   0.730   2.139
 1822SOL     OW 6364   1.455   3.246   2.120
 1822SOL    HW1 6365   1.471   3.149   2.136
 1822SOL    HW2 6366   1.390   3.281   2.187
 1823SOL     OW 6367   3.535   6.332   2.662
 1823SOL    HW1 6368   3.629   6.307   2.687
 1823SOL    HW2 6369   3.499   6.266   2.596
 1824SOL     OW 6370   4.528   3.881   0.902
 1824SOL    HW1 6371   4.556   3.785   0.907
 1824SOL    HW2 6372   4.438   3.891   0.945
 1825SOL     OW 6373   1.275   2.774   4.729
 1825SOL    HW1 6374   1.297   2.825   4.646
 1825SOL    HW2 6375   1.360   2.739   4.769
 1826SOL     OW 6376   3.677   1.159   1.552
 1826SOL    HW1 6377   3.580   1.181   1.563
 1826SOL    HW2 6378   3.698   1.149   1.455
 1827SOL     OW 6379   5.090   5.018   0.914
 1827SOL    HW1 6380   5.118   5.004   0.819
 1827SOL    HW2 6381   4.992   5.032   0.918
 1828SOL     OW 6382   1.205   3.581   5.864
 1828SOL    HW1 6383   1.106   3.595   5.871
 1828SOL    HW2 6384   1.241   3.556   5.954
 1829SOL     OW 6385   3.731   0.768   3.575
 1829SOL    HW1 6386   3.649   0.801   3.529
 1829SOL    HW2 6387   3.739   0.811   3.665
 1830SOL     OW 6388   5.789   6.659   5.269
 1830SOL    HW1 6389   5.786   6.635   5.172
 1830SOL    HW2 6390   5.798   6.576   5.324
 1831SOL     OW 6391   5.192   5.653   2.570
 1831SOL    HW1 6392   5.255   5.721   2.535
 1831SOL    HW2 6393   5.173   5.672   2.667
 1832SOL     OW 6394   2.724   4.043   0.329
 1832SOL    HW1 6395   2.660   4.115   0.355
 1832SOL    HW2 6396   2.675   3.958   0.315
 1833SOL     OW 6397   4.571   6.864   1.626
 1833SOL    HW1 6398   4.633   6.847   1.550
 1833SOL    HW2 6399   4.490   6.806   1.615
 1834SOL     OW 6400   2.855   2.682   0.670
 1834SOL    HW1 6401   2.953   2.702   0.678
 1834SOL    HW2 6402   2.806   2.766   0.646
 1835SOL     OW 6403   0.963   5.301   1.280
 1835SOL    HW1 6404   0.882   5.284   1.224
 1835SOL    HW2 6405   0.955   5.252   1.367
 1836SOL     OW 6406   5.103   1.466   2.276
 1836SOL    HW1 6407   5.094   1.449   2.178
 1836SOL    HW2 6408   5.148   1.387   2.319
 1837SOL     OW 6409   2.261   0.869   5.673
 1837SOL    HW1 6410   2.217   0.784   5.702
 1837SOL    HW2 6411   2.213   0.906   5.593
 1838SOL     OW 6412   6.795   0.794   0.277
 1838SOL    HW1 6413   6.855   0.768   0.352
 1838SOL    HW2 6414   6.848   0.837   0.204
 1839SOL     OW 6415   6.258   1.729   6.959
 1839SOL    HW1 6416   6.288   1.766   0.021
 1839SOL    HW2 6417   6.307   1.775   6.884
 1840SOL     OW 6418   3.451   0.226   3.282
 1840SOL    HW1 6419   3.398   0.262   3.205
 1840SOL    HW2 6420   3.408   0.143   3.317
 1841SOL     OW 6421   1.780   0.070   1.904
 1841SOL    HW1 6422   1.856   0.009   1.884
 1841SOL    HW2 6423   1.803   0.129   1.981
 1842SOL     OW 6424   1.374   4.569   0.507
 1842SOL    HW1 6425   1.425   4.594   0.589
 1842SOL    HW2 6426   1.277   4.565   0.528
 1843SOL     OW 6427   3.663   1.486   4.760
 1843SOL    HW1 6428   3.634   1.439   4.676
 1843SOL    HW2 6429   3.596   1.470   4.832
 1844SOL     OW 6430   4.771   1.574   5.750
 1844SOL    HW1 6431   4.827   1.529   5.820
 1844SOL    HW2 6432   4.820   1.572   5.663
 1845SOL     OW 6433   2.431   0.777   3.089
 1845SOL    HW1 6434   2.448   0.688   3.131
 1845SOL    HW2 6435   2.358   0.824   3.137
 1846SOL     OW 6436   4.587   1.174   3.076
 1846SOL    HW1 6437   4.605   1.161   2.978
 1846SOL    HW2 6438   4.488   1.179   3.091
 1847SOL     OW 6439   1.872   0.761   4.528
 1847SOL    HW1 6440   1.965   0.793   4.509
 1847SOL    HW2 6441   1.832   0.815   4.602
 1848SOL     OW 6442   1.995   5.739   4.234
 1848SOL    HW1 6443   2.063   5.808   4.211
 1848SOL    HW2 6444   1.966   5.752   4.329
 1849SOL     OW 6445   4.809   3.007   2.501
 1849SOL    HW1 6446   4.835   3.046   2.589
 1849SOL    HW2 6447   4.736   2.940   2.514
 1850SOL     OW 6448   4.974   1.880   2.076
 1850SOL    HW1 6449   4.982   1.869   1.977
 1850SOL    HW2 6450   5.049   1.831   2.121
 1851SOL     OW 6451   0.526   3.104   6.556
 1851SOL    HW1 6452   0.600   3.160   6.593
 1851SOL    HW2 6453   0.550   3.073   6.464
 1852SOL     OW 6454   1.020   3.990   1.587
 1852SOL    HW1 6455   0.996   3.927   1.661
 1852SOL    HW2 6456   1.054   4.075   1.626
 1853SOL     OW 6457   0.105   3.255   5.050
 1853SOL    HW1 6458   0.034   3.315   5.013
 1853SOL    HW2 6459   0.186   3.259   4.991
 1854SOL     OW 6460   0.958   5.757   3.208
 1854SOL    HW1 6461   1.053   5.785   3.220
 1854SOL    HW2 6462   0.937   5.749   3.111
 1855SOL     OW 6463   5.105   3.673   4.289
 1855SOL    HW1 6464   5.171   3.648   4.218
 1855SOL    HW2 6465   5.064   3.761   4.267
 1856SOL     OW 6466   4.020   2.960   6.739
 1856SOL    HW1 6467   4.120   2.965   6.739
 1856SOL    HW2 6468   3.982   3.052   6.750
 1857SOL     OW 6469   5.655   0.858   0.516
 1857SOL    HW1 6470   5.586   0.881   0.448
 1857SOL    HW2 6471   5.632   0.770   0.558
 1858SOL     OW 6472   4.745   2.090   4.244
 1858SOL    HW1 6473   4.724   2.072   4.340
 1858SOL    HW2 6474   4.825   2.036   4.217
 1859SOL     OW 6475   5.321   1.892   4.985
 1859SOL    HW1 6476   5.361   1.938   4.906
 1859SOL    HW2 6477   5.350   1.796   4.986
 1860SOL     OW 6478   0.698   1.580   4.584
 1860SOL    HW1 6479   0.759   1.585   4.506
 1860SOL    HW2 6480   0.665   1.672   4.606
 1861SOL     OW 6481   5.557   0.873   3.172
 1861SOL    HW1 6482   5.466   0.872   3.215
 1861SOL    HW2 6483   5.554   0.929   3.089
 1862SOL     OW 6484   1.935   6.413   6.785
 1862SOL    HW1 6485   1.887   6.343   6.838
 1862SOL    HW2 6486   1.899   6.416   6.692
 1863SOL     OW 6487   0.766   3.072   1.039
 1863SOL    HW1 6488   0.747   3.030   1.128
 1863SOL    HW2 6489   0.865   3.067   1.021
 1864SOL     OW 6490   3.032   6.054   4.342
 1864SOL    HW1 6491   3.057   5.970   4.293
 1864SOL    HW2 6492   3.102   6.074   4.410
 1865SOL     OW 6493   4.579   1.534   0.932
 1865SOL    HW1 6494   4.627   1.565   1.015
 1865SOL    HW2 6495   4.498   1.591   0.917
 1866SOL     OW 6496   6.925   3.991   4.519
 1866SOL    HW1 6497   6.961   3.924   4.455
 1866SOL    HW2 6498   6.826   4.000   4.507
 1867SOL     OW 6499   2.720   2.624   1.475
 1867SOL    HW1 6500   2.787   2.607   1.403
 1867SOL    HW2 6501   2.644   2.559   1.466
 1868SOL     OW 6502   4.935   4.024   4.655
 1868SOL    HW1 6503   4.982   3.940   4.630
 1868SOL    HW2 6504   4.860   4.003   4.719
 1869SOL     OW 6505   4.876   2.275   3.946
 1869SOL    HW1 6506   4.893   2.302   4.041
 1869SOL    HW2 6507   4.779   2.254   3.935
 1870SOL     OW 6508   0.933   3.831   4.039
 1870SOL    HW1 6509   0.866   3.768   4.000
 1870SOL    HW2 6510   0.988   3.872   3.966
 1871SOL     OW 6511   0.592   6.545   0.466
 1871SOL    HW1 6512   0.586   6.510   0.373
 1871SOL    HW2 6513   0.501   6.571   0.498
 1872SOL     OW 6514   3.141   2.511   0.485
 1872SOL    HW1 6515   3.150   2.579   0.558
 1872SOL    HW2 6516   3.232   2.491   0.448
 1873SOL     OW 6517   6.319   1.154   0.278
 1873SOL    HW1 6518   6.265   1.227   0.321
 1873SOL    HW2 6519   6.411   1.154   0.316
 1874SOL     OW 6520   1.020   0.244   6.120
 1874SOL    HW1 6521   0.961   0.165   6.102
 1874SOL    HW2 6522   0.970   0.312   6.173
 1875SOL     OW 6523   6.228   6.155   6.921
 1875SOL    HW1 6524   6.239   6.142   7.020
 1875SOL    HW2 6525   6.294   6.098   6.872
 1876SOL     OW 6526   5.446   6.750   5.940
 1876SOL    HW1 6527   5.460   6.822   5.872
 1876SOL    HW2 6528   5.355   6.711   5.929
 1877SOL     OW 6529   0.301   0.857   2.057
 1877SOL    HW1 6530   0.335   0.822   1.970
 1877SOL    HW2 6531   0.263   0.782   2.111
 1878SOL     OW 6532   0.351   4.318   2.884
 1878SOL    HW1 6533   0.373   4.251   2.814
 1878SOL    HW2 6534   0.322   4.403   2.841
 1879SOL     OW 6535   2.498   5.502   4.737
 1879SOL    HW1 6536   2.548   5.585   4.763
 1879SOL    HW2 6537   2.401   5.515   4.752
 1880SOL     OW 6538   0.077   2.499   2.983
 1880SOL    HW1 6539   0.124   2.412   3.000
 1880SOL    HW2 6540   0.082   2.557   3.065
 1881SOL     OW 6541   1.444   2.059   3.223
 1881SOL    HW1 6542   1.445   2.074   3.321
 1881SOL    HW2 6543   1.351   2.065   3.189
 1882SOL     OW 6544   1.226   5.602   0.025
 1882SOL    HW1 6545   1.284   5.667   0.074
 1882SOL    HW2 6546   1.133   5.608   0.059
 1883SOL     OW 6547   1.669   3.782   2.271
 1883SOL    HW1 6548   1.630   3.806   2.182
 1883SOL    HW2 6549   1.678   3.864   2.327
 1884SOL     OW 6550   3.826   0.915   0.570
 1884SOL    HW1 6551   3.867   0.829   0.540
 1884SOL    HW2 6552   3.782   0.960   0.493
 1885SOL     OW 6553   0.008   2.565   0.758
 1885SOL    HW1 6554   0.063   2.587   0.839
 1885SOL    HW2 6555   6.990   2.476   0.770
 1886SOL     OW 6556   2.198   1.601   6.369
 1886SOL    HW1 6557   2.226   1.524   6.426
 1886SOL    HW2 6558   2.135   1.568   6.298
 1887SOL     OW 6559   0.324   4.745   5.826
 1887SOL    HW1 6560   0.323   4.841   5.854
 1887SOL    HW2 6561   0.413   4.723   5.785
 1888SOL     OW 6562   1.943   1.821   5.268
 1888SOL    HW1 6563   1.974   1.834   5.362
 1888SOL    HW2 6564   1.883   1.741   5.263
 1889SOL     OW 6565   4.586   3.441   0.341
 1889SOL    HW1 6566   4.563   3.492   0.424
 1889SOL    HW2 6567   4.616   3.505   0.270
 1890SOL     OW 6568   0.670   6.199   5.996
 1890SOL    HW1 6569   0.694   6.151   6.080
 1890SOL    HW2 6570   0.739   6.267   5.975
 1891SOL     OW 6571   6.120   3.307   5.804
 1891SOL    HW1 6572   6.196   3.252   5.771
 1891SOL    HW2 6573   6.046   3.306   5.736
 1892SOL     OW 6574   4.066   6.175   1.152
 1892SOL    HW1 6575   4.104   6.088   1.119
 1892SOL    HW2 6576   3.967   6.175   1.138
 1893SOL     OW 6577   3.350   1.957   4.606
 1893SOL    HW1 6578   3.328   2.008   4.690
 1893SOL    HW2 6579   3.387   1.867   4.631
 1894SOL     OW 6580   4.489   4.050   1.565
 1894SOL    HW1 6581   4.559   4.107   1.521
 1894SOL    HW2 6582   4.479   4.079   1.660
 1895SOL     OW 6583   6.213   1.333   2.472
 1895SOL    HW1 6584   6.274   1.268   2.426
 1895SOL    HW2 6585   6.120   1.295   2.476
 1896SOL     OW 6586   5.931   1.253   4.390
 1896SOL    HW1 6587   5.934   1.352   4.404
 1896SOL    HW2 6588   6.006   1.225   4.331
 1897SOL     OW 6589   5.994   5.523   4.043
 1897SOL    HW1 6590   5.912   5.556   3.998
 1897SOL    HW2 6591   5.985   5.425   4.060
 1898SOL     OW 6592   5.261   5.899   1.368
 1898SOL    HW1 6593   5.278   5.890   1.270
 1898SOL    HW2 6594   5.346   5.886   1.418
 1899SOL     OW 6595   0.293   3.398   2.852
 1899SOL    HW1 6596   0.372   3.349   2.814
 1899SOL    HW2 6597   0.316   3.496   2.860
 1900SOL     OW 6598   1.535   6.609   6.549
 1900SOL    HW1 6599   1.570   6.698   6.518
 1900SOL    HW2 6600   1.608   6.559   6.596
 1901SOL     OW 6601   2.169   1.052   6.753
 1901SOL    HW1 6602   2.082   1.088   6.721
 1901SOL    HW2 6603   2.196   1.099   6.838
 1902SOL     OW 6604   1.357   2.433   4.531
 1902SOL    HW1 6605   1.301   2.514   4.509
 1902SOL    HW2 6606   1.297   2.359   4.561
 1903SOL     OW 6607   6.402   4.958   3.844
 1903SOL    HW1 6608   6.335   4.916   3.906
 1903SOL    HW2 6609   6.355   5.015   3.777
 1904SOL     OW 6610   0.453   0.257   4.499
 1904SOL    HW1 6611   0.509   0.261   4.416
 1904SOL    HW2 6612   0.489   0.323   4.566
 1905SOL     OW 6613   6.997   2.030   3.670
 1905SOL    HW1 6614   7.023   2.060   3.762
 1905SOL    HW2 6615   6.900   2.051   3.655
 1906SOL     OW 6616   2.776   0.477   5.775
 1906SOL    HW1 6617   2.749   0.383   5.754
 1906SOL    HW2 6618   2.806   0.482   5.870
 1907SOL     OW 6619   2.884   0.214   3.428
 1907SOL    HW1 6620   2.829   0.182   3.505
 1907SOL    HW2 6621   2.981   0.204   3.449
 1908SOL     OW 6622   4.635   1.136   5.512
 1908SOL    HW1 6623   4.693   1.081   5.452
 1908SOL    HW2 6624   4.543   1.097   5.514
 1909SOL     OW 6625   2.429   4.444   4.632
 1909SOL    HW1 6626   2.504   4.450   4.698
 1909SOL    HW2 6627   2.375   4.528   4.635
 1910SOL     OW 6628   5.366   2.386   6.812
 1910SOL    HW1 6629   5.347   2.289   6.796
 1910SOL    HW2 6630   5.323   2.441   6.740
 1911SOL     OW 6631   6.497   2.078   5.138
 1911SOL    HW1 6632   6.422   2.144   5.128
 1911SOL    HW2 6633   6.558   2.084   5.059
 1912SOL     OW 6634   3.534   6.697   2.388
 1912SOL    HW1 6635   3.496   6.636   2.319
 1912SOL    HW2 6636   3.516   6.792   2.363
 1913SOL     OW 6637   1.769   6.395   5.274
 1913SOL    HW1 6638   1.835   6.417   5.203
 1913SOL    HW2 6639   1.810   6.331   5.339
 1914SOL     OW 6640   2.192   2.871   6.531
 1914SOL    HW1 6641   2.175   2.944   6.597
 1914SOL    HW2 6642   2.196   2.783   6.578
 1915SOL     OW 6643   3.875   0.620   6.232
 1915SOL    HW1 6644   3.833   0.533   6.260
 1915SOL    HW2 6645   3.963   0.602   6.188
 1916SOL     OW 6646   4.160   5.898   1.117
 1916SOL    HW1 6647   4.236   5.915   1.180
 1916SOL    HW2 6648   4.095   5.835   1.158
 1917SOL     OW 6649   3.756   4.167   4.557
 1917SOL    HW1 6650   3.736   4.155   4.654
 1917SOL    HW2 6651   3.796   4.258   4.542
 1918SOL     OW 6652   6.404   6.609   6.110
 1918SOL    HW1 6653   6.349   6.643   6.033
 1918SOL    HW2 6654   6.371   6.520   6.139
 1919SOL     OW 6655   1.000   6.125   2.102
 1919SOL    HW1 6656   1.037   6.036   2.075
 1919SOL    HW2 6657   1.049   6.158   2.182
 1920SOL     OW 6658   0.876   4.332   3.664
 1920SOL    HW1 6659   0.885   4.234   3.676
 1920SOL    HW2 6660   0.942   4.363   3.596
 1921SOL     OW 6661   0.724   5.756   7.007
 1921SOL    HW1 6662   0.742   5.736   0.078
 1921SOL    HW2 6663   0.626   5.749   6.989
 1922SOL     OW 6664   3.932   3.269   1.385
 1922SOL    HW1 6665   3.938   3.347   1.447
 1922SOL    HW2 6666   4.021   3.252   1.344
 1923SOL     OW 6667   2.962   1.568   0.413
 1923SOL    HW1 6668   2.872   1.595   0.378
 1923SOL    HW2 6669   3.009   1.649   0.449
 1924SOL     OW 6670   6.668   4.325   1.871
 1924SOL    HW1 6671   6.595   4.286   1.815
 1924SOL    HW2 6672   6.632   4.401   1.925
 1925SOL     OW 6673   2.893   3.829   1.783
 1925SOL    HW1 6674   2.959   3.836   1.707
 1925SOL    HW2 6675   2.943   3.826   1.870
 1926SOL     OW 6676   1.548   0.377   4.502
 1926SOL    HW1 6677   1.592   0.398   4.415
 1926SOL    HW2 6678   1.502   0.288   4.495
 1927SOL     OW 6679   3.576   3.903   0.069
 1927SOL    HW1 6680   3.667   3.929   0.037
 1927SOL    HW2 6681   3.518   3.879   7.016
 1928SOL     OW 6682   6.232   3.095   6.002
 1928SOL    HW1 6683   6.286   3.012   5.993
 1928SOL    HW2 6684   6.136   3.071   6.015
 1929SOL     OW 6685   1.360   5.901   2.092
 1929SOL    HW1 6686   1.419   5.916   2.013
 1929SOL    HW2 6687   1.368   5.805   2.121
 1930SOL     OW 6688   6.272   4.500   6.959
 1930SOL    HW1 6689   6.207   4.554   7.014
 1930SOL    HW2 6690   6.312   4.559   6.889
 1931SOL     OW 6691   6.926   3.556   3.190
 1931SOL    HW1 6692   6.956   3.647   3.218
 1931SOL    HW2 6693   6.983   3.487   3.235
 1932SOL     OW 6694   5.397   3.943   2.717
 1932SOL    HW1 6695   5.477   4.000   2.739
 1932SOL    HW2 6696   5.427   3.850   2.697
 1933SOL     OW 6697   2.895   5.083   0.681
 1933SOL    HW1 6698   2.920   4.993   0.716
 1933SOL    HW2 6699   2.962   5.150   0.712
 1934SOL     OW 6700   1.550   6.882   5.698
 1934SOL    HW1 6701   1.602   6.962   5.670
 1934SOL    HW2 6702   1.469   6.911   5.749
 1935SOL     OW 6703   2.895   0.020   4.959
 1935SOL    HW1 6704   2.849   6.996   5.032
 1935SOL    HW2 6705   2.923   6.981   4.888
 1936SOL     OW 6706   5.421   5.748   4.896
 1936SOL    HW1 6707   5.427   5.846   4.915
 1936SOL    HW2 6708   5.468   5.698   4.968
 1937SOL     OW 6709   3.753   6.545   1.661
 1937SOL    HW1 6710   3.681   6.513   1.599
 1937SOL    HW2 6711   3.842   6.530   1.619
 1938SOL     OW 6712   3.782   1.667   3.294
 1938SOL    HW1 6713   3.733   1.745   3.257
 1938SOL    HW2 6714   3.717   1.594   3.315
 1939SOL     OW 6715   0.982   0.508   3.474
 1939SOL    HW1 6716   1.061   0.529   3.417
 1939SOL    HW2 6717   0.982   0.411   3.498
 1940SOL     OW 6718   4.785   5.522   6.502
 1940SOL    HW1 6719   4.765   5.620   6.497
 1940SOL    HW2 6720   4.754   5.478   6.418
 1941SOL     OW 6721   6.638   4.736   3.256
 1941SOL    HW1 6722   6.572   4.711   3.185
 1941SOL    HW2 6723   6.589   4.755   3.342
 1942SOL     OW 6724   5.456   5.754   2.115
 1942SOL    HW1 6725   5.451   5.815   2.036
 1942SOL    HW2 6726   5.511   5.674   2.091
 1943SOL     OW 6727   3.279   5.626   2.105
 1943SOL    HW1 6728   3.377   5.606   2.108
 1943SOL    HW2 6729   3.266   5.725   2.097
 1944SOL     OW 6730   5.134   1.923   6.804
 1944SOL    HW1 6731   5.170   1.930   6.897
 1944SOL    HW2 6732   5.037   1.946   6.803
 1945SOL     OW 6733   4.885   5.761   2.996
 1945SOL    HW1 6734   4.854   5.728   3.086
 1945SOL    HW2 6735   4.808   5.765   2.933
 1946SOL     OW 6736   0.723   1.062   0.800
 1946SOL    HW1 6737   0.717   1.161   0.812
 1946SOL    HW2 6738   0.705   1.017   0.888
 1947SOL     OW 6739   5.304   6.319   4.540
 1947SOL    HW1 6740   5.298   6.263   4.622
 1947SOL    HW2 6741   5.376   6.388   4.551
 1948SOL     OW 6742   6.680   5.666   4.702
 1948SOL    HW1 6743   6.734   5.613   4.767
 1948SOL    HW2 6744   6.604   5.610   4.668
 1949SOL     OW 6745   4.166   4.066   5.719
 1949SOL    HW1 6746   4.099   4.014   5.772
 1949SOL    HW2 6747   4.119   4.138   5.668
 1950SOL     OW 6748   3.926   3.724   0.346
 1950SOL    HW1 6749   3.932   3.695   0.251
 1950SOL    HW2 6750   4.006   3.778   0.370
 1951SOL     OW 6751   6.788   2.576   0.431
 1951SOL    HW1 6752   6.775   2.635   0.511
 1951SOL    HW2 6753   6.886   2.565   0.413
 1952SOL     OW 6754   3.751   2.649   0.390
 1952SOL    HW1 6755   3.748   2.582   0.465
 1952SOL    HW2 6756   3.669   2.640   0.334
 1953SOL     OW 6757   6.665   2.161   6.941
 1953SOL    HW1 6758   6.657   2.065   6.967
 1953SOL    HW2 6759   6.734   2.205   6.999
 1954SOL     OW 6760   5.365   2.149   3.894
 1954SOL    HW1 6761   5.335   2.227   3.838
 1954SOL    HW2 6762   5.434   2.180   3.960
 1955SOL     OW 6763   1.432   6.652   1.776
 1955SOL    HW1 6764   1.335   6.675   1.767
 1955SOL    HW2 6765   1.482   6.731   1.810
 1956SOL     OW 6766   5.710   6.389   2.639
 1956SOL    HW1 6767   5.676   6.469   2.588
 1956SOL    HW2 6768   5.801   6.366   2.607
 1957SOL     OW 6769   6.461   5.769   5.314
 1957SOL    HW1 6770   6.502   5.837   5.375
 1957SOL    HW2 6771   6.373   5.740   5.352
 1958SOL     OW 6772   6.327   3.438   4.153
 1958SOL    HW1 6773   6.403   3.375   4.141
 1958SOL    HW2 6774   6.302   3.478   4.065
 1959SOL     OW 6775   0.705   2.804   5.770
 1959SOL    HW1 6776   0.669   2.860   5.845
 1959SOL    HW2 6777   0.800   2.831   5.752
 1960SOL     OW 6778   6.801   4.516   1.247
 1960SOL    HW1 6779   6.773   4.436   1.195
 1960SOL    HW2 6780   6.752   4.597   1.213
 1961SOL     OW 6781   5.750   4.621   4.695
 1961SOL    HW1 6782   5.808   4.690   4.651
 1961SOL    HW2 6783   5.808   4.548   4.731
 1962SOL     OW 6784   1.366   6.084   3.524
 1962SOL    HW1 6785   1.405   6.096   3.433
 1962SOL    HW2 6786   1.392   5.994   3.560
 1963SOL     OW 6787   0.866   0.716   2.054
 1963SOL    HW1 6788   0.804   0.637   2.061
 1963SOL    HW2 6789   0.830   0.780   1.986
 1964SOL     OW 6790   4.583   2.744   1.306
 1964SOL    HW1 6791   4.600   2.759   1.208
 1964SOL    HW2 6792   4.506   2.681   1.317
 1965SOL     OW 6793   0.770   2.938   2.776
 1965SOL    HW1 6794   0.733   2.995   2.703
 1965SOL    HW2 6795   0.800   2.996   2.852
 1966SOL     OW 6796   0.457   5.263   5.310
 1966SOL    HW1 6797   0.556   5.252   5.318
 1966SOL    HW2 6798   0.431   5.350   5.352
 1967SOL     OW 6799   4.775   1.894   6.167
 1967SOL    HW1 6800   4.680   1.882   6.137
 1967SOL    HW2 6801   4.834   1.904   6.087
 1968SOL     OW 6802   3.153   6.258   0.260
 1968SOL    HW1 6803   3.114   6.300   0.342
 1968SOL    HW2 6804   3.194   6.170   0.284
 1969SOL     OW 6805   6.979   1.228   1.863
 1969SOL    HW1 6806   7.007   1.143   1.908
 1969SOL    HW2 6807   6.989   1.304   1.926
 1970SOL     OW 6808   2.652   0.897   6.057
 1970SOL    HW1 6809   2.576   0.956   6.084
 1970SOL    HW2 6810   2.711   0.880   6.136
 1971SOL     OW 6811   6.445   0.143   6.378
 1971SOL    HW1 6812   6.525   0.105   6.426
 1971SOL    HW2 6813   6.404   0.215   6.434
 1972SOL     OW 6814   0.426   2.907   3.069
 1972SOL    HW1 6815   0.451   3.002   3.086
 1972SOL    HW2 6816   0.419   2.891   2.971
 1973SOL     OW 6817   3.318   3.263   1.714
 1973SOL    HW1 6818   3.407   3.282   1.672
 1973SOL    HW2 6819   3.283   3.175   1.681
 1974SOL     OW 6820   6.088   6.186   4.317
 1974SOL    HW1 6821   6.112   6.204   4.413
 1974SOL    HW2 6822   6.164   6.214   4.258
 1975SOL     OW 6823   2.337   1.052   3.414
 1975SOL    HW1 6824   2.278   1.091   3.343
 1975SOL    HW2 6825   2.286   1.046   3.499
 1976SOL     OW 6826   0.608   6.078   6.971
 1976SOL    HW1 6827   0.580   6.024   6.892
 1976SOL    HW2 6828   0.597   6.176   6.950
 1977SOL     OW 6829   0.982   2.755   3.610
 1977SOL    HW1 6830   1.038   2.838   3.609
 1977SOL    HW2 6831   1.042   2.675   3.622
 1978SOL     OW 6832   1.566   0.733   4.205
 1978SOL    HW1 6833   1.626   0.783   4.143
 1978SOL    HW2 6834   1.596   0.638   4.212
 1979SOL     OW 6835   6.881   4.381   5.056
 1979SOL    HW1 6836   6.886   4.295   5.107
 1979SOL    HW2 6837   6.858   4.362   4.961
 1980SOL     OW 6838   2.945   0.268   0.280
 1980SOL    HW1 6839   2.960   0.206   0.357
 1980SOL    HW2 6840   2.960   0.362   0.310
 1981SOL     OW 6841   5.232   2.058   2.451
 1981SOL    HW1 6842   5.147   2.021   2.489
 1981SOL    HW2 6843   5.222   2.068   2.352
 1982SOL     OW 6844   6.253   4.278   5.441
 1982SOL    HW1 6845   6.281   4.305   5.533
 1982SOL    HW2 6846   6.330   4.293   5.378
 1983SOL     OW 6847   0.966   2.459   2.819
 1983SOL    HW1 6848   0.949   2.431   2.725
 1983SOL    HW2 6849   1.052   2.418   2.851
 1984SOL     OW 6850   5.216   1.205   5.484
 1984SOL    HW1 6851   5.171   1.139   5.544
 1984SOL    HW2 6852   5.207   1.297   5.523
 1985SOL     OW 6853   1.244   1.097   2.359
 1985SOL    HW1 6854   1.168   1.120   2.420
 1985SOL    HW2 6855   1.326   1.147   2.387
 1986SOL     OW 6856   1.320   1.323   6.973
 1986SOL    HW1 6857   1.332   1.251   6.905
 1986SOL    HW2 6858   1.324   1.413   6.929
 1987SOL     OW 6859   2.623   3.474   1.390
 1987SOL    HW1 6860   2.704   3.476   1.447
 1987SOL    HW2 6861   2.556   3.540   1.424
 1988SOL     OW 6862   5.101   4.320   0.939
 1988SOL    HW1 6863   5.021   4.379   0.930
 1988SOL    HW2 6864   5.092   4.242   0.877
 1989SOL     OW 6865   2.245   0.627   5.191
 1989SOL    HW1 6866   2.230   0.723   5.165
 1989SOL    HW2 6867   2.329   0.620   5.245
 1990SOL     OW 6868   3.225   0.021   1.548
 1990SOL    HW1 6869   3.207   0.083   1.625
 1990SOL    HW2 6870   3.240   6.954   1.582
 1991SOL     OW 6871   3.729   5.513   5.947
 1991SOL    HW1 6872   3.786   5.466   5.880
 1991SOL    HW2 6873   3.649   5.552   5.901
 1992SOL     OW 6874   2.315   6.570   6.431
 1992SOL    HW1 6875   2.287   6.509   6.505
 1992SOL    HW2 6876   2.414   6.564   6.419
 1993SOL     OW 6877   4.320   3.282   5.287
 1993SOL    HW1 6878   4.290   3.205   5.344
 1993SOL    HW2 6879   4.400   3.325   5.329
 1994SOL     OW 6880   1.693   2.208   1.512
 1994SOL    HW1 6881   1.723   2.280   1.451
 1994SOL    HW2 6882   1.601   2.228   1.546
 1995SOL     OW 6883   6.049   2.486   2.041
 1995SOL    HW1 6884   6.059   2.431   1.958
 1995SOL    HW2 6885   6.139   2.497   2.084
 1996SOL     OW 6886   2.769   3.768   0.945
 1996SOL    HW1 6887   2.744   3.703   1.017
 1996SOL    HW2 6888   2.745   3.729   0.856
 1997SOL     OW 6889   4.672   0.258   5.666
 1997SOL    HW1 6890   4.610   0.304   5.603
 1997SOL    HW2 6891   4.725   0.190   5.617
 1998SOL     OW 6892   2.954   3.863   6.127
 1998SOL    HW1 6893   2.999   3.925   6.063
 1998SOL    HW2 6894   3.005   3.777   6.131
 1999SOL     OW 6895   2.723   0.192   1.421
 1999SOL    HW1 6896   2.706   0.285   1.387
 1999SOL    HW2 6897   2.815   0.163   1.394
 2000SOL     OW 6898   4.148   1.665   5.436
 2000SOL    HW1 6899   4.105   1.631   5.352
 2000SOL    HW2 6900   4.079   1.706   5.495
 2001SOL     OW 6901   3.336   2.299   1.774
 2001SOL    HW1 6902   3.430   2.284   1.806
 2001SOL    HW2 6903   3.324   2.395   1.750
 2002SOL     OW 6904   1.337   5.990   6.224
 2002SOL    HW1 6905   1.320   6.004   6.322
 2002SOL    HW2 6906   1.398   5.912   6.212
 2003SOL     OW 6907   4.710   0.148   3.426
 2003SOL    HW1 6908   4.807   0.122   3.429
 2003SOL    HW2 6909   4.697   0.234   3.475
 2004SOL     OW 6910   4.675   1.042   4.839
 2004SOL    HW1 6911   4.585   1.007   4.814
 2004SOL    HW2 6912   4.665   1.133   4.879
 2005SOL     OW 6913   1.581   5.703   0.199
 2005SOL    HW1 6914   1.611   5.614   0.233
 2005SOL    HW2 6915   1.657   5.749   0.154
 2006SOL     OW 6916   5.286   4.133   3.328
 2006SOL    HW1 6917   5.296   4.060   3.395
 2006SOL    HW2 6918   5.190   4.157   3.318
 2007SOL     OW 6919   4.452   6.031   0.223
 2007SOL    HW1 6920   4.454   6.082   0.309
 2007SOL    HW2 6921   4.359   6.031   0.186
 2008SOL     OW 6922   0.910   5.284   3.337
 2008SOL    HW1 6923   1.004   5.253   3.322
 2008SOL    HW2 6924   0.867   5.226   3.406
 2009SOL     OW 6925   6.563   0.238   1.181
 2009SOL    HW1 6926   6.658   0.269   1.173
 2009SOL    HW2 6927   6.534   0.247   1.276
 2010SOL     OW 6928   1.728   0.967   0.752
 2010SOL    HW1 6929   1.664   1.041   0.775
 2010SOL    HW2 6930   1.786   0.995   0.675
 2011SOL     OW 6931   6.081   1.984   4.839
 2011SOL    HW1 6932   6.107   1.987   4.936
 2011SOL    HW2 6933   6.164   1.976   4.783
 2012SOL     OW 6934   0.793   3.452   1.298
 2012SOL    HW1 6935   0.781   3.544   1.335
 2012SOL    HW2 6936   0.880   3.415   1.331
 2013SOL     OW 6937   5.326   1.212   3.182
 2013SOL    HW1 6938   5.266   1.215   3.102
 2013SOL    HW2 6939   5.341   1.117   3.209
 2014SOL     OW 6940   1.407   5.218   3.008
 2014SOL    HW1 6941   1.416   5.295   3.072
 2014SOL    HW2 6942   1.470   5.145   3.036
 2015SOL     OW 6943   2.677   1.120   6.709
 2015SOL    HW1 6944   2.720   1.193   6.656
 2015SOL    HW2 6945   2.595   1.088   6.662
 2016SOL     OW 6946   0.763   6.343   5.031
 2016SOL    HW1 6947   0.845   6.289   5.052
 2016SOL    HW2 6948   0.691   6.283   4.998
 2017SOL     OW 6949   3.793   6.278   3.370
 2017SOL    HW1 6950   3.773   6.373   3.395
 2017SOL    HW2 6951   3.761   6.217   3.442
 2018SOL     OW 6952   6.647   5.751   5.889
 2018SOL    HW1 6953   6.696   5.808   5.955
 2018SOL    HW2 6954   6.548   5.758   5.906
 2019SOL     OW 6955   5.125   2.963   1.865
 2019SOL    HW1 6956   5.161   2.957   1.958
 2019SOL    HW2 6957   5.037   2.916   1.861
 2020SOL     OW 6958   1.130   4.789   4.796
 2020SOL    HW1 6959   1.178   4.875   4.814
 2020SOL    HW2 6960   1.190   4.712   4.817
 2021SOL     OW 6961   2.157   7.001   2.818
 2021SOL    HW1 6962   2.097   6.958   2.750
 2021SOL    HW2 6963   2.228   0.029   2.772
 2022SOL     OW 6964   1.972   3.815   2.277
 2022SOL    HW1 6965   1.898   3.759   2.313
 2022SOL    HW2 6966   1.934   3.895   2.231
 2023SOL     OW 6967   0.156   1.868   0.326
 2023SOL    HW1 6968   0.173   1.932   0.401
 2023SOL    HW2 6969   0.082   1.806   0.351
 2024SOL     OW 6970   6.766   0.797   2.928
 2024SOL    HW1 6971   6.834   0.748   2.982
 2024SOL    HW2 6972   6.731   0.874   2.981
 2025SOL     OW 6973   1.496   2.613   1.726
 2025SOL    HW1 6974   1.522   2.583   1.818
 2025SOL    HW2 6975   1.577   2.634   1.673
 2026SOL     OW 6976   1.599   2.255   5.933
 2026SOL    HW1 6977   1.521   2.315   5.954
 2026SOL    HW2 6978   1.655   2.296   5.862
 2027SOL     OW 6979   1.312   1.299   1.291
 2027SOL    HW1 6980   1.295   1.243   1.210
 2027SOL    HW2 6981   1.228   1.349   1.314
 2028SOL     OW 6982   3.491   1.385   6.706
 2028SOL    HW1 6983   3.444   1.409   6.790
 2028SOL    HW2 6984   3.424   1.357   6.637
 2029SOL     OW 6985   0.661   0.433   6.859
 2029SOL    HW1 6986   0.617   0.366   6.800
 2029SOL    HW2 6987   0.594   0.502   6.886
 2030SOL     OW 6988   2.056   1.536   4.043
 2030SOL    HW1 6989   2.021   1.460   3.988
 2030SOL    HW2 6990   2.045   1.514   4.140
 2031SOL     OW 6991   5.076   6.311   2.222
 2031SOL    HW1 6992   5.107   6.371   2.296
 2031SOL    HW2 6993   5.044   6.366   2.145
 2032SOL     OW 6994   5.495   5.701   1.251
 2032SOL    HW1 6995   5.467   5.764   1.323
 2032SOL    HW2 6996   5.497   5.749   1.163
 2033SOL     OW 6997   3.456   4.469   6.786
 2033SOL    HW1 6998   3.391   4.393   6.776
 2033SOL    HW2 6999   3.408   4.556   6.771
 2034SOL     OW 7000   2.529   6.966   4.272
 2034SOL    HW1 7001   2.455   6.898   4.269
 2034SOL    HW2 7002   2.616   6.919   4.289
 2035SOL     OW 7003   0.223   0.864   2.508
 2035SOL    HW1 7004   0.228   0.947   2.562
 2035SOL    HW2 7005   0.193   0.788   2.566
 2036SOL     OW 7006   0.467   5.886   2.581
 2036SOL    HW1 7007   0.473   5.974   2.627
 2036SOL    HW2 7008   0.449   5.899   2.484
 2037SOL     OW 7009   6.237   1.750   5.850
 2037SOL    HW1 7010   6.145   1.754   5.888
 2037SOL    HW2 7011   6.243   1.674   5.785
 2038SOL     OW 7012   0.914   1.629   6.534
 2038SOL    HW1 7013   0.998   1.669   6.573
 2038SOL    HW2 7014   0.913   1.643   6.435
 2039SOL     OW 7015   0.726   5.452   3.219
 2039SOL    HW1 7016   0.759   5.546   3.215
 2039SOL    HW2 7017   0.765   5.407   3.299
 2040SOL     OW 7018   3.264   2.885   5.065
 2040SOL    HW1 7019   3.287   2.803   5.117
 2040SOL    HW2 7020   3.312   2.882   4.977
 2041SOL     OW 7021   6.911   6.086   6.842
 2041SOL    HW1 7022   6.824   6.132   6.855
 2041SOL    HW2 7023   6.943   6.100   6.749
 2042SOL     OW 7024   6.050   5.680   0.028
 2042SOL    HW1 7025   6.067   5.606   6.988
 2042SOL    HW2 7026   5.964   5.663   0.076
 2043SOL     OW 7027   6.670   4.465   2.452
 2043SOL    HW1 7028   6.574   4.438   2.459
 2043SOL    HW2 7029   6.688   4.543   2.514
 2044SOL     OW 7030   4.866   0.446   2.362
 2044SOL    HW1 7031   4.829   0.402   2.280
 2044SOL    HW2 7032   4.965   0.431   2.366
 2045SOL     OW 7033   2.415   4.349   5.223
 2045SOL    HW1 7034   2.463   4.435   5.205
 2045SOL    HW2 7035   2.481   4.273   5.224
 2046SOL     OW 7036   0.071   0.485   4.428
 2046SOL    HW1 7037   0.069   0.386   4.447
 2046SOL    HW2 7038   0.130   0.530   4.495
 2047SOL     OW 7039   4.408   2.259   6.812
 2047SOL    HW1 7040   4.423   2.345   6.763
 2047SOL    HW2 7041   4.477   2.192   6.785
 2048SOL     OW 7042   3.912   6.317   6.954
 2048SOL    HW1 7043   3.864   6.360   0.005
 2048SOL    HW2 7044   3.899   6.218   6.959
 2049SOL     OW 7045   4.131   1.946   6.226
 2049SOL    HW1 7046   4.090   1.869   6.176
 2049SOL    HW2 7047   4.097   2.032   6.188
 2050SOL     OW 7048   6.209   2.885   3.661
 2050SOL    HW1 7049   6.178   2.794   3.635
 2050SOL    HW2 7050   6.131   2.948   3.661
 2051SOL     OW 7051   6.805   4.961   6.883
 2051SOL    HW1 7052   6.882   4.907   6.917
 2051SOL    HW2 7053   6.836   5.054   6.863
 2052SOL     OW 7054   0.697   3.971   0.099
 2052SOL    HW1 7055   0.696   3.948   0.196
 2052SOL    HW2 7056   0.719   3.889   0.046
 2053SOL     OW 7057   6.224   0.571   0.714
 2053SOL    HW1 7058   6.259   0.508   0.644
 2053SOL    HW2 7059   6.299   0.604   0.770
 2054SOL     OW 7060   5.150   2.865   1.554
 2054SOL    HW1 7061   5.099   2.883   1.470
 2054SOL    HW2 7062   5.087   2.849   1.629
 2055SOL     OW 7063   6.287   3.085   2.542
 2055SOL    HW1 7064   6.251   3.164   2.494
 2055SOL    HW2 7065   6.216   3.016   2.552
 2056SOL     OW 7066   2.283   1.348   2.877
 2056SOL    HW1 7067   2.306   1.366   2.781
 2056SOL    HW2 7068   2.324   1.419   2.934
 2057SOL     OW 7069   5.665   2.804   3.654
 2057SOL    HW1 7070   5.599   2.810   3.578
 2057SOL    HW2 7071   5.689   2.897   3.684
 2058SOL     OW 7072   1.413   1.685   3.613
 2058SOL    HW1 7073   1.441   1.637   3.696
 2058SOL    HW2 7074   1.389   1.618   3.543
 2059SOL     OW 7075   2.691   6.563   5.761
 2059SOL    HW1 7076   2.624   6.524   5.825
 2059SOL    HW2 7077   2.754   6.491   5.732
 2060SOL     OW 7078   6.734   4.054   0.785
 2060SOL    HW1 7079   6.735   3.975   0.724
 2060SOL    HW2 7080   6.640   4.075   0.812
 2061SOL     OW 7081   1.229   2.090   3.062
 2061SOL    HW1 7082   1.144   2.104   3.011
 2061SOL    HW2 7083   1.304   2.073   2.998
 2062SOL     OW 7084   5.706   0.206   3.141
 2062SOL    HW1 7085   5.728   0.300   3.166
 2062SOL    HW2 7086   5.663   0.204   3.051
 2063SOL     OW 7087   0.650   1.622   6.113
 2063SOL    HW1 7088   0.674   1.717   6.096
 2063SOL    HW2 7089   0.635   1.575   6.026
 2064SOL     OW 7090   0.520   1.613   5.420
 2064SOL    HW1 7091   0.619   1.617   5.410
 2064SOL    HW2 7092   0.493   1.527   5.462
 2065SOL     OW 7093   6.425   4.041   2.426
 2065SOL    HW1 7094   6.510   4.093   2.417
 2065SOL    HW2 7095   6.446   3.943   2.425
 2066SOL     OW 7096   0.490   5.797   4.240
 2066SOL    HW1 7097   0.481   5.720   4.177
 2066SOL    HW2 7098   0.469   5.883   4.192
 2067SOL     OW 7099   0.326   6.704   0.940
 2067SOL    HW1 7100   0.362   6.689   0.848
 2067SOL    HW2 7101   0.262   6.780   0.938
 2068SOL     OW 7102   0.789   1.602   5.411
 2068SOL    HW1 7103   0.863   1.669   5.423
 2068SOL    HW2 7104   0.817   1.532   5.346
 2069SOL     OW 7105   0.514   2.603   3.385
 2069SOL    HW1 7106   0.440   2.571   3.443
 2069SOL    HW2 7107   0.590   2.635   3.441
 2070SOL     OW 7108   1.696   6.842   2.113
 2070SOL    HW1 7109   1.754   6.894   2.176
 2070SOL    HW2 7110   1.707   6.744   2.130
 2071SOL     OW 7111   0.200   5.893   5.584
 2071SOL    HW1 7112   0.294   5.916   5.560
 2071SOL    HW2 7113   0.139   5.922   5.510
 2072SOL     OW 7114   4.286   6.380   1.698
 2072SOL    HW1 7115   4.340   6.319   1.641
 2072SOL    HW2 7116   4.304   6.361   1.794
 2073SOL     OW 7117   3.785   0.170   4.626
 2073SOL    HW1 7118   3.884   0.171   4.609
 2073SOL    HW2 7119   3.752   0.263   4.641
 2074SOL     OW 7120   0.803   2.953   7.006
 2074SOL    HW1 7121   0.817   2.987   6.913
 2074SOL    HW2 7122   0.828   2.856   7.009
 2075SOL     OW 7123   5.288   2.337   1.589
 2075SOL    HW1 7124   5.256   2.397   1.662
 2075SOL    HW2 7125   5.220   2.334   1.516
 2076SOL     OW 7126   5.310   6.645   0.524
 2076SOL    HW1 7127   5.354   6.688   0.445
 2076SOL    HW2 7128   5.213   6.671   0.526
 2077SOL     OW 7129   4.567   2.511   2.060
 2077SOL    HW1 7130   4.633   2.502   1.986
 2077SOL    HW2 7131   4.491   2.447   2.047
 2078SOL     OW 7132   1.793   6.475   6.556
 2078SOL    HW1 7133   1.782   6.423   6.471
 2078SOL    HW2 7134   1.847   6.558   6.537
 2079SOL     OW 7135   5.577   1.105   3.789
 2079SOL    HW1 7136   5.580   1.065   3.698
 2079SOL    HW2 7137   5.666   1.094   3.834
 2080SOL     OW 7138   1.558   0.666   4.555
 2080SOL    HW1 7139   1.625   0.710   4.495
 2080SOL    HW2 7140   1.545   0.571   4.526
 2081SOL     OW 7141   1.556   5.935   5.180
 2081SOL    HW1 7142   1.597   5.899   5.096
 2081SOL    HW2 7143   1.625   5.941   5.252
 2082SOL     OW 7144   6.674   0.380   2.754
 2082SOL    HW1 7145   6.662   0.435   2.671
 2082SOL    HW2 7146   6.728   0.432   2.820
 2083SOL     OW 7147   4.690   4.522   6.330
 2083SOL    HW1 7148   4.616   4.549   6.269
 2083SOL    HW2 7149   4.699   4.589   6.404
 2084SOL     OW 7150   6.733   4.383   3.805
 2084SOL    HW1 7151   6.820   4.411   3.845
 2084SOL    HW2 7152   6.748   4.305   3.744
 2085SOL     OW 7153   5.130   1.067   0.401
 2085SOL    HW1 7154   5.035   1.086   0.374
 2085SOL    HW2 7155   5.166   1.144   0.452
 2086SOL     OW 7156   2.968   6.353   5.397
 2086SOL    HW1 7157   3.033   6.404   5.452
 2086SOL    HW2 7158   2.903   6.416   5.355
 2087SOL     OW 7159   4.384   0.382   2.138
 2087SOL    HW1 7160   4.306   0.320   2.127
 2087SOL    HW2 7161   4.353   0.468   2.179
 2088SOL     OW 7162   2.553   5.795   0.945
 2088SOL    HW1 7163   2.601   5.864   0.999
 2088SOL    HW2 7164   2.616   5.719   0.926
 2089SOL     OW 7165   4.731   1.766   0.044
 2089SOL    HW1 7166   4.830   1.772   0.050
 2089SOL    HW2 7167   4.697   1.833   7.003
 2090SOL     OW 7168   3.905   3.685   5.310
 2090SOL    HW1 7169   3.872   3.764   5.361
 2090SOL    HW2 7170   3.996   3.705   5.273
 2091SOL     OW 7171   0.043   5.778   0.115
 2091SOL    HW1 7172   7.011   5.860   0.114
 2091SOL    HW2 7173   7.017   5.702   0.155
 2092SOL     OW 7174   4.763   5.933   0.160
 2092SOL    HW1 7175   4.779   5.858   0.095
 2092SOL    HW2 7176   4.666   5.942   0.179
 2093SOL     OW 7177   1.894   2.465   1.777
 2093SOL    HW1 7178   1.877   2.377   1.733
 2093SOL    HW2 7179   1.865   2.462   1.872
 2094SOL     OW 7180   5.416   1.852   1.753
 2094SOL    HW1 7181   5.336   1.800   1.723
 2094SOL    HW2 7182   5.387   1.942   1.787
 2095SOL     OW 7183   5.428   0.212   4.856
 2095SOL    HW1 7184   5.490   0.249   4.787
 2095SOL    HW2 7185   5.450   0.117   4.874
 2096SOL     OW 7186   4.778   4.329   2.795
 2096SOL    HW1 7187   4.781   4.266   2.718
 2096SOL    HW2 7188   4.863   4.383   2.797
 2097SOL     OW 7189   1.438   3.002   0.011
 2097SOL    HW1 7190   1.388   3.037   6.956
 2097SOL    HW2 7191   1.416   3.057   0.091
 2098SOL     OW 7192   4.285   5.273   3.290
 2098SOL    HW1 7193   4.247   5.182   3.275
 2098SOL    HW2 7194   4.298   5.289   3.388
 2099SOL     OW 7195   2.669   2.541   5.298
 2099SOL    HW1 7196   2.617   2.623   5.321
 2099SOL    HW2 7197   2.743   2.565   5.234
 2100SOL     OW 7198   3.875   3.547   5.792
 2100SOL    HW1 7199   3.861   3.630   5.739
 2100SOL    HW2 7200   3.923   3.479   5.736
 2101SOL     OW 7201   1.474   6.506   2.793
 2101SOL    HW1 7202   1.458   6.604   2.804
 2101SOL    HW2 7203   1.421   6.472   2.715
 2102SOL     OW 7204   6.752   5.445   2.154
 2102SOL    HW1 7205   6.827   5.392   2.194
 2102SOL    HW2 7206   6.694   5.385   2.100
 2103SOL     OW 7207   2.847   3.069   6.450
 2103SOL    HW1 7208   2.780   3.056   6.523
 2103SOL    HW2 7209   2.812   3.032   6.365
 2104SOL     OW 7210   1.269   3.561   6.596
 2104SOL    HW1 7211   1.284   3.469   6.633
 2104SOL    HW2 7212   1.357   3.600   6.568
 2105SOL     OW 7213   4.728   5.630   4.436
 2105SOL    HW1 7214   4.760   5.571   4.511
 2105SOL    HW2 7215   4.638   5.599   4.407
 2106SOL     OW 7216   5.147   4.220   0.294
 2106SOL    HW1 7217   5.114   4.229   0.388
 2106SOL    HW2 7218   5.213   4.292   0.275
 2107SOL     OW 7219   4.490   2.816   5.570
 2107SOL    HW1 7220   4.504   2.888   5.502
 2107SOL    HW2 7221   4.469   2.857   5.658
 2108SOL     OW 7222   6.948   6.543   5.547
 2108SOL    HW1 7223   6.981   6.584   5.462
 2108SOL    HW2 7224   6.967   6.444   5.545
 2109SOL     OW 7225   4.636   6.659   3.029
 2109SOL    HW1 7226   4.614   6.598   3.105
 2109SOL    HW2 7227   4.722   6.630   2.986
 2110SOL     OW 7228   2.594   2.580   5.814
 2110SOL    HW1 7229   2.605   2.559   5.716
 2110SOL    HW2 7230   2.611   2.677   5.828
 2111SOL     OW 7231   1.001   2.256   6.590
 2111SOL    HW1 7232   0.925   2.193   6.579
 2111SOL    HW2 7233   1.044   2.273   6.501
 2112SOL     OW 7234   4.713   2.092   0.925
 2112SOL    HW1 7235   4.666   2.004   0.929
 2112SOL    HW2 7236   4.688   2.140   0.841
 2113SOL     OW 7237   1.380   0.354   5.046
 2113SOL    HW1 7238   1.300   0.295   5.042
 2113SOL    HW2 7239   1.380   0.416   4.967
 2114SOL     OW 7240   1.470   2.867   0.835
 2114SOL    HW1 7241   1.509   2.795   0.893
 2114SOL    HW2 7242   1.416   2.825   0.762
 2115SOL     OW 7243   2.281   4.164   2.988
 2115SOL    HW1 7244   2.310   4.260   2.996
 2115SOL    HW2 7245   2.316   4.126   2.902
 2116SOL     OW 7246   0.050   4.904   3.307
 2116SOL    HW1 7247   7.010   4.854   3.251
 2116SOL    HW2 7248   0.008   4.927   3.395
 2117SOL     OW 7249   6.691   4.322   1.065
 2117SOL    HW1 7250   6.642   4.294   0.982
 2117SOL    HW2 7251   6.752   4.249   1.094
 2118SOL     OW 7252   6.632   3.456   2.143
 2118SOL    HW1 7253   6.694   3.413   2.209
 2118SOL    HW2 7254   6.539   3.421   2.156
 2119SOL     OW 7255   2.431   5.659   1.167
 2119SOL    HW1 7256   2.499   5.645   1.240
 2119SOL    HW2 7257   2.477   5.692   1.085
 2120SOL     OW 7258   0.595   4.930   4.403
 2120SOL    HW1 7259   0.619   5.019   4.364
 2120SOL    HW2 7260   0.678   4.874   4.413
 2121SOL     OW 7261   0.758   4.568   5.931
 2121SOL    HW1 7262   0.766   4.469   5.949
 2121SOL    HW2 7263   0.779   4.586   5.835
 2122SOL     OW 7264   5.919   4.421   5.904
 2122SOL    HW1 7265   5.923   4.390   5.809
 2122SOL    HW2 7266   5.834   4.472   5.919
 2123SOL     OW 7267   6.539   4.495   2.072
 2123SOL    HW1 7268   6.559   4.589   2.101
 2123SOL    HW2 7269   6.556   4.433   2.148
 2124SOL     OW 7270   2.784   1.863   2.038
 2124SOL    HW1 7271   2.783   1.953   1.993
 2124SOL    HW2 7272   2.823   1.872   2.130
 2125SOL     OW 7273   1.982   0.485   0.538
 2125SOL    HW1 7274   1.926   0.463   0.618
 2125SOL    HW2 7275   2.073   0.443   0.548
 2126SOL     OW 7276   3.420   1.105   0.924
 2126SOL    HW1 7277   3.398   1.104   0.826
 2126SOL    HW2 7278   3.499   1.164   0.940
 2127SOL     OW 7279   6.715   3.398   4.229
 2127SOL    HW1 7280   6.803   3.421   4.270
 2127SOL    HW2 7281   6.663   3.339   4.291
 2128SOL     OW 7282   6.636   3.976   4.217
 2128SOL    HW1 7283   6.554   3.952   4.165
 2128SOL    HW2 7284   6.717   3.936   4.172
 2129SOL     OW 7285   4.480   2.988   5.337
 2129SOL    HW1 7286   4.385   3.017   5.331
 2129SOL    HW2 7287   4.506   2.943   5.251
 2130SOL     OW 7288   3.694   0.258   2.701
 2130SOL    HW1 7289   3.689   0.215   2.791
 2130SOL    HW2 7290   3.670   0.354   2.708
 2131SOL     OW 7291   6.726   0.799   1.105
 2131SOL    HW1 7292   6.704   0.736   1.180
 2131SOL    HW2 7293   6.824   0.794   1.086
 2132SOL     OW 7294   3.996   1.974   1.505
 2132SOL    HW1 7295   3.958   2.065   1.489
 2132SOL    HW2 7296   3.949   1.931   1.583
 2133SOL     OW 7297   2.266   2.936   6.234
 2133SOL    HW1 7298   2.264   2.861   6.300
 2133SOL    HW2 7299   2.319   2.910   6.154
 2134SOL     OW 7300   0.413   2.402   0.245
 2134SOL    HW1 7301   0.507   2.391   0.213
 2134SOL    HW2 7302   0.413   2.449   0.333
 2135SOL     OW 7303   0.638   3.737   4.966
 2135SOL    HW1 7304   0.712   3.804   4.956
 2135SOL    HW2 7305   0.563   3.761   4.905
 2136SOL     OW 7306   2.007   4.183   2.978
 2136SOL    HW1 7307   1.986   4.234   3.061
 2136SOL    HW2 7308   2.103   4.154   2.979
 2137SOL     OW 7309   2.366   5.232   5.441
 2137SOL    HW1 7310   2.370   5.303   5.512
 2137SOL    HW2 7311   2.457   5.221   5.401
 2138SOL     OW 7312   6.461   6.564   3.227
 2138SOL    HW1 7313   6.459   6.660   3.198
 2138SOL    HW2 7314   6.425   6.556   3.320
 2139SOL     OW 7315   4.521   0.753   3.906
 2139SOL    HW1 7316   4.527   0.779   4.003
 2139SOL    HW2 7317   4.432   0.711   3.888
 2140SOL     OW 7318   2.756   6.835   4.221
 2140SOL    HW1 7319   2.746   6.772   4.298
 2140SOL    HW2 7320   2.786   6.785   4.140
 2141SOL     OW 7321   6.903   2.861   2.512
 2141SOL    HW1 7322   6.890   2.947   2.561
 2141SOL    HW2 7323   6.929   2.789   2.576
 2142SOL     OW 7324   1.499   1.690   3.207
 2142SOL    HW1 7325   1.485   1.619   3.276
 2142SOL    HW2 7326   1.596   1.693   3.182
 2143SOL     OW 7327   3.126   4.928   1.065
 2143SOL    HW1 7328   3.092   4.840   1.098
 2143SOL    HW2 7329   3.226   4.926   1.064
 2144SOL     OW 7330   0.544   5.836   4.840
 2144SOL    HW1 7331   0.620   5.899   4.845
 2144SOL    HW2 7332   0.493   5.852   4.755
 2145SOL     OW 7333   3.935   6.265   4.543
 2145SOL    HW1 7334   3.909   6.184   4.595
 2145SOL    HW2 7335   3.888   6.345   4.581
 2146SOL     OW 7336   2.477   3.055   1.236
 2146SOL    HW1 7337   2.479   2.956   1.229
 2146SOL    HW2 7338   2.440   3.094   1.152
 2147SOL     OW 7339   5.731   1.218   6.830
 2147SOL    HW1 7340   5.703   1.266   6.746
 2147SOL    HW2 7341   5.828   1.234   6.846
 2148SOL     OW 7342   5.903   3.521   6.205
 2148SOL    HW1 7343   5.957   3.488   6.128
 2148SOL    HW2 7344   5.869   3.613   6.185
 2149SOL     OW 7345   2.402   1.708   1.211
 2149SOL    HW1 7346   2.499   1.723   1.190
 2149SOL    HW2 7347   2.370   1.627   1.162
 2150SOL     OW 7348   2.282   2.586   2.330
 2150SOL    HW1 7349   2.382   2.590   2.330
 2150SOL    HW2 7350   2.249   2.590   2.424
 2151SOL     OW 7351   1.561   6.282   6.298
 2151SOL    HW1 7352   1.657   6.265   6.319
 2151SOL    HW2 7353   1.549   6.289   6.199
 2152SOL     OW 7354   4.477   4.489   2.526
 2152SOL    HW1 7355   4.489   4.510   2.429
 2152SOL    HW2 7356   4.386   4.519   2.555
 2153SOL     OW 7357   3.940   1.850   2.510
 2153SOL    HW1 7358   3.974   1.765   2.470
 2153SOL    HW2 7359   4.001   1.879   2.584
 2154SOL     OW 7360   3.635   6.928   4.234
 2154SOL    HW1 7361   3.619   6.830   4.226
 2154SOL    HW2 7362   3.712   6.944   4.296
 2155SOL     OW 7363   4.390   6.985   0.965
 2155SOL    HW1 7364   4.346   0.046   0.991
 2155SOL    HW2 7365   4.481   7.004   0.930
 2156SOL     OW 7366   0.151   0.491   4.871
 2156SOL    HW1 7367   0.184   0.520   4.781
 2156SOL    HW2 7368   0.131   0.393   4.869
 2157SOL     OW 7369   5.280   6.160   3.546
 2157SOL    HW1 7370   5.241   6.161   3.454
 2157SOL    HW2 7371   5.230   6.095   3.603
 2158SOL     OW 7372   3.653   6.219   0.201
 2158SOL    HW1 7373   3.570   6.273   0.186
 2158SOL    HW2 7374   3.639   6.156   0.278
 2159SOL     OW 7375   1.297   0.838   5.058
 2159SOL    HW1 7376   1.281   0.761   5.120
 2159SOL    HW2 7377   1.337   0.914   5.110
 2160SOL     OW 7378   4.881   4.484   6.851
 2160SOL    HW1 7379   4.981   4.491   6.850
 2160SOL    HW2 7380   4.842   4.572   6.875
 2161SOL     OW 7381   6.378   4.051   1.842
 2161SOL    HW1 7382   6.363   4.122   1.911
 2161SOL    HW2 7383   6.424   3.973   1.883
 2162SOL     OW 7384   3.164   0.276   2.394
 2162SOL    HW1 7385   3.091   0.326   2.348
 2162SOL    HW2 7386   3.130   0.187   2.424
 2163SOL     OW 7387   1.551   4.774   0.407
 2163SOL    HW1 7388   1.474   4.721   0.442
 2163SOL    HW2 7389   1.590   4.727   0.327
 2164SOL     OW 7390   1.593   2.207   6.318
 2164SOL    HW1 7391   1.612   2.252   6.405
 2164SOL    HW2 7392   1.676   2.205   6.262
 2165SOL     OW 7393   0.332   2.000   3.396
 2165SOL    HW1 7394   0.353   1.920   3.340
 2165SOL    HW2 7395   0.279   2.066   3.343
 2166SOL     OW 7396   0.832   3.869   4.306
 2166SOL    HW1 7397   0.886   3.833   4.230
 2166SOL    HW2 7398   0.890   3.882   4.386
 2167SOL     OW 7399   0.722   2.687   3.555
 2167SOL    HW1 7400   0.809   2.734   3.567
 2167SOL    HW2 7401   0.661   2.711   3.631
 2168SOL     OW 7402   1.334   1.884   2.840
 2168SOL    HW1 7403   1.397   1.818   2.799
 2168SOL    HW2 7404   1.285   1.842   2.916
 2169SOL     OW 7405   5.980   1.123   1.093
 2169SOL    HW1 7406   6.063   1.098   1.043
 2169SOL    HW2 7407   5.961   1.221   1.080
 2170SOL     OW 7408   6.842   4.149   5.185
 2170SOL    HW1 7409   6.899   4.071   5.159
 2170SOL    HW2 7410   6.747   4.118   5.197
 2171SOL     OW 7411   0.320   5.480   1.210
 2171SOL    HW1 7412   0.337   5.578   1.212
 2171SOL    HW2 7413   0.400   5.432   1.174
 2172SOL     OW 7414   1.811   2.051   6.157
 2172SOL    HW1 7415   1.873   2.127   6.177
 2172SOL    HW2 7416   1.846   1.999   6.079
 2173SOL     OW 7417   4.478   0.687   5.172
 2173SOL    HW1 7418   4.546   0.688   5.099
 2173SOL    HW2 7419   4.394   0.730   5.141
 2174SOL     OW 7420   6.908   5.887   4.868
 2174SOL    HW1 7421   6.945   5.801   4.831
 2174SOL    HW2 7422   6.875   5.872   4.961
 2175SOL     OW 7423   1.798   3.630   4.188
 2175SOL    HW1 7424   1.848   3.545   4.169
 2175SOL    HW2 7425   1.748   3.621   4.274
 2176SOL     OW 7426   5.300   1.811   1.350
 2176SOL    HW1 7427   5.395   1.788   1.374
 2176SOL    HW2 7428   5.245   1.728   1.352
 2177SOL     OW 7429   0.038   0.563   2.656
 2177SOL    HW1 7430   0.042   0.497   2.581
 2177SOL    HW2 7431   0.130   0.585   2.687
 2178SOL     OW 7432   1.647   1.446   1.937
 2178SOL    HW1 7433   1.603   1.371   1.887
 2178SOL    HW2 7434   1.577   1.503   1.979
 2179SOL     OW 7435   2.132   4.078   6.141
 2179SOL    HW1 7436   2.058   4.144   6.157
 2179SOL    HW2 7437   2.093   3.987   6.130
 2180SOL     OW 7438   1.258   3.320   2.291
 2180SOL    HW1 7439   1.249   3.418   2.302
 2180SOL    HW2 7440   1.174   3.283   2.251
 2181SOL     OW 7441   4.398   5.096   4.052
 2181SOL    HW1 7442   4.379   5.055   3.963
 2181SOL    HW2 7443   4.386   5.028   4.124
 2182SOL     OW 7444   1.433   4.794   3.691
 2182SOL    HW1 7445   1.425   4.845   3.606
 2182SOL    HW2 7446   1.522   4.749   3.694
 2183SOL     OW 7447   2.082   4.456   0.331
 2183SOL    HW1 7448   2.076   4.406   0.417
 2183SOL    HW2 7449   2.164   4.426   0.280
 2184SOL     OW 7450   3.974   0.080   6.325
 2184SOL    HW1 7451   3.949   0.062   6.230
 2184SOL    HW2 7452   3.958   0.176   6.346
 2185SOL     OW 7453   0.823   1.126   0.139
 2185SOL    HW1 7454   0.781   1.204   0.093
 2185SOL    HW2 7455   0.912   1.106   0.097
 2186SOL     OW 7456   6.653   5.401   0.355
 2186SOL    HW1 7457   6.708   5.339   0.410
 2186SOL    HW2 7458   6.668   5.495   0.383
 2187SOL     OW 7459   0.360   5.441   1.784
 2187SOL    HW1 7460   0.419   5.470   1.858
 2187SOL    HW2 7461   0.267   5.428   1.819
 2188SOL     OW 7462   1.392   5.552   5.204
 2188SOL    HW1 7463   1.454   5.524   5.130
 2188SOL    HW2 7464   1.417   5.504   5.288
 2189SOL     OW 7465   1.270   6.520   1.329
 2189SOL    HW1 7466   1.333   6.583   1.375
 2189SOL    HW2 7467   1.317   6.476   1.252
 2190SOL     OW 7468   6.768   2.928   1.475
 2190SOL    HW1 7469   6.743   2.840   1.514
 2190SOL    HW2 7470   6.749   3.000   1.542
 2191SOL     OW 7471   2.394   1.955   5.761
 2191SOL    HW1 7472   2.492   1.937   5.754
 2191SOL    HW2 7473   2.351   1.942   5.671
 2192SOL     OW 7474   5.509   1.036   2.648
 2192SOL    HW1 7475   5.426   1.051   2.595
 2192SOL    HW2 7476   5.545   0.944   2.630
 2193SOL     OW 7477   6.460   0.220   6.773
 2193SOL    HW1 7478   6.434   0.240   6.678
 2193SOL    HW2 7479   6.474   0.122   6.784
 2194SOL     OW 7480   1.780   4.112   6.674
 2194SOL    HW1 7481   1.858   4.166   6.705
 2194SOL    HW2 7482   1.811   4.041   6.610
 2195SOL     OW 7483   6.722   6.613   5.697
 2195SOL    HW1 7484   6.810   6.614   5.652
 2195SOL    HW2 7485   6.691   6.707   5.712
 2196SOL     OW 7486   3.078   6.996   4.498
 2196SOL    HW1 7487   3.100   6.999   4.595
 2196SOL    HW2 7488   2.988   0.011   4.483
 2197SOL     OW 7489   2.686   3.767   6.210
 2197SOL    HW1 7490   2.714   3.691   6.152
 2197SOL    HW2 7491   2.760   3.835   6.214
 2198SOL     OW 7492   6.130   0.150   2.092
 2198SOL    HW1 7493   6.091   0.198   2.013
 2198SOL    HW2 7494   6.116   0.205   2.175
 2199SOL     OW 7495   5.325   6.785   4.086
 2199SOL    HW1 7496   5.366   6.741   4.005
 2199SOL    HW2 7497   5.227   6.767   4.087
 2200SOL     OW 7498   1.795   2.118   4.432
 2200SOL    HW1 7499   1.798   2.037   4.374
 2200SOL    HW2 7500   1.884   2.164   4.429
 2201SOL     OW 7501   6.562   2.768   2.943
 2201SOL    HW1 7502   6.648   2.818   2.942
 2201SOL    HW2 7503   6.541   2.738   3.037
 2202SOL     OW 7504   3.840   5.890   1.871
 2202SOL    HW1 7505   3.911   5.832   1.830
 2202SOL    HW2 7506   3.874   5.985   1.875
 2203SOL     OW 7507   2.233   3.691   1.026
 2203SOL    HW1 7508   2.138   3.723   1.019
 2203SOL    HW2 7509   2.282   3.716   0.942
 2204SOL     OW 7510   4.843   2.311   1.037
 2204SOL    HW1 7511   4.809   2.389   0.984
 2204SOL    HW2 7512   4.801   2.227   1.002
 2205SOL     OW 7513   1.184   0.120   6.450
 2205SOL    HW1 7514   1.094   0.138   6.411
 2205SOL    HW2 7515   1.183   0.034   6.500
 2206SOL     OW 7516   3.270   4.144   5.658
 2206SOL    HW1 7517   3.229   4.235   5.648
 2206SOL    HW2 7518   3.209   4.075   5.620
 2207SOL     OW 7519   3.199   4.900   6.355
 2207SOL    HW1 7520   3.139   4.942   6.424
 2207SOL    HW2 7521   3.183   4.802   6.352
 2208SOL     OW 7522   1.385   5.005   3.467
 2208SOL    HW1 7523   1.470   5.054   3.448
 2208SOL    HW2 7524   1.358   4.954   3.385
 2209SOL     OW 7525   2.657   0.160   4.902
 2209SOL    HW1 7526   2.749   0.138   4.933
 2209SOL    HW2 7527   2.594   0.157   4.980
 2210SOL     OW 7528   0.385   4.385   3.949
 2210SOL    HW1 7529   0.448   4.399   3.872
 2210SOL    HW2 7530   0.319   4.313   3.925
 2211SOL     OW 7531   6.932   0.498   0.766
 2211SOL    HW1 7532   7.019   0.452   0.784
 2211SOL    HW2 7533   6.941   0.595   0.788
 2212SOL     OW 7534   2.126   5.946   0.403
 2212SOL    HW1 7535   2.112   5.879   0.330
 2212SOL    HW2 7536   2.208   5.999   0.384
 2213SOL     OW 7537   3.512   1.794   5.100
 2213SOL    HW1 7538   3.438   1.827   5.159
 2213SOL    HW2 7539   3.595   1.848   5.117
 2214SOL     OW 7540   2.944   3.365   4.738
 2214SOL    HW1 7541   2.853   3.384   4.774
 2214SOL    HW2 7542   3.013   3.392   4.806
 2215SOL     OW 7543   5.372   0.495   0.163
 2215SOL    HW1 7544   5.451   0.437   0.180
 2215SOL    HW2 7545   5.381   0.540   0.074
 2216SOL     OW 7546   1.118   0.867   6.635
 2216SOL    HW1 7547   1.088   0.802   6.566
 2216SOL    HW2 7548   1.196   0.830   6.686
 2217SOL     OW 7549   3.947   6.863   2.298
 2217SOL    HW1 7550   3.887   6.909   2.363
 2217SOL    HW2 7551   4.017   6.927   2.266
 2218SOL     OW 7552   0.128   5.079   0.296
 2218SOL    HW1 7553   0.120   5.177   0.276
 2218SOL    HW2 7554   0.195   5.065   0.368
 2219SOL     OW 7555   6.171   1.833   0.872
 2219SOL    HW1 7556   6.094   1.789   0.918
 2219SOL    HW2 7557   6.205   1.774   0.799
 2220SOL     OW 7558   2.155   5.928   5.146
 2220SOL    HW1 7559   2.204   5.845   5.173
 2220SOL    HW2 7560   2.214   6.007   5.161
 2221SOL     OW 7561   5.759   1.692   5.455
 2221SOL    HW1 7562   5.805   1.621   5.402
 2221SOL    HW2 7563   5.821   1.770   5.467
 2222SOL     OW 7564   6.030   0.489   1.525
 2222SOL    HW1 7565   5.935   0.517   1.514
 2222SOL    HW2 7566   6.034   0.391   1.542
 2223SOL     OW 7567   5.841   1.176   5.688
 2223SOL    HW1 7568   5.768   1.117   5.653
 2223SOL    HW2 7569   5.910   1.188   5.618
 2224SOL     OW 7570   6.413   4.046   0.528
 2224SOL    HW1 7571   6.452   3.955   0.513
 2224SOL    HW2 7572   6.486   4.114   0.529
 2225SOL     OW 7573   6.224   6.606   4.195
 2225SOL    HW1 7574   6.228   6.517   4.239
 2225SOL    HW2 7575   6.304   6.661   4.222
 2226SOL     OW 7576   3.951   5.133   0.925
 2226SOL    HW1 7577   3.951   5.213   0.866
 2226SOL    HW2 7578   3.980   5.160   1.017
 2227SOL     OW 7579   6.061   2.525   0.098
 2227SOL    HW1 7580   6.102   2.557   0.012
 2227SOL    HW2 7581   5.969   2.490   0.081
 2228SOL     OW 7582   4.456   5.220   0.851
 2228SOL    HW1 7583   4.382   5.236   0.916
 2228SOL    HW2 7584   4.421   5.226   0.758
 2229SOL     OW 7585   4.194   3.043   5.402
 2229SOL    HW1 7586   4.102   3.067   5.370
 2229SOL    HW2 7587   4.188   2.963   5.462
 2230SOL     OW 7588   6.608   6.357   0.742
 2230SOL    HW1 7589   6.644   6.411   0.666
 2230SOL    HW2 7590   6.523   6.313   0.713
 2231SOL     OW 7591   0.120   0.953   1.518
 2231SOL    HW1 7592   0.024   0.926   1.527
 2231SOL    HW2 7593   0.144   0.957   1.421
 2232SOL     OW 7594   1.223   1.601   4.355
 2232SOL    HW1 7595   1.167   1.612   4.273
 2232SOL    HW2 7596   1.198   1.517   4.402
 2233SOL     OW 7597   2.652   3.224   0.604
 2233SOL    HW1 7598   2.640   3.181   0.694
 2233SOL    HW2 7599   2.620   3.162   0.533
 2234SOL     OW 7600   3.617   1.422   1.469
 2234SOL    HW1 7601   3.662   1.348   1.517
 2234SOL    HW2 7602   3.547   1.463   1.528
 2235SOL     OW 7603   2.671   0.446   1.403
 2235SOL    HW1 7604   2.587   0.483   1.445
 2235SOL    HW2 7605   2.698   0.504   1.327
 2236SOL     OW 7606   2.011   3.835   6.056
 2236SOL    HW1 7607   2.086   3.771   6.075
 2236SOL    HW2 7608   1.932   3.813   6.113
 2237SOL     OW 7609   5.487   4.409   4.205
 2237SOL    HW1 7610   5.419   4.417   4.132
 2237SOL    HW2 7611   5.441   4.399   4.293
 2238SOL     OW 7612   5.003   5.615   1.621
 2238SOL    HW1 7613   5.044   5.658   1.701
 2238SOL    HW2 7614   5.010   5.677   1.542
 2239SOL     OW 7615   3.707   5.099   4.008
 2239SOL    HW1 7616   3.679   5.139   3.921
 2239SOL    HW2 7617   3.633   5.110   4.074
 2240SOL     OW 7618   3.398   5.292   3.153
 2240SOL    HW1 7619   3.485   5.311   3.108
 2240SOL    HW2 7620   3.324   5.342   3.107
 2241SOL     OW 7621   0.146   5.888   2.804
 2241SOL    HW1 7622   0.104   5.895   2.895
 2241SOL    HW2 7623   0.192   5.800   2.795
 2242SOL     OW 7624   5.125   2.697   2.617
 2242SOL    HW1 7625   5.219   2.729   2.605
 2242SOL    HW2 7626   5.075   2.761   2.675
 2243SOL     OW 7627   1.755   6.399   5.803
 2243SOL    HW1 7628   1.704   6.479   5.772
 2243SOL    HW2 7629   1.853   6.415   5.790
 2244SOL     OW 7630   2.432   6.704   0.729
 2244SOL    HW1 7631   2.494   6.653   0.788
 2244SOL    HW2 7632   2.463   6.799   0.722
 2245SOL     OW 7633   0.882   1.413   1.748
 2245SOL    HW1 7634   0.944   1.335   1.737
 2245SOL    HW2 7635   0.804   1.386   1.806
 2246SOL     OW 7636   1.656   0.966   4.051
 2246SOL    HW1 7637   1.720   1.042   4.045
 2246SOL    HW2 7638   1.567   1.000   4.079
 2247SOL     OW 7639   3.316   3.016   3.417
 2247SOL    HW1 7640   3.384   2.962   3.467
 2247SOL    HW2 7641   3.281   2.963   3.340
 2248SOL     OW 7642   6.236   4.422   4.776
 2248SOL    HW1 7643   6.289   4.431   4.860
 2248SOL    HW2 7644   6.190   4.508   4.756
 2249SOL     OW 7645   5.885   6.411   3.553
 2249SOL    HW1 7646   5.897   6.443   3.459
 2249SOL    HW2 7647   5.792   6.429   3.583
 2250SOL     OW 7648   3.621   3.747   5.101
 2250SOL    HW1 7649   3.681   3.705   5.033
 2250SOL    HW2 7650   3.676   3.784   5.176
 2251SOL     OW 7651   5.501   0.558   6.957
 2251SOL    HW1 7652   5.413   0.576   6.912
 2251SOL    HW2 7653   5.505   0.462   6.984
 2252SOL     OW 7654   4.819   1.998   2.804
 2252SOL    HW1 7655   4.739   1.989   2.745
 2252SOL    HW2 7656   4.833   2.095   2.826
 2253SOL     OW 7657   6.742   3.748   0.008
 2253SOL    HW1 7658   6.756   3.680   6.961
 2253SOL    HW2 7659   6.822   3.749   0.068
 2254SOL     OW 7660   3.640   3.210   4.617
 2254SOL    HW1 7661   3.683   3.230   4.529
 2254SOL    HW2 7662   3.562   3.270   4.631
 2255SOL     OW 7663   3.941   3.117   6.106
 2255SOL    HW1 7664   3.995   3.044   6.148
 2255SOL    HW2 7665   3.883   3.078   6.034
 2256SOL     OW 7666   4.956   6.435   2.002
 2256SOL    HW1 7667   4.991   6.404   1.914
 2256SOL    HW2 7668   4.962   6.535   2.007
 2257SOL     OW 7669   6.966   1.605   4.395
 2257SOL    HW1 7670   6.890   1.635   4.338
 2257SOL    HW2 7671   7.024   1.541   4.343
 2258SOL     OW 7672   1.448   5.228   4.376
 2258SOL    HW1 7673   1.506   5.284   4.316
 2258SOL    HW2 7674   1.395   5.287   4.436
 2259SOL     OW 7675   4.965   2.845   5.471
 2259SOL    HW1 7676   5.043   2.898   5.507
 2259SOL    HW2 7677   4.929   2.787   5.544
 2260SOL     OW 7678   0.252   4.378   1.267
 2260SOL    HW1 7679   0.294   4.311   1.205
 2260SOL    HW2 7680   0.321   4.443   1.297
 2261SOL     OW 7681   5.451   5.256   0.292
 2261SOL    HW1 7682   5.469   5.258   0.391
 2261SOL    HW2 7683   5.385   5.326   0.268
 2262SOL     OW 7684   5.768   0.379   3.855
 2262SOL    HW1 7685   5.809   0.295   3.822
 2262SOL    HW2 7686   5.838   0.449   3.866
 2263SOL     OW 7687   3.289   6.015   0.315
 2263SOL    HW1 7688   3.346   5.967   0.249
 2263SOL    HW2 7689   3.218   5.953   0.349
 2264SOL     OW 7690   3.212   5.428   6.464
 2264SOL    HW1 7691   3.291   5.439   6.524
 2264SOL    HW2 7692   3.155   5.353   6.497
 2265SOL     OW 7693   2.134   0.949   3.662
 2265SOL    HW1 7694   2.164   0.856   3.683
 2265SOL    HW2 7695   2.187   1.015   3.716
 2266SOL     OW 7696   5.217   1.298   0.556
 2266SOL    HW1 7697   5.160   1.330   0.632
 2266SOL    HW2 7698   5.237   1.376   0.496
 2267SOL     OW 7699   4.968   3.245   4.856
 2267SOL    HW1 7700   4.957   3.159   4.906
 2267SOL    HW2 7701   4.954   3.322   4.919
 2268SOL     OW 7702   5.987   3.950   6.704
 2268SOL    HW1 7703   5.953   3.875   6.647
 2268SOL    HW2 7704   6.084   3.936   6.724
 2269SOL     OW 7705   6.872   4.699   5.658
 2269SOL    HW1 7706   6.876   4.799   5.669
 2269SOL    HW2 7707   6.956   4.659   5.694
 2270SOL     OW 7708   3.150   2.371   5.668
 2270SOL    HW1 7709   3.118   2.441   5.730
 2270SOL    HW2 7710   3.222   2.409   5.609
 2271SOL     OW 7711   5.556   4.509   0.204
 2271SOL    HW1 7712   5.510   4.586   0.159
 2271SOL    HW2 7713   5.648   4.498   0.166
 2272SOL     OW 7714   6.117   2.009   6.518
 2272SOL    HW1 7715   6.089   2.025   6.423
 2272SOL    HW2 7716   6.064   1.932   6.555
 2273SOL     OW 7717   1.906   1.363   2.127
 2273SOL    HW1 7718   1.868   1.435   2.068
 2273SOL    HW2 7719   2.003   1.350   2.104
 2274SOL     OW 7720   1.038   2.024   5.888
 2274SOL    HW1 7721   1.035   1.950   5.955
 2274SOL    HW2 7722   1.120   2.079   5.904
 2275SOL     OW 7723   6.320   6.360   4.663
 2275SOL    HW1 7724   6.401   6.317   4.623
 2275SOL    HW2 7725   6.329   6.459   4.658
 2276SOL     OW 7726   2.628   5.552   1.945
 2276SOL    HW1 7727   2.558   5.576   2.012
 2276SOL    HW2 7728   2.591   5.565   1.853
 2277SOL     OW 7729   3.946   3.724   4.376
 2277SOL    HW1 7730   3.959   3.818   4.406
 2277SOL    HW2 7731   3.933   3.722   4.277
 2278SOL     OW 7732   6.116   4.070   4.531
 2278SOL    HW1 7733   6.120   3.982   4.483
 2278SOL    HW2 7734   6.069   4.137   4.474
 2279SOL     OW 7735   5.660   6.562   6.007
 2279SOL    HW1 7736   5.595   6.630   5.974
 2279SOL    HW2 7737   5.753   6.599   6.004
 2280SOL     OW 7738   6.828   0.112   4.867
 2280SOL    HW1 7739   6.749   0.148   4.916
 2280SOL    HW2 7740   6.873   0.044   4.924
 2281SOL     OW 7741   2.989   0.752   1.919
 2281SOL    HW1 7742   3.051   0.699   1.978
 2281SOL    HW2 7743   3.042   0.819   1.867
 2282SOL     OW 7744   5.726   0.009   5.519
 2282SOL    HW1 7745   5.716   0.018   5.618
 2282SOL    HW2 7746   5.714   0.099   5.476
 2283SOL     OW 7747   1.340   5.987   1.702
 2283SOL    HW1 7748   1.358   5.931   1.621
 2283SOL    HW2 7749   1.268   6.053   1.681
 2284SOL     OW 7750   1.720   2.793   0.207
 2284SOL    HW1 7751   1.799   2.793   0.145
 2284SOL    HW2 7752   1.734   2.862   0.279
 2285SOL     OW 7753   2.024   2.622   1.325
 2285SOL    HW1 7754   2.120   2.633   1.299
 2285SOL    HW2 7755   2.019   2.597   1.422
 2286SOL     OW 7756   6.061   6.959   3.841
 2286SOL    HW1 7757   6.079   6.929   3.748
 2286SOL    HW2 7758   5.977   6.916   3.875
 2287SOL     OW 7759   2.461   0.071   3.245
 2287SOL    HW1 7760   2.405   0.086   3.164
 2287SOL    HW2 7761   2.539   0.134   3.244
 2288SOL     OW 7762   6.075   4.842   4.269
 2288SOL    HW1 7763   6.162   4.859   4.315
 2288SOL    HW2 7764   6.092   4.795   4.182
 2289SOL     OW 7765   0.803   5.170   0.840
 2289SOL    HW1 7766   0.869   5.234   0.801
 2289SOL    HW2 7767   0.729   5.155   0.775
 2290SOL     OW 7768   0.527   3.696   0.975
 2290SOL    HW1 7769   0.600   3.730   1.034
 2290SOL    HW2 7770   0.544   3.600   0.953
 2291SOL     OW 7771   1.835   2.061   5.195
 2291SOL    HW1 7772   1.862   2.107   5.280
 2291SOL    HW2 7773   1.867   1.966   5.198
 2292SOL     OW 7774   0.770   1.926   4.268
 2292SOL    HW1 7775   0.718   1.991   4.324
 2292SOL    HW2 7776   0.840   1.976   4.217
 2293SOL     OW 7777   4.969   6.206   1.526
 2293SOL    HW1 7778   4.879   6.205   1.568
 2293SOL    HW2 7779   4.960   6.218   1.427
 2294SOL     OW 7780   3.351   0.634   6.988
 2294SOL    HW1 7781   3.442   0.673   6.995
 2294SOL    HW2 7782   3.352   0.559   6.921
 2295SOL     OW 7783   0.878   1.708   2.961
 2295SOL    HW1 7784   0.897   1.703   2.863
 2295SOL    HW2 7785   0.812   1.781   2.978
 2296SOL     OW 7786   4.508   5.058   0.537
 2296SOL    HW1 7787   4.469   4.983   0.590
 2296SOL    HW2 7788   4.608   5.048   0.536
 2297SOL     OW 7789   4.385   3.958   5.385
 2297SOL    HW1 7790   4.379   3.968   5.485
 2297SOL    HW2 7791   4.421   3.867   5.363
 2298SOL     OW 7792   3.826   3.096   1.673
 2298SOL    HW1 7793   3.922   3.116   1.653
 2298SOL    HW2 7794   3.820   3.048   1.761
 2299SOL     OW 7795   4.493   6.142   5.366
 2299SOL    HW1 7796   4.577   6.194   5.352
 2299SOL    HW2 7797   4.454   6.116   5.277
 2300SOL     OW 7798   1.979   5.391   2.473
 2300SOL    HW1 7799   2.052   5.405   2.540
 2300SOL    HW2 7800   2.004   5.316   2.412
 2301SOL     OW 7801   3.149   3.009   2.966
 2301SOL    HW1 7802   3.206   3.033   3.044
 2301SOL    HW2 7803   3.052   3.019   2.990
 2302SOL     OW 7804   3.637   0.322   0.662
 2302SOL    HW1 7805   3.719   0.357   0.616
 2302SOL    HW2 7806   3.640   0.346   0.759
 2303SOL     OW 7807   1.948   3.180   6.148
 2303SOL    HW1 7808   1.949   3.150   6.243
 2303SOL    HW2 7809   1.854   3.176   6.112
 2304SOL     OW 7810   4.383   6.941   3.876
 2304SOL    HW1 7811   4.451   6.979   3.814
 2304SOL    HW2 7812   4.416   6.948   3.970
 2305SOL     OW 7813   2.661   6.765   3.024
 2305SOL    HW1 7814   2.668   6.755   3.123
 2305SOL    HW2 7815   2.728   6.705   2.979
 2306SOL     OW 7816   2.563   4.999   1.937
 2306SOL    HW1 7817   2.621   5.016   2.016
 2306SOL    HW2 7818   2.588   5.062   1.863
 2307SOL     OW 7819   0.448   4.273   2.644
 2307SOL    HW1 7820   0.355   4.308   2.631
 2307SOL    HW2 7821   0.458   4.188   2.593
 2308SOL     OW 7822   1.528   6.266   0.216
 2308SOL    HW1 7823   1.447   6.290   0.269
 2308SOL    HW2 7824   1.557   6.173   0.240
 2309SOL     OW 7825   2.007   6.598   7.004
 2309SOL    HW1 7826   1.970   6.553   6.923
 2309SOL    HW2 7827   1.933   6.643   0.029
 2310SOL     OW 7828   5.469   6.275   1.312
 2310SOL    HW1 7829   5.479   6.321   1.224
 2310SOL    HW2 7830   5.373   6.249   1.325
 2311SOL     OW 7831   2.256   5.987   1.801
 2311SOL    HW1 7832   2.238   5.914   1.736
 2311SOL    HW2 7833   2.199   6.066   1.778
 2312SOL     OW 7834   3.826   6.307   4.122
 2312SOL    HW1 7835   3.878   6.294   4.038
 2312SOL    HW2 7836   3.813   6.405   4.138
 2313SOL     OW 7837   5.082   5.674   1.323
 2313SOL    HW1 7838   5.120   5.609   1.258
 2313SOL    HW2 7839   5.136   5.758   1.323
 2314SOL     OW 7840   5.368   0.167   5.183
 2314SOL    HW1 7841   5.319   0.182   5.269
 2314SOL    HW2 7842   5.310   0.196   5.107
 2315SOL     OW 7843   4.953   3.304   5.349
 2315SOL    HW1 7844   4.888   3.229   5.351
 2315SOL    HW2 7845   4.982   3.326   5.442
 2316SOL     OW 7846   2.995   0.572   4.456
 2316SOL    HW1 7847   2.962   0.534   4.542
 2316SOL    HW2 7848   2.933   0.546   4.381
 2317SOL     OW 7849   6.635   5.595   3.479
 2317SOL    HW1 7850   6.637   5.642   3.391
 2317SOL    HW2 7851   6.597   5.656   3.549
 2318SOL     OW 7852   2.289   2.999   4.326
 2318SOL    HW1 7853   2.353   2.956   4.262
 2318SOL    HW2 7854   2.272   3.093   4.298
 2319SOL     OW 7855   2.505   5.724   4.487
 2319SOL    HW1 7856   2.579   5.693   4.547
 2319SOL    HW2 7857   2.543   5.783   4.416
 2320SOL     OW 7858   0.740   3.116   4.844
 2320SOL    HW1 7859   0.812   3.093   4.779
 2320SOL    HW2 7860   0.779   3.127   4.935
 2321SOL     OW 7861   2.264   5.622   0.043
 2321SOL    HW1 7862   2.345   5.682   0.041
 2321SOL    HW2 7863   2.234   5.604   6.975
 2322SOL     OW 7864   1.714   4.097   3.375
 2322SOL    HW1 7865   1.762   4.052   3.300
 2322SOL    HW2 7866   1.746   4.060   3.462
 2323SOL     OW 7867   3.554   5.032   1.854
 2323SOL    HW1 7868   3.547   4.936   1.883
 2323SOL    HW2 7869   3.645   5.049   1.818
 2324SOL     OW 7870   6.856   5.693   0.871
 2324SOL    HW1 7871   6.832   5.623   0.803
 2324SOL    HW2 7872   6.799   5.682   0.952
 2325SOL     OW 7873   0.959   4.276   1.465
 2325SOL    HW1 7874   1.055   4.276   1.440
 2325SOL    HW2 7875   0.942   4.349   1.532
 2326SOL     OW 7876   3.492   5.663   6.636
 2326SOL    HW1 7877   3.577   5.668   6.689
 2326SOL    HW2 7878   3.505   5.713   6.550
 2327SOL     OW 7879   6.647   1.472   4.127
 2327SOL    HW1 7880   6.642   1.390   4.069
 2327SOL    HW2 7881   6.707   1.539   4.085
 2328SOL     OW 7882   1.820   2.035   2.862
 2328SOL    HW1 7883   1.913   2.014   2.892
 2328SOL    HW2 7884   1.793   2.124   2.899
 2329SOL     OW 7885   1.760   4.577   4.653
 2329SOL    HW1 7886   1.739   4.480   4.646
 2329SOL    HW2 7887   1.855   4.588   4.681
 2330SOL     OW 7888   0.746   3.802   1.107
 2330SOL    HW1 7889   0.805   3.879   1.083
 2330SOL    HW2 7890   0.719   3.810   1.203
 2331SOL     OW 7891   3.733   5.897   6.576
 2331SOL    HW1 7892   3.810   5.910   6.514
 2331SOL    HW2 7893   3.653   5.866   6.524
 2332SOL     OW 7894   5.266   1.466   5.236
 2332SOL    HW1 7895   5.220   1.398   5.293
 2332SOL    HW2 7896   5.198   1.518   5.185
 2333SOL     OW 7897   0.172   4.360   2.609
 2333SOL    HW1 7898   0.121   4.431   2.560
 2333SOL    HW2 7899   0.133   4.271   2.589
 2334SOL     OW 7900   2.119   0.717   0.012
 2334SOL    HW1 7901   2.145   0.722   6.941
 2334SOL    HW2 7902   2.155   0.633   0.052
 2335SOL     OW 7903   6.155   1.397   3.395
 2335SOL    HW1 7904   6.161   1.371   3.491
 2335SOL    HW2 7905   6.226   1.465   3.374
 2336SOL     OW 7906   4.405   2.433   4.812
 2336SOL    HW1 7907   4.323   2.412   4.865
 2336SOL    HW2 7908   4.457   2.350   4.796
 2337SOL     OW 7909   4.393   0.861   1.996
 2337SOL    HW1 7910   4.487   0.837   2.017
 2337SOL    HW2 7911   4.371   0.950   2.036
 2338SOL     OW 7912   1.222   2.953   5.683
 2338SOL    HW1 7913   1.241   2.974   5.779
 2338SOL    HW2 7914   1.257   3.027   5.625
 2339SOL     OW 7915   3.288   3.582   4.485
 2339SOL    HW1 7916   3.190   3.568   4.466
 2339SOL    HW2 7917   3.299   3.662   4.543
 2340SOL     OW 7918   6.032   4.394   0.110
 2340SOL    HW1 7919   6.067   4.348   0.192
 2340SOL    HW2 7920   6.075   4.356   0.029
 2341SOL     OW 7921   3.976   4.578   1.737
 2341SOL    HW1 7922   3.917   4.499   1.717
 2341SOL    HW2 7923   3.924   4.662   1.726
 2342SOL     OW 7924   0.606   0.164   5.027
 2342SOL    HW1 7925   0.641   0.086   5.078
 2342SOL    HW2 7926   0.616   0.147   4.929
 2343SOL     OW 7927   1.916   5.691   3.314
 2343SOL    HW1 7928   1.959   5.715   3.227
 2343SOL    HW2 7929   1.978   5.714   3.389
 2344SOL     OW 7930   2.118   6.019   0.071
 2344SOL    HW1 7931   2.030   6.063   0.051
 2344SOL    HW2 7932   2.102   5.936   0.124
 2345SOL     OW 7933   3.414   5.692   4.818
 2345SOL    HW1 7934   3.439   5.673   4.913
 2345SOL    HW2 7935   3.333   5.639   4.793
 2346SOL     OW 7936   4.169   2.774   5.525
 2346SOL    HW1 7937   4.087   2.726   5.494
 2346SOL    HW2 7938   4.245   2.710   5.533
 2347SOL     OW 7939   2.973   2.859   1.756
 2347SOL    HW1 7940   2.925   2.946   1.748
 2347SOL    HW2 7941   2.907   2.785   1.760
 2348SOL     OW 7942   2.397   0.049   3.507
 2348SOL    HW1 7943   2.330   0.116   3.539
 2348SOL    HW2 7944   2.415   0.065   3.409
 2349SOL     OW 7945   0.906   4.144   6.461
 2349SOL    HW1 7946   0.877   4.211   6.530
 2349SOL    HW2 7947   1.005   4.148   6.449
 2350SOL     OW 7948   4.694   0.016   6.397
 2350SOL    HW1 7949   4.703   6.943   6.409
 2350SOL    HW2 7950   4.753   0.046   6.322
 2351SOL     OW 7951   2.978   5.465   3.461
 2351SOL    HW1 7952   2.977   5.399   3.535
 2351SOL    HW2 7953   2.983   5.417   3.373
 2352SOL     OW 7954   0.842   4.613   2.234
 2352SOL    HW1 7955   0.907   4.651   2.299
 2352SOL    HW2 7956   0.750   4.615   2.273
 2353SOL     OW 7957   2.952   4.507   6.264
 2353SOL    HW1 7958   2.934   4.560   6.181
 2353SOL    HW2 7959   2.974   4.413   6.240
 2354SOL     OW 7960   3.431   1.335   5.979
 2354SOL    HW1 7961   3.498   1.367   5.912
 2354SOL    HW2 7962   3.420   1.236   5.971
 2355SOL     OW 7963   2.314   5.670   0.458
 2355SOL    HW1 7964   2.298   5.720   0.373
 2355SOL    HW2 7965   2.404   5.695   0.495
 2356SOL     OW 7966   1.320   3.294   6.591
 2356SOL    HW1 7967   1.340   3.218   6.653
 2356SOL    HW2 7968   1.314   3.261   6.497
 2357SOL     OW 7969   4.009   6.730   2.730
 2357SOL    HW1 7970   4.094   6.759   2.686
 2357SOL    HW2 7971   3.975   6.647   2.686
 2358SOL     OW 7972   4.251   4.895   5.148
 2358SOL    HW1 7973   4.305   4.846   5.079
 2358SOL    HW2 7974   4.154   4.883   5.129
 2359SOL     OW 7975   6.292   0.712   5.981
 2359SOL    HW1 7976   6.271   0.618   5.954
 2359SOL    HW2 7977   6.206   0.762   5.998
 2360SOL     OW 7978   5.546   4.946   6.953
 2360SOL    HW1 7979   5.497   4.887   7.017
 2360SOL    HW2 7980   5.609   4.891   6.898
 2361SOL     OW 7981   2.273   1.218   4.958
 2361SOL    HW1 7982   2.196   1.280   4.969
 2361SOL    HW2 7983   2.259   1.161   4.877
 2362SOL     OW 7984   2.017   0.026   4.910
 2362SOL    HW1 7985   2.020   0.125   4.894
 2362SOL    HW2 7986   1.922   7.023   4.924
 2363SOL     OW 7987   4.399   2.138   5.109
 2363SOL    HW1 7988   4.429   2.071   5.041
 2363SOL    HW2 7989   4.455   2.130   5.191
 2364SOL     OW 7990   1.311   1.717   2.505
 2364SOL    HW1 7991   1.323   1.643   2.571
 2364SOL    HW2 7992   1.282   1.678   2.417
 2365SOL     OW 7993   6.491   2.834   6.456
 2365SOL    HW1 7994   6.580   2.880   6.449
 2365SOL    HW2 7995   6.469   2.819   6.552
 2366SOL     OW 7996   1.934   5.788   6.185
 2366SOL    HW1 7997   1.857   5.843   6.217
 2366SOL    HW2 7998   1.900   5.706   6.139
 2367SOL     OW 7999   2.881   4.604   0.621
 2367SOL    HW1 8000   2.783   4.585   0.617
 2367SOL    HW2 8001   2.932   4.519   0.608
 2368SOL     OW 8002   4.636   0.381   3.533
 2368SOL    HW1 8003   4.610   0.400   3.438
 2368SOL    HW2 8004   4.580   0.436   3.594
 2369SOL     OW 8005   0.930   2.595   5.663
 2369SOL    HW1 8006   0.865   2.559   5.596
 2369SOL    HW2 8007   0.964   2.684   5.632
 2370SOL     OW 8008   5.236   3.686   6.901
 2370SOL    HW1 8009   5.165   3.745   6.939
 2370SOL    HW2 8010   5.206   3.590   6.909
 2371SOL     OW 8011   0.697   0.504   2.050
 2371SOL    HW1 8012   0.717   0.427   2.111
 2371SOL    HW2 8013   0.677   0.470   1.959
 2372SOL     OW 8014   0.012   2.374   2.121
 2372SOL    HW1 8015   6.957   2.314   2.128
 2372SOL    HW2 8016   7.012   2.457   2.070
 2373SOL     OW 8017   0.390   1.209   0.271
 2373SOL    HW1 8018   0.467   1.260   0.309
 2373SOL    HW2 8019   0.316   1.207   0.338
 2374SOL     OW 8020   5.984   1.116   3.639
 2374SOL    HW1 8021   6.029   1.082   3.721
 2374SOL    HW2 8022   5.968   1.040   3.576
 2375SOL     OW 8023   2.774   6.769   4.691
 2375SOL    HW1 8024   2.711   6.847   4.686
 2375SOL    HW2 8025   2.864   6.801   4.722
 2376SOL     OW 8026   6.624   2.796   4.012
 2376SOL    HW1 8027   6.573   2.713   3.990
 2376SOL    HW2 8028   6.692   2.814   3.940
 2377SOL     OW 8029   3.486   4.035   3.020
 2377SOL    HW1 8030   3.408   4.029   3.083
 2377SOL    HW2 8031   3.569   4.053   3.073
 2378SOL     OW 8032   5.131   2.008   0.471
 2378SOL    HW1 8033   5.129   2.030   0.373
 2378SOL    HW2 8034   5.038   1.990   0.503
 2379SOL     OW 8035   5.813   2.273   6.789
 2379SOL    HW1 8036   5.745   2.313   6.728
 2379SOL    HW2 8037   5.767   2.223   6.862
 2380SOL     OW 8038   0.867   0.402   6.259
 2380SOL    HW1 8039   0.877   0.496   6.228
 2380SOL    HW2 8040   0.777   0.367   6.231
 2381SOL     OW 8041   1.976   3.768   4.518
 2381SOL    HW1 8042   2.035   3.783   4.439
 2381SOL    HW2 8043   1.884   3.744   4.487
 2382SOL     OW 8044   2.418   4.464   3.884
 2382SOL    HW1 8045   2.399   4.436   3.977
 2382SOL    HW2 8046   2.358   4.414   3.821
 2383SOL     OW 8047   5.537   6.403   1.077
 2383SOL    HW1 8048   5.502   6.472   1.013
 2383SOL    HW2 8049   5.631   6.426   1.101
 2384SOL     OW 8050   5.986   0.159   2.894
 2384SOL    HW1 8051   6.004   0.066   2.927
 2384SOL    HW2 8052   6.018   0.226   2.961
 2385SOL     OW 8053   0.727   6.135   1.177
 2385SOL    HW1 8054   0.652   6.126   1.241
 2385SOL    HW2 8055   0.810   6.161   1.227
 2386SOL     OW 8056   5.331   4.769   4.284
 2386SOL    HW1 8057   5.401   4.815   4.229
 2386SOL    HW2 8058   5.374   4.722   4.361
 2387SOL     OW 8059   1.533   1.424   3.656
 2387SOL    HW1 8060   1.507   1.352   3.720
 2387SOL    HW2 8061   1.610   1.475   3.694
 2388SOL     OW 8062   1.357   2.134   3.466
 2388SOL    HW1 8063   1.259   2.147   3.476
 2388SOL    HW2 8064   1.402   2.148   3.554
 2389SOL     OW 8065   5.093   3.705   2.812
 2389SOL    HW1 8066   5.144   3.664   2.736
 2389SOL    HW2 8067   5.050   3.789   2.781
 2390SOL     OW 8068   4.133   3.352   2.923
 2390SOL    HW1 8069   4.096   3.295   2.997
 2390SOL    HW2 8070   4.232   3.351   2.926
 2391SOL     OW 8071   4.594   4.382   5.749
 2391SOL    HW1 8072   4.557   4.468   5.714
 2391SOL    HW2 8073   4.585   4.311   5.679
 2392SOL     OW 8074   3.585   6.609   5.866
 2392SOL    HW1 8075   3.567   6.557   5.950
 2392SOL    HW2 8076   3.543   6.561   5.789
 2393SOL     OW 8077   5.103   3.410   6.009
 2393SOL    HW1 8078   5.084   3.374   6.100
 2393SOL    HW2 8079   5.018   3.416   5.957
 2394SOL     OW 8080   1.522   3.053   4.658
 2394SOL    HW1 8081   1.470   3.130   4.695
 2394SOL    HW2 8082   1.585   3.020   4.728
 2395SOL     OW 8083   6.257   2.573   6.917
 2395SOL    HW1 8084   6.316   2.643   6.958
 2395SOL    HW2 8085   6.307   2.487   6.908
 2396SOL     OW 8086   4.585   5.157   1.365
 2396SOL    HW1 8087   4.608   5.252   1.385
 2396SOL    HW2 8088   4.580   5.144   1.266
 2397SOL     OW 8089   0.741   3.769   6.951
 2397SOL    HW1 8090   0.785   3.783   6.863
 2397SOL    HW2 8091   0.646   3.742   6.937
 2398SOL     OW 8092   2.695   3.609   6.662
 2398SOL    HW1 8093   2.688   3.593   6.564
 2398SOL    HW2 8094   2.632   3.549   6.710
 2399SOL     OW 8095   4.415   1.702   2.346
 2399SOL    HW1 8096   4.415   1.606   2.318
 2399SOL    HW2 8097   4.459   1.757   2.275
 2400SOL     OW 8098   3.025   4.649   7.024
 2400SOL    HW1 8099   3.030   4.567   6.967
 2400SOL    HW2 8100   3.071   4.725   6.978
 2401SOL     OW 8101   3.394   6.649   6.383
 2401SOL    HW1 8102   3.385   6.617   6.477
 2401SOL    HW2 8103   3.343   6.734   6.371
 2402SOL     OW 8104   6.955   0.951   3.666
 2402SOL    HW1 8105   6.983   0.997   3.750
 2402SOL    HW2 8106   6.996   0.998   3.588
 2403SOL     OW 8107   2.048   2.415   0.448
 2403SOL    HW1 8108   2.091   2.449   0.365
 2403SOL    HW2 8109   2.011   2.492   0.500
 2404SOL     OW 8110   4.191   0.638   1.329
 2404SOL    HW1 8111   4.194   0.712   1.262
 2404SOL    HW2 8112   4.248   0.661   1.408
 2405SOL     OW 8113   3.835   3.289   2.882
 2405SOL    HW1 8114   3.900   3.213   2.882
 2405SOL    HW2 8115   3.849   3.346   2.963
 2406SOL     OW 8116   2.748   6.573   3.331
 2406SOL    HW1 8117   2.752   6.669   3.358
 2406SOL    HW2 8118   2.749   6.515   3.413
 2407SOL     OW 8119   4.993   1.962   2.527
 2407SOL    HW1 8120   4.944   2.017   2.459
 2407SOL    HW2 8121   4.934   1.948   2.607
 2408SOL     OW 8122   4.080   5.074   3.525
 2408SOL    HW1 8123   3.991   5.119   3.523
 2408SOL    HW2 8124   4.074   4.988   3.473
 2409SOL     OW 8125   1.483   3.817   2.070
 2409SOL    HW1 8126   1.451   3.906   2.101
 2409SOL    HW2 8127   1.431   3.745   2.116
 2410SOL     OW 8128   4.756   2.134   5.548
 2410SOL    HW1 8129   4.830   2.109   5.611
 2410SOL    HW2 8130   4.757   2.233   5.534
 2411SOL     OW 8131   4.363   5.139   5.207
 2411SOL    HW1 8132   4.319   5.050   5.192
 2411SOL    HW2 8133   4.381   5.182   5.118
 2412SOL     OW 8134   4.638   4.944   1.513
 2412SOL    HW1 8135   4.594   4.870   1.461
 2412SOL    HW2 8136   4.612   5.032   1.473
 2413SOL     OW 8137   6.164   2.337   1.183
 2413SOL    HW1 8138   6.167   2.398   1.262
 2413SOL    HW2 8139   6.071   2.305   1.169
 2414SOL     OW 8140   4.956   4.240   2.381
 2414SOL    HW1 8141   4.972   4.298   2.301
 2414SOL    HW2 8142   4.983   4.146   2.360
 2415SOL     OW 8143   0.083   6.749   1.924
 2415SOL    HW1 8144   0.114   6.841   1.901
 2415SOL    HW2 8145   7.010   6.751   1.946
 2416SOL     OW 8146   4.116   2.020   5.040
 2416SOL    HW1 8147   4.028   1.973   5.030
 2416SOL    HW2 8148   4.188   1.952   5.055
 2417SOL     OW 8149   3.771   3.556   6.146
 2417SOL    HW1 8150   3.855   3.505   6.132
 2417SOL    HW2 8151   3.698   3.516   6.091
 2418SOL     OW 8152   2.966   3.857   4.040
 2418SOL    HW1 8153   2.900   3.828   4.109
 2418SOL    HW2 8154   3.055   3.817   4.060
 2419SOL     OW 8155   0.991   6.149   4.599
 2419SOL    HW1 8156   0.960   6.240   4.628
 2419SOL    HW2 8157   1.019   6.097   4.679
 2420SOL     OW 8158   3.151   1.285   1.990
 2420SOL    HW1 8159   3.139   1.205   2.049
 2420SOL    HW2 8160   3.066   1.339   1.991
 2421SOL     OW 8161   2.942   1.585   4.732
 2421SOL    HW1 8162   2.873   1.651   4.702
 2421SOL    HW2 8163   3.014   1.579   4.663
 2422SOL     OW 8164   5.575   0.990   1.848
 2422SOL    HW1 8165   5.620   1.076   1.871
 2422SOL    HW2 8166   5.645   0.921   1.826
 2423SOL     OW 8167   0.765   6.208   3.410
 2423SOL    HW1 8168   0.854   6.165   3.420
 2423SOL    HW2 8169   0.705   6.147   3.357
 2424SOL     OW 8170   6.362   6.766   6.568
 2424SOL    HW1 8171   6.307   6.793   6.647
 2424SOL    HW2 8172   6.413   6.683   6.591
 2425SOL     OW 8173   6.109   0.138   4.353
 2425SOL    HW1 8174   6.029   0.193   4.375
 2425SOL    HW2 8175   6.115   0.126   4.254
 2426SOL     OW 8176   1.156   5.515   4.552
 2426SOL    HW1 8177   1.091   5.441   4.567
 2426SOL    HW2 8178   1.130   5.595   4.607
 2427SOL     OW 8179   5.829   5.227   5.592
 2427SOL    HW1 8180   5.741   5.262   5.558
 2427SOL    HW2 8181   5.876   5.299   5.642
 2428SOL     OW 8182   6.136   6.974   3.572
 2428SOL    HW1 8183   6.094   6.888   3.546
 2428SOL    HW2 8184   6.235   6.961   3.583
 2429SOL     OW 8185   5.222   5.388   3.724
 2429SOL    HW1 8186   5.311   5.342   3.719
 2429SOL    HW2 8187   5.223   5.455   3.799
 2430SOL     OW 8188   6.347   1.972   1.262
 2430SOL    HW1 8189   6.436   1.981   1.307
 2430SOL    HW2 8190   6.311   1.880   1.278
 2431SOL     OW 8191   4.396   0.853   2.575
 2431SOL    HW1 8192   4.297   0.848   2.568
 2431SOL    HW2 8193   4.432   0.910   2.501
 2432SOL     OW 8194   3.494   6.893   3.125
 2432SOL    HW1 8195   3.589   6.866   3.137
 2432SOL    HW2 8196   3.462   6.864   3.034
 2433SOL     OW 8197   3.352   0.596   1.458
 2433SOL    HW1 8198   3.274   0.534   1.451
 2433SOL    HW2 8199   3.401   0.577   1.543
 2434SOL     OW 8200   4.453   0.197   4.887
 2434SOL    HW1 8201   4.372   0.245   4.921
 2434SOL    HW2 8202   4.428   0.139   4.810
 2435SOL     OW 8203   4.291   4.703   6.261
 2435SOL    HW1 8204   4.195   4.727   6.243
 2435SOL    HW2 8205   4.319   4.742   6.348
 2436SOL     OW 8206   1.899   5.865   1.499
 2436SOL    HW1 8207   1.858   5.949   1.533
 2436SOL    HW2 8208   1.915   5.873   1.400
 2437SOL     OW 8209   4.824   6.111   6.555
 2437SOL    HW1 8210   4.862   6.146   6.641
 2437SOL    HW2 8211   4.768   6.030   6.574
 2438SOL     OW 8212   3.761   1.097   6.453
 2438SOL    HW1 8213   3.853   1.062   6.472
 2438SOL    HW2 8214   3.697   1.020   6.451
 2439SOL     OW 8215   0.968   4.827   6.394
 2439SOL    HW1 8216   0.931   4.836   6.486
 2439SOL    HW2 8217   0.900   4.859   6.328
 2440SOL     OW 8218   4.809   5.536   5.739
 2440SOL    HW1 8219   4.870   5.561   5.664
 2440SOL    HW2 8220   4.780   5.619   5.787
 2441SOL     OW 8221   0.917   0.493   0.041
 2441SOL    HW1 8222   0.957   0.444   6.989
 2441SOL    HW2 8223   0.988   0.549   0.085
 2442SOL     OW 8224   0.138   4.635   5.030
 2442SOL    HW1 8225   0.104   4.657   5.122
 2442SOL    HW2 8226   0.102   4.700   4.964
 2443SOL     OW 8227   4.297   5.628   5.738
 2443SOL    HW1 8228   4.364   5.565   5.776
 2443SOL    HW2 8229   4.307   5.630   5.638
 2444SOL     OW 8230   2.959   4.253   6.124
 2444SOL    HW1 8231   3.051   4.217   6.110
 2444SOL    HW2 8232   2.895   4.208   6.061
 2445SOL     OW 8233   0.290   0.580   1.940
 2445SOL    HW1 8234   0.356   0.562   1.867
 2445SOL    HW2 8235   0.252   0.494   1.974
 2446SOL     OW 8236   0.230   5.386   3.916
 2446SOL    HW1 8237   0.225   5.288   3.933
 2446SOL    HW2 8238   0.214   5.435   4.001
 2447SOL     OW 8239   2.056   2.515   1.063
 2447SOL    HW1 8240   1.987   2.560   1.119
 2447SOL    HW2 8241   2.129   2.479   1.121
 2448SOL     OW 8242   0.631   0.265   4.302
 2448SOL    HW1 8243   0.709   0.246   4.243
 2448SOL    HW2 8244   0.563   0.319   4.252
 2449SOL     OW 8245   0.254   5.006   0.996
 2449SOL    HW1 8246   0.343   4.960   0.992
 2449SOL    HW2 8247   0.263   5.090   1.049
 2450SOL     OW 8248   2.344   4.948   3.193
 2450SOL    HW1 8249   2.289   4.915   3.116
 2450SOL    HW2 8250   2.323   4.893   3.274
 2451SOL     OW 8251   0.914   0.206   3.118
 2451SOL    HW1 8252   1.003   0.247   3.135
 2451SOL    HW2 8253   0.845   0.252   3.175
 2452SOL     OW 8254   1.771   3.399   2.908
 2452SOL    HW1 8255   1.765   3.496   2.882
 2452SOL    HW2 8256   1.684   3.369   2.946
 2453SOL     OW 8257   6.183   4.058   1.269
 2453SOL    HW1 8258   6.101   4.025   1.316
 2453SOL    HW2 8259   6.190   4.015   1.180
 2454SOL     OW 8260   2.845   0.943   0.841
 2454SOL    HW1 8261   2.858   0.844   0.847
 2454SOL    HW2 8262   2.749   0.963   0.824
 2455SOL     OW 8263   5.424   5.798   0.247
 2455SOL    HW1 8264   5.366   5.734   0.297
 2455SOL    HW2 8265   5.377   5.885   0.235
 2456SOL     OW 8266   5.433   6.799   1.341
 2456SOL    HW1 8267   5.406   6.893   1.323
 2456SOL    HW2 8268   5.351   6.742   1.350
 2457SOL     OW 8269   6.232   6.060   0.160
 2457SOL    HW1 8270   6.178   6.075   0.243
 2457SOL    HW2 8271   6.329   6.073   0.180
 2458SOL     OW 8272   2.557   5.743   3.252
 2458SOL    HW1 8273   2.521   5.793   3.331
 2458SOL    HW2 8274   2.533   5.646   3.260
 2459SOL     OW 8275   2.310   6.632   0.505
 2459SOL    HW1 8276   2.212   6.651   0.507
 2459SOL    HW2 8277   2.352   6.663   0.591
 2460SOL     OW 8278   1.873   0.723   1.157
 2460SOL    HW1 8279   1.860   0.628   1.184
 2460SOL    HW2 8280   1.854   0.783   1.235
 2461SOL     OW 8281   5.030   0.940   3.289
 2461SOL    HW1 8282   5.045   0.994   3.206
 2461SOL    HW2 8283   5.050   0.995   3.369
 2462SOL     OW 8284   2.490   5.359   0.162
 2462SOL    HW1 8285   2.406   5.402   0.129
 2462SOL    HW2 8286   2.479   5.336   0.259
 2463SOL     OW 8287   5.957   2.804   3.928
 2463SOL    HW1 8288   5.885   2.769   3.987
 2463SOL    HW2 8289   5.919   2.871   3.865
 2464SOL     OW 8290   1.427   5.215   1.576
 2464SOL    HW1 8291   1.452   5.308   1.603
 2464SOL    HW2 8292   1.449   5.152   1.649
 2465SOL     OW 8293   0.394   5.173   1.451
 2465SOL    HW1 8294   0.487   5.171   1.487
 2465SOL    HW2 8295   0.371   5.266   1.422
 2466SOL     OW 8296   3.156   0.430   1.988
 2466SOL    HW1 8297   3.224   0.393   1.925
 2466SOL    HW2 8298   3.186   0.520   2.020
 2467SOL     OW 8299   5.673   0.802   5.767
 2467SOL    HW1 8300   5.592   0.762   5.810
 2467SOL    HW2 8301   5.701   0.884   5.817
 2468SOL     OW 8302   6.803   6.296   2.199
 2468SOL    HW1 8303   6.703   6.302   2.207
 2468SOL    HW2 8304   6.826   6.228   2.129
 2469SOL     OW 8305   3.714   4.206   5.595
 2469SOL    HW1 8306   3.727   4.280   5.661
 2469SOL    HW2 8307   3.804   4.173   5.564
 2470SOL     OW 8308   2.520   3.949   5.962
 2470SOL    HW1 8309   2.618   3.932   5.951
 2470SOL    HW2 8310   2.494   4.031   5.911
 2471SOL     OW 8311   1.366   0.024   0.976
 2471SOL    HW1 8312   1.450   0.028   0.922
 2471SOL    HW2 8313   1.389   0.015   1.073
 2472SOL     OW 8314   5.364   1.506   4.579
 2472SOL    HW1 8315   5.267   1.496   4.600
 2472SOL    HW2 8316   5.374   1.545   4.487
 2473SOL     OW 8317   2.190   4.067   4.855
 2473SOL    HW1 8318   2.179   4.165   4.840
 2473SOL    HW2 8319   2.249   4.051   4.934
 2474SOL     OW 8320   0.527   4.768   0.264
 2474SOL    HW1 8321   0.520   4.791   0.167
 2474SOL    HW2 8322   0.446   4.716   0.291
 2475SOL     OW 8323   4.157   1.943   1.109
 2475SOL    HW1 8324   4.191   1.979   1.022
 2475SOL    HW2 8325   4.216   1.975   1.183
 2476SOL     OW 8326   0.790   2.670   3.204
 2476SOL    HW1 8327   0.695   2.640   3.197
 2476SOL    HW2 8328   0.837   2.616   3.273
 2477SOL     OW 8329   6.162   6.874   2.142
 2477SOL    HW1 8330   6.260   6.851   2.147
 2477SOL    HW2 8331   6.151   6.973   2.134
 2478SOL     OW 8332   5.330   0.025   2.406
 2478SOL    HW1 8333   5.344   6.983   2.333
 2478SOL    HW2 8334   5.340   7.004   2.495
 2479SOL     OW 8335   0.531   3.553   1.456
 2479SOL    HW1 8336   0.591   3.631   1.440
 2479SOL    HW2 8337   0.493   3.521   1.369
 2480SOL     OW 8338   6.989   2.803   1.127
 2480SOL    HW1 8339   0.038   2.751   1.086
 2480SOL    HW2 8340   6.982   2.893   1.083
 2481SOL     OW 8341   3.509   6.376   0.486
 2481SOL    HW1 8342   3.516   6.475   0.501
 2481SOL    HW2 8343   3.575   6.330   0.545
 2482SOL     OW 8344   4.468   3.289   6.008
 2482SOL    HW1 8345   4.550   3.346   6.007
 2482SOL    HW2 8346   4.468   3.229   5.928
 2483SOL     OW 8347   2.330   1.471   0.523
 2483SOL    HW1 8348   2.234   1.460   0.495
 2483SOL    HW2 8349   2.359   1.390   0.573
 2484SOL     OW 8350   2.177   0.555   1.062
 2484SOL    HW1 8351   2.173   0.482   1.130
 2484SOL    HW2 8352   2.145   0.640   1.104
 2485SOL     OW 8353   5.322   5.028   2.757
 2485SOL    HW1 8354   5.337   5.111   2.810
 2485SOL    HW2 8355   5.223   5.012   2.747
 2486SOL     OW 8356   1.379   5.422   3.231
 2486SOL    HW1 8357   1.315   5.365   3.282
 2486SOL    HW2 8358   1.459   5.442   3.287
 2487SOL     OW 8359   4.437   6.343   0.123
 2487SOL    HW1 8360   4.448   6.244   0.137
 2487SOL    HW2 8361   4.344   6.362   0.092
 2488SOL     OW 8362   2.714   4.335   1.681
 2488SOL    HW1 8363   2.753   4.248   1.649
 2488SOL    HW2 8364   2.779   4.380   1.742
 2489SOL     OW 8365   2.307   5.410   4.242
 2489SOL    HW1 8366   2.216   5.431   4.208
 2489SOL    HW2 8367   2.369   5.485   4.221
 2490SOL     OW 8368   6.777   4.997   0.909
 2490SOL    HW1 8369   6.717   4.924   0.941
 2490SOL    HW2 8370   6.856   5.005   0.970
 2491SOL     OW 8371   2.718   5.836   2.747
 2491SOL    HW1 8372   2.723   5.919   2.691
 2491SOL    HW2 8373   2.654   5.851   2.822
 2492SOL     OW 8374   4.410   2.719   6.340
 2492SOL    HW1 8375   4.365   2.718   6.429
 2492SOL    HW2 8376   4.504   2.753   6.350
 2493SOL     OW 8377   5.733   0.211   2.802
 2493SOL    HW1 8378   5.827   0.209   2.835
 2493SOL    HW2 8379   5.712   0.124   2.757
 2494SOL     OW 8380   4.829   3.058   2.781
 2494SOL    HW1 8381   4.900   2.987   2.786
 2494SOL    HW2 8382   4.807   3.089   2.873
 2495SOL     OW 8383   4.694   1.297   4.970
 2495SOL    HW1 8384   4.628   1.324   4.901
 2495SOL    HW2 8385   4.652   1.302   5.061
 2496SOL     OW 8386   1.282   5.254   0.412
 2496SOL    HW1 8387   1.207   5.204   0.456
 2496SOL    HW2 8388   1.325   5.195   0.344
 2497SOL     OW 8389   6.994   1.650   0.452
 2497SOL    HW1 8390   6.997   1.553   0.429
 2497SOL    HW2 8391   6.926   1.665   0.525
 2498SOL     OW 8392   2.133   3.179   3.601
 2498SOL    HW1 8393   2.128   3.148   3.506
 2498SOL    HW2 8394   2.063   3.133   3.655
 2499SOL     OW 8395   5.483   0.704   4.985
 2499SOL    HW1 8396   5.524   0.669   4.900
 2499SOL    HW2 8397   5.457   0.799   4.972
 2500SOL     OW 8398   4.643   3.455   6.162
 2500SOL    HW1 8399   4.703   3.383   6.198
 2500SOL    HW2 8400   4.608   3.510   6.238
 2501SOL     OW 8401   5.912   4.191   6.851
 2501SOL    HW1 8402   5.994   4.230   6.892
 2501SOL    HW2 8403   5.934   4.101   6.813
 2502SOL     OW 8404   2.173   6.714   3.564
 2502SOL    HW1 8405   2.083   6.728   3.522
 2502SOL    HW2 8406   2.171   6.742   3.660
 2503SOL     OW 8407   3.662   5.865   5.662
 2503SOL    HW1 8408   3.759   5.864   5.638
 2503SOL    HW2 8409   3.607   5.860   5.579
 2504SOL     OW 8410   2.253   4.678   4.577
 2504SOL    HW1 8411   2.309   4.655   4.497
 2504SOL    HW2 8412   2.290   4.759   4.622
 2505SOL     OW 8413   3.690   5.832   4.709
 2505SOL    HW1 8414   3.631   5.757   4.677
 2505SOL    HW2 8415   3.786   5.807   4.699
 2506SOL     OW 8416   6.294   3.385   6.057
 2506SOL    HW1 8417   6.313   3.366   6.153
 2506SOL    HW2 8418   6.266   3.301   6.011
 2507SOL     OW 8419   6.272   5.027   0.297
 2507SOL    HW1 8420   6.190   5.004   0.245
 2507SOL    HW2 8421   6.247   5.084   0.375
 2508SOL     OW 8422   3.064   2.218   1.788
 2508SOL    HW1 8423   2.996   2.284   1.820
 2508SOL    HW2 8424   3.153   2.263   1.780
 2509SOL     OW 8425   5.958   1.905   2.320
 2509SOL    HW1 8426   5.917   1.839   2.383
 2509SOL    HW2 8427   6.053   1.921   2.345
 2510SOL     OW 8428   3.207   4.797   0.576
 2510SOL    HW1 8429   3.131   4.829   0.632
 2510SOL    HW2 8430   3.201   4.698   0.563
 2511SOL     OW 8431   1.349   1.189   4.863
 2511SOL    HW1 8432   1.307   1.106   4.825
 2511SOL    HW2 8433   1.277   1.255   4.886
 2512SOL     OW 8434   5.472   4.034   4.139
 2512SOL    HW1 8435   5.459   3.993   4.230
 2512SOL    HW2 8436   5.548   4.098   4.142
 2513SOL     OW 8437   0.870   2.647   6.585
 2513SOL    HW1 8438   0.875   2.705   6.503
 2513SOL    HW2 8439   0.796   2.681   6.644
 2514SOL     OW 8440   0.496   1.890   4.177
 2514SOL    HW1 8441   0.438   1.841   4.242
 2514SOL    HW2 8442   0.592   1.868   4.195
 2515SOL     OW 8443   1.457   6.674   0.561
 2515SOL    HW1 8444   1.366   6.717   0.557
 2515SOL    HW2 8445   1.504   6.690   0.474
 2516SOL     OW 8446   5.967   5.396   3.249
 2516SOL    HW1 8447   6.000   5.490   3.257
 2516SOL    HW2 8448   6.036   5.340   3.203
 2517SOL     OW 8449   2.303   4.289   6.112
 2517SOL    HW1 8450   2.397   4.264   6.133
 2517SOL    HW2 8451   2.243   4.211   6.131
 2518SOL     OW 8452   2.052   2.855   6.844
 2518SOL    HW1 8453   2.141   2.902   6.844
 2518SOL    HW2 8454   2.067   2.757   6.857
 2519SOL     OW 8455   5.068   5.332   4.672
 2519SOL    HW1 8456   4.989   5.326   4.611
 2519SOL    HW2 8457   5.115   5.419   4.659
 2520SOL     OW 8458   1.953   3.825   0.684
 2520SOL    HW1 8459   1.911   3.879   0.757
 2520SOL    HW2 8460   1.934   3.728   0.700
 2521SOL     OW 8461   0.857   0.380   5.506
 2521SOL    HW1 8462   0.940   0.328   5.484
 2521SOL    HW2 8463   0.777   0.321   5.495
 2522SOL     OW 8464   1.546   3.455   4.316
 2522SOL    HW1 8465   1.527   3.415   4.406
 2522SOL    HW2 8466   1.534   3.554   4.321
 2523SOL     OW 8467   6.482   3.179   0.465
 2523SOL    HW1 8468   6.534   3.226   0.394
 2523SOL    HW2 8469   6.477   3.082   0.444
 2524SOL     OW 8470   0.750   6.087   4.159
 2524SOL    HW1 8471   0.761   5.999   4.204
 2524SOL    HW2 8472   0.718   6.072   4.065
 2525SOL     OW 8473   0.809   4.448   4.326
 2525SOL    HW1 8474   0.879   4.425   4.393
 2525SOL    HW2 8475   0.812   4.382   4.250
 2526SOL     OW 8476   0.032   2.931   4.475
 2526SOL    HW1 8477   0.063   2.966   4.386
 2526SOL    HW2 8478   0.052   2.998   4.546
 2527SOL     OW 8479   5.830   6.398   5.444
 2527SOL    HW1 8480   5.847   6.345   5.527
 2527SOL    HW2 8481   5.741   6.374   5.407
 2528SOL     OW 8482   5.618   4.854   0.299
 2528SOL    HW1 8483   5.523   4.859   0.269
 2528SOL    HW2 8484   5.621   4.841   0.398
 2529SOL     OW 8485   4.693   4.999   5.566
 2529SOL    HW1 8486   4.771   5.061   5.582
 2529SOL    HW2 8487   4.667   5.004   5.469
 2530SOL     OW 8488   1.098   6.029   3.862
 2530SOL    HW1 8489   1.166   5.957   3.850
 2530SOL    HW2 8490   1.007   5.987   3.872
 2531SOL     OW 8491   5.235   6.911   5.008
 2531SOL    HW1 8492   5.264   6.885   4.916
 2531SOL    HW2 8493   5.312   6.954   5.056
 2532SOL     OW 8494   0.757   5.784   0.819
 2532SOL    HW1 8495   0.692   5.853   0.789
 2532SOL    HW2 8496   0.755   5.776   0.919
 2533SOL     OW 8497   5.557   6.706   4.906
 2533SOL    HW1 8498   5.633   6.769   4.922
 2533SOL    HW2 8499   5.549   6.643   4.983
 2534SOL     OW 8500   2.383   0.450   3.501
 2534SOL    HW1 8501   2.308   0.396   3.465
 2534SOL    HW2 8502   2.389   0.537   3.451
 2535SOL     OW 8503   1.544   2.175   4.567
 2535SOL    HW1 8504   1.550   2.264   4.613
 2535SOL    HW2 8505   1.635   2.149   4.533
 2536SOL     OW 8506   6.091   1.287   3.981
 2536SOL    HW1 8507   6.156   1.241   3.920
 2536SOL    HW2 8508   6.109   1.385   3.982
 2537SOL     OW 8509   4.740   6.474   1.039
 2537SOL    HW1 8510   4.723   6.417   0.959
 2537SOL    HW2 8511   4.715   6.569   1.019
 2538SOL     OW 8512   1.848   4.853   4.850
 2538SOL    HW1 8513   1.894   4.781   4.798
 2538SOL    HW2 8514   1.856   4.835   4.948
 2539SOL     OW 8515   4.587   6.887   5.530
 2539SOL    HW1 8516   4.609   6.794   5.561
 2539SOL    HW2 8517   4.534   6.882   5.445
 2540SOL     OW 8518   5.454   0.548   1.643
 2540SOL    HW1 8519   5.477   0.644   1.624
 2540SOL    HW2 8520   5.365   0.543   1.687
 2541SOL     OW 8521   1.589   0.275   5.374
 2541SOL    HW1 8522   1.681   0.296   5.408
 2541SOL    HW2 8523   1.594   0.257   5.276
 2542SOL     OW 8524   4.223   2.197   4.348
 2542SOL    HW1 8525   4.160   2.158   4.280
 2542SOL    HW2 8526   4.312   2.210   4.306
 2543SOL     OW 8527   0.744   0.301   3.325
 2543SOL    HW1 8528   0.690   0.351   3.393
 2543SOL    HW2 8529   0.813   0.246   3.372
 2544SOL     OW 8530   6.929   4.888   1.558
 2544SOL    HW1 8531   6.901   4.875   1.463
 2544SOL    HW2 8532   7.024   4.860   1.569
 2545SOL     OW 8533   2.123   2.003   1.174
 2545SOL    HW1 8534   2.067   2.081   1.145
 2545SOL    HW2 8535   2.097   1.922   1.123
 2546SOL     OW 8536   6.534   3.312   1.843
 2546SOL    HW1 8537   6.608   3.364   1.886
 2546SOL    HW2 8538   6.462   3.296   1.910
 2547SOL     OW 8539   5.698   5.255   0.848
 2547SOL    HW1 8540   5.620   5.300   0.891
 2547SOL    HW2 8541   5.755   5.322   0.802
 2548SOL     OW 8542   1.695   7.004   4.551
 2548SOL    HW1 8543   1.774   6.945   4.529
 2548SOL    HW2 8544   1.611   6.961   4.518
 2549SOL     OW 8545   1.919   2.882   1.863
 2549SOL    HW1 8546   1.972   2.825   1.800
 2549SOL    HW2 8547   1.940   2.855   1.957
 2550SOL     OW 8548   5.647   6.891   0.533
 2550SOL    HW1 8549   5.722   6.957   0.546
 2550SOL    HW2 8550   5.678   6.800   0.559
 2551SOL     OW 8551   3.758   4.716   0.026
 2551SOL    HW1 8552   3.775   4.806   0.065
 2551SOL    HW2 8553   3.763   4.722   6.952
 2552SOL     OW 8554   2.272   5.040   6.532
 2552SOL    HW1 8555   2.331   4.980   6.478
 2552SOL    HW2 8556   2.290   5.026   6.629
 2553SOL     OW 8557   3.775   1.906   6.159
 2553SOL    HW1 8558   3.738   1.995   6.133
 2553SOL    HW2 8559   3.750   1.885   6.253
 2554SOL     OW 8560   2.349   5.471   6.772
 2554SOL    HW1 8561   2.251   5.452   6.781
 2554SOL    HW2 8562   2.362   5.555   6.720
 2555SOL     OW 8563   6.614   6.144   6.363
 2555SOL    HW1 8564   6.683   6.115   6.430
 2555SOL    HW2 8565   6.538   6.078   6.364
 2556SOL     OW 8566   3.924   7.008   0.917
 2556SOL    HW1 8567   3.891   0.033   0.996
 2556SOL    HW2 8568   3.855   7.011   0.844
 2557SOL     OW 8569   3.105   0.738   6.945
 2557SOL    HW1 8570   3.109   0.765   6.849
 2557SOL    HW2 8571   3.194   0.701   6.973
 2558SOL     OW 8572   5.470   4.074   5.902
 2558SOL    HW1 8573   5.507   4.159   5.940
 2558SOL    HW2 8574   5.475   4.002   5.971
 2559SOL     OW 8575   6.873   3.255   3.541
 2559SOL    HW1 8576   6.803   3.282   3.475
 2559SOL    HW2 8577   6.829   3.212   3.620
 2560SOL     OW 8578   5.211   3.403   3.572
 2560SOL    HW1 8579   5.145   3.437   3.639
 2560SOL    HW2 8580   5.278   3.345   3.618
 2561SOL     OW 8581   3.509   0.871   3.483
 2561SOL    HW1 8582   3.470   0.891   3.572
 2561SOL    HW2 8583   3.472   0.934   3.415
 2562SOL     OW 8584   3.302   6.577   3.319
 2562SOL    HW1 8585   3.345   6.520   3.250
 2562SOL    HW2 8586   3.209   6.601   3.290
 2563SOL     OW 8587   3.161   1.531   6.725
 2563SOL    HW1 8588   3.227   1.562   6.657
 2563SOL    HW2 8589   3.177   1.580   6.811
 2564SOL     OW 8590   2.292   0.428   0.417
 2564SOL    HW1 8591   2.389   0.427   0.395
 2564SOL    HW2 8592   2.277   0.388   0.507
 2565SOL     OW 8593   0.384   1.668   6.539
 2565SOL    HW1 8594   0.462   1.717   6.501
 2565SOL    HW2 8595   0.367   1.700   6.632
 2566SOL     OW 8596   2.557   6.834   1.016
 2566SOL    HW1 8597   2.610   6.894   1.077
 2566SOL    HW2 8598   2.616   6.759   0.985
 2567SOL     OW 8599   1.399   1.332   0.431
 2567SOL    HW1 8600   1.328   1.333   0.501
 2567SOL    HW2 8601   1.473   1.271   0.460
 2568SOL     OW 8602   2.969   0.059   1.322
 2568SOL    HW1 8603   2.993   0.028   1.230
 2568SOL    HW2 8604   3.051   0.060   1.380
 2569SOL     OW 8605   2.682   1.367   0.948
 2569SOL    HW1 8606   2.597   1.414   0.922
 2569SOL    HW2 8607   2.659   1.280   0.991
 2570SOL     OW 8608   5.415   5.758   6.357
 2570SOL    HW1 8609   5.469   5.798   6.430
 2570SOL    HW2 8610   5.386   5.829   6.294
 2571SOL     OW 8611   3.796   2.941   4.626
 2571SOL    HW1 8612   3.886   2.978   4.603
 2571SOL    HW2 8613   3.742   2.930   4.543
 2572SOL     OW 8614   3.208   5.691   1.413
 2572SOL    HW1 8615   3.200   5.623   1.486
 2572SOL    HW2 8616   3.304   5.701   1.387
 2573SOL     OW 8617   6.421   2.684   3.862
 2573SOL    HW1 8618   6.444   2.640   3.775
 2573SOL    HW2 8619   6.371   2.768   3.844
 2574SOL     OW 8620   6.282   2.529   0.778
 2574SOL    HW1 8621   6.244   2.606   0.830
 2574SOL    HW2 8622   6.260   2.443   0.825
 2575SOL     OW 8623   4.985   3.657   0.537
 2575SOL    HW1 8624   4.997   3.750   0.573
 2575SOL    HW2 8625   4.979   3.661   0.438
 2576SOL     OW 8626   3.012   6.909   3.292
 2576SOL    HW1 8627   3.001   6.967   3.212
 2576SOL    HW2 8628   3.016   6.813   3.263
 2577SOL     OW 8629   3.848   0.644   4.033
 2577SOL    HW1 8630   3.867   0.546   4.034
 2577SOL    HW2 8631   3.760   0.661   4.077
 2578SOL     OW 8632   5.214   2.978   5.015
 2578SOL    HW1 8633   5.217   2.913   4.939
 2578SOL    HW2 8634   5.289   3.044   5.005
 2579SOL     OW 8635   0.703   1.667   5.817
 2579SOL    HW1 8636   0.779   1.710   5.768
 2579SOL    HW2 8637   0.655   1.604   5.756
 2580SOL     OW 8638   1.587   2.443   5.561
 2580SOL    HW1 8639   1.648   2.401   5.628
 2580SOL    HW2 8640   1.640   2.474   5.482
 2581SOL     OW 8641   5.366   5.143   1.952
 2581SOL    HW1 8642   5.446   5.188   1.993
 2581SOL    HW2 8643   5.394   5.056   1.911
 2582SOL     OW 8644   2.054   5.441   2.902
 2582SOL    HW1 8645   2.109   5.416   2.981
 2582SOL    HW2 8646   1.959   5.457   2.930
 2583SOL     OW 8647   1.389   0.960   1.299
 2583SOL    HW1 8648   1.346   0.960   1.389
 2583SOL    HW2 8649   1.341   1.023   1.238
 2584SOL     OW 8650   3.589   6.669   1.072
 2584SOL    HW1 8651   3.523   6.723   1.022
 2584SOL    HW2 8652   3.682   6.698   1.048
 2585SOL     OW 8653   3.417   0.564   1.021
 2585SOL    HW1 8654   3.486   0.632   0.998
 2585SOL    HW2 8655   3.359   0.597   1.095
 2586SOL     OW 8656   5.628   1.769   5.024
 2586SOL    HW1 8657   5.561   1.742   4.955
 2586SOL    HW2 8658   5.682   1.690   5.052
 2587SOL     OW 8659   6.917   0.200   4.613
 2587SOL    HW1 8660   6.888   0.156   4.698
 2587SOL    HW2 8661   7.008   0.167   4.588
 2588SOL     OW 8662   5.601   0.075   1.179
 2588SOL    HW1 8663   5.554   0.125   1.106
 2588SOL    HW2 8664   5.539   0.067   1.258
 2589SOL     OW 8665   6.807   0.284   5.768
 2589SOL    HW1 8666   6.862   0.318   5.692
 2589SOL    HW2 8667   6.720   0.334   5.771
 2590SOL     OW 8668   3.508   6.983   2.390
 2590SOL    HW1 8669   3.542   6.999   2.482
 2590SOL    HW2 8670   3.408   6.973   2.393
 2591SOL     OW 8671   5.460   5.915   1.038
 2591SOL    HW1 8672   5.509   5.878   0.959
 2591SOL    HW2 8673   5.522   5.970   1.093
 2592SOL     OW 8674   3.018   5.833   1.311
 2592SOL    HW1 8675   3.079   5.768   1.355
 2592SOL    HW2 8676   3.068   5.882   1.239
 2593SOL     OW 8677   3.215   6.757   2.670
 2593SOL    HW1 8678   3.196   6.659   2.657
 2593SOL    HW2 8679   3.309   6.769   2.701
 2594SOL     OW 8680   0.414   0.182   6.044
 2594SOL    HW1 8681   0.314   0.185   6.040
 2594SOL    HW2 8682   0.443   0.102   6.096
 2595SOL     OW 8683   6.999   2.572   4.916
 2595SOL    HW1 8684   7.015   2.489   4.863
 2595SOL    HW2 8685   0.034   2.645   4.883
 2596SOL     OW 8686   3.679   2.527   1.679
 2596SOL    HW1 8687   3.621   2.473   1.741
 2596SOL    HW2 8688   3.691   2.619   1.716
 2597SOL     OW 8689   1.976   3.800   0.411
 2597SOL    HW1 8690   2.061   3.830   0.367
 2597SOL    HW2 8691   1.985   3.809   0.510
 2598SOL     OW 8692   6.641   2.956   4.542
 2598SOL    HW1 8693   6.565   2.905   4.501
 2598SOL    HW2 8694   6.613   2.991   4.632
 2599SOL     OW 8695   3.300   5.835   6.278
 2599SOL    HW1 8696   3.240   5.766   6.316
 2599SOL    HW2 8697   3.249   5.892   6.214
 2600SOL     OW 8698   4.911   3.632   4.008
 2600SOL    HW1 8699   4.955   3.583   4.083
 2600SOL    HW2 8700   4.910   3.730   4.027
 2601SOL     OW 8701   3.012   2.481   6.499
 2601SOL    HW1 8702   3.082   2.508   6.565
 2601SOL    HW2 8703   2.952   2.412   6.539
 2602SOL     OW 8704   0.028   4.863   4.109
 2602SOL    HW1 8705   0.090   4.927   4.154
 2602SOL    HW2 8706   6.972   4.851   4.165
 2603SOL     OW 8707   2.773   2.664   1.737
 2603SOL    HW1 8708   2.755   2.628   1.646
 2603SOL    HW2 8709   2.776   2.590   1.803
 2604SOL     OW 8710   5.452   0.822   0.899
 2604SOL    HW1 8711   5.357   0.792   0.888
 2604SOL    HW2 8712   5.459   0.878   0.982
 2605SOL     OW 8713   4.889   4.909   3.005
 2605SOL    HW1 8714   4.941   4.827   3.032
 2605SOL    HW2 8715   4.801   4.881   2.967
 2606SOL     OW 8716   0.098   4.755   0.160
 2606SOL    HW1 8717   0.170   4.689   0.179
 2606SOL    HW2 8718   0.038   4.764   0.239
 2607SOL     OW 8719   1.028   1.599   4.629
 2607SOL    HW1 8720   0.971   1.668   4.674
 2607SOL    HW2 8721   0.985   1.509   4.638
 2608SOL     OW 8722   4.941   0.173   2.592
 2608SOL    HW1 8723   5.036   0.203   2.586
 2608SOL    HW2 8724   4.922   0.106   2.520
 2609SOL     OW 8725   1.062   1.866   2.004
 2609SOL    HW1 8726   1.140   1.810   1.976
 2609SOL    HW2 8727   0.991   1.807   2.045
 2610SOL     OW 8728   6.939   5.397   5.073
 2610SOL    HW1 8729   0.003   5.353   5.089
 2610SOL    HW2 8730   6.866   5.330   5.085
 2611SOL     OW 8731   6.163   6.804   1.319
 2611SOL    HW1 8732   6.077   6.845   1.287
 2611SOL    HW2 8733   6.176   6.827   1.416
 2612SOL     OW 8734   5.967   6.050   5.025
 2612SOL    HW1 8735   6.026   5.976   5.057
 2612SOL    HW2 8736   6.023   6.124   4.988
 2613SOL     OW 8737   2.967   6.356   2.293
 2613SOL    HW1 8738   2.963   6.295   2.372
 2613SOL    HW2 8739   3.006   6.444   2.320
 2614SOL     OW 8740   6.433   6.068   5.989
 2614SOL    HW1 8741   6.398   5.981   6.023
 2614SOL    HW2 8742   6.374   6.101   5.916
 2615SOL     OW 8743   5.674   5.400   3.272
 2615SOL    HW1 8744   5.733   5.329   3.310
 2615SOL    HW2 8745   5.728   5.480   3.247
 2616SOL     OW 8746   4.046   3.411   4.007
 2616SOL    HW1 8747   4.097   3.400   4.092
 2616SOL    HW2 8748   3.989   3.331   3.991
 2617SOL     OW 8749   3.015   5.532   0.913
 2617SOL    HW1 8750   3.074   5.561   0.989
 2617SOL    HW2 8751   2.936   5.592   0.907
 2618SOL     OW 8752   7.022   6.427   3.336
 2618SOL    HW1 8753   6.938   6.480   3.324
 2618SOL    HW2 8754   0.001   6.356   3.266
 2619SOL     OW 8755   4.616   1.687   2.564
 2619SOL    HW1 8756   4.553   1.649   2.631
 2619SOL    HW2 8757   4.576   1.680   2.472
 2620SOL     OW 8758   1.602   5.820   3.799
 2620SOL    HW1 8759   1.540   5.854   3.870
 2620SOL    HW2 8760   1.554   5.817   3.711
 2621SOL     OW 8761   1.444   5.845   3.574
 2621SOL    HW1 8762   1.409   5.751   3.576
 2621SOL    HW2 8763   1.518   5.852   3.507
 2622SOL     OW 8764   1.689   3.105   6.061
 2622SOL    HW1 8765   1.723   3.016   6.030
 2622SOL    HW2 8766   1.619   3.138   5.997
 2623SOL     OW 8767   3.863   1.145   4.874
 2623SOL    HW1 8768   3.800   1.132   4.951
 2623SOL    HW2 8769   3.956   1.124   4.902
 2624SOL     OW 8770   6.695   2.951   3.338
 2624SOL    HW1 8771   6.652   2.965   3.428
 2624SOL    HW2 8772   6.785   2.995   3.337
 2625SOL     OW 8773   1.759   2.852   5.105
 2625SOL    HW1 8774   1.841   2.797   5.088
 2625SOL    HW2 8775   1.752   2.924   5.036
 2626SOL     OW 8776   0.536   6.078   3.932
 2626SOL    HW1 8777   0.470   6.061   4.005
 2626SOL    HW2 8778   0.491   6.063   3.843
 2627SOL     OW 8779   0.482   0.820   4.984
 2627SOL    HW1 8780   0.454   0.729   5.015
 2627SOL    HW2 8781   0.401   0.875   4.963
 2628SOL     OW 8782   3.271   6.024   6.637
 2628SOL    HW1 8783   3.182   6.065   6.658
 2628SOL    HW2 8784   3.276   5.933   6.678
 2629SOL     OW 8785   3.956   4.018   1.819
 2629SOL    HW1 8786   4.049   4.056   1.814
 2629SOL    HW2 8787   3.948   3.942   1.754
 2630SOL     OW 8788   3.526   1.817   2.298
 2630SOL    HW1 8789   3.457   1.846   2.364
 2630SOL    HW2 8790   3.614   1.859   2.321
 2631SOL     OW 8791   4.115   7.014   3.821
 2631SOL    HW1 8792   4.209   6.987   3.841
 2631SOL    HW2 8793   4.052   6.953   3.869
 2632SOL     OW 8794   3.400   2.118   5.963
 2632SOL    HW1 8795   3.308   2.157   5.971
 2632SOL    HW2 8796   3.456   2.178   5.905
 2633SOL     OW 8797   6.172   2.511   6.106
 2633SOL    HW1 8798   6.265   2.488   6.077
 2633SOL    HW2 8799   6.149   2.462   6.190
 2634SOL     OW 8800   1.863   4.034   2.805
 2634SOL    HW1 8801   1.812   4.091   2.740
 2634SOL    HW2 8802   1.906   4.092   2.874
 2635SOL     OW 8803   5.391   5.700   3.990
 2635SOL    HW1 8804   5.429   5.740   3.906
 2635SOL    HW2 8805   5.330   5.765   4.034
 2636SOL     OW 8806   5.303   0.497   6.415
 2636SOL    HW1 8807   5.391   0.540   6.434
 2636SOL    HW2 8808   5.266   0.457   6.499
 2637SOL     OW 8809   6.263   0.810   3.957
 2637SOL    HW1 8810   6.274   0.710   3.957
 2637SOL    HW2 8811   6.192   0.836   3.891
 2638SOL     OW 8812   6.355   6.834   2.554
 2638SOL    HW1 8813   6.270   6.886   2.542
 2638SOL    HW2 8814   6.408   6.837   2.470
 2639SOL     OW 8815   6.966   6.686   2.479
 2639SOL    HW1 8816   0.011   6.754   2.457
 2639SOL    HW2 8817   6.980   6.604   2.423
 2640SOL     OW 8818   6.889   6.439   5.889
 2640SOL    HW1 8819   6.911   6.523   5.939
 2640SOL    HW2 8820   6.822   6.459   5.818
 2641SOL     OW 8821   5.924   3.187   0.710
 2641SOL    HW1 8822   5.905   3.115   0.644
 2641SOL    HW2 8823   5.882   3.272   0.680
 2642SOL     OW 8824   5.321   0.571   4.597
 2642SOL    HW1 8825   5.285   0.656   4.558
 2642SOL    HW2 8826   5.279   0.493   4.551
 2643SOL     OW 8827   0.290   5.202   3.128
 2643SOL    HW1 8828   0.359   5.268   3.099
 2643SOL    HW2 8829   0.254   5.155   3.048
 2644SOL     OW 8830   0.526   4.236   5.870
 2644SOL    HW1 8831   0.601   4.289   5.910
 2644SOL    HW2 8832   0.517   4.260   5.773
 2645SOL     OW 8833   4.249   6.474   5.292
 2645SOL    HW1 8834   4.281   6.566   5.267
 2645SOL    HW2 8835   4.229   6.471   5.390
 2646SOL     OW 8836   6.605   0.001   6.547
 2646SOL    HW1 8837   6.620   6.928   6.532
 2646SOL    HW2 8838   6.542   0.014   6.623
 2647SOL     OW 8839   5.312   0.579   1.236
 2647SOL    HW1 8840   5.358   0.578   1.148
 2647SOL    HW2 8841   5.338   0.662   1.286
 2648SOL     OW 8842   6.180   6.623   3.639
 2648SOL    HW1 8843   6.224   6.599   3.725
 2648SOL    HW2 8844   6.205   6.556   3.569
 2649SOL     OW 8845   4.025   1.376   5.952
 2649SOL    HW1 8846   4.045   1.366   5.855
 2649SOL    HW2 8847   4.023   1.286   5.996
 2650SOL     OW 8848   1.195   4.515   4.242
 2650SOL    HW1 8849   1.189   4.445   4.172
 2650SOL    HW2 8850   1.124   4.500   4.310
 2651SOL     OW 8851   1.275   1.784   0.653
 2651SOL    HW1 8852   1.292   1.832   0.567
 2651SOL    HW2 8853   1.320   1.833   0.728
 2652SOL     OW 8854   3.095   3.288   3.731
 2652SOL    HW1 8855   3.094   3.380   3.692
 2652SOL    HW2 8856   3.085   3.295   3.831
 2653SOL     OW 8857   4.684   6.710   5.139
 2653SOL    HW1 8858   4.659   6.803   5.110
 2653SOL    HW2 8859   4.777   6.690   5.108
 2654SOL     OW 8860   5.179   3.237   0.047
 2654SOL    HW1 8861   5.233   3.162   0.010
 2654SOL    HW2 8862   5.144   3.212   0.138
 2655SOL     OW 8863   4.904   4.659   4.169
 2655SOL    HW1 8864   4.809   4.629   4.172
 2655SOL    HW2 8865   4.908   4.757   4.148
 2656SOL     OW 8866   4.470   4.561   3.986
 2656SOL    HW1 8867   4.412   4.587   4.064
 2656SOL    HW2 8868   4.554   4.520   4.020
 2657SOL     OW 8869   2.712   4.350   6.329
 2657SOL    HW1 8870   2.768   4.419   6.284
 2657SOL    HW2 8871   2.669   4.292   6.260
 2658SOL     OW 8872   5.687   4.772   6.769
 2658SOL    HW1 8873   5.771   4.813   6.806
 2658SOL    HW2 8874   5.696   4.759   6.671
 2659SOL     OW 8875   6.726   2.245   4.462
 2659SOL    HW1 8876   6.739   2.335   4.421
 2659SOL    HW2 8877   6.629   2.220   4.459
 2660SOL     OW 8878   0.544   2.221   1.156
 2660SOL    HW1 8879   0.454   2.254   1.128
 2660SOL    HW2 8880   0.533   2.141   1.215
 2661SOL     OW 8881   2.110   6.299   1.919
 2661SOL    HW1 8882   2.108   6.398   1.911
 2661SOL    HW2 8883   2.018   6.264   1.934
 2662SOL     OW 8884   4.489   6.635   4.855
 2662SOL    HW1 8885   4.509   6.538   4.838
 2662SOL    HW2 8886   4.574   6.687   4.857
 2663SOL     OW 8887   2.446   4.559   1.225
 2663SOL    HW1 8888   2.385   4.484   1.200
 2663SOL    HW2 8889   2.477   4.546   1.319
 2664SOL     OW 8890   3.680   4.029   3.209
 2664SOL    HW1 8891   3.756   4.082   3.247
 2664SOL    HW2 8892   3.625   3.991   3.284
 2665SOL     OW 8893   3.682   2.172   5.109
 2665SOL    HW1 8894   3.705   2.086   5.155
 2665SOL    HW2 8895   3.646   2.152   5.018
 2666SOL     OW 8896   5.018   3.443   1.131
 2666SOL    HW1 8897   4.984   3.393   1.051
 2666SOL    HW2 8898   5.035   3.378   1.206
 2667SOL     OW 8899   1.618   6.384   4.964
 2667SOL    HW1 8900   1.567   6.381   4.878
 2667SOL    HW2 8901   1.555   6.400   5.040
 2668SOL     OW 8902   6.658   3.332   3.359
 2668SOL    HW1 8903   6.572   3.375   3.387
 2668SOL    HW2 8904   6.642   3.275   3.279
 2669SOL     OW 8905   3.264   4.593   5.331
 2669SOL    HW1 8906   3.216   4.506   5.320
 2669SOL    HW2 8907   3.342   4.581   5.392
 2670SOL     OW 8908   6.120   1.382   6.655
 2670SOL    HW1 8909   6.208   1.399   6.698
 2670SOL    HW2 8910   6.067   1.319   6.712
 2671SOL     OW 8911   2.751   4.267   0.071
 2671SOL    HW1 8912   2.701   4.255   0.157
 2671SOL    HW2 8913   2.737   4.187   0.013
 2672SOL     OW 8914   1.214   5.321   6.986
 2672SOL    HW1 8915   1.218   5.415   7.019
 2672SOL    HW2 8916   1.286   5.267   0.005
 2673SOL     OW 8917   5.437   2.911   3.516
 2673SOL    HW1 8918   5.464   3.007   3.507
 2673SOL    HW2 8919   5.362   2.892   3.452
 2674SOL     OW 8920   1.613   4.280   3.768
 2674SOL    HW1 8921   1.531   4.315   3.814
 2674SOL    HW2 8922   1.674   4.357   3.747
 2675SOL     OW 8923   0.864   4.360   5.230
 2675SOL    HW1 8924   0.825   4.286   5.285
 2675SOL    HW2 8925   0.964   4.351   5.229
 2676SOL     OW 8926   4.715   1.189   2.796
 2676SOL    HW1 8927   4.732   1.158   2.702
 2676SOL    HW2 8928   4.803   1.213   2.839
 2677SOL     OW 8929   3.854   5.086   1.373
 2677SOL    HW1 8930   3.811   5.005   1.415
 2677SOL    HW2 8931   3.786   5.134   1.317
 2678SOL     OW 8932   0.540   4.816   0.746
 2678SOL    HW1 8933   0.491   4.806   0.659
 2678SOL    HW2 8934   0.635   4.843   0.727
 2679SOL     OW 8935   4.417   5.596   1.347
 2679SOL    HW1 8936   4.414   5.695   1.334
 2679SOL    HW2 8937   4.474   5.574   1.426
 2680SOL     OW 8938   1.694   1.440   0.842
 2680SOL    HW1 8939   1.606   1.471   0.805
 2680SOL    HW2 8940   1.715   1.349   0.805
 2681SOL     OW 8941   1.430   2.988   4.188
 2681SOL    HW1 8942   1.449   3.085   4.173
 2681SOL    HW2 8943   1.397   2.975   4.282
 2682SOL     OW 8944   5.543   3.106   2.497
 2682SOL    HW1 8945   5.527   3.203   2.518
 2682SOL    HW2 8946   5.574   3.097   2.403
 2683SOL     OW 8947   1.212   4.297   1.423
 2683SOL    HW1 8948   1.283   4.359   1.388
 2683SOL    HW2 8949   1.255   4.214   1.458
 2684SOL     OW 8950   3.930   5.659   2.374
 2684SOL    HW1 8951   4.011   5.708   2.344
 2684SOL    HW2 8952   3.926   5.570   2.329
 2685SOL     OW 8953   6.353   6.797   5.273
 2685SOL    HW1 8954   6.257   6.813   5.251
 2685SOL    HW2 8955   6.405   6.880   5.257
 2686SOL     OW 8956   2.050   2.217   4.410
 2686SOL    HW1 8957   2.107   2.249   4.486
 2686SOL    HW2 8958   2.105   2.212   4.327
 2687SOL     OW 8959   4.298   4.617   2.661
 2687SOL    HW1 8960   4.364   4.688   2.684
 2687SOL    HW2 8961   4.214   4.659   2.627
 2688SOL     OW 8962   4.298   6.144   6.149
 2688SOL    HW1 8963   4.268   6.077   6.081
 2688SOL    HW2 8964   4.236   6.222   6.150
 2689SOL     OW 8965   2.413   2.084   3.755
 2689SOL    HW1 8966   2.437   2.166   3.806
 2689SOL    HW2 8967   2.327   2.047   3.790
 2690SOL     OW 8968   3.453   3.459   3.773
 2690SOL    HW1 8969   3.451   3.393   3.698
 2690SOL    HW2 8970   3.473   3.550   3.737
 2691SOL     OW 8971   1.720   5.488   2.127
 2691SOL    HW1 8972   1.657   5.487   2.049
 2691SOL    HW2 8973   1.678   5.440   2.205
 2692SOL     OW 8974   5.353   6.044   4.316
 2692SOL    HW1 8975   5.398   6.042   4.227
 2692SOL    HW2 8976   5.281   6.113   4.315
 2693SOL     OW 8977   2.420   4.429   3.021
 2693SOL    HW1 8978   2.491   4.492   3.052
 2693SOL    HW2 8979   2.376   4.467   2.939
 2694SOL     OW 8980   3.535   0.785   2.757
 2694SOL    HW1 8981   3.588   0.868   2.739
 2694SOL    HW2 8982   3.515   0.779   2.855
 2695SOL     OW 8983   5.484   1.855   2.631
 2695SOL    HW1 8984   5.557   1.854   2.699
 2695SOL    HW2 8985   5.399   1.886   2.673
 2696SOL     OW 8986   3.163   2.574   5.341
 2696SOL    HW1 8987   3.235   2.642   5.331
 2696SOL    HW2 8988   3.179   2.499   5.277
 2697SOL     OW 8989   4.325   2.092   4.040
 2697SOL    HW1 8990   4.385   2.012   4.033
 2697SOL    HW2 8991   4.306   2.128   3.948
 2698SOL     OW 8992   2.058   4.732   0.552
 2698SOL    HW1 8993   2.156   4.725   0.534
 2698SOL    HW2 8994   2.044   4.783   0.637
 2699SOL     OW 8995   3.645   5.250   6.775
 2699SOL    HW1 8996   3.691   5.329   6.733
 2699SOL    HW2 8997   3.675   5.166   6.730
 2700SOL     OW 8998   2.094   3.522   2.247
 2700SOL    HW1 8999   2.146   3.522   2.162
 2700SOL    HW2 9000   2.002   3.559   2.230
 2701SOL     OW 9001   4.017   6.636   6.856
 2701SOL    HW1 9002   4.052   6.613   6.947
 2701SOL    HW2 9003   4.091   6.630   6.790
 2702SOL     OW 9004   6.979   1.414   2.747
 2702SOL    HW1 9005   0.021   1.381   2.681
 2702SOL    HW2 9006   0.000   1.465   2.820
 2703SOL     OW 9007   2.379   1.031   2.966
 2703SOL    HW1 9008   2.470   1.044   3.003
 2703SOL    HW2 9009   2.367   0.936   2.938
 2704SOL     OW 9010   1.390   5.593   1.032
 2704SOL    HW1 9011   1.466   5.657   1.018
 2704SOL    HW2 9012   1.318   5.637   1.085
 2705SOL     OW 9013   0.380   5.461   4.395
 2705SOL    HW1 9014   0.376   5.414   4.483
 2705SOL    HW2 9015   0.473   5.456   4.359
 2706SOL     OW 9016   0.493   0.785   1.812
 2706SOL    HW1 9017   0.574   0.823   1.856
 2706SOL    HW2 9018   0.446   0.857   1.761
 2707SOL     OW 9019   2.440   0.703   5.391
 2707SOL    HW1 9020   2.389   0.650   5.458
 2707SOL    HW2 9021   2.512   0.756   5.437
 2708SOL     OW 9022   2.190   3.045   1.415
 2708SOL    HW1 9023   2.288   3.047   1.438
 2708SOL    HW2 9024   2.178   3.072   1.319
 2709SOL     OW 9025   5.229   6.804   1.047
 2709SOL    HW1 9026   5.322   6.806   1.009
 2709SOL    HW2 9027   5.225   6.739   1.122
 2710SOL     OW 9028   6.215   4.038   2.619
 2710SOL    HW1 9029   6.283   4.033   2.546
 2710SOL    HW2 9030   6.129   3.998   2.588
 2711SOL     OW 9031   2.361   0.114   2.707
 2711SOL    HW1 9032   2.397   0.153   2.793
 2711SOL    HW2 9033   2.391   0.170   2.630
 2712SOL     OW 9034   3.859   4.974   0.043
 2712SOL    HW1 9035   3.794   5.010   7.002
 2712SOL    HW2 9036   3.915   5.048   0.080
 2713SOL     OW 9037   1.616   2.833   4.495
 2713SOL    HW1 9038   1.605   2.918   4.546
 2713SOL    HW2 9039   1.714   2.815   4.482
 2714SOL     OW 9040   4.775   2.057   0.264
 2714SOL    HW1 9041   4.773   2.083   0.361
 2714SOL    HW2 9042   4.869   2.044   0.235
 2715SOL     OW 9043   6.416   0.261   0.094
 2715SOL    HW1 9044   6.317   0.272   0.087
 2715SOL    HW2 9045   6.461   0.344   0.062
 2716SOL     OW 9046   6.296   5.100   1.941
 2716SOL    HW1 9047   6.309   5.008   1.906
 2716SOL    HW2 9048   6.218   5.143   1.896
 2717SOL     OW 9049   0.869   5.500   2.198
 2717SOL    HW1 9050   0.796   5.495   2.265
 2717SOL    HW2 9051   0.913   5.410   2.189
 2718SOL     OW 9052   1.709   3.629   3.934
 2718SOL    HW1 9053   1.721   3.645   4.031
 2718SOL    HW2 9054   1.644   3.696   3.897
 2719SOL     OW 9055   4.972   5.006   1.458
 2719SOL    HW1 9056   4.994   4.931   1.396
 2719SOL    HW2 9057   4.873   5.012   1.469
 2720SOL     OW 9058   2.017   6.173   4.195
 2720SOL    HW1 9059   2.066   6.183   4.281
 2720SOL    HW2 9060   1.950   6.247   4.186
 2721SOL     OW 9061   3.137   0.284   5.427
 2721SOL    HW1 9062   3.090   0.346   5.490
 2721SOL    HW2 9063   3.185   0.337   5.358
 2722SOL     OW 9064   6.331   5.487   2.640
 2722SOL    HW1 9065   6.363   5.473   2.734
 2722SOL    HW2 9066   6.285   5.404   2.608
 2723SOL     OW 9067   1.637   1.314   6.243
 2723SOL    HW1 9068   1.586   1.239   6.202
 2723SOL    HW2 9069   1.682   1.367   6.171
 2724SOL     OW 9070   3.157   6.754   5.010
 2724SOL    HW1 9071   3.252   6.773   4.985
 2724SOL    HW2 9072   3.138   6.794   5.100
 2725SOL     OW 9073   6.138   5.196   3.182
 2725SOL    HW1 9074   6.208   5.158   3.122
 2725SOL    HW2 9075   6.072   5.125   3.206
 2726SOL     OW 9076   6.002   4.071   2.082
 2726SOL    HW1 9077   6.088   4.036   2.119
 2726SOL    HW2 9078   6.021   4.148   2.021
 2727SOL     OW 9079   0.322   4.917   2.752
 2727SOL    HW1 9080   0.414   4.946   2.730
 2727SOL    HW2 9081   0.301   4.831   2.704
 2728SOL     OW 9082   3.272   0.585   4.901
 2728SOL    HW1 9083   3.222   0.629   4.976
 2728SOL    HW2 9084   3.217   0.511   4.863
 2729SOL     OW 9085   6.952   5.576   2.019
 2729SOL    HW1 9086   6.936   5.630   2.102
 2729SOL    HW2 9087   6.869   5.525   1.996
 2730SOL     OW 9088   1.613   6.800   0.752
 2730SOL    HW1 9089   1.579   6.741   0.678
 2730SOL    HW2 9090   1.703   6.767   0.781
 2731SOL     OW 9091   3.207   3.710   1.307
 2731SOL    HW1 9092   3.236   3.637   1.368
 2731SOL    HW2 9093   3.132   3.677   1.250
 2732SOL     OW 9094   5.877   3.234   2.608
 2732SOL    HW1 9095   5.940   3.311   2.624
 2732SOL    HW2 9096   5.891   3.199   2.516
 2733SOL     OW 9097   0.517   6.890   5.242
 2733SOL    HW1 9098   0.465   6.964   5.199
 2733SOL    HW2 9099   0.458   6.842   5.307
 2734SOL     OW 9100   2.179   5.409   2.674
 2734SOL    HW1 9101   2.131   5.423   2.761
 2734SOL    HW2 9102   2.246   5.483   2.662
 2735SOL     OW 9103   0.573   2.903   2.482
 2735SOL    HW1 9104   0.531   2.812   2.477
 2735SOL    HW2 9105   0.642   2.912   2.411
 2736SOL     OW 9106   5.199   0.821   4.489
 2736SOL    HW1 9107   5.193   0.790   4.394
 2736SOL    HW2 9108   5.111   0.805   4.535
 2737SOL     OW 9109   3.479   3.384   5.729
 2737SOL    HW1 9110   3.502   3.365   5.633
 2737SOL    HW2 9111   3.413   3.316   5.762
 2738SOL     OW 9112   4.954   5.429   5.270
 2738SOL    HW1 9113   4.866   5.382   5.261
 2738SOL    HW2 9114   5.028   5.362   5.268
 2739SOL     OW 9115   6.014   4.013   0.191
 2739SOL    HW1 9116   6.042   3.931   0.142
 2739SOL    HW2 9117   6.086   4.042   0.254
 2740SOL     OW 9118   5.391   2.298   2.209
 2740SOL    HW1 9119   5.376   2.301   2.308
 2740SOL    HW2 9120   5.442   2.216   2.186
 2741SOL     OW 9121   0.165   1.897   6.265
 2741SOL    HW1 9122   0.146   1.808   6.307
 2741SOL    HW2 9123   0.100   1.914   6.191
 2742SOL     OW 9124   1.720   5.941   6.069
 2742SOL    HW1 9125   1.755   6.023   6.024
 2742SOL    HW2 9126   1.652   5.897   6.011
 2743SOL     OW 9127   6.012   5.226   1.944
 2743SOL    HW1 9128   6.072   5.300   1.976
 2743SOL    HW2 9129   5.994   5.238   1.846
 2744SOL     OW 9130   4.125   2.637   0.376
 2744SOL    HW1 9131   4.075   2.672   0.296
 2744SOL    HW2 9132   4.204   2.584   0.346
 2745SOL     OW 9133   2.218   6.464   0.116
 2745SOL    HW1 9134   2.138   6.503   0.072
 2745SOL    HW2 9135   2.277   6.537   0.149
 2746SOL     OW 9136   2.161   3.182   4.653
 2746SOL    HW1 9137   2.088   3.240   4.688
 2746SOL    HW2 9138   2.167   3.192   4.553
 2747SOL     OW 9139   5.453   4.355   4.951
 2747SOL    HW1 9140   5.366   4.341   4.998
 2747SOL    HW2 9141   5.522   4.295   4.991
 2748SOL     OW 9142   3.363   1.117   2.428
 2748SOL    HW1 9143   3.436   1.143   2.365
 2748SOL    HW2 9144   3.351   1.188   2.497
 2749SOL     OW 9145   5.002   5.298   3.849
 2749SOL    HW1 9146   5.063   5.345   3.785
 2749SOL    HW2 9147   4.977   5.360   3.923
 2750SOL     OW 9148   1.034   5.558   1.363
 2750SOL    HW1 9149   1.045   5.458   1.360
 2750SOL    HW2 9150   1.092   5.595   1.437
 2751SOL     OW 9151   1.730   0.178   6.998
 2751SOL    HW1 9152   1.655   0.238   6.969
 2751SOL    HW2 9153   1.800   0.175   6.926
 2752SOL     OW 9154   5.002   5.547   5.544
 2752SOL    HW1 9155   5.071   5.571   5.476
 2752SOL    HW2 9156   5.019   5.454   5.577
 2753SOL     OW 9157   2.335   6.174   6.328
 2753SOL    HW1 9158   2.258   6.179   6.392
 2753SOL    HW2 9159   2.416   6.138   6.376
 2754SOL     OW 9160   6.335   0.041   4.893
 2754SOL    HW1 9161   6.284   6.997   4.945
 2754SOL    HW2 9162   6.288   0.129   4.901
 2755SOL     OW 9163   3.044   6.603   3.211
 2755SOL    HW1 9164   3.063   6.628   3.117
 2755SOL    HW2 9165   2.989   6.519   3.213
 2756SOL     OW 9166   6.016   4.712   4.014
 2756SOL    HW1 9167   6.044   4.653   3.938
 2756SOL    HW2 9168   5.934   4.674   4.057
 2757SOL     OW 9169   2.833   1.294   6.595
 2757SOL    HW1 9170   2.751   1.332   6.551
 2757SOL    HW2 9171   2.894   1.368   6.621
 2758SOL     OW 9172   4.863   6.124   3.160
 2758SOL    HW1 9173   4.800   6.059   3.203
 2758SOL    HW2 9174   4.931   6.074   3.106
 2759SOL     OW 9175   3.593   4.425   5.448
 2759SOL    HW1 9176   3.521   4.465   5.503
 2759SOL    HW2 9177   3.653   4.369   5.506
 2760SOL     OW 9178   6.361   5.755   2.751
 2760SOL    HW1 9179   6.269   5.792   2.761
 2760SOL    HW2 9180   6.356   5.658   2.726
 2761SOL     OW 9181   1.395   3.576   3.456
 2761SOL    HW1 9182   1.481   3.625   3.438
 2761SOL    HW2 9183   1.349   3.618   3.534
 2762SOL     OW 9184   1.357   2.172   6.965
 2762SOL    HW1 9185   1.456   2.165   6.974
 2762SOL    HW2 9186   1.333   2.263   6.930
 2763SOL     OW 9187   5.383   1.887   5.951
 2763SOL    HW1 9188   5.461   1.922   5.899
 2763SOL    HW2 9189   5.381   1.787   5.944
 2764SOL     OW 9190   0.173   5.098   2.895
 2764SOL    HW1 9191   0.085   5.068   2.933
 2764SOL    HW2 9192   0.206   5.029   2.831
 2765SOL     OW 9193   0.177   0.195   1.217
 2765SOL    HW1 9194   0.275   0.174   1.207
 2765SOL    HW2 9195   0.152   0.269   1.154
 2766SOL     OW 9196   4.457   0.956   6.651
 2766SOL    HW1 9197   4.465   1.031   6.585
 2766SOL    HW2 9198   4.495   0.984   6.739
 2767SOL     OW 9199   5.808   6.099   6.689
 2767SOL    HW1 9200   5.902   6.126   6.708
 2767SOL    HW2 9201   5.747   6.178   6.701
 2768SOL     OW 9202   4.164   0.809   0.858
 2768SOL    HW1 9203   4.064   0.807   0.852
 2768SOL    HW2 9204   4.202   0.730   0.811
 2769SOL     OW 9205   1.433   4.229   6.301
 2769SOL    HW1 9206   1.465   4.300   6.238
 2769SOL    HW2 9207   1.424   4.268   6.393
 2770SOL     OW 9208   3.574   6.267   5.811
 2770SOL    HW1 9209   3.512   6.247   5.735
 2770SOL    HW2 9210   3.633   6.188   5.828
 2771SOL     OW 9211   5.602   6.709   4.609
 2771SOL    HW1 9212   5.698   6.734   4.594
 2771SOL    HW2 9213   5.587   6.693   4.707
 2772SOL     OW 9214   3.341   0.605   2.301
 2772SOL    HW1 9215   3.284   0.590   2.382
 2772SOL    HW2 9216   3.283   0.605   2.219
 2773SOL     OW 9217   0.255   2.441   3.482
 2773SOL    HW1 9218   0.314   2.429   3.562
 2773SOL    HW2 9219   0.201   2.525   3.492
 2774SOL     OW 9220   4.992   2.842   2.821
 2774SOL    HW1 9221   4.974   2.774   2.892
 2774SOL    HW2 9222   5.066   2.903   2.850
 2775SOL     OW 9223   6.758   3.865   3.798
 2775SOL    HW1 9224   6.697   3.797   3.759
 2775SOL    HW2 9225   6.757   3.947   3.741
 2776SOL     OW 9226   4.923   5.771   6.950
 2776SOL    HW1 9227   4.998   5.814   7.001
 2776SOL    HW2 9228   4.957   5.690   6.903
 2777SOL     OW 9229   2.389   2.151   6.088
 2777SOL    HW1 9230   2.335   2.086   6.036
 2777SOL    HW2 9231   2.417   2.226   6.028
 2778SOL     OW 9232   2.018   5.923   5.953
 2778SOL    HW1 9233   1.985   5.879   6.037
 2778SOL    HW2 9234   1.996   6.021   5.956
 2779SOL     OW 9235   5.836   6.144   2.166
 2779SOL    HW1 9236   5.800   6.210   2.100
 2779SOL    HW2 9237   5.936   6.151   2.170
 2780SOL     OW 9238   0.252   0.571   6.435
 2780SOL    HW1 9239   0.234   0.474   6.452
 2780SOL    HW2 9240   0.349   0.590   6.447
 2781SOL     OW 9241   6.065   0.688   2.653
 2781SOL    HW1 9242   6.007   0.626   2.706
 2781SOL    HW2 9243   6.117   0.634   2.586
 2782SOL     OW 9244   4.366   1.075   5.664
 2782SOL    HW1 9245   4.278   1.033   5.687
 2782SOL    HW2 9246   4.388   1.145   5.732
 2783SOL     OW 9247   6.282   3.161   0.663
 2783SOL    HW1 9248   6.340   3.197   0.736
 2783SOL    HW2 9249   6.339   3.127   0.588
 2784SOL     OW 9250   3.244   1.795   2.247
 2784SOL    HW1 9251   3.219   1.873   2.190
 2784SOL    HW2 9252   3.343   1.795   2.262
 2785SOL     OW 9253   4.974   2.718   1.746
 2785SOL    HW1 9254   4.919   2.798   1.721
 2785SOL    HW2 9255   4.977   2.710   1.845
 2786SOL     OW 9256   6.310   6.118   1.353
 2786SOL    HW1 9257   6.293   6.020   1.340
 2786SOL    HW2 9258   6.318   6.162   1.263
 2787SOL     OW 9259   6.618   5.940   5.467
 2787SOL    HW1 9260   6.680   5.862   5.457
 2787SOL    HW2 9261   6.653   6.002   5.538
 2788SOL     OW 9262   2.967   6.293   6.326
 2788SOL    HW1 9263   2.973   6.193   6.322
 2788SOL    HW2 9264   3.049   6.333   6.287
 2789SOL     OW 9265   1.160   2.343   3.846
 2789SOL    HW1 9266   1.228   2.300   3.905
 2789SOL    HW2 9267   1.070   2.339   3.890
 2790SOL     OW 9268   2.836   5.126   0.423
 2790SOL    HW1 9269   2.864   5.058   0.355
 2790SOL    HW2 9270   2.872   5.101   0.513
 2791SOL     OW 9271   0.626   4.358   2.069
 2791SOL    HW1 9272   0.528   4.366   2.049
 2791SOL    HW2 9273   0.645   4.403   2.156
 2792SOL     OW 9274   3.402   0.828   4.864
 2792SOL    HW1 9275   3.366   0.739   4.895
 2792SOL    HW2 9276   3.335   0.873   4.806
 2793SOL     OW 9277   4.911   4.012   1.188
 2793SOL    HW1 9278   4.859   4.038   1.270
 2793SOL    HW2 9279   4.939   3.916   1.197
 2794SOL     OW 9280   0.106   1.243   6.453
 2794SOL    HW1 9281   0.026   1.303   6.454
 2794SOL    HW2 9282   0.108   1.193   6.366
 2795SOL     OW 9283   1.041   5.064   1.135
 2795SOL    HW1 9284   0.980   5.136   1.165
 2795SOL    HW2 9285   1.037   4.987   1.199
 2796SOL     OW 9286   0.838   5.721   5.498
 2796SOL    HW1 9287   0.751   5.767   5.474
 2796SOL    HW2 9288   0.818   5.639   5.551
 2797SOL     OW 9289   5.307   5.119   5.846
 2797SOL    HW1 9290   5.267   5.054   5.911
 2797SOL    HW2 9291   5.401   5.140   5.873
 2798SOL     OW 9292   6.453   5.993   2.283
 2798SOL    HW1 9293   6.455   6.009   2.184
 2798SOL    HW2 9294   6.370   5.943   2.307
 2799SOL     OW 9295   4.505   5.243   5.509
 2799SOL    HW1 9296   4.436   5.172   5.524
 2799SOL    HW2 9297   4.536   5.280   5.596
 2800SOL     OW 9298   5.896   0.704   0.302
 2800SOL    HW1 9299   5.936   0.735   0.388
 2800SOL    HW2 9300   5.820   0.765   0.276
 2801SOL     OW 9301   0.653   5.404   5.982
 2801SOL    HW1 9302   0.678   5.441   6.071
 2801SOL    HW2 9303   0.632   5.479   5.919
 2802SOL     OW 9304   6.860   6.410   5.202
 2802SOL    HW1 9305   6.937   6.433   5.262
 2802SOL    HW2 9306   6.866   6.466   5.119
 2803SOL     OW 9307   3.434   3.894   5.821
 2803SOL    HW1 9308   3.431   3.805   5.775
 2803SOL    HW2 9309   3.345   3.912   5.864
 2804SOL     OW 9310   0.880   2.622   3.877
 2804SOL    HW1 9311   0.899   2.656   3.784
 2804SOL    HW2 9312   0.874   2.700   3.939
 2805SOL     OW 9313   5.205   3.512   1.968
 2805SOL    HW1 9314   5.282   3.557   2.015
 2805SOL    HW2 9315   5.187   3.424   2.012
 2806SOL     OW 9316   2.213   4.186   6.601
 2806SOL    HW1 9317   2.230   4.107   6.542
 2806SOL    HW2 9318   2.293   4.245   6.600
 2807SOL     OW 9319   2.942   0.754   3.034
 2807SOL    HW1 9320   2.898   0.844   3.036
 2807SOL    HW2 9321   2.930   0.709   3.122
 2808SOL     OW 9322   5.851   5.451   0.726
 2808SOL    HW1 9323   5.825   5.503   0.807
 2808SOL    HW2 9324   5.857   5.513   0.647
 2809SOL     OW 9325   5.624   3.403   1.629
 2809SOL    HW1 9326   5.678   3.420   1.546
 2809SOL    HW2 9327   5.658   3.320   1.674
 2810SOL     OW 9328   2.320   6.136   3.225
 2810SOL    HW1 9329   2.310   6.049   3.177
 2810SOL    HW2 9330   2.251   6.201   3.192
 2811SOL     OW 9331   0.975   0.693   2.736
 2811SOL    HW1 9332   0.896   0.646   2.696
 2811SOL    HW2 9333   1.013   0.638   2.810
 2812SOL     OW 9334   0.589   3.300   0.317
 2812SOL    HW1 9335   0.522   3.243   0.269
 2812SOL    HW2 9336   0.680   3.259   0.307
 2813SOL     OW 9337   1.177   1.960   1.404
 2813SOL    HW1 9338   1.127   1.900   1.466
 2813SOL    HW2 9339   1.142   1.948   1.311
 2814SOL     OW 9340   2.785   3.871   6.750
 2814SOL    HW1 9341   2.881   3.860   6.723
 2814SOL    HW2 9342   2.736   3.785   6.736
 2815SOL     OW 9343   0.097   5.952   5.847
 2815SOL    HW1 9344   0.145   5.933   5.762
 2815SOL    HW2 9345   0.005   5.987   5.827
 2816SOL     OW 9346   6.821   6.095   5.202
 2816SOL    HW1 9347   6.729   6.090   5.242
 2816SOL    HW2 9348   6.845   6.191   5.187
 2817SOL     OW 9349   3.787   0.599   2.107
 2817SOL    HW1 9350   3.845   0.634   2.180
 2817SOL    HW2 9351   3.817   0.635   2.019
 2818SOL     OW 9352   0.602   1.051   1.170
 2818SOL    HW1 9353   0.531   1.110   1.209
 2818SOL    HW2 9354   0.576   0.955   1.183
 2819SOL     OW 9355   0.658   0.599   0.938
 2819SOL    HW1 9356   0.694   0.586   0.846
 2819SOL    HW2 9357   0.723   0.562   1.005
 2820SOL     OW 9358   1.382   2.076   2.400
 2820SOL    HW1 9359   1.294   2.055   2.358
 2820SOL    HW2 9360   1.434   2.135   2.338
 2821SOL     OW 9361   3.885   5.322   5.776
 2821SOL    HW1 9362   3.838   5.363   5.698
 2821SOL    HW2 9363   3.860   5.225   5.782
 2822SOL     OW 9364   3.819   3.041   0.617
 2822SOL    HW1 9365   3.789   3.137   0.625
 2822SOL    HW2 9366   3.748   2.988   0.570
 2823SOL     OW 9367   5.195   0.754   0.948
 2823SOL    HW1 9368   5.191   0.802   1.036
 2823SOL    HW2 9369   5.104   0.753   0.907
 2824SOL     OW 9370   1.764   3.963   5.440
 2824SOL    HW1 9371   1.796   3.904   5.514
 2824SOL    HW2 9372   1.842   4.004   5.394
 2825SOL     OW 9373   5.436   0.746   6.680
 2825SOL    HW1 9374   5.341   0.725   6.705
 2825SOL    HW2 9375   5.487   0.660   6.671
 2826SOL     OW 9376   1.595   3.485   6.173
 2826SOL    HW1 9377   1.572   3.396   6.212
 2826SOL    HW2 9378   1.582   3.483   6.074
 2827SOL     OW 9379   0.513   0.710   6.592
 2827SOL    HW1 9380   0.569   0.784   6.630
 2827SOL    HW2 9381   0.566   0.661   6.523
 2828SOL     OW 9382   1.884   3.447   1.276
 2828SOL    HW1 9383   1.860   3.391   1.355
 2828SOL    HW2 9384   1.853   3.541   1.291
 2829SOL     OW 9385   3.326   3.851   2.722
 2829SOL    HW1 9386   3.302   3.947   2.733
 2829SOL    HW2 9387   3.336   3.809   2.812
 2830SOL     OW 9388   3.758   4.366   5.226
 2830SOL    HW1 9389   3.839   4.417   5.253
 2830SOL    HW2 9390   3.682   4.391   5.286
 2831SOL     OW 9391   6.981   2.006   2.084
 2831SOL    HW1 9392   0.032   2.044   2.137
 2831SOL    HW2 9393   6.895   2.043   2.119
 2832SOL     OW 9394   1.029   3.373   1.523
 2832SOL    HW1 9395   0.963   3.425   1.577
 2832SOL    HW2 9396   1.004   3.276   1.525
 2833SOL     OW 9397   2.647   0.621   2.030
 2833SOL    HW1 9398   2.653   0.560   1.951
 2833SOL    HW2 9399   2.669   0.714   2.002
 2834SOL     OW 9400   4.393   6.303   4.715
 2834SOL    HW1 9401   4.394   6.233   4.786
 2834SOL    HW2 9402   4.482   6.350   4.715
 2835SOL     OW 9403   1.295   6.375   0.336
 2835SOL    HW1 9404   1.268   6.462   0.294
 2835SOL    HW2 9405   1.287   6.382   0.435
 2836SOL     OW 9406   3.983   6.766   3.233
 2836SOL    HW1 9407   4.001   6.713   3.316
 2836SOL    HW2 9408   4.058   6.753   3.168
 2837SOL     OW 9409   5.529   3.801   1.910
 2837SOL    HW1 9410   5.606   3.862   1.928
 2837SOL    HW2 9411   5.452   3.854   1.875
 2838SOL     OW 9412   5.222   4.094   6.149
 2838SOL    HW1 9413   5.292   4.023   6.147
 2838SOL    HW2 9414   5.222   4.137   6.239
 2839SOL     OW 9415   6.609   3.317   3.664
 2839SOL    HW1 9416   6.547   3.317   3.584
 2839SOL    HW2 9417   6.556   3.297   3.746
 2840SOL     OW 9418   1.217   5.596   3.097
 2840SOL    HW1 9419   1.123   5.566   3.105
 2840SOL    HW2 9420   1.278   5.530   3.140
 2841SOL     OW 9421   6.205   2.681   0.531
 2841SOL    HW1 9422   6.129   2.691   0.595
 2841SOL    HW2 9423   6.276   2.625   0.572
 2842SOL     OW 9424   1.072   5.708   4.703
 2842SOL    HW1 9425   1.133   5.749   4.770
 2842SOL    HW2 9426   0.980   5.700   4.742
 2843SOL     OW 9427   2.202   2.968   2.853
 2843SOL    HW1 9428   2.204   2.871   2.828
 2843SOL    HW2 9429   2.155   3.020   2.781
 2844SOL     OW 9430   4.715   4.111   1.367
 2844SOL    HW1 9431   4.654   4.056   1.310
 2844SOL    HW2 9432   4.702   4.208   1.345
 2845SOL     OW 9433   5.154   3.112   3.705
 2845SOL    HW1 9434   5.152   3.099   3.606
 2845SOL    HW2 9435   5.066   3.149   3.735
 2846SOL     OW 9436   4.248   0.486   0.144
 2846SOL    HW1 9437   4.297   0.501   0.058
 2846SOL    HW2 9438   4.168   0.429   0.127
 2847SOL     OW 9439   4.754   4.429   1.990
 2847SOL    HW1 9440   4.663   4.387   1.991
 2847SOL    HW2 9441   4.823   4.360   2.010
 2848SOL     OW 9442   1.091   2.626   4.607
 2848SOL    HW1 9443   1.048   2.709   4.570
 2848SOL    HW2 9444   1.180   2.650   4.647
 2849SOL     OW 9445   3.373   0.541   1.823
 2849SOL    HW1 9446   3.376   0.584   1.914
 2849SOL    HW2 9447   3.437   0.588   1.762
 2850SOL     OW 9448   1.802   6.543   3.483
 2850SOL    HW1 9449   1.850   6.626   3.458
 2850SOL    HW2 9450   1.807   6.530   3.582
 2851SOL     OW 9451   4.153   3.239   6.676
 2851SOL    HW1 9452   4.250   3.246   6.702
 2851SOL    HW2 9453   4.140   3.281   6.586
 2852SOL     OW 9454   6.444   4.226   6.665
 2852SOL    HW1 9455   6.349   4.246   6.639
 2852SOL    HW2 9456   6.476   4.295   6.730
 2853SOL     OW 9457   6.951   3.372   0.012
 2853SOL    HW1 9458   6.856   3.363   7.010
 2853SOL    HW2 9459   6.992   3.450   6.989
 2854SOL     OW 9460   3.383   0.975   6.551
 2854SOL    HW1 9461   3.365   0.999   6.646
 2854SOL    HW2 9462   3.299   0.983   6.498
 2855SOL     OW 9463   0.812   2.379   4.226
 2855SOL    HW1 9464   0.886   2.320   4.259
 2855SOL    HW2 9465   0.724   2.337   4.245
 2856SOL     OW 9466   1.489   3.674   3.160
 2856SOL    HW1 9467   1.435   3.600   3.199
 2856SOL    HW2 9468   1.583   3.668   3.192
 2857SOL     OW 9469   0.024   3.091   0.362
 2857SOL    HW1 9470   0.109   3.089   0.415
 2857SOL    HW2 9471   0.031   3.025   0.287
 2858SOL     OW 9472   5.519   6.248   2.895
 2858SOL    HW1 9473   5.420   6.239   2.886
 2858SOL    HW2 9474   5.542   6.271   2.990
 2859SOL     OW 9475   5.398   5.709   0.554
 2859SOL    HW1 9476   5.386   5.672   0.646
 2859SOL    HW2 9477   5.479   5.669   0.512
 2860SOL     OW 9478   1.980   6.186   1.475
 2860SOL    HW1 9479   2.034   6.149   1.399
 2860SOL    HW2 9480   2.042   6.216   1.548
 2861SOL     OW 9481   3.433   4.997   5.623
 2861SOL    HW1 9482   3.334   4.997   5.609
 2861SOL    HW2 9483   3.453   5.002   5.721
 2862SOL     OW 9484   4.465   2.985   1.396
 2862SOL    HW1 9485   4.487   2.888   1.389
 2862SOL    HW2 9486   4.451   3.009   1.492
 2863SOL     OW 9487   5.142   0.936   6.152
 2863SOL    HW1 9488   5.208   1.010   6.162
 2863SOL    HW2 9489   5.177   0.854   6.197
 2864SOL     OW 9490   4.223   3.212   1.388
 2864SOL    HW1 9491   4.204   3.191   1.484
 2864SOL    HW2 9492   4.279   3.140   1.348
 2865SOL     OW 9493   4.530   6.203   4.004
 2865SOL    HW1 9494   4.482   6.167   4.085
 2865SOL    HW2 9495   4.487   6.166   3.921
 2866SOL     OW 9496   5.532   4.562   6.921
 2866SOL    HW1 9497   5.555   4.469   6.892
 2866SOL    HW2 9498   5.614   4.619   6.916
 2867SOL     OW 9499   6.791   6.668   2.227
 2867SOL    HW1 9500   6.852   6.645   2.304
 2867SOL    HW2 9501   6.735   6.588   2.205
 2868SOL     OW 9502   1.052   1.379   5.582
 2868SOL    HW1 9503   1.122   1.404   5.515
 2868SOL    HW2 9504   1.048   1.449   5.653
 2869SOL     OW 9505   5.870   6.960   4.110
 2869SOL    HW1 9506   5.792   6.977   4.050
 2869SOL    HW2 9507   5.848   6.991   4.202
 2870SOL     OW 9508   1.364   1.678   0.148
 2870SOL    HW1 9509   1.446   1.660   0.203
 2870SOL    HW2 9510   1.285   1.686   0.209
 2871SOL     OW 9511   6.658   0.976   1.338
 2871SOL    HW1 9512   6.650   0.919   1.256
 2871SOL    HW2 9513   6.569   1.017   1.359
 2872SOL     OW 9514   2.938   1.614   2.075
 2872SOL    HW1 9515   2.897   1.577   2.158
 2872SOL    HW2 9516   2.892   1.699   2.050
 2873SOL     OW 9517   0.738   5.541   1.331
 2873SOL    HW1 9518   0.702   5.518   1.422
 2873SOL    HW2 9519   0.837   5.527   1.329
 2874SOL     OW 9520   3.322   0.376   2.586
 2874SOL    HW1 9521   3.250   0.407   2.648
 2874SOL    HW2 9522   3.281   0.327   2.509
 2875SOL     OW 9523   2.791   6.596   2.836
 2875SOL    HW1 9524   2.772   6.590   2.738
 2875SOL    HW2 9525   2.873   6.544   2.857
 2876SOL     OW 9526   1.348   6.412   1.979
 2876SOL    HW1 9527   1.419   6.373   1.920
 2876SOL    HW2 9528   1.338   6.356   2.060
 2877SOL     OW 9529   2.243   1.929   5.976
 2877SOL    HW1 9530   2.264   1.850   6.033
 2877SOL    HW2 9531   2.302   1.928   5.895
 2878SOL     OW 9532   3.426   3.007   4.551
 2878SOL    HW1 9533   3.351   3.065   4.519
 2878SOL    HW2 9534   3.498   3.065   4.591
 2879SOL     OW 9535   4.732   4.998   6.017
 2879SOL    HW1 9536   4.812   4.990   5.958
 2879SOL    HW2 9537   4.653   5.026   5.962
 2880SOL     OW 9538   0.551   2.144   3.511
 2880SOL    HW1 9539   0.468   2.094   3.485
 2880SOL    HW2 9540   0.585   2.195   3.432
 2881SOL     OW 9541   3.220   5.474   6.934
 2881SOL    HW1 9542   3.237   5.385   6.976
 2881SOL    HW2 9543   3.170   5.461   6.848
 2882SOL     OW 9544   5.823   6.338   0.349
 2882SOL    HW1 9545   5.877   6.385   0.419
 2882SOL    HW2 9546   5.877   6.263   0.310
 2883SOL     OW 9547   6.473   6.826   3.101
 2883SOL    HW1 9548   6.468   6.861   3.194
 2883SOL    HW2 9549   6.397   6.864   3.047
 2884SOL     OW 9550   6.925   4.941   2.715
 2884SOL    HW1 9551   6.874   4.883   2.652
 2884SOL    HW2 9552   6.999   4.987   2.665
 2885SOL     OW 9553   1.430   2.673   3.889
 2885SOL    HW1 9554   1.407   2.722   3.805
 2885SOL    HW2 9555   1.503   2.721   3.938
 2886SOL     OW 9556   2.607   4.492   0.376
 2886SOL    HW1 9557   2.611   4.504   0.476
 2886SOL    HW2 9558   2.584   4.579   0.334
 2887SOL     OW 9559   0.368   6.038   4.135
 2887SOL    HW1 9560   0.283   5.992   4.108
 2887SOL    HW2 9561   0.346   6.131   4.167
 2888SOL     OW 9562   0.305   6.254   6.935
 2888SOL    HW1 9563   0.212   6.285   6.954
 2888SOL    HW2 9564   0.318   6.162   6.974
 2889SOL     OW 9565   3.147   6.612   2.927
 2889SOL    HW1 9566   3.246   6.621   2.933
 2889SOL    HW2 9567   3.121   6.580   2.836
 2890SOL     OW 9568   2.364   6.038   0.625
 2890SOL    HW1 9569   2.398   5.993   0.543
 2890SOL    HW2 9570   2.268   6.063   0.613
 2891SOL     OW 9571   1.137   2.993   2.451
 2891SOL    HW1 9572   1.160   2.898   2.430
 2891SOL    HW2 9573   1.077   3.030   2.380
 2892SOL     OW 9574   6.545   3.527   0.923
 2892SOL    HW1 9575   6.516   3.623   0.927
 2892SOL    HW2 9576   6.588   3.502   1.010
 2893SOL     OW 9577   1.052   5.398   4.961
 2893SOL    HW1 9578   1.062   5.318   4.903
 2893SOL    HW2 9579   0.962   5.439   4.946
 2894SOL     OW 9580   1.970   4.279   1.891
 2894SOL    HW1 9581   2.058   4.314   1.859
 2894SOL    HW2 9582   1.934   4.214   1.824
 2895SOL     OW 9583   3.761   0.380   6.322
 2895SOL    HW1 9584   3.761   0.314   6.396
 2895SOL    HW2 9585   3.669   0.387   6.283
 2896SOL     OW 9586   5.963   6.744   5.672
 2896SOL    HW1 9587   5.931   6.827   5.719
 2896SOL    HW2 9588   5.955   6.756   5.574
 2897SOL     OW 9589   3.695   5.269   2.665
 2897SOL    HW1 9590   3.603   5.307   2.678
 2897SOL    HW2 9591   3.705   5.185   2.717
 2898SOL     OW 9592   6.219   4.002   3.464
 2898SOL    HW1 9593   6.276   3.926   3.434
 2898SOL    HW2 9594   6.270   4.087   3.455
 2899SOL     OW 9595   0.035   2.514   1.159
 2899SOL    HW1 9596   6.965   2.483   1.166
 2899SOL    HW2 9597   0.079   2.507   1.249
 2900SOL     OW 9598   3.558   4.115   6.841
 2900SOL    HW1 9599   3.472   4.065   6.832
 2900SOL    HW2 9600   3.547   4.188   6.908
 2901SOL     OW 9601   1.699   4.769   3.990
 2901SOL    HW1 9602   1.734   4.805   4.076
 2901SOL    HW2 9603   1.638   4.836   3.948
 2902SOL     OW 9604   7.020   5.809   3.731
 2902SOL    HW1 9605   6.953   5.863   3.781
 2902SOL    HW2 9606   6.972   5.747   3.668
 2903SOL     OW 9607   4.151   6.361   0.860
 2903SOL    HW1 9608   4.106   6.278   0.893
 2903SOL    HW2 9609   4.249   6.355   0.879
 2904SOL     OW 9610   2.966   4.976   5.042
 2904SOL    HW1 9611   2.925   4.924   4.968
 2904SOL    HW2 9612   2.981   5.071   5.012
 2905SOL     OW 9613   1.195   4.306   2.700
 2905SOL    HW1 9614   1.214   4.390   2.750
 2905SOL    HW2 9615   1.275   4.279   2.648
 2906SOL     OW 9616   5.221   6.176   2.868
 2906SOL    HW1 9617   5.122   6.177   2.879
 2906SOL    HW2 9618   5.255   6.082   2.880
 2907SOL     OW 9619   0.885   0.873   4.138
 2907SOL    HW1 9620   0.896   0.912   4.046
 2907SOL    HW2 9621   0.794   0.893   4.172
 2908SOL     OW 9622   5.336   0.267   3.702
 2908SOL    HW1 9623   5.299   0.270   3.609
 2908SOL    HW2 9624   5.284   0.328   3.760
 2909SOL     OW 9625   1.365   6.603   3.079
 2909SOL    HW1 9626   1.371   6.547   3.162
 2909SOL    HW2 9627   1.430   6.679   3.085
 2910SOL     OW 9628   6.607   0.895   4.212
 2910SOL    HW1 9629   6.633   0.818   4.270
 2910SOL    HW2 9630   6.615   0.869   4.116
 2911SOL     OW 9631   0.916   5.022   3.733
 2911SOL    HW1 9632   0.949   4.932   3.705
 2911SOL    HW2 9633   0.994   5.083   3.747
 2912SOL     OW 9634   6.946   6.467   0.816
 2912SOL    HW1 9635   6.941   6.439   0.721
 2912SOL    HW2 9636   6.926   6.389   0.875
 2913SOL     OW 9637   2.290   4.517   2.148
 2913SOL    HW1 9638   2.333   4.439   2.192
 2913SOL    HW2 9639   2.201   4.490   2.111
 2914SOL     OW 9640   5.422   5.323   0.918
 2914SOL    HW1 9641   5.387   5.383   0.990
 2914SOL    HW2 9642   5.388   5.230   0.932
 2915SOL     OW 9643   3.149   2.086   2.994
 2915SOL    HW1 9644   3.133   2.114   2.900
 2915SOL    HW2 9645   3.092   2.141   3.056
 2916SOL     OW 9646   2.721   5.248   6.924
 2916SOL    HW1 9647   2.663   5.167   6.929
 2916SOL    HW2 9648   2.693   5.313   6.995
 2917SOL     OW 9649   2.525   0.090   4.018
 2917SOL    HW1 9650   2.546   0.187   4.033
 2917SOL    HW2 9651   2.520   0.043   4.106
 2918SOL     OW 9652   6.252   3.706   0.770
 2918SOL    HW1 9653   6.251   3.801   0.802
 2918SOL    HW2 9654   6.197   3.649   0.832
 2919SOL     OW 9655   6.690   5.595   4.317
 2919SOL    HW1 9656   6.643   5.636   4.239
 2919SOL    HW2 9657   6.675   5.651   4.399
 2920SOL     OW 9658   1.974   0.458   1.982
 2920SOL    HW1 9659   2.055   0.488   2.033
 2920SOL    HW2 9660   2.003   0.417   1.896
 2921SOL     OW 9661   6.791   0.002   5.800
 2921SOL    HW1 9662   6.788   0.100   5.780
 2921SOL    HW2 9663   6.713   6.982   5.756
 2922SOL     OW 9664   4.199   0.096   2.720
 2922SOL    HW1 9665   4.170   0.094   2.815
 2922SOL    HW2 9666   4.188   0.188   2.683
 2923SOL     OW 9667   6.496   5.147   4.390
 2923SOL    HW1 9668   6.548   5.098   4.320
 2923SOL    HW2 9669   6.451   5.226   4.349
 2924SOL     OW 9670   6.957   1.593   4.891
 2924SOL    HW1 9671   0.027   1.571   4.909
 2924SOL    HW2 9672   6.933   1.569   4.797
 2925SOL     OW 9673   5.357   1.037   6.840
 2925SOL    HW1 9674   5.272   0.999   6.804
 2925SOL    HW2 9675   5.373   1.002   6.932
 2926SOL     OW 9676   6.878   1.991   5.299
 2926SOL    HW1 9677   6.895   2.021   5.205
 2926SOL    HW2 9678   6.908   2.062   5.363
 2927SOL     OW 9679   2.153   3.293   1.046
 2927SOL    HW1 9680   2.129   3.385   1.078
 2927SOL    HW2 9681   2.072   3.235   1.049
 2928SOL     OW 9682   6.461   1.520   0.135
 2928SOL    HW1 9683   6.531   1.514   0.206
 2928SOL    HW2 9684   6.372   1.497   0.174
 2929SOL     OW 9685   1.300   2.355   5.022
 2929SOL    HW1 9686   1.252   2.353   4.935
 2929SOL    HW2 9687   1.396   2.331   5.008
 2930SOL     OW 9688   6.337   5.507   5.686
 2930SOL    HW1 9689   6.435   5.497   5.703
 2930SOL    HW2 9690   6.312   5.604   5.684
 2931SOL     OW 9691   4.095   4.735   0.255
 2931SOL    HW1 9692   4.185   4.698   0.230
 2931SOL    HW2 9693   4.090   4.832   0.228
 2932SOL     OW 9694   6.847   5.791   2.174
 2932SOL    HW1 9695   6.767   5.768   2.118
 2932SOL    HW2 9696   6.893   5.871   2.136
 2933SOL     OW 9697   0.348   0.177   1.998
 2933SOL    HW1 9698   0.398   0.092   2.012
 2933SOL    HW2 9699   0.394   0.232   1.928
 2934SOL     OW 9700   4.266   3.099   1.100
 2934SOL    HW1 9701   4.181   3.149   1.115
 2934SOL    HW2 9702   4.258   3.043   1.017
 2935SOL     OW 9703   0.979   2.282   6.270
 2935SOL    HW1 9704   0.912   2.250   6.203
 2935SOL    HW2 9705   1.046   2.210   6.287
 2936SOL     OW 9706   4.743   0.334   0.658
 2936SOL    HW1 9707   4.657   0.284   0.643
 2936SOL    HW2 9708   4.796   0.334   0.573
 2937SOL     OW 9709   4.913   5.025   1.171
 2937SOL    HW1 9710   4.859   4.968   1.232
 2937SOL    HW2 9711   5.008   4.995   1.172
 2938SOL     OW 9712   6.510   5.658   0.102
 2938SOL    HW1 9713   6.430   5.703   0.142
 2938SOL    HW2 9714   6.499   5.559   0.109
 2939SOL     OW 9715   0.484   6.581   1.596
 2939SOL    HW1 9716   0.539   6.573   1.680
 2939SOL    HW2 9717   0.527   6.527   1.524
 2940SOL     OW 9718   5.795   5.811   4.775
 2940SOL    HW1 9719   5.741   5.874   4.720
 2940SOL    HW2 9720   5.783   5.833   4.872
 2941SOL     OW 9721   1.904   2.980   3.056
 2941SOL    HW1 9722   1.974   3.049   3.075
 2941SOL    HW2 9723   1.911   2.907   3.124
 2942SOL     OW 9724   2.915   2.422   0.046
 2942SOL    HW1 9725   2.823   2.414   0.007
 2942SOL    HW2 9726   2.975   2.356   0.002
 2943SOL     OW 9727   5.866   4.840   4.504
 2943SOL    HW1 9728   5.872   4.870   4.409
 2943SOL    HW2 9729   5.925   4.898   4.562
 2944SOL     OW 9730   2.721   6.470   3.845
 2944SOL    HW1 9731   2.691   6.493   3.752
 2944SOL    HW2 9732   2.808   6.516   3.864
 2945SOL     OW 9733   5.449   3.633   1.474
 2945SOL    HW1 9734   5.459   3.546   1.426
 2945SOL    HW2 9735   5.457   3.618   1.572
 2946SOL     OW 9736   2.610   4.517   5.941
 2946SOL    HW1 9737   2.544   4.591   5.954
 2946SOL    HW2 9738   2.621   4.500   5.843
 2947SOL     OW 9739   0.057   6.087   0.629
 2947SOL    HW1 9740   0.059   6.080   0.729
 2947SOL    HW2 9741   0.139   6.045   0.591
 2948SOL     OW 9742   5.972   4.750   3.338
 2948SOL    HW1 9743   6.066   4.716   3.336
 2948SOL    HW2 9744   5.933   4.735   3.429
 2949SOL     OW 9745   0.967   6.284   7.014
 2949SOL    HW1 9746   1.016   6.366   6.983
 2949SOL    HW2 9747   1.020   6.203   6.989
 2950SOL     OW 9748   5.592   4.755   2.760
 2950SOL    HW1 9749   5.576   4.851   2.737
 2950SOL    HW2 9750   5.507   4.704   2.752
 2951SOL     OW 9751   6.009   0.641   1.779
 2951SOL    HW1 9752   6.006   0.577   1.856
 2951SOL    HW2 9753   6.047   0.594   1.699
 2952SOL     OW 9754   6.025   0.779   5.220
 2952SOL    HW1 9755   5.931   0.799   5.193
 2952SOL    HW2 9756   6.077   0.864   5.226
 2953SOL     OW 9757   6.345   4.846   3.189
 2953SOL    HW1 9758   6.290   4.893   3.120
 2953SOL    HW2 9759   6.432   4.894   3.200
 2954SOL     OW 9760   0.465   4.583   6.636
 2954SOL    HW1 9761   0.481   4.492   6.676
 2954SOL    HW2 9762   0.407   4.636   6.698
 2955SOL     OW 9763   1.088   4.267   0.038
 2955SOL    HW1 9764   1.029   4.265   6.983
 2955SOL    HW2 9765   1.165   4.329   0.022
 2956SOL     OW 9766   6.940   5.161   4.089
 2956SOL    HW1 9767   0.003   5.190   4.125
 2956SOL    HW2 9768   6.953   5.106   4.006
 2957SOL     OW 9769   4.305   5.081   1.369
 2957SOL    HW1 9770   4.278   5.078   1.466
 2957SOL    HW2 9771   4.395   5.124   1.362
 2958SOL     OW 9772   1.914   5.300   3.211
 2958SOL    HW1 9773   1.863   5.369   3.159
 2958SOL    HW2 9774   2.009   5.328   3.220
 2959SOL     OW 9775   5.436   2.734   2.887
 2959SOL    HW1 9776   5.444   2.636   2.904
 2959SOL    HW2 9777   5.520   2.768   2.844
 2960SOL     OW 9778   3.563   0.810   0.299
 2960SOL    HW1 9779   3.626   0.743   0.338
 2960SOL    HW2 9780   3.473   0.800   0.341
 2961SOL     OW 9781   5.859   4.704   2.824
 2961SOL    HW1 9782   5.860   4.670   2.918
 2961SOL    HW2 9783   5.764   4.717   2.795
 2962SOL     OW 9784   5.250   6.711   3.715
 2962SOL    HW1 9785   5.247   6.626   3.662
 2962SOL    HW2 9786   5.318   6.702   3.787
 2963SOL     OW 9787   1.634   1.067   6.003
 2963SOL    HW1 9788   1.549   1.026   6.037
 2963SOL    HW2 9789   1.615   1.119   5.920
 2964SOL     OW 9790   0.333   3.119   6.766
 2964SOL    HW1 9791   0.253   3.075   6.725
 2964SOL    HW2 9792   0.409   3.118   6.701
 2965SOL     OW 9793   0.757   0.884   4.555
 2965SOL    HW1 9794   0.833   0.947   4.537
 2965SOL    HW2 9795   0.719   0.903   4.646
 2966SOL     OW 9796   4.522   5.826   4.189
 2966SOL    HW1 9797   4.451   5.894   4.173
 2966SOL    HW2 9798   4.604   5.871   4.224
 2967SOL     OW 9799   6.785   1.191   6.106
 2967SOL    HW1 9800   6.832   1.161   6.189
 2967SOL    HW2 9801   6.769   1.290   6.110
 2968SOL     OW 9802   2.364   3.120   0.981
 2968SOL    HW1 9803   2.334   3.042   0.926
 2968SOL    HW2 9804   2.288   3.183   0.993
 2969SOL     OW 9805   4.963   3.670   4.680
 2969SOL    HW1 9806   4.987   3.676   4.777
 2969SOL    HW2 9807   5.034   3.714   4.626
 2970SOL     OW 9808   2.783   2.721   5.587
 2970SOL    HW1 9809   2.738   2.634   5.608
 2970SOL    HW2 9810   2.811   2.721   5.491
 2971SOL     OW 9811   5.807   4.040   0.022
 2971SOL    HW1 9812   5.879   4.024   0.090
 2971SOL    HW2 9813   5.845   4.093   6.971
 2972SOL     OW 9814   5.803   5.055   0.281
 2972SOL    HW1 9815   5.719   5.005   0.303
 2972SOL    HW2 9816   5.783   5.128   0.216
 2973SOL     OW 9817   4.845   7.019   2.393
 2973SOL    HW1 9818   4.774   0.028   2.331
 2973SOL    HW2 9819   4.810   6.939   2.442
 2974SOL     OW 9820   6.177   4.502   2.990
 2974SOL    HW1 9821   6.239   4.556   2.932
 2974SOL    HW2 9822   6.145   4.422   2.938
 2975SOL     OW 9823   5.168   4.842   3.584
 2975SOL    HW1 9824   5.250   4.898   3.592
 2975SOL    HW2 9825   5.142   4.835   3.487
 2976SOL     OW 9826   4.615   2.046   3.200
 2976SOL    HW1 9827   4.694   2.080   3.252
 2976SOL    HW2 9828   4.538   2.034   3.262
 2977SOL     OW 9829   0.972   0.481   2.267
 2977SOL    HW1 9830   1.065   0.486   2.302
 2977SOL    HW2 9831   0.931   0.572   2.269
 2978SOL     OW 9832   4.170   4.162   6.771
 2978SOL    HW1 9833   4.223   4.160   6.856
 2978SOL    HW2 9834   4.090   4.103   6.780
 2979SOL     OW 9835   3.107   1.297   4.321
 2979SOL    HW1 9836   3.024   1.304   4.376
 2979SOL    HW2 9837   3.177   1.357   4.358
 2980SOL     OW 9838   3.196   4.612   6.423
 2980SOL    HW1 9839   3.293   4.602   6.399
 2980SOL    HW2 9840   3.140   4.588   6.344
 2981SOL     OW 9841   2.154   2.139   6.594
 2981SOL    HW1 9842   2.177   2.131   6.497
 2981SOL    HW2 9843   2.181   2.055   6.642
 2982SOL     OW 9844   1.924   6.581   2.445
 2982SOL    HW1 9845   1.848   6.521   2.470
 2982SOL    HW2 9846   1.911   6.671   2.486
 2983SOL     OW 9847   0.182   2.692   6.991
 2983SOL    HW1 9848   0.121   2.641   0.026
 2983SOL    HW2 9849   0.128   2.745   6.925
 2984SOL     OW 9850   6.361   4.855   6.973
 2984SOL    HW1 9851   6.342   4.772   6.921
 2984SOL    HW2 9852   6.289   4.923   6.955
 2985SOL     OW 9853   0.836   0.294   4.515
 2985SOL    HW1 9854   0.775   0.354   4.465
 2985SOL    HW2 9855   0.895   0.349   4.575
 2986SOL     OW 9856   3.063   4.034   2.255
 2986SOL    HW1 9857   3.085   4.058   2.349
 2986SOL    HW2 9858   3.011   3.949   2.253
 2987SOL     OW 9859   1.256   1.897   3.698
 2987SOL    HW1 9860   1.320   1.835   3.653
 2987SOL    HW2 9861   1.235   1.862   3.790
 2988SOL     OW 9862   1.143   0.260   1.448
 2988SOL    HW1 9863   1.206   0.338   1.449
 2988SOL    HW2 9864   1.116   0.240   1.354
 2989SOL     OW 9865   5.095   3.687   5.230
 2989SOL    HW1 9866   5.098   3.779   5.192
 2989SOL    HW2 9867   5.006   3.670   5.272
 2990SOL     OW 9868   5.525   2.403   4.335
 2990SOL    HW1 9869   5.595   2.390   4.404
 2990SOL    HW2 9870   5.521   2.499   4.309
 2991SOL     OW 9871   6.116   3.576   0.580
 2991SOL    HW1 9872   6.158   3.511   0.517
 2991SOL    HW2 9873   6.187   3.618   0.637
 2992SOL     OW 9874   0.498   4.307   4.629
 2992SOL    HW1 9875   0.511   4.242   4.554
 2992SOL    HW2 9876   0.401   4.334   4.633
 2993SOL     OW 9877   0.741   4.909   0.433
 2993SOL    HW1 9878   0.801   4.915   0.353
 2993SOL    HW2 9879   0.671   4.840   0.417
 2994SOL     OW 9880   4.839   6.361   6.862
 2994SOL    HW1 9881   4.765   6.413   6.905
 2994SOL    HW2 9882   4.862   6.402   6.774
 2995SOL     OW 9883   4.850   0.276   0.399
 2995SOL    HW1 9884   4.921   0.300   0.465
 2995SOL    HW2 9885   4.865   0.325   0.313
 2996SOL     OW 9886   1.444   2.056   4.801
 2996SOL    HW1 9887   1.450   2.103   4.714
 2996SOL    HW2 9888   1.365   1.994   4.801
 2997SOL     OW 9889   4.026   1.038   3.214
 2997SOL    HW1 9890   4.057   1.023   3.120
 2997SOL    HW2 9891   4.096   1.006   3.278
 2998SOL     OW 9892   2.917   0.541   4.098
 2998SOL    HW1 9893   3.016   0.554   4.113
 2998SOL    HW2 9894   2.875   0.508   4.182
 2999SOL     OW 9895   2.952   4.682   6.655
 2999SOL    HW1 9896   2.882   4.726   6.710
 2999SOL    HW2 9897   2.983   4.744   6.583
 3000SOL     OW 9898   2.690   3.462   5.650
 3000SOL    HW1 9899   2.745   3.379   5.636
 3000SOL    HW2 9900   2.620   3.444   5.720
 3001SOL     OW 9901   5.930   1.218   0.530
 3001SOL    HW1 9902   5.944   1.205   0.432
 3001SOL    HW2 9903   5.834   1.205   0.553
 3002SOL     OW 9904   2.906   1.567   0.937
 3002SOL    HW1 9905   2.822   1.518   0.912
 3002SOL    HW2 9906   2.984   1.527   0.889
 3003SOL     OW 9907   0.853   6.391   1.083
 3003SOL    HW1 9908   0.797   6.309   1.092
 3003SOL    HW2 9909   0.935   6.370   1.030
 3004SOL     OW 9910   1.830   4.228   4.251
 3004SOL    HW1 9911   1.744   4.267   4.218
 3004SOL    HW2 9912   1.901   4.299   4.251
 3005SOL     OW 9913   0.766   3.462   5.574
 3005SOL    HW1 9914   0.707   3.381   5.585
 3005SOL    HW2 9915   0.731   3.536   5.631
 3006SOL     OW 9916   5.302   1.754   5.678
 3006SOL    HW1 9917   5.290   1.735   5.581
 3006SOL    HW2 9918   5.399   1.770   5.697
 3007SOL     OW 9919   4.651   5.701   6.984
 3007SOL    HW1 9920   4.749   5.713   6.967
 3007SOL    HW2 9921   4.637   5.625   0.022
 3008SOL     OW 9922   3.980   2.158   6.107
 3008SOL    HW1 9923   3.883   2.144   6.090
 3008SOL    HW2 9924   3.992   2.218   6.186
 3009SOL     OW 9925   6.568   2.384   3.044
 3009SOL    HW1 9926   6.661   2.417   3.058
 3009SOL    HW2 9927   6.570   2.303   2.985
 3010SOL     OW 9928   3.702   5.998   5.906
 3010SOL    HW1 9929   3.655   5.971   5.990
 3010SOL    HW2 9930   3.677   5.935   5.833
 3011SOL     OW 9931   6.395   0.149   2.445
 3011SOL    HW1 9932   6.312   0.095   2.454
 3011SOL    HW2 9933   6.383   0.238   2.488
 3012SOL     OW 9934   2.569   3.125   6.790
 3012SOL    HW1 9935   2.600   3.142   6.697
 3012SOL    HW2 9936   2.471   3.103   6.788
 3013SOL     OW 9937   6.246   5.415   3.476
 3013SOL    HW1 9938   6.196   5.397   3.392
 3013SOL    HW2 9939   6.196   5.481   3.532
 3014SOL     OW 9940   5.371   1.341   6.403
 3014SOL    HW1 9941   5.400   1.284   6.481
 3014SOL    HW2 9942   5.303   1.408   6.434
 3015SOL     OW 9943   2.648   1.170   0.430
 3015SOL    HW1 9944   2.666   1.259   0.388
 3015SOL    HW2 9945   2.582   1.181   0.504
 3016SOL     OW 9946   3.151   6.877   4.128
 3016SOL    HW1 9947   3.231   6.932   4.154
 3016SOL    HW2 9948   3.106   6.843   4.211
 3017SOL     OW 9949   5.960   4.500   2.185
 3017SOL    HW1 9950   5.925   4.457   2.268
 3017SOL    HW2 9951   5.887   4.556   2.144
 3018SOL     OW 9952   3.940   6.863   0.088
 3018SOL    HW1 9953   3.887   6.880   0.171
 3018SOL    HW2 9954   3.897   6.791   0.035
 3019SOL     OW 9955   1.171   6.917   0.125
 3019SOL    HW1 9956   1.198   6.830   0.166
 3019SOL    HW2 9957   1.157   6.985   0.197
 3020SOL     OW 9958   4.880   3.580   6.924
 3020SOL    HW1 9959   4.903   3.606   7.018
 3020SOL    HW2 9960   4.942   3.509   6.892
 3021SOL     OW 9961   2.792   6.667   4.435
 3021SOL    HW1 9962   2.790   6.705   4.528
 3021SOL    HW2 9963   2.821   6.572   4.438
 3022SOL     OW 9964   3.934   6.022   3.972
 3022SOL    HW1 9965   3.941   5.924   3.954
 3022SOL    HW2 9966   3.838   6.047   3.981
 3023SOL     OW 9967   3.885   6.930   2.883
 3023SOL    HW1 9968   3.911   6.846   2.836
 3023SOL    HW2 9969   3.964   6.966   2.933
 3024SOL     OW 9970   6.228   6.047   5.273
 3024SOL    HW1 9971   6.319   6.074   5.303
 3024SOL    HW2 9972   6.163   6.056   5.349
 3025SOL     OW 9973   4.039   5.875   0.400
 3025SOL    HW1 9974   3.996   5.888   0.311
 3025SOL    HW2 9975   3.968   5.872   0.471
 3026SOL     OW 9976   6.590   1.112   0.299
 3026SOL    HW1 9977   6.610   1.154   0.211
 3026SOL    HW2 9978   6.649   1.152   0.369
 3027SOL     OW 9979   4.388   1.439   2.282
 3027SOL    HW1 9980   4.294   1.430   2.314
 3027SOL    HW2 9981   4.397   1.398   2.191
 3028SOL     OW 9982   1.888   4.017   6.446
 3028SOL    HW1 9983   1.933   4.103   6.472
 3028SOL    HW2 9984   1.807   4.037   6.391
 3029SOL     OW 9985   0.561   1.948   3.782
 3029SOL    HW1 9986   0.656   1.946   3.813
 3029SOL    HW2 9987   0.548   2.023   3.718
 3030SOL     OW 9988   1.356   4.221   0.734
 3030SOL    HW1 9989   1.338   4.133   0.779
 3030SOL    HW2 9990   1.331   4.214   0.637
 3031SOL     OW 9991   1.725   5.351   1.401
 3031SOL    HW1 9992   1.773   5.431   1.437
 3031SOL    HW2 9993   1.657   5.380   1.334
 3032SOL     OW 9994   1.584   6.484   3.291
 3032SOL    HW1 9995   1.671   6.517   3.329
 3032SOL    HW2 9996   1.593   6.388   3.266
 3033SOL     OW 9997   6.510   2.449   3.625
 3033SOL    HW1 9998   6.450   2.370   3.633
 3033SOL    HW2 9999   6.581   2.445   3.696
 3034SOL     OW10000   0.958   5.609   3.427
 3034SOL    HW110001   0.962   5.673   3.351
 3034SOL    HW210002   0.879   5.629   3.484
 3035SOL     OW10003   1.305   3.156   6.354
 3035SOL    HW110004   1.303   3.104   6.269
 3035SOL    HW210005   1.274   3.099   6.430
 3036SOL     OW10006   1.348   2.463   5.881
 3036SOL    HW110007   1.300   2.459   5.793
 3036SOL    HW210008   1.310   2.537   5.936
 3037SOL     OW10009   0.347   5.423   5.662
 3037SOL    HW110010   0.405   5.343   5.673
 3037SOL    HW210011   0.401   5.506   5.671
 3038SOL     OW10012   4.829   5.432   6.005
 3038SOL    HW110013   4.924   5.399   6.012
 3038SOL    HW210014   4.814   5.472   5.915
 3039SOL     OW10015   6.501   3.254   6.688
 3039SOL    HW110016   6.495   3.154   6.684
 3039SOL    HW210017   6.426   3.295   6.637
 3040SOL     OW10018   3.653   4.083   6.080
 3040SOL    HW110019   3.663   4.088   5.981
 3040SOL    HW210020   3.612   3.995   6.105
 3041SOL     OW10021   1.300   4.054   5.227
 3041SOL    HW110022   1.264   3.961   5.225
 3041SOL    HW210023   1.233   4.114   5.273
 3042SOL     OW10024   6.968   5.260   2.193
 3042SOL    HW110025   6.918   5.183   2.232
 3042SOL    HW210026   0.041   5.246   2.206
 3043SOL     OW10027   2.988   3.762   0.309
 3043SOL    HW110028   2.908   3.724   0.262
 3043SOL    HW210029   2.974   3.860   0.324
 3044SOL     OW10030   3.138   3.820   5.802
 3044SOL    HW110031   3.201   3.743   5.790
 3044SOL    HW210032   3.046   3.791   5.777
 3045SOL     OW10033   4.340   0.785   3.635
 3045SOL    HW110034   4.426   0.834   3.643
 3045SOL    HW210035   4.357   0.693   3.599
 3046SOL     OW10036   4.645   6.074   6.971
 3046SOL    HW110037   4.680   6.154   7.020
 3046SOL    HW210038   4.597   6.014   0.009
 3047SOL     OW10039   6.344   6.582   0.683
 3047SOL    HW110040   6.257   6.631   0.677
 3047SOL    HW210041   6.394   6.611   0.764
 3048SOL     OW10042   4.464   3.180   0.575
 3048SOL    HW110043   4.389   3.127   0.535
 3048SOL    HW210044   4.429   3.237   0.649
 3049SOL     OW10045   0.735   0.595   4.471
 3049SOL    HW110046   0.828   0.562   4.455
 3049SOL    HW210047   0.738   0.689   4.505
 3050SOL     OW10048   2.363   2.652   1.587
 3050SOL    HW110049   2.410   2.566   1.568
 3050SOL    HW210050   2.397   2.691   1.672
 3051SOL     OW10051   2.962   7.022   6.087
 3051SOL    HW110052   3.021   6.951   6.049
 3051SOL    HW210053   2.869   7.011   6.052
 3052SOL     OW10054   5.582   6.122   2.641
 3052SOL    HW110055   5.559   6.171   2.724
 3052SOL    HW210056   5.618   6.186   2.572
 3053SOL     OW10057   1.104   4.549   0.599
 3053SOL    HW110058   1.148   4.593   0.678
 3053SOL    HW210059   1.071   4.459   0.626
 3054SOL     OW10060   5.602   0.935   3.563
 3054SOL    HW110061   5.533   0.863   3.557
 3054SOL    HW210062   5.588   1.001   3.489
 3055SOL     OW10063   6.417   7.006   6.145
 3055SOL    HW110064   6.381   6.921   6.185
 3055SOL    HW210065   6.452   0.039   6.218
 3056SOL     OW10066   5.337   1.625   5.921
 3056SOL    HW110067   5.312   1.647   5.827
 3056SOL    HW210068   5.314   1.530   5.941
 3057SOL     OW10069   5.788   6.200   3.923
 3057SOL    HW110070   5.793   6.155   4.012
 3057SOL    HW210071   5.827   6.292   3.931
 3058SOL     OW10072   6.383   4.329   0.996
 3058SOL    HW110073   6.288   4.298   0.993
 3058SOL    HW210074   6.394   4.397   1.069
 3059SOL     OW10075   2.502   2.582   4.232
 3059SOL    HW110076   2.594   2.591   4.269
 3059SOL    HW210077   2.436   2.581   4.307
 3060SOL     OW10078   2.675   5.117   6.570
 3060SOL    HW110079   2.643   5.202   6.612
 3060SOL    HW210080   2.624   5.099   6.487
 3061SOL     OW10081   5.970   5.087   5.879
 3061SOL    HW110082   6.000   5.008   5.934
 3061SOL    HW210083   5.916   5.054   5.801
 3062SOL     OW10084   4.073   5.136   1.216
 3062SOL    HW110085   3.989   5.113   1.265
 3062SOL    HW210086   4.151   5.130   1.280
 3063SOL     OW10087   0.742   4.603   0.591
 3063SOL    HW110088   0.649   4.566   0.594
 3063SOL    HW210089   0.801   4.548   0.649
 3064SOL     OW10090   4.530   3.115   6.974
 3064SOL    HW110091   4.517   3.168   0.033
 3064SOL    HW210092   4.618   3.138   6.933
 3065SOL     OW10093   0.893   1.627   6.267
 3065SOL    HW110094   0.961   1.583   6.209
 3065SOL    HW210095   0.805   1.630   6.219
 3066SOL     OW10096   4.711   5.278   5.704
 3066SOL    HW110097   4.788   5.215   5.700
 3066SOL    HW210098   4.746   5.372   5.715
 3067SOL     OW10099   2.176   1.836   0.245
 3067SOL    HW110100   2.089   1.851   0.199
 3067SOL    HW210101   2.213   1.923   0.277
 3068SOL     OW10102   0.607   0.959   1.472
 3068SOL    HW110103   0.553   0.970   1.556
 3068SOL    HW210104   0.661   1.042   1.456
 3069SOL     OW10105   5.875   6.671   3.395
 3069SOL    HW110106   5.891   6.700   3.489
 3069SOL    HW210107   5.962   6.667   3.346
 3070SOL     OW10108   3.027   1.235   7.021
 3070SOL    HW110109   2.944   1.196   6.980
 3070SOL    HW210110   3.011   1.330   0.019
 3071SOL     OW10111   6.497   4.322   3.914
 3071SOL    HW110112   6.445   4.381   3.852
 3071SOL    HW210113   6.592   4.318   3.885
 3072SOL     OW10114   2.056   5.646   6.857
 3072SOL    HW110115   1.984   5.589   6.895
 3072SOL    HW210116   2.021   5.697   6.779
 3073SOL     OW10117   0.063   4.385   1.033
 3073SOL    HW110118   0.127   4.386   1.110
 3073SOL    HW210119   0.112   4.409   0.949
 3074SOL     OW10120   0.622   4.230   1.396
 3074SOL    HW110121   0.673   4.287   1.331
 3074SOL    HW210122   0.606   4.282   1.480
 3075SOL     OW10123   2.457   4.841   3.834
 3075SOL    HW110124   2.412   4.877   3.753
 3075SOL    HW210125   2.501   4.754   3.812
 3076SOL     OW10126   0.094   1.082   5.079
 3076SOL    HW110127   0.083   1.158   5.015
 3076SOL    HW210128   0.019   1.082   5.144
 3077SOL     OW10129   6.324   3.592   1.752
 3077SOL    HW110130   6.419   3.603   1.722
 3077SOL    HW210131   6.264   3.650   1.697
 3078SOL     OW10132   6.716   3.098   2.278
 3078SOL    HW110133   6.742   3.191   2.301
 3078SOL    HW210134   6.650   3.064   2.345
 3079SOL     OW10135   2.730   2.366   4.391
 3079SOL    HW110136   2.741   2.394   4.296
 3079SOL    HW210137   2.798   2.296   4.413
 3080SOL     OW10138   4.710   4.225   1.763
 3080SOL    HW110139   4.741   4.220   1.857
 3080SOL    HW210140   4.612   4.249   1.761
 3081SOL     OW10141   0.896   4.266   0.250
 3081SOL    HW110142   0.980   4.256   0.196
 3081SOL    HW210143   0.848   4.349   0.222
 3082SOL     OW10144   2.763   5.420   4.705
 3082SOL    HW110145   2.664   5.414   4.697
 3082SOL    HW210146   2.798   5.338   4.750
 3083SOL     OW10147   2.679   5.279   2.278
 3083SOL    HW110148   2.685   5.351   2.348
 3083SOL    HW210149   2.708   5.315   2.190
 3084SOL     OW10150   0.879   3.517   2.793
 3084SOL    HW110151   0.917   3.481   2.708
 3084SOL    HW210152   0.780   3.529   2.783
 3085SOL     OW10153   5.083   4.615   0.392
 3085SOL    HW110154   5.063   4.660   0.479
 3085SOL    HW210155   5.144   4.537   0.408
 3086SOL     OW10156   5.358   0.914   0.357
 3086SOL    HW110157   5.330   0.818   0.365
 3086SOL    HW210158   5.279   0.973   0.375
 3087SOL     OW10159   2.315   6.169   2.364
 3087SOL    HW110160   2.403   6.188   2.409
 3087SOL    HW210161   2.265   6.255   2.352
 3088SOL     OW10162   0.816   3.397   5.912
 3088SOL    HW110163   0.856   3.488   5.930
 3088SOL    HW210164   0.880   3.344   5.857
 3089SOL     OW10165   4.872   1.100   4.646
 3089SOL    HW110166   4.798   1.086   4.711
 3089SOL    HW210167   4.855   1.184   4.594
 3090SOL     OW10168   1.463   1.487   2.118
 3090SOL    HW110169   1.545   1.454   2.164
 3090SOL    HW210170   1.458   1.587   2.128
 3091SOL     OW10171   1.150   1.307   0.555
 3091SOL    HW110172   1.103   1.242   0.494
 3091SOL    HW210173   1.132   1.281   0.650
 3092SOL     OW10174   5.145   0.327   2.166
 3092SOL    HW110175   5.173   0.405   2.222
 3092SOL    HW210176   5.064   0.285   2.207
 3093SOL     OW10177   5.767   5.998   6.021
 3093SOL    HW110178   5.781   6.011   6.120
 3093SOL    HW210179   5.853   5.969   5.980
 3094SOL     OW10180   2.501   0.949   4.271
 3094SOL    HW110181   2.535   0.863   4.310
 3094SOL    HW210182   2.572   0.988   4.212
 3095SOL     OW10183   2.609   3.214   5.439
 3095SOL    HW110184   2.558   3.297   5.418
 3095SOL    HW210185   2.598   3.148   5.365
 3096SOL     OW10186   0.377   3.382   5.020
 3096SOL    HW110187   0.412   3.347   5.107
 3096SOL    HW210188   0.363   3.481   5.027
 3097SOL     OW10189   5.682   2.836   6.849
 3097SOL    HW110190   5.732   2.749   6.843
 3097SOL    HW210191   5.726   2.895   6.917
 3098SOL     OW10192   1.932   2.445   2.545
 3098SOL    HW110193   1.888   2.399   2.467
 3098SOL    HW210194   1.986   2.378   2.596
 3099SOL     OW10195   0.729   5.904   3.307
 3099SOL    HW110196   0.681   5.822   3.276
 3099SOL    HW210197   0.828   5.892   3.294
 3100SOL     OW10198   6.701   6.056   2.731
 3100SOL    HW110199   6.687   6.135   2.672
 3100SOL    HW210200   6.788   6.012   2.708
 3101SOL     OW10201   4.952   6.951   5.661
 3101SOL    HW110202   4.959   0.004   5.723
 3101SOL    HW210203   4.912   6.980   5.574
 3102SOL     OW10204   0.066   5.478   0.506
 3102SOL    HW110205   0.143   5.508   0.562
 3102SOL    HW210206   0.017   5.558   0.472
 3103SOL     OW10207   4.010   0.497   1.166
 3103SOL    HW110208   4.014   0.422   1.232
 3103SOL    HW210209   4.064   0.574   1.200
 3104SOL     OW10210   4.669   0.171   6.662
 3104SOL    HW110211   4.635   0.132   6.747
 3104SOL    HW210212   4.665   0.102   6.590
 3105SOL     OW10213   5.257   3.261   0.986
 3105SOL    HW110214   5.314   3.329   0.941
 3105SOL    HW210215   5.161   3.288   0.979
 3106SOL     OW10216   5.021   1.097   5.276
 3106SOL    HW110217   5.013   1.169   5.206
 3106SOL    HW210218   5.087   1.126   5.345
 3107SOL     OW10219   4.047   1.470   4.298
 3107SOL    HW110220   4.039   1.482   4.397
 3107SOL    HW210221   4.027   1.376   4.274
 3108SOL     OW10222   2.331   4.409   4.391
 3108SOL    HW110223   2.244   4.458   4.390
 3108SOL    HW210224   2.377   4.424   4.478
 3109SOL     OW10225   6.170   0.602   5.042
 3109SOL    HW110226   6.119   0.672   5.093
 3109SOL    HW210227   6.140   0.511   5.072
 3110SOL     OW10228   2.589   4.628   3.764
 3110SOL    HW110229   2.604   4.593   3.672
 3110SOL    HW210230   2.532   4.564   3.815
 3111SOL     OW10231   6.401   4.809   4.165
 3111SOL    HW110232   6.395   4.835   4.261
 3111SOL    HW210233   6.322   4.846   4.116
 3112SOL     OW10234   3.612   2.984   6.604
 3112SOL    HW110235   3.532   3.016   6.553
 3112SOL    HW210236   3.629   2.888   6.583
 3113SOL     OW10237   3.203   5.829   2.576
 3113SOL    HW110238   3.284   5.814   2.520
 3113SOL    HW210239   3.231   5.858   2.668
 3114SOL     OW10240   3.607   1.081   0.654
 3114SOL    HW110241   3.523   1.074   0.601
 3114SOL    HW210242   3.659   0.995   0.647
 3115SOL     OW10243   4.071   4.313   5.305
 3115SOL    HW110244   4.120   4.226   5.294
 3115SOL    HW210245   4.117   4.383   5.252
 3116SOL     OW10246   0.895   2.307   0.704
 3116SOL    HW110247   0.814   2.252   0.685
 3116SOL    HW210248   0.920   2.297   0.801
 3117SOL     OW10249   4.843   2.514   6.016
 3117SOL    HW110250   4.939   2.509   6.044
 3117SOL    HW210251   4.797   2.428   6.041
 3118SOL     OW10252   1.435   0.251   3.130
 3118SOL    HW110253   1.493   0.264   3.050
 3118SOL    HW210254   1.490   0.217   3.206
 3119SOL     OW10255   2.960   2.372   5.435
 3119SOL    HW110256   3.003   2.343   5.520
 3119SOL    HW210257   3.005   2.455   5.401
 3120SOL     OW10258   3.228   0.452   5.220
 3120SOL    HW110259   3.315   0.439   5.173
 3120SOL    HW210260   3.189   0.540   5.195
 3121SOL     OW10261   5.345   2.118   4.307
 3121SOL    HW110262   5.300   2.070   4.382
 3121SOL    HW210263   5.316   2.076   4.220
 3122SOL     OW10264   4.461   4.589   4.710
 3122SOL    HW110265   4.397   4.634   4.646
 3122SOL    HW210266   4.413   4.518   4.761
 3123SOL     OW10267   2.182   0.440   3.692
 3123SOL    HW110268   2.178   0.408   3.597
 3123SOL    HW210269   2.264   0.495   3.705
 3124SOL     OW10270   5.523   6.474   4.491
 3124SOL    HW110271   5.522   6.487   4.392
 3124SOL    HW210272   5.561   6.556   4.535
 3125SOL     OW10273   1.017   2.829   5.558
 3125SOL    HW110274   1.110   2.852   5.586
 3125SOL    HW210275   1.010   2.834   5.458
 3126SOL     OW10276   5.532   4.825   5.471
 3126SOL    HW110277   5.554   4.853   5.378
 3126SOL    HW210278   5.513   4.727   5.473
 3127SOL     OW10279   0.825   2.345   5.093
 3127SOL    HW110280   0.730   2.327   5.118
 3127SOL    HW210281   0.884   2.274   5.132
 3128SOL     OW10282   3.128   0.794   0.595
 3128SOL    HW110283   3.041   0.753   0.567
 3128SOL    HW210284   3.165   0.744   0.673
 3129SOL     OW10285   5.323   2.999   0.881
 3129SOL    HW110286   5.316   3.098   0.890
 3129SOL    HW210287   5.304   2.955   0.969
 3130SOL     OW10288   1.641   4.266   1.111
 3130SOL    HW110289   1.618   4.259   1.208
 3130SOL    HW210290   1.631   4.176   1.068
 3131SOL     OW10291   0.058   3.366   2.352
 3131SOL    HW110292   0.152   3.379   2.321
 3131SOL    HW210293   0.055   3.297   2.425
 3132SOL     OW10294   4.445   4.674   6.698
 3132SOL    HW110295   4.478   4.582   6.677
 3132SOL    HW210296   4.477   4.701   6.789
 3133SOL     OW10297   3.463   1.062   3.285
 3133SOL    HW110298   3.423   1.151   3.309
 3133SOL    HW210299   3.407   1.018   3.215
 3134SOL     OW10300   3.723   4.943   2.165
 3134SOL    HW110301   3.799   4.878   2.158
 3134SOL    HW210302   3.652   4.919   2.099
 3135SOL     OW10303   5.862   6.767   6.121
 3135SOL    HW110304   5.943   6.824   6.135
 3135SOL    HW210305   5.798   6.783   6.196
 3136SOL     OW10306   5.970   1.168   2.460
 3136SOL    HW110307   5.977   1.181   2.361
 3136SOL    HW210308   6.029   1.092   2.488
 3137SOL     OW10309   0.099   0.251   2.066
 3137SOL    HW110310   0.190   0.219   2.040
 3137SOL    HW210311   0.032   0.179   2.046
 3138SOL     OW10312   5.533   5.491   3.506
 3138SOL    HW110313   5.499   5.581   3.480
 3138SOL    HW210314   5.579   5.449   3.428
 3139SOL     OW10315   3.697   4.877   1.451
 3139SOL    HW110316   3.612   4.847   1.494
 3139SOL    HW210317   3.715   4.822   1.370
 3140SOL     OW10318   0.016   6.296   5.485
 3140SOL    HW110319   0.009   6.196   5.480
 3140SOL    HW210320   0.099   6.326   5.439
 3141SOL     OW10321   0.163   2.089   0.488
 3141SOL    HW110322   0.084   2.150   0.485
 3141SOL    HW210323   0.225   2.118   0.560
 3142SOL     OW10324   4.093   0.606   2.786
 3142SOL    HW110325   4.166   0.630   2.850
 3142SOL    HW210326   4.065   0.688   2.736
 3143SOL     OW10327   6.646   1.911   0.013
 3143SOL    HW110328   6.630   1.836   6.974
 3143SOL    HW210329   6.677   1.874   0.100
 3144SOL     OW10330   4.343   3.957   6.904
 3144SOL    HW110331   4.285   3.890   6.951
 3144SOL    HW210332   4.417   3.984   6.965
 3145SOL     OW10333   1.882   6.564   2.109
 3145SOL    HW110334   1.961   6.611   2.070
 3145SOL    HW210335   1.914   6.487   2.164
 3146SOL     OW10336   1.060   1.059   5.017
 3146SOL    HW110337   1.075   1.062   4.918
 3146SOL    HW210338   1.146   1.034   5.063
 3147SOL     OW10339   3.460   5.241   6.345
 3147SOL    HW110340   3.538   5.218   6.403
 3147SOL    HW210341   3.418   5.326   6.377
 3148SOL     OW10342   0.048   0.094   3.412
 3148SOL    HW110343   0.136   0.124   3.377
 3148SOL    HW210344   0.061   0.011   3.467
 3149SOL     OW10345   3.108   1.172   6.541
 3149SOL    HW110346   3.138   1.180   6.636
 3149SOL    HW210347   3.019   1.216   6.530
 3150SOL     OW10348   6.446   5.339   6.029
 3150SOL    HW110349   6.500   5.349   5.946
 3150SOL    HW210350   6.452   5.422   6.083
 3151SOL     OW10351   6.809   2.010   6.212
 3151SOL    HW110352   6.841   1.970   6.127
 3151SOL    HW210353   6.773   1.938   6.272
 3152SOL     OW10354   1.312   4.312   6.622
 3152SOL    HW110355   1.405   4.345   6.603
 3152SOL    HW210356   1.280   4.352   6.708
 3153SOL     OW10357   6.275   4.582   0.650
 3153SOL    HW110358   6.231   4.658   0.602
 3153SOL    HW210359   6.351   4.616   0.706
 3154SOL     OW10360   5.790   0.876   1.473
 3154SOL    HW110361   5.861   0.889   1.404
 3154SOL    HW210362   5.796   0.948   1.542
 3155SOL     OW10363   6.834   4.560   0.654
 3155SOL    HW110364   6.871   4.566   0.561
 3155SOL    HW210365   6.789   4.471   0.666
 3156SOL     OW10366   3.349   4.067   2.199
 3156SOL    HW110367   3.250   4.064   2.209
 3156SOL    HW210368   3.378   3.993   2.138
 3157SOL     OW10369   1.097   2.240   4.844
 3157SOL    HW110370   1.113   2.292   4.760
 3157SOL    HW210371   1.003   2.258   4.876
 3158SOL     OW10372   2.542   1.966   5.337
 3158SOL    HW110373   2.524   1.921   5.425
 3158SOL    HW210374   2.481   1.929   5.267
 3159SOL     OW10375   5.276   0.128   0.467
 3159SOL    HW110376   5.310   0.054   0.525
 3159SOL    HW210377   5.345   0.200   0.462
 3160SOL     OW10378   1.972   6.867   5.211
 3160SOL    HW110379   1.903   6.866   5.138
 3160SOL    HW210380   2.058   6.830   5.175
 3161SOL     OW10381   1.825   2.742   2.872
 3161SOL    HW110382   1.793   2.821   2.924
 3161SOL    HW210383   1.858   2.773   2.782
 3162SOL     OW10384   2.176   5.409   0.173
 3162SOL    HW110385   2.212   5.496   0.140
 3162SOL    HW210386   2.076   5.413   0.178
 3163SOL     OW10387   3.598   3.516   0.390
 3163SOL    HW110388   3.631   3.552   0.303
 3163SOL    HW210389   3.675   3.509   0.454
 3164SOL     OW10390   3.543   6.031   2.196
 3164SOL    HW110391   3.544   5.966   2.120
 3164SOL    HW210392   3.504   6.118   2.165
 3165SOL     OW10393   1.366   5.245   1.000
 3165SOL    HW110394   1.322   5.157   1.020
 3165SOL    HW210395   1.330   5.315   1.061
 3166SOL     OW10396   4.186   1.023   3.865
 3166SOL    HW110397   4.195   1.056   3.959
 3166SOL    HW210398   4.263   1.056   3.811
 3167SOL     OW10399   5.919   4.571   0.546
 3167SOL    HW110400   5.851   4.542   0.478
 3167SOL    HW210401   6.011   4.561   0.508
 3168SOL     OW10402   5.394   2.105   1.358
 3168SOL    HW110403   5.483   2.086   1.400
 3168SOL    HW210404   5.343   2.019   1.348
 3169SOL     OW10405   2.062   4.465   3.027
 3169SOL    HW110406   1.962   4.462   3.018
 3169SOL    HW210407   2.086   4.472   3.124
 3170SOL     OW10408   4.427   6.022   2.230
 3170SOL    HW110409   4.408   6.111   2.272
 3170SOL    HW210410   4.420   6.029   2.131
 3171SOL     OW10411   5.440   2.277   1.810
 3171SOL    HW110412   5.390   2.294   1.725
 3171SOL    HW210413   5.430   2.356   1.870
 3172SOL     OW10414   0.364   5.371   0.060
 3172SOL    HW110415   0.421   5.430   0.117
 3172SOL    HW210416   0.338   5.419   7.002
 3173SOL     OW10417   2.672   2.698   0.120
 3173SOL    HW110418   2.660   2.688   0.021
 3173SOL    HW210419   2.746   2.638   0.151
 3174SOL     OW10420   2.477   2.544   6.214
 3174SOL    HW110421   2.520   2.548   6.304
 3174SOL    HW210422   2.380   2.569   6.222
 3175SOL     OW10423   5.830   1.430   2.263
 3175SOL    HW110424   5.765   1.489   2.215
 3175SOL    HW210425   5.905   1.485   2.299
 3176SOL     OW10426   0.387   3.177   5.511
 3176SOL    HW110427   0.406   3.254   5.449
 3176SOL    HW210428   0.379   3.093   5.459
 3177SOL     OW10429   5.260   4.171   3.971
 3177SOL    HW110430   5.309   4.119   4.041
 3177SOL    HW210431   5.253   4.115   3.888
 3178SOL     OW10432   6.335   1.857   0.231
 3178SOL    HW110433   6.256   1.897   0.278
 3178SOL    HW210434   6.400   1.929   0.208
 3179SOL     OW10435   1.593   1.731   1.888
 3179SOL    HW110436   1.676   1.786   1.886
 3179SOL    HW210437   1.603   1.653   1.826
 3180SOL     OW10438   5.601   6.335   0.192
 3180SOL    HW110439   5.674   6.333   0.260
 3180SOL    HW210440   5.513   6.349   0.238
 3181SOL     OW10441   6.577   1.092   4.420
 3181SOL    HW110442   6.573   1.031   4.341
 3181SOL    HW210443   6.609   1.040   4.500
 3182SOL     OW10444   2.930   0.718   6.359
 3182SOL    HW110445   2.979   0.733   6.445
 3182SOL    HW210446   2.832   0.728   6.374
 3183SOL     OW10447   4.579   4.907   2.519
 3183SOL    HW110448   4.633   4.857   2.451
 3183SOL    HW210449   4.599   5.005   2.513
 3184SOL     OW10450   0.417   1.855   3.189
 3184SOL    HW110451   0.330   1.826   3.150
 3184SOL    HW210452   0.465   1.914   3.125
 3185SOL     OW10453   6.394   6.305   5.759
 3185SOL    HW110454   6.308   6.333   5.802
 3185SOL    HW210455   6.471   6.337   5.815
 3186SOL     OW10456   2.564   1.563   0.372
 3186SOL    HW110457   2.609   1.484   0.331
 3186SOL    HW210458   2.490   1.532   0.432
 3187SOL     OW10459   3.438   5.296   2.164
 3187SOL    HW110460   3.399   5.319   2.074
 3187SOL    HW210461   3.424   5.199   2.183
 3188SOL     OW10462   2.044   5.721   4.551
 3188SOL    HW110463   2.121   5.667   4.518
 3188SOL    HW210464   2.003   5.677   4.631
 3189SOL     OW10465   1.962   1.505   0.133
 3189SOL    HW110466   1.954   1.598   0.171
 3189SOL    HW210467   1.930   1.439   0.200
 3190SOL     OW10468   6.721   5.740   6.512
 3190SOL    HW110469   6.774   5.655   6.509
 3190SOL    HW210470   6.688   5.762   6.420
 3191SOL     OW10471   4.856   5.753   1.945
 3191SOL    HW110472   4.946   5.724   1.910
 3191SOL    HW210473   4.815   5.678   1.997
 3192SOL     OW10474   0.170   2.848   0.748
 3192SOL    HW110475   0.160   2.759   0.793
 3192SOL    HW210476   0.080   2.889   0.735
 3193SOL     OW10477   4.153   1.100   4.883
 3193SOL    HW110478   4.160   1.028   4.814
 3193SOL    HW210479   4.154   1.059   4.975
 3194SOL     OW10480   0.978   1.122   5.475
 3194SOL    HW110481   0.978   1.160   5.383
 3194SOL    HW210482   1.007   1.192   5.541
 3195SOL     OW10483   0.596   1.392   1.479
 3195SOL    HW110484   0.595   1.482   1.436
 3195SOL    HW210485   0.687   1.351   1.468
 3196SOL     OW10486   6.717   0.531   6.430
 3196SOL    HW110487   6.678   0.553   6.519
 3196SOL    HW210488   6.751   0.615   6.387
 3197SOL     OW10489   2.444   6.882   5.261
 3197SOL    HW110490   2.366   6.931   5.300
 3197SOL    HW210491   2.518   6.946   5.243
 3198SOL     OW10492   6.119   2.421   3.331
 3198SOL    HW110493   6.216   2.400   3.319
 3198SOL    HW210494   6.088   2.485   3.261
 3199SOL     OW10495   5.634   4.772   3.061
 3199SOL    HW110496   5.697   4.841   3.024
 3199SOL    HW210497   5.556   4.761   3.000
 3200SOL     OW10498   6.104   3.373   2.937
 3200SOL    HW110499   6.165   3.299   2.911
 3200SOL    HW210500   6.117   3.395   3.033
 3201SOL     OW10501   6.146   4.964   3.591
 3201SOL    HW110502   6.180   5.043   3.540
 3201SOL    HW210503   6.064   4.990   3.643
 3202SOL     OW10504   1.095   5.636   0.832
 3202SOL    HW110505   1.117   5.702   0.760
 3202SOL    HW210506   1.171   5.571   0.841
 3203SOL     OW10507   5.358   1.240   1.498
 3203SOL    HW110508   5.369   1.213   1.594
 3203SOL    HW210509   5.422   1.313   1.476
 3204SOL     OW10510   2.839   1.101   2.935
 3204SOL    HW110511   2.878   1.062   2.851
 3204SOL    HW210512   2.871   1.195   2.946
 3205SOL     OW10513   4.760   2.395   5.516
 3205SOL    HW110514   4.831   2.396   5.587
 3205SOL    HW210515   4.689   2.462   5.538
 3206SOL     OW10516   2.532   3.862   1.377
 3206SOL    HW110517   2.519   3.939   1.314
 3206SOL    HW210518   2.476   3.785   1.347
 3207SOL     OW10519   1.105   1.085   6.483
 3207SOL    HW110520   1.115   1.018   6.556
 3207SOL    HW210521   1.089   1.175   6.523
 3208SOL     OW10522   5.395   6.086   6.425
 3208SOL    HW110523   5.462   6.068   6.496
 3208SOL    HW210524   5.304   6.056   6.455
 3209SOL     OW10525   3.277   5.414   4.864
 3209SOL    HW110526   3.195   5.464   4.891
 3209SOL    HW210527   3.322   5.378   4.946
 3210SOL     OW10528   0.929   5.185   1.517
 3210SOL    HW110529   0.937   5.090   1.547
 3210SOL    HW210530   0.968   5.245   1.587
 3211SOL     OW10531   1.886   4.769   0.284
 3211SOL    HW110532   1.953   4.739   0.217
 3211SOL    HW210533   1.921   4.753   0.376
 3212SOL     OW10534   3.135   6.787   2.173
 3212SOL    HW110535   3.230   6.799   2.143
 3212SOL    HW210536   3.076   6.775   2.093
 3213SOL     OW10537   1.663   0.184   6.465
 3213SOL    HW110538   1.699   0.257   6.408
 3213SOL    HW210539   1.585   0.218   6.518
 3214SOL     OW10540   4.809   6.772   2.524
 3214SOL    HW110541   4.741   6.766   2.597
 3214SOL    HW210542   4.854   6.683   2.513
 3215SOL     OW10543   1.134   3.592   1.303
 3215SOL    HW110544   1.152   3.496   1.326
 3215SOL    HW210545   1.189   3.618   1.224
 3216SOL     OW10546   5.847   5.146   1.158
 3216SOL    HW110547   5.823   5.082   1.231
 3216SOL    HW210548   5.829   5.104   1.070
 3217SOL     OW10549   0.238   5.502   2.411
 3217SOL    HW110550   0.208   5.597   2.398
 3217SOL    HW210551   0.278   5.469   2.325
 3218SOL     OW10552   5.868   2.416   3.430
 3218SOL    HW110553   5.860   2.462   3.518
 3218SOL    HW210554   5.965   2.409   3.405
 3219SOL     OW10555   6.889   0.485   4.714
 3219SOL    HW110556   6.876   0.546   4.636
 3219SOL    HW210557   6.894   0.390   4.682
 3220SOL     OW10558   0.697   5.799   6.229
 3220SOL    HW110559   0.651   5.825   6.314
 3220SOL    HW210560   0.630   5.799   6.154
 3221SOL     OW10561   3.154   6.492   2.661
 3221SOL    HW110562   3.078   6.435   2.691
 3221SOL    HW210563   3.191   6.456   2.575
 3222SOL     OW10564   3.150   1.074   2.179
 3222SOL    HW110565   3.088   0.995   2.183
 3222SOL    HW210566   3.233   1.053   2.232
 3223SOL     OW10567   2.553   6.443   0.120
 3223SOL    HW110568   2.604   6.518   0.162
 3223SOL    HW210569   2.455   6.456   0.136
 3224SOL     OW10570   4.949   2.479   4.921
 3224SOL    HW110571   4.879   2.492   4.991
 3224SOL    HW210572   5.040   2.485   4.962
 3225SOL     OW10573   4.170   1.622   4.910
 3225SOL    HW110574   4.185   1.534   4.955
 3225SOL    HW210575   4.084   1.619   4.857
 3226SOL     OW10576   1.848   0.145   1.511
 3226SOL    HW110577   1.825   0.190   1.597
 3226SOL    HW210578   1.802   0.191   1.436
 3227SOL     OW10579   3.380   3.018   6.452
 3227SOL    HW110580   3.376   3.006   6.352
 3227SOL    HW210581   3.317   3.091   6.479
 3228SOL     OW10582   6.875   3.671   0.323
 3228SOL    HW110583   6.932   3.691   0.403
 3228SOL    HW210584   6.788   3.719   0.332
 3229SOL     OW10585   3.424   0.752   5.327
 3229SOL    HW110586   3.468   0.690   5.262
 3229SOL    HW210587   3.356   0.702   5.381
 3230SOL     OW10588   1.610   5.467   5.767
 3230SOL    HW110589   1.605   5.367   5.757
 3230SOL    HW210590   1.702   5.492   5.796
 3231SOL     OW10591   2.550   0.789   2.631
 3231SOL    HW110592   2.634   0.742   2.603
 3231SOL    HW210593   2.570   0.885   2.648
 3232SOL     OW10594   4.219   5.944   4.097
 3232SOL    HW110595   4.192   6.030   4.055
 3232SOL    HW210596   4.162   5.870   4.061
 3233SOL     OW10597   0.005   2.803   0.419
 3233SOL    HW110598   0.047   2.833   0.504
 3233SOL    HW210599   6.932   2.823   0.421
 3234SOL     OW10600   1.543   2.800   0.509
 3234SOL    HW110601   1.586   2.712   0.529
 3234SOL    HW210602   1.598   2.849   0.442
 3235SOL     OW10603   6.449   6.893   2.172
 3235SOL    HW110604   6.497   6.980   2.184
 3235SOL    HW210605   6.495   6.839   2.102
 3236SOL     OW10606   1.169   4.628   0.855
 3236SOL    HW110607   1.132   4.599   0.944
 3236SOL    HW210608   1.165   4.727   0.849
 3237SOL     OW10609   6.229   1.421   2.955
 3237SOL    HW110610   6.165   1.364   2.903
 3237SOL    HW210611   6.252   1.375   3.041
 3238SOL     OW10612   6.193   5.299   0.035
 3238SOL    HW110613   6.166   5.209   0.001
 3238SOL    HW210614   6.292   5.301   0.049
 3239SOL     OW10615   6.942   6.986   3.699
 3239SOL    HW110616   6.861   0.003   3.741
 3239SOL    HW210617   6.921   6.960   3.605
 3240SOL     OW10618   0.562   0.547   5.481
 3240SOL    HW110619   0.583   0.470   5.421
 3240SOL    HW210620   0.496   0.608   5.436
 3241SOL     OW10621   5.056   1.744   5.852
 3241SOL    HW110622   5.073   1.661   5.905
 3241SOL    HW210623   5.127   1.755   5.783
 3242SOL     OW10624   4.651   3.416   5.754
 3242SOL    HW110625   4.602   3.330   5.767
 3242SOL    HW210626   4.598   3.477   5.695
 3243SOL     OW10627   4.575   5.406   0.303
 3243SOL    HW110628   4.629   5.421   0.386
 3243SOL    HW210629   4.557   5.493   0.258
 3244SOL     OW10630   5.631   6.084   0.067
 3244SOL    HW110631   5.618   6.176   0.102
 3244SOL    HW210632   5.728   6.063   0.060
 3245SOL     OW10633   4.990   1.967   4.208
 3245SOL    HW110634   5.027   2.000   4.295
 3245SOL    HW210635   5.065   1.929   4.153
 3246SOL     OW10636   6.322   0.097   2.829
 3246SOL    HW110637   6.417   0.111   2.804
 3246SOL    HW210638   6.275   0.045   2.758
 3247SOL     OW10639   6.484   4.757   2.245
 3247SOL    HW110640   6.411   4.761   2.312
 3247SOL    HW210641   6.468   4.826   2.174
 3248SOL     OW10642   5.428   2.249   2.480
 3248SOL    HW110643   5.516   2.213   2.511
 3248SOL    HW210644   5.358   2.178   2.489
 3249SOL     OW10645   3.156   4.076   4.015
 3249SOL    HW110646   3.073   4.029   3.988
 3249SOL    HW210647   3.235   4.030   3.975
 3250SOL     OW10648   5.168   0.492   2.862
 3250SOL    HW110649   5.233   0.433   2.814
 3250SOL    HW210650   5.207   0.519   2.950
 3251SOL     OW10651   2.774   1.078   3.967
 3251SOL    HW110652   2.816   0.992   3.940
 3251SOL    HW210653   2.741   1.126   3.885
 3252SOL     OW10654   2.776   0.652   2.627
 3252SOL    HW110655   2.818   0.615   2.710
 3252SOL    HW210656   2.840   0.644   2.551
 3253SOL     OW10657   4.527   3.710   0.265
 3253SOL    HW110658   4.429   3.697   0.247
 3253SOL    HW210659   4.575   3.721   0.178
 3254SOL     OW10660   5.338   6.915   6.183
 3254SOL    HW110661   5.301   6.846   6.245
 3254SOL    HW210662   5.398   6.870   6.116
 3255SOL     OW10663   5.233   6.181   1.314
 3255SOL    HW110664   5.277   6.095   1.339
 3255SOL    HW210665   5.134   6.171   1.322
 3256SOL     OW10666   3.795   1.933   1.173
 3256SOL    HW110667   3.820   1.922   1.077
 3256SOL    HW210668   3.783   2.031   1.193
 3257SOL     OW10669   2.324   1.828   2.036
 3257SOL    HW110670   2.250   1.762   2.026
 3257SOL    HW210671   2.288   1.921   2.028
 3258SOL     OW10672   3.644   5.340   3.428
 3258SOL    HW110673   3.549   5.336   3.397
 3258SOL    HW210674   3.651   5.403   3.506
 3259SOL     OW10675   5.137   5.493   4.307
 3259SOL    HW110676   5.222   5.444   4.329
 3259SOL    HW210677   5.063   5.427   4.297
 3260SOL     OW10678   1.554   3.429   1.557
 3260SOL    HW110679   1.598   3.342   1.534
 3260SOL    HW210680   1.620   3.489   1.602
 3261SOL     OW10681   4.926   0.584   1.699
 3261SOL    HW110682   4.874   0.534   1.768
 3261SOL    HW210683   4.870   0.596   1.617
 3262SOL     OW10684   3.911   2.214   1.819
 3262SOL    HW110685   3.829   2.217   1.875
 3262SOL    HW210686   3.886   2.192   1.724
 3263SOL     OW10687   3.494   1.094   2.905
 3263SOL    HW110688   3.550   1.082   2.823
 3263SOL    HW210689   3.490   1.009   2.957
 3264SOL     OW10690   2.043   5.434   1.212
 3264SOL    HW110691   2.051   5.387   1.299
 3264SOL    HW210692   2.090   5.523   1.218
 3265SOL     OW10693   5.662   6.812   6.340
 3265SOL    HW110694   5.633   6.843   6.430
 3265SOL    HW210695   5.609   6.731   6.314
 3266SOL     OW10696   2.918   4.181   6.758
 3266SOL    HW110697   2.819   4.197   6.750
 3266SOL    HW210698   2.951   4.133   6.677
 3267SOL     OW10699   2.762   6.968   2.104
 3267SOL    HW110700   2.782   0.038   2.080
 3267SOL    HW210701   2.819   6.907   2.048
 3268SOL     OW10702   1.744   4.776   1.090
 3268SOL    HW110703   1.688   4.842   1.140
 3268SOL    HW210704   1.692   4.692   1.077
 3269SOL     OW10705   6.958   5.380   1.710
 3269SOL    HW110706   6.881   5.325   1.677
 3269SOL    HW210707   6.923   5.463   1.754
 3270SOL     OW10708   1.564   3.394   6.769
 3270SOL    HW110709   1.620   3.475   6.749
 3270SOL    HW210710   1.573   3.328   6.695
 3271SOL     OW10711   6.725   3.077   1.221
 3271SOL    HW110712   6.717   3.023   1.304
 3271SOL    HW210713   6.653   3.050   1.157
 3272SOL     OW10714   2.716   4.462   6.847
 3272SOL    HW110715   2.716   4.443   6.749
 3272SOL    HW210716   2.799   4.424   6.888
 3273SOL     OW10717   6.105   5.036   6.529
 3273SOL    HW110718   6.166   5.008   6.604
 3273SOL    HW210719   6.048   5.113   6.560
 3274SOL     OW10720   6.031   0.311   1.270
 3274SOL    HW110721   5.975   0.354   1.340
 3274SOL    HW210722   5.973   0.265   1.203
 3275SOL     OW10723   4.667   0.990   0.567
 3275SOL    HW110724   4.678   1.029   0.658
 3275SOL    HW210725   4.571   0.998   0.539
 3276SOL     OW10726   4.162   6.288   0.045
 3276SOL    HW110727   4.185   6.196   0.079
 3276SOL    HW210728   4.081   6.283   7.013
 3277SOL     OW10729   3.340   1.575   0.661
 3277SOL    HW110730   3.303   1.662   0.629
 3277SOL    HW210731   3.409   1.593   0.732
 3278SOL     OW10732   0.829   0.892   6.015
 3278SOL    HW110733   0.862   0.811   6.062
 3278SOL    HW210734   0.772   0.946   6.077
 3279SOL     OW10735   5.580   0.261   0.966
 3279SOL    HW110736   5.611   0.238   0.874
 3279SOL    HW210737   5.618   0.350   0.993
 3280SOL     OW10738   4.750   4.290   4.563
 3280SOL    HW110739   4.672   4.349   4.544
 3280SOL    HW210740   4.835   4.338   4.543
 3281SOL     OW10741   0.863   4.800   1.542
 3281SOL    HW110742   0.774   4.821   1.582
 3281SOL    HW210743   0.933   4.854   1.587
 3282SOL     OW10744   6.511   4.573   4.844
 3282SOL    HW110745   6.449   4.514   4.895
 3282SOL    HW210746   6.602   4.570   4.886
 3283SOL     OW10747   3.669   0.877   1.581
 3283SOL    HW110748   3.645   0.964   1.624
 3283SOL    HW210749   3.747   0.891   1.520
 3284SOL     OW10750   1.070   6.003   5.235
 3284SOL    HW110751   1.014   5.923   5.256
 3284SOL    HW210752   1.160   5.974   5.203
 3285SOL     OW10753   5.323   2.120   4.809
 3285SOL    HW110754   5.373   2.060   4.747
 3285SOL    HW210755   5.309   2.209   4.765
 3286SOL     OW10756   3.483   2.695   1.417
 3286SOL    HW110757   3.384   2.706   1.413
 3286SOL    HW210758   3.512   2.683   1.512
 3287SOL     OW10759   0.788   0.526   0.326
 3287SOL    HW110760   0.830   0.609   0.290
 3287SOL    HW210761   0.688   0.537   0.327
 3288SOL     OW10762   1.928   6.952   0.301
 3288SOL    HW110763   1.906   0.013   0.256
 3288SOL    HW210764   1.896   6.954   0.395
 3289SOL     OW10765   2.703   1.775   6.135
 3289SOL    HW110766   2.723   1.706   6.065
 3289SOL    HW210767   2.670   1.858   6.091
 3290SOL     OW10768   6.997   5.244   1.099
 3290SOL    HW110769   6.899   5.268   1.097
 3290SOL    HW210770   7.007   5.152   1.137
 3291SOL     OW10771   2.802   0.992   5.845
 3291SOL    HW110772   2.872   0.925   5.819
 3291SOL    HW210773   2.751   0.958   5.924
 3292SOL     OW10774   0.331   1.390   0.502
 3292SOL    HW110775   0.430   1.401   0.499
 3292SOL    HW210776   0.289   1.478   0.526
 3293SOL     OW10777   6.299   4.671   1.489
 3293SOL    HW110778   6.342   4.591   1.448
 3293SOL    HW210779   6.225   4.703   1.430
 3294SOL     OW10780   5.015   2.136   6.016
 3294SOL    HW110781   5.087   2.175   6.074
 3294SOL    HW210782   4.934   2.194   6.020
 3295SOL     OW10783   0.938   3.709   1.893
 3295SOL    HW110784   0.986   3.637   1.943
 3295SOL    HW210785   1.001   3.785   1.875
 3296SOL     OW10786   0.599   0.661   3.726
 3296SOL    HW110787   0.592   0.625   3.819
 3296SOL    HW210788   0.537   0.740   3.716
 3297SOL     OW10789   2.940   1.442   5.396
 3297SOL    HW110790   2.865   1.392   5.438
 3297SOL    HW210791   2.912   1.536   5.378
 3298SOL     OW10792   6.499   2.310   5.508
 3298SOL    HW110793   6.414   2.261   5.527
 3298SOL    HW210794   6.569   2.244   5.480
 3299SOL     OW10795   3.919   5.945   2.944
 3299SOL    HW110796   3.939   5.851   2.973
 3299SOL    HW210797   3.821   5.956   2.931
 3300SOL     OW10798   1.831   0.716   6.050
 3300SOL    HW110799   1.753   0.715   6.112
 3300SOL    HW210800   1.913   0.746   6.099
 3301SOL     OW10801   2.114   3.465   3.638
 3301SOL    HW110802   2.131   3.372   3.606
 3301SOL    HW210803   2.030   3.467   3.692
 3302SOL     OW10804   1.181   4.667   5.711
 3302SOL    HW110805   1.124   4.690   5.790
 3302SOL    HW210806   1.272   4.640   5.742
 3303SOL     OW10807   3.204   3.523   7.023
 3303SOL    HW110808   3.239   3.536   0.090
 3303SOL    HW210809   3.142   3.598   7.001
 3304SOL     OW10810   1.796   5.524   6.083
 3304SOL    HW110811   1.697   5.536   6.093
 3304SOL    HW210812   1.824   5.440   6.130
 3305SOL     OW10813   2.726   0.857   1.965
 3305SOL    HW110814   2.730   0.945   2.012
 3305SOL    HW210815   2.814   0.838   1.921
 3306SOL     OW10816   1.027   5.139   4.814
 3306SOL    HW110817   0.937   5.175   4.839
 3306SOL    HW210818   1.030   5.124   4.715
 3307SOL     OW10819   1.050   0.023   5.136
 3307SOL    HW110820   0.964   6.998   5.125
 3307SOL    HW210821   1.113   6.993   5.191
 3308SOL     OW10822   3.183   5.568   1.125
 3308SOL    HW110823   3.280   5.569   1.150
 3308SOL    HW210824   3.128   5.549   1.206
 3309SOL     OW10825   6.299   4.489   4.440
 3309SOL    HW110826   6.385   4.534   4.460
 3309SOL    HW210827   6.224   4.555   4.447
 3310SOL     OW10828   0.307   4.319   5.220
 3310SOL    HW110829   0.266   4.345   5.307
 3310SOL    HW210830   0.244   4.342   5.145
 3311SOL     OW10831   3.223   4.125   0.355
 3311SOL    HW110832   3.281   4.046   0.377
 3311SOL    HW210833   3.128   4.105   0.381
 3312SOL     OW10834   4.293   2.799   6.085
 3312SOL    HW110835   4.293   2.888   6.040
 3312SOL    HW210836   4.322   2.808   6.180
 3313SOL     OW10837   1.211   6.724   3.607
 3313SOL    HW110838   1.286   6.673   3.565
 3313SOL    HW210839   1.156   6.768   3.536
 3314SOL     OW10840   2.727   0.461   1.818
 3314SOL    HW110841   2.645   0.407   1.799
 3314SOL    HW210842   2.805   0.400   1.833
 3315SOL     OW10843   0.481   4.158   5.083
 3315SOL    HW110844   0.433   4.223   5.142
 3315SOL    HW210845   0.532   4.207   5.013
 3316SOL     OW10846   4.326   0.477   5.216
 3316SOL    HW110847   4.380   0.560   5.222
 3316SOL    HW210848   4.229   0.500   5.225
 3317SOL     OW10849   4.945   2.226   2.210
 3317SOL    HW110850   5.026   2.170   2.194
 3317SOL    HW210851   4.902   2.199   2.297
 3318SOL     OW10852   1.894   1.316   0.322
 3318SOL    HW110853   1.799   1.311   0.289
 3318SOL    HW210854   1.953   1.262   0.261
 3319SOL     OW10855   5.658   0.658   3.836
 3319SOL    HW110856   5.731   0.686   3.897
 3319SOL    HW210857   5.666   0.560   3.818
 3320SOL     OW10858   6.020   0.716   0.027
 3320SOL    HW110859   5.952   0.708   0.100
 3320SOL    HW210860   5.976   0.753   6.970
 3321SOL     OW10861   5.926   1.700   0.905
 3321SOL    HW110862   5.949   1.731   0.998
 3321SOL    HW210863   5.827   1.700   0.893
 3322SOL     OW10864   0.399   2.673   1.119
 3322SOL    HW110865   0.476   2.709   1.066
 3322SOL    HW210866   0.428   2.657   1.213
 3323SOL     OW10867   2.335   2.368   1.029
 3323SOL    HW110868   2.316   2.448   0.973
 3323SOL    HW210869   2.317   2.285   0.976
 3324SOL     OW10870   4.429   5.285   6.147
 3324SOL    HW110871   4.436   5.216   6.076
 3324SOL    HW210872   4.333   5.311   6.159
 3325SOL     OW10873   7.013   3.652   6.974
 3325SOL    HW110874   0.020   3.725   0.009
 3325SOL    HW210875   0.064   3.591   6.953
 3326SOL     OW10876   4.468   1.338   1.492
 3326SOL    HW110877   4.435   1.368   1.403
 3326SOL    HW210878   4.400   1.360   1.562
 3327SOL     OW10879   2.620   5.444   1.426
 3327SOL    HW110880   2.540   5.390   1.454
 3327SOL    HW210881   2.670   5.395   1.355
 3328SOL     OW10882   3.864   1.754   0.785
 3328SOL    HW110883   3.927   1.791   0.717
 3328SOL    HW210884   3.835   1.826   0.847
 3329SOL     OW10885   5.419   0.313   5.767
 3329SOL    HW110886   5.482   0.377   5.723
 3329SOL    HW210887   5.465   0.226   5.782
 3330SOL     OW10888   6.383   3.182   1.465
 3330SOL    HW110889   6.329   3.115   1.414
 3330SOL    HW210890   6.325   3.261   1.488
 3331SOL     OW10891   2.706   3.216   1.333
 3331SOL    HW110892   2.677   3.312   1.341
 3331SOL    HW210893   2.644   3.168   1.270
 3332SOL     OW10894   6.018   5.367   0.270
 3332SOL    HW110895   6.071   5.342   0.351
 3332SOL    HW210896   6.061   5.326   0.189
 3333SOL     OW10897   4.010   5.962   6.198
 3333SOL    HW110898   3.940   5.894   6.174
 3333SOL    HW210899   3.989   6.048   6.151
 3334SOL     OW10900   3.560   3.715   1.224
 3334SOL    HW110901   3.487   3.679   1.166
 3334SOL    HW210902   3.529   3.718   1.319
 3335SOL     OW10903   4.595   5.003   5.299
 3335SOL    HW110904   4.577   4.913   5.258
 3335SOL    HW210905   4.518   5.064   5.280
 3336SOL     OW10906   3.070   5.228   4.964
 3336SOL    HW110907   3.005   5.216   4.888
 3336SOL    HW210908   3.155   5.267   4.929
 3337SOL     OW10909   3.185   2.862   1.929
 3337SOL    HW110910   3.094   2.883   1.891
 3337SOL    HW210911   3.177   2.788   1.995
 3338SOL     OW10912   6.116   3.574   0.983
 3338SOL    HW110913   6.123   3.627   1.068
 3338SOL    HW210914   6.072   3.486   1.002
 3339SOL     OW10915   6.974   0.028   6.740
 3339SOL    HW110916   6.937   0.045   6.649
 3339SOL    HW210917   6.926   0.085   6.807
 3340SOL     OW10918   3.451   0.304   1.533
 3340SOL    HW110919   3.379   0.362   1.496
 3340SOL    HW210920   3.437   0.291   1.631
 3341SOL     OW10921   1.878   5.965   3.587
 3341SOL    HW110922   1.866   5.981   3.685
 3341SOL    HW210923   1.915   6.047   3.544
 3342SOL     OW10924   2.157   6.329   3.998
 3342SOL    HW110925   2.160   6.326   4.098
 3342SOL    HW210926   2.064   6.309   3.966
 3343SOL     OW10927   5.401   2.684   0.423
 3343SOL    HW110928   5.466   2.642   0.487
 3343SOL    HW210929   5.336   2.740   0.475
 3344SOL     OW10930   5.668   3.647   4.641
 3344SOL    HW110931   5.592   3.671   4.702
 3344SOL    HW210932   5.741   3.715   4.650
 3345SOL     OW10933   2.196   3.605   6.062
 3345SOL    HW110934   2.190   3.510   6.031
 3345SOL    HW210935   2.274   3.650   6.019
 3346SOL     OW10936   1.529   0.978   1.667
 3346SOL    HW110937   1.616   1.026   1.681
 3346SOL    HW210938   1.465   1.038   1.619
 3347SOL     OW10939   0.582   5.341   4.003
 3347SOL    HW110940   0.509   5.291   4.050
 3347SOL    HW210941   0.573   5.327   3.904
 3348SOL     OW10942   2.977   3.316   3.215
 3348SOL    HW110943   2.951   3.312   3.118
 3348SOL    HW210944   2.985   3.223   3.251
 3349SOL     OW10945   0.526   4.591   4.639
 3349SOL    HW110946   0.526   4.491   4.632
 3349SOL    HW210947   0.619   4.623   4.657
 3350SOL     OW10948   1.245   2.082   6.716
 3350SOL    HW110949   1.220   2.171   6.679
 3350SOL    HW210950   1.288   2.094   6.805
 3351SOL     OW10951   5.194   0.248   2.548
 3351SOL    HW110952   5.240   0.294   2.624
 3351SOL    HW210953   5.257   0.182   2.506
 3352SOL     OW10954   0.056   3.370   0.509
 3352SOL    HW110955   7.015   3.379   0.434
 3352SOL    HW210956   0.114   3.291   0.492
 3353SOL     OW10957   1.052   6.573   1.706
 3353SOL    HW110958   1.123   6.631   1.664
 3353SOL    HW210959   1.049   6.590   1.804
 3354SOL     OW10960   6.217   2.462   4.092
 3354SOL    HW110961   6.181   2.548   4.129
 3354SOL    HW210962   6.205   2.461   3.992
 3355SOL     OW10963   1.407   1.187   0.204
 3355SOL    HW110964   1.468   1.123   0.250
 3355SOL    HW210965   1.376   1.257   0.270
 3356SOL     OW10966   1.946   3.168   0.449
 3356SOL    HW110967   1.881   3.243   0.454
 3356SOL    HW210968   1.996   3.173   0.363
 3357SOL     OW10969   2.298   4.949   1.903
 3357SOL    HW110970   2.280   4.868   1.847
 3357SOL    HW210971   2.384   4.937   1.953
 3358SOL     OW10972   4.657   0.207   1.674
 3358SOL    HW110973   4.679   0.204   1.577
 3358SOL    HW210974   4.558   0.207   1.686
 3359SOL     OW10975   6.659   0.667   4.007
 3359SOL    HW110976   6.625   0.639   3.916
 3359SOL    HW210977   6.589   0.648   4.075
 3360SOL     OW10978   6.958   1.034   1.158
 3360SOL    HW110979   6.897   1.112   1.172
 3360SOL    HW210980   0.026   1.060   1.182
 3361SOL     OW10981   0.396   4.817   2.340
 3361SOL    HW110982   0.432   4.757   2.412
 3361SOL    HW210983   0.445   4.800   2.255
 3362SOL     OW10984   3.614   1.393   4.497
 3362SOL    HW110985   3.564   1.307   4.508
 3362SOL    HW210986   3.590   1.435   4.410
 3363SOL     OW10987   0.630   0.569   6.367
 3363SOL    HW110988   0.708   0.632   6.368
 3363SOL    HW210989   0.660   0.479   6.397
 3364SOL     OW10990   1.096   4.757   4.375
 3364SOL    HW110991   1.153   4.823   4.424
 3364SOL    HW210992   1.152   4.680   4.345
 3365SOL     OW10993   0.492   2.459   4.887
 3365SOL    HW110994   0.561   2.531   4.884
 3365SOL    HW210995   0.446   2.460   4.976
 3366SOL     OW10996   6.554   0.610   5.160
 3366SOL    HW110997   6.630   0.650   5.211
 3366SOL    HW210998   6.583   0.594   5.065
 3367SOL     OW10999   2.042   2.607   2.172
 3367SOL    HW111000   2.015   2.688   2.121
 3367SOL    HW211001   2.142   2.601   2.176
 3368SOL     OW11002   0.512   5.937   6.773
 3368SOL    HW111003   0.464   5.949   6.686
 3368SOL    HW211004   0.467   5.866   6.826
 3369SOL     OW11005   3.508   2.273   5.751
 3369SOL    HW111006   3.480   2.368   5.744
 3369SOL    HW211007   3.494   2.227   5.663
 3370SOL     OW11008   6.657   6.287   5.356
 3370SOL    HW111009   6.622   6.344   5.430
 3370SOL    HW211010   6.718   6.341   5.298
 3371SOL     OW11011   0.363   4.432   2.334
 3371SOL    HW111012   0.266   4.455   2.323
 3371SOL    HW211013   0.371   4.339   2.370
 3372SOL     OW11014   1.341   1.474   2.669
 3372SOL    HW111015   1.363   1.415   2.591
 3372SOL    HW211016   1.375   1.431   2.753
 3373SOL     OW11017   6.301   1.201   3.821
 3373SOL    HW111018   6.261   1.266   3.755
 3373SOL    HW211019   6.336   1.122   3.772
 3374SOL     OW11020   3.030   5.650   4.312
 3374SOL    HW111021   2.963   5.703   4.259
 3374SOL    HW211022   3.056   5.569   4.260
 3375SOL     OW11023   4.314   4.658   4.460
 3375SOL    HW111024   4.248   4.727   4.489
 3375SOL    HW211025   4.293   4.629   4.366
 3376SOL     OW11026   4.039   3.151   3.091
 3376SOL    HW111027   4.026   3.073   3.030
 3376SOL    HW211028   4.014   3.125   3.184
 3377SOL     OW11029   0.157   6.446   4.435
 3377SOL    HW111030   0.166   6.532   4.385
 3377SOL    HW211031   0.238   6.432   4.492
 3378SOL     OW11032   6.665   0.592   1.272
 3378SOL    HW111033   6.697   0.503   1.240
 3378SOL    HW211034   6.577   0.581   1.319
 3379SOL     OW11035   6.694   5.263   6.483
 3379SOL    HW111036   6.739   5.207   6.414
 3379SOL    HW211037   6.682   5.210   6.567
 3380SOL     OW11038   5.986   5.880   5.939
 3380SOL    HW111039   5.997   5.831   5.853
 3380SOL    HW211040   6.068   5.869   5.995
 3381SOL     OW11041   2.325   2.049   0.397
 3381SOL    HW111042   2.397   1.996   0.352
 3381SOL    HW211043   2.291   2.119   0.334
 3382SOL     OW11044   0.913   1.364   0.868
 3382SOL    HW111045   0.983   1.314   0.817
 3382SOL    HW211046   0.918   1.339   0.965
 3383SOL     OW11047   5.373   5.218   2.937
 3383SOL    HW111048   5.334   5.310   2.940
 3383SOL    HW211049   5.463   5.219   2.982
 3384SOL     OW11050   3.233   3.083   4.802
 3384SOL    HW111051   3.166   3.093   4.728
 3384SOL    HW211052   3.269   2.990   4.803
 3385SOL     OW11053   0.537   3.659   3.968
 3385SOL    HW111054   0.628   3.654   3.929
 3385SOL    HW211055   0.541   3.634   4.065
 3386SOL     OW11056   6.136   2.816   5.210
 3386SOL    HW111057   6.140   2.882   5.135
 3386SOL    HW211058   6.229   2.792   5.237
 3387SOL     OW11059   2.406   0.664   2.817
 3387SOL    HW111060   2.472   0.699   2.750
 3387SOL    HW211061   2.415   0.714   2.902
 3388SOL     OW11062   6.230   3.250   1.077
 3388SOL    HW111063   6.199   3.199   0.997
 3388SOL    HW211064   6.151   3.292   1.122
 3389SOL     OW11065   4.498   5.155   4.674
 3389SOL    HW111066   4.577   5.095   4.663
 3389SOL    HW211067   4.457   5.173   4.584
 3390SOL     OW11068   5.130   4.612   5.745
 3390SOL    HW111069   5.216   4.664   5.741
 3390SOL    HW211070   5.099   4.607   5.840
 3391SOL     OW11071   5.542   2.579   4.733
 3391SOL    HW111072   5.537   2.495   4.679
 3391SOL    HW211073   5.559   2.657   4.674
 3392SOL     OW11074   2.630   1.125   3.444
 3392SOL    HW111075   2.532   1.110   3.436
 3392SOL    HW211076   2.647   1.210   3.495
 3393SOL     OW11077   6.927   6.328   0.571
 3393SOL    HW111078   6.994   6.261   0.602
 3393SOL    HW211079   6.906   6.312   0.475
 3394SOL     OW11080   5.924   3.562   0.763
 3394SOL    HW111081   5.960   3.543   0.854
 3394SOL    HW211082   5.999   3.582   0.701
 3395SOL     OW11083   6.863   3.631   3.919
 3395SOL    HW111084   6.855   3.714   3.973
 3395SOL    HW211085   6.800   3.634   3.842
 3396SOL     OW11086   0.364   2.280   3.288
 3396SOL    HW111087   0.463   2.297   3.280
 3396SOL    HW211088   0.324   2.346   3.351
 3397SOL     OW11089   2.998   1.248   5.665
 3397SOL    HW111090   2.919   1.221   5.611
 3397SOL    HW211091   3.067   1.176   5.663
 3398SOL     OW11092   0.821   6.808   4.293
 3398SOL    HW111093   0.859   6.783   4.204
 3398SOL    HW211094   0.814   6.907   4.299
 3399SOL     OW11095   4.826   4.168   4.176
 3399SOL    HW111096   4.822   4.109   4.257
 3399SOL    HW211097   4.921   4.194   4.159
 3400SOL     OW11098   4.022   1.032   5.110
 3400SOL    HW111099   4.031   1.092   5.190
 3400SOL    HW211100   3.925   1.016   5.090
 3401SOL     OW11101   0.053   3.568   0.854
 3401SOL    HW111102   6.981   3.565   0.831
 3401SOL    HW211103   0.067   3.529   0.945
 3402SOL     OW11104   4.298   6.165   0.696
 3402SOL    HW111105   4.278   6.258   0.727
 3402SOL    HW211106   4.265   6.099   0.763
 3403SOL     OW11107   3.402   0.484   4.644
 3403SOL    HW111108   3.319   0.456   4.596
 3403SOL    HW211109   3.382   0.562   4.703
 3404SOL     OW11110   4.352   1.580   0.178
 3404SOL    HW111111   4.447   1.555   0.199
 3404SOL    HW211112   4.294   1.500   0.187
 3405SOL     OW11113   6.458   3.842   4.049
 3405SOL    HW111114   6.439   3.765   3.989
 3405SOL    HW211115   6.443   3.815   4.144
 3406SOL     OW11116   1.189   4.130   1.769
 3406SOL    HW111117   1.288   4.123   1.755
 3406SOL    HW211118   1.162   4.226   1.771
 3407SOL     OW11119   1.566   5.409   0.234
 3407SOL    HW111120   1.573   5.381   0.138
 3407SOL    HW211121   1.522   5.337   0.287
 3408SOL     OW11122   5.206   4.317   5.073
 3408SOL    HW111123   5.135   4.261   5.031
 3408SOL    HW211124   5.195   4.314   5.173
 3409SOL     OW11125   3.352   6.337   5.643
 3409SOL    HW111126   3.287   6.306   5.712
 3409SOL    HW211127   3.305   6.348   5.555
 3410SOL     OW11128   5.770   5.843   0.337
 3410SOL    HW111129   5.784   5.750   0.302
 3410SOL    HW211130   5.674   5.867   0.332
 3411SOL     OW11131   0.320   2.676   1.816
 3411SOL    HW111132   0.290   2.764   1.780
 3411SOL    HW211133   0.361   2.690   1.906
 3412SOL     OW11134   4.588   2.650   6.885
 3412SOL    HW111135   4.670   2.595   6.905
 3412SOL    HW211136   4.595   2.687   6.793
 3413SOL     OW11137   5.126   1.049   3.003
 3413SOL    HW111138   5.075   1.135   2.990
 3413SOL    HW211139   5.134   1.002   2.915
 3414SOL     OW11140   1.940   1.320   5.568
 3414SOL    HW111141   1.995   1.370   5.635
 3414SOL    HW211142   1.847   1.359   5.565
 3415SOL     OW11143   2.192   4.118   4.113
 3415SOL    HW111144   2.099   4.151   4.129
 3415SOL    HW211145   2.242   4.115   4.200
 3416SOL     OW11146   6.712   5.603   6.980
 3416SOL    HW111147   6.768   5.541   0.010
 3416SOL    HW211148   6.636   5.637   0.010
 3417SOL     OW11149   6.313   5.904   3.439
 3417SOL    HW111150   6.248   5.932   3.510
 3417SOL    HW211151   6.348   5.985   3.392
 3418SOL     OW11152   4.009   6.966   4.738
 3418SOL    HW111153   4.049   6.947   4.827
 3418SOL    HW211154   4.028   0.036   4.712
 3419SOL     OW11155   3.064   5.609   5.404
 3419SOL    HW111156   3.032   5.565   5.320
 3419SOL    HW211157   3.143   5.667   5.383
 3420SOL     OW11158   5.224   2.763   3.167
 3420SOL    HW111159   5.297   2.698   3.147
 3420SOL    HW211160   5.136   2.718   3.161
 3421SOL     OW11161   6.108   0.714   6.651
 3421SOL    HW111162   6.192   0.739   6.602
 3421SOL    HW211163   6.120   0.623   6.692
 3422SOL     OW11164   2.169   6.677   0.817
 3422SOL    HW111165   2.149   6.585   0.784
 3422SOL    HW211166   2.264   6.700   0.796
 3423SOL     OW11167   2.284   0.035   0.615
 3423SOL    HW111168   2.215   6.998   0.576
 3423SOL    HW211169   2.311   0.002   0.705
 3424SOL     OW11170   2.767   6.654   2.512
 3424SOL    HW111171   2.703   6.585   2.478
 3424SOL    HW211172   2.860   6.627   2.489
 3425SOL     OW11173   5.108   4.037   1.781
 3425SOL    HW111174   5.106   4.042   1.881
 3425SOL    HW211175   5.028   3.987   1.748
 3426SOL     OW11176   3.014   2.838   6.853
 3426SOL    HW111177   2.983   2.919   6.902
 3426SOL    HW211178   3.092   2.861   6.795
 3427SOL     OW11179   6.836   7.012   6.165
 3427SOL    HW111180   6.820   0.059   6.098
 3427SOL    HW211181   6.825   0.024   6.257
 3428SOL     OW11182   3.398   4.993   1.165
 3428SOL    HW111183   3.367   5.068   1.107
 3428SOL    HW211184   3.454   5.029   1.239
 3429SOL     OW11185   0.700   1.634   6.756
 3429SOL    HW111186   0.757   1.616   6.676
 3429SOL    HW211187   0.687   1.550   6.807
 3430SOL     OW11188   0.026   6.967   5.368
 3430SOL    HW111189   0.057   7.021   5.289
 3430SOL    HW211190   0.097   6.900   5.392
 3431SOL     OW11191   1.986   0.144   1.086
 3431SOL    HW111192   2.073   0.099   1.106
 3431SOL    HW211193   1.987   0.237   1.123
 3432SOL     OW11194   2.595   2.531   6.467
 3432SOL    HW111195   2.660   2.600   6.499
 3432SOL    HW211196   2.523   2.519   6.535
 3433SOL     OW11197   1.260   6.749   6.313
 3433SOL    HW111198   1.331   6.679   6.304
 3433SOL    HW211199   1.302   6.837   6.333
 3434SOL     OW11200   3.600   2.850   0.995
 3434SOL    HW111201   3.650   2.933   0.969
 3434SOL    HW211202   3.596   2.844   1.095
 3435SOL     OW11203   1.152   2.243   1.424
 3435SOL    HW111204   1.150   2.243   1.524
 3435SOL    HW211205   1.152   2.148   1.391
 3436SOL     OW11206   3.946   6.580   5.755
 3436SOL    HW111207   4.002   6.661   5.737
 3436SOL    HW211208   3.908   6.585   5.847
 3437SOL     OW11209   3.788   0.261   6.585
 3437SOL    HW111210   3.868   0.312   6.619
 3437SOL    HW211211   3.807   0.163   6.589
 3438SOL     OW11212   1.254   2.406   6.879
 3438SOL    HW111213   1.312   2.487   6.892
 3438SOL    HW211214   1.179   2.428   6.818
 3439SOL     OW11215   2.083   0.127   5.957
 3439SOL    HW111216   2.149   0.127   5.882
 3439SOL    HW211217   2.104   0.203   6.019
 3440SOL     OW11218   4.356   3.543   1.622
 3440SOL    HW111219   4.343   3.528   1.524
 3440SOL    HW211220   4.301   3.478   1.673
 3441SOL     OW11221   5.238   0.466   3.900
 3441SOL    HW111222   5.141   0.490   3.899
 3441SOL    HW211223   5.256   0.406   3.978
 3442SOL     OW11224   3.324   4.877   2.454
 3442SOL    HW111225   3.250   4.817   2.421
 3442SOL    HW211226   3.296   4.918   2.541
 3443SOL     OW11227   5.482   0.852   2.200
 3443SOL    HW111228   5.415   0.913   2.159
 3443SOL    HW211229   5.472   0.760   2.163
 3444SOL     OW11230   5.370   5.148   6.893
 3444SOL    HW111231   5.410   5.061   6.924
 3444SOL    HW211232   5.281   5.131   6.851
 3445SOL     OW11233   5.609   5.252   4.360
 3445SOL    HW111234   5.691   5.270   4.305
 3445SOL    HW211235   5.605   5.155   4.383
 3446SOL     OW11236   6.127   1.157   3.302
 3446SOL    HW111237   6.098   1.083   3.362
 3446SOL    HW211238   6.126   1.243   3.351
 3447SOL     OW11239   5.818   4.353   0.809
 3447SOL    HW111240   5.755   4.323   0.880
 3447SOL    HW211241   5.800   4.301   0.725
 3448SOL     OW11242   3.261   0.071   0.947
 3448SOL    HW111243   3.300   0.062   0.855
 3448SOL    HW211244   3.225   0.164   0.959
 3449SOL     OW11245   5.911   6.447   4.030
 3449SOL    HW111246   5.892   6.392   4.111
 3449SOL    HW211247   5.962   6.529   4.057
 3450SOL     OW11248   0.694   2.439   0.146
 3450SOL    HW111249   0.791   2.452   0.124
 3450SOL    HW211250   0.641   2.511   0.102
 3451SOL     OW11251   1.007   5.381   3.061
 3451SOL    HW111252   1.062   5.308   3.099
 3451SOL    HW211253   0.915   5.380   3.102
 3452SOL     OW11254   5.708   1.824   0.242
 3452SOL    HW111255   5.649   1.797   0.318
 3452SOL    HW211256   5.738   1.919   0.255
 3453SOL     OW11257   6.815   5.892   6.060
 3453SOL    HW111258   6.908   5.865   6.084
 3453SOL    HW211259   6.818   5.969   5.996
 3454SOL     OW11260   1.813   1.017   5.794
 3454SOL    HW111261   1.852   0.931   5.761
 3454SOL    HW211262   1.809   1.015   5.894
 3455SOL     OW11263   1.957   3.005   4.386
 3455SOL    HW111264   2.009   3.058   4.452
 3455SOL    HW211265   1.982   2.909   4.393
 3456SOL     OW11266   5.527   6.729   2.434
 3456SOL    HW111267   5.474   6.700   2.514
 3456SOL    HW211268   5.623   6.702   2.446
 3457SOL     OW11269   2.593   5.413   3.996
 3457SOL    HW111270   2.548   5.351   3.931
 3457SOL    HW211271   2.523   5.470   4.039
 3458SOL     OW11272   5.388   6.921   0.648
 3458SOL    HW111273   5.359   6.827   0.667
 3458SOL    HW211274   5.466   6.920   0.585
 3459SOL     OW11275   5.795   3.905   3.058
 3459SOL    HW111276   5.837   3.996   3.068
 3459SOL    HW211277   5.774   3.868   3.149
 3460SOL     OW11278   2.780   3.690   0.150
 3460SOL    HW111279   2.698   3.740   0.120
 3460SOL    HW211280   2.787   3.604   0.100
 3461SOL     OW11281   4.409   5.875   4.513
 3461SOL    HW111282   4.495   5.925   4.523
 3461SOL    HW211283   4.410   5.795   4.572
 3462SOL     OW11284   6.698   3.508   2.560
 3462SOL    HW111285   6.713   3.606   2.576
 3462SOL    HW211286   6.716   3.458   2.645
 3463SOL     OW11287   1.120   3.214   3.028
 3463SOL    HW111288   1.146   3.306   2.999
 3463SOL    HW211289   1.139   3.203   3.126
 3464SOL     OW11290   6.489   2.150   6.707
 3464SOL    HW111291   6.514   2.177   6.614
 3464SOL    HW211292   6.570   2.155   6.766
 3465SOL     OW11293   0.581   3.005   2.001
 3465SOL    HW111294   0.579   3.038   1.907
 3465SOL    HW211295   0.493   2.963   2.023
 3466SOL     OW11296   6.834   4.689   6.544
 3466SOL    HW111297   6.824   4.590   6.540
 3466SOL    HW211298   6.744   4.731   6.534
 3467SOL     OW11299   2.268   1.770   0.532
 3467SOL    HW111300   2.270   1.675   0.499
 3467SOL    HW211301   2.316   1.829   0.467
 3468SOL     OW11302   5.225   1.427   3.370
 3468SOL    HW111303   5.132   1.407   3.340
 3468SOL    HW211304   5.287   1.422   3.291
 3469SOL     OW11305   4.441   0.311   4.170
 3469SOL    HW111306   4.387   0.294   4.253
 3469SOL    HW211307   4.494   0.229   4.147
 3470SOL     OW11308   0.685   2.242   1.845
 3470SOL    HW111309   0.784   2.248   1.852
 3470SOL    HW211310   0.656   2.271   1.754
 3471SOL     OW11311   4.561   4.398   3.553
 3471SOL    HW111312   4.481   4.458   3.548
 3471SOL    HW211313   4.611   4.415   3.638
 3472SOL     OW11314   2.571   0.820   1.685
 3472SOL    HW111315   2.650   0.829   1.746
 3472SOL    HW211316   2.601   0.818   1.590
 3473SOL     OW11317   6.584   3.190   2.650
 3473SOL    HW111318   6.555   3.285   2.644
 3473SOL    HW211319   6.558   3.142   2.566
 3474SOL     OW11320   0.082   4.572   2.284
 3474SOL    HW111321   0.034   4.576   2.372
 3474SOL    HW211322   0.106   4.664   2.255
 3475SOL     OW11323   0.824   4.767   4.272
 3475SOL    HW111324   0.912   4.770   4.321
 3475SOL    HW211325   0.803   4.672   4.248
 3476SOL     OW11326   2.767   2.299   2.463
 3476SOL    HW111327   2.690   2.297   2.400
 3476SOL    HW211328   2.852   2.311   2.412
 3477SOL     OW11329   1.775   4.877   0.796
 3477SOL    HW111330   1.814   4.896   0.886
 3477SOL    HW211331   1.676   4.865   0.805
 3478SOL     OW11332   2.367   5.790   6.280
 3478SOL    HW111333   2.452   5.821   6.323
 3478SOL    HW211334   2.385   5.766   6.184
 3479SOL     OW11335   0.774   0.630   3.187
 3479SOL    HW111336   0.785   0.653   3.284
 3479SOL    HW211337   0.677   0.637   3.163
 3480SOL     OW11338   0.202   6.311   5.106
 3480SOL    HW111339   0.123   6.372   5.116
 3480SOL    HW211340   0.279   6.349   5.157
 3481SOL     OW11341   4.943   0.683   0.355
 3481SOL    HW111342   5.040   0.660   0.346
 3481SOL    HW211343   4.927   0.731   0.441
 3482SOL     OW11344   6.711   0.848   2.210
 3482SOL    HW111345   6.756   0.778   2.155
 3482SOL    HW211346   6.773   0.880   2.281
 3483SOL     OW11347   5.157   2.073   2.159
 3483SOL    HW111348   5.226   2.090   2.088
 3483SOL    HW211349   5.073   2.037   2.117
 3484SOL     OW11350   1.297   2.850   0.614
 3484SOL    HW111351   1.253   2.761   0.608
 3484SOL    HW211352   1.386   2.847   0.567
 3485SOL     OW11353   2.082   1.501   4.326
 3485SOL    HW111354   2.052   1.580   4.380
 3485SOL    HW211355   2.176   1.516   4.295
 3486SOL     OW11356   2.035   0.389   2.943
 3486SOL    HW111357   2.034   0.296   2.906
 3486SOL    HW211358   2.117   0.402   2.999
 3487SOL     OW11359   0.445   2.029   0.617
 3487SOL    HW111360   0.403   2.013   0.707
 3487SOL    HW211361   0.416   1.957   0.554
 3488SOL     OW11362   5.746   1.257   5.201
 3488SOL    HW111363   5.747   1.220   5.293
 3488SOL    HW211364   5.660   1.306   5.186
 3489SOL     OW11365   3.705   0.325   2.055
 3489SOL    HW111366   3.753   0.404   2.093
 3489SOL    HW211367   3.655   0.278   2.129
 3490SOL     OW11368   4.086   4.313   1.261
 3490SOL    HW111369   4.130   4.388   1.309
 3490SOL    HW211370   4.006   4.281   1.313
 3491SOL     OW11371   4.770   2.236   6.029
 3491SOL    HW111372   4.706   2.179   5.978
 3491SOL    HW211373   4.726   2.269   6.113
 3492SOL     OW11374   6.535   4.459   0.800
 3492SOL    HW111375   6.610   4.401   0.767
 3492SOL    HW211376   6.479   4.407   0.865
 3493SOL     OW11377   4.897   3.905   4.010
 3493SOL    HW111378   4.933   3.946   4.093
 3493SOL    HW211379   4.815   3.955   3.981
 3494SOL     OW11380   2.295   0.966   1.607
 3494SOL    HW111381   2.367   0.934   1.668
 3494SOL    HW211382   2.210   0.917   1.627
 3495SOL     OW11383   6.124   4.474   1.801
 3495SOL    HW111384   6.103   4.406   1.730
 3495SOL    HW211385   6.222   4.492   1.801
 3496SOL     OW11386   6.093   4.988   1.236
 3496SOL    HW111387   6.094   4.912   1.170
 3496SOL    HW211388   6.035   4.964   1.314
 3497SOL     OW11389   2.939   1.778   3.463
 3497SOL    HW111390   3.033   1.804   3.484
 3497SOL    HW211391   2.888   1.766   3.549
 3498SOL     OW11392   3.306   1.442   1.372
 3498SOL    HW111393   3.219   1.485   1.348
 3498SOL    HW211394   3.355   1.499   1.437
 3499SOL     OW11395   5.676   4.219   4.120
 3499SOL    HW111396   5.733   4.241   4.041
 3499SOL    HW211397   5.627   4.301   4.149
 3500SOL     OW11398   1.812   3.359   3.557
 3500SOL    HW111399   1.836   3.370   3.653
 3500SOL    HW211400   1.896   3.352   3.503
 3501SOL     OW11401   3.167   6.249   5.894
 3501SOL    HW111402   3.095   6.190   5.858
 3501SOL    HW211403   3.254   6.199   5.895
 3502SOL     OW11404   6.872   1.983   0.978
 3502SOL    HW111405   6.832   2.073   0.992
 3502SOL    HW211406   6.800   1.915   0.965
 3503SOL     OW11407   6.215   5.842   5.100
 3503SOL    HW111408   6.293   5.781   5.114
 3503SOL    HW211409   6.208   5.906   5.176
 3504SOL     OW11410   2.522   0.273   1.789
 3504SOL    HW111411   2.448   0.339   1.775
 3504SOL    HW211412   2.523   0.244   1.885
 3505SOL     OW11413   5.134   4.340   5.999
 3505SOL    HW111414   5.156   4.249   6.035
 3505SOL    HW211415   5.057   4.333   5.936
 3506SOL     OW11416   5.260   5.243   5.083
 3506SOL    HW111417   5.233   5.210   5.173
 3506SOL    HW211418   5.217   5.186   5.013
 3507SOL     OW11419   3.028   0.688   0.913
 3507SOL    HW111420   3.117   0.656   0.881
 3507SOL    HW211421   3.039   0.775   0.962
 3508SOL     OW11422   2.004   2.106   5.942
 3508SOL    HW111423   2.011   2.200   5.973
 3508SOL    HW211424   2.086   2.056   5.969
 3509SOL     OW11425   5.326   0.140   0.175
 3509SOL    HW111426   5.332   0.096   0.265
 3509SOL    HW211427   5.248   0.201   0.172
 3510SOL     OW11428   1.487   1.047   1.987
 3510SOL    HW111429   1.509   0.975   2.054
 3510SOL    HW211430   1.503   1.012   1.895
 3511SOL     OW11431   1.750   4.283   1.580
 3511SOL    HW111432   1.694   4.226   1.519
 3511SOL    HW211433   1.796   4.225   1.647
 3512SOL     OW11434   0.369   4.848   0.477
 3512SOL    HW111435   0.335   4.937   0.508
 3512SOL    HW211436   0.437   4.861   0.405
 3513SOL     OW11437   5.615   2.048   0.590
 3513SOL    HW111438   5.561   2.101   0.655
 3513SOL    HW211439   5.673   2.110   0.537
 3514SOL     OW11440   0.024   0.984   1.957
 3514SOL    HW111441   7.024   0.894   1.920
 3514SOL    HW211442   0.113   0.977   2.003
 3515SOL     OW11443   4.673   6.327   2.643
 3515SOL    HW111444   4.713   6.253   2.697
 3515SOL    HW211445   4.691   6.311   2.546
 3516SOL     OW11446   5.132   0.027   0.904
 3516SOL    HW111447   5.090   7.025   0.817
 3516SOL    HW211448   5.176   6.973   0.946
 3517SOL     OW11449   0.765   1.843   1.383
 3517SOL    HW111450   0.863   1.842   1.400
 3517SOL    HW211451   0.717   1.794   1.455
 3518SOL     OW11452   4.931   2.982   5.017
 3518SOL    HW111453   4.883   2.910   5.066
 3518SOL    HW211454   5.030   2.967   5.023
 3519SOL     OW11455   1.529   0.699   5.782
 3519SOL    HW111456   1.527   0.645   5.866
 3519SOL    HW211457   1.624   0.725   5.762
 3520SOL     OW11458   3.468   5.907   0.115
 3520SOL    HW111459   3.443   5.888   0.020
 3520SOL    HW211460   3.560   5.947   0.117
 3521SOL     OW11461   5.023   2.487   0.414
 3521SOL    HW111462   5.026   2.583   0.440
 3521SOL    HW211463   5.068   2.431   0.484
 3522SOL     OW11464   0.531   4.972   0.991
 3522SOL    HW111465   0.523   4.921   0.905
 3522SOL    HW211466   0.583   5.056   0.975
 3523SOL     OW11467   1.342   4.677   5.333
 3523SOL    HW111468   1.331   4.617   5.413
 3523SOL    HW211469   1.427   4.653   5.285
 3524SOL     OW11470   4.749   1.180   1.660
 3524SOL    HW111471   4.737   1.198   1.563
 3524SOL    HW211472   4.662   1.152   1.700
 3525SOL     OW11473   6.404   4.460   3.685
 3525SOL    HW111474   6.469   4.534   3.666
 3525SOL    HW211475   6.316   4.480   3.641
 3526SOL     OW11476   2.158   6.758   3.847
 3526SOL    HW111477   2.061   6.751   3.874
 3526SOL    HW211478   2.213   6.779   3.928
 3527SOL     OW11479   5.676   3.025   6.253
 3527SOL    HW111480   5.735   3.036   6.333
 3527SOL    HW211481   5.608   3.098   6.253
 3528SOL     OW11482   1.235   6.649   5.383
 3528SOL    HW111483   1.205   6.683   5.294
 3528SOL    HW211484   1.298   6.715   5.425
 3529SOL     OW11485   4.127   0.249   0.604
 3529SOL    HW111486   4.209   0.261   0.549
 3529SOL    HW211487   4.089   0.158   0.588
 3530SOL     OW11488   6.104   6.121   1.874
 3530SOL    HW111489   6.165   6.162   1.806
 3530SOL    HW211490   6.146   6.039   1.912
 3531SOL     OW11491   5.149   2.700   0.944
 3531SOL    HW111492   5.110   2.792   0.939
 3531SOL    HW211493   5.186   2.684   1.036
 3532SOL     OW11494   2.435   6.842   1.820
 3532SOL    HW111495   2.416   6.893   1.904
 3532SOL    HW211496   2.460   6.748   1.844
 3533SOL     OW11497   0.865   1.645   2.686
 3533SOL    HW111498   0.886   1.669   2.591
 3533SOL    HW211499   0.940   1.592   2.725
 3534SOL     OW11500   0.339   1.967   0.871
 3534SOL    HW111501   0.327   2.002   0.964
 3534SOL    HW211502   0.264   1.905   0.848
 3535SOL     OW11503   1.960   5.412   6.466
 3535SOL    HW111504   2.032   5.360   6.513
 3535SOL    HW211505   2.000   5.458   6.387
 3536SOL     OW11506   3.445   1.699   2.801
 3536SOL    HW111507   3.415   1.689   2.706
 3536SOL    HW211508   3.392   1.771   2.845
 3537SOL     OW11509   2.824   5.779   2.427
 3537SOL    HW111510   2.909   5.824   2.399
 3537SOL    HW211511   2.841   5.682   2.445
 3538SOL     OW11512   2.320   6.999   6.141
 3538SOL    HW111513   2.329   6.903   6.165
 3538SOL    HW211514   2.340   7.011   6.043
 3539SOL     OW11515   3.620   2.887   5.321
 3539SOL    HW111516   3.645   2.922   5.411
 3539SOL    HW211517   3.697   2.837   5.281
 3540SOL     OW11518   1.751   2.402   5.080
 3540SOL    HW111519   1.828   2.339   5.084
 3540SOL    HW211520   1.673   2.357   5.034
 3541SOL     OW11521   1.946   2.623   6.041
 3541SOL    HW111522   1.876   2.636   5.970
 3541SOL    HW211523   1.965   2.711   6.084
 3542SOL     OW11524   1.518   5.234   3.453
 3542SOL    HW111525   1.589   5.220   3.384
 3542SOL    HW211526   1.533   5.321   3.500
 3543SOL     OW11527   0.628   2.252   4.715
 3543SOL    HW111528   0.658   2.173   4.767
 3543SOL    HW211529   0.612   2.329   4.777
 3544SOL     OW11530   2.100   4.379   5.963
 3544SOL    HW111531   2.130   4.360   5.869
 3544SOL    HW211532   2.178   4.373   6.025
 3545SOL     OW11533   4.161   5.587   0.443
 3545SOL    HW111534   4.221   5.624   0.513
 3545SOL    HW211535   4.139   5.659   0.377
 3546SOL     OW11536   1.521   4.057   3.965
 3546SOL    HW111537   1.602   4.054   4.022
 3546SOL    HW211538   1.492   4.153   3.954
 3547SOL     OW11539   6.655   4.647   3.836
 3547SOL    HW111540   6.567   4.676   3.799
 3547SOL    HW211541   6.669   4.550   3.815
 3548SOL     OW11542   5.633   1.688   5.997
 3548SOL    HW111543   5.613   1.708   5.900
 3548SOL    HW211544   5.669   1.595   6.005
 3549SOL     OW11545   6.242   5.165   6.091
 3549SOL    HW111546   6.316   5.212   6.042
 3549SOL    HW211547   6.213   5.085   6.038
 3550SOL     OW11548   5.957   2.461   2.626
 3550SOL    HW111549   6.019   2.416   2.690
 3550SOL    HW211550   5.963   2.416   2.536
 3551SOL     OW11551   3.334   0.122   2.717
 3551SOL    HW111552   3.357   0.212   2.679
 3551SOL    HW211553   3.409   0.058   2.700
 3552SOL     OW11554   5.553   6.217   1.834
 3552SOL    HW111555   5.636   6.269   1.810
 3552SOL    HW211556   5.513   6.255   1.918
 3553SOL     OW11557   5.306   3.946   1.099
 3553SOL    HW111558   5.237   3.926   1.029
 3553SOL    HW211559   5.293   3.886   1.177
 3554SOL     OW11560   4.184   2.486   0.992
 3554SOL    HW111561   4.117   2.532   0.933
 3554SOL    HW211562   4.138   2.452   1.074
 3555SOL     OW11563   0.838   3.910   3.544
 3555SOL    HW111564   0.756   3.871   3.502
 3555SOL    HW211565   0.895   3.951   3.472
 3556SOL     OW11566   4.776   1.076   3.314
 3556SOL    HW111567   4.814   0.984   3.325
 3556SOL    HW211568   4.722   1.080   3.230
 3557SOL     OW11569   1.051   0.326   4.102
 3557SOL    HW111570   1.119   0.397   4.080
 3557SOL    HW211571   0.959   0.365   4.094
 3558SOL     OW11572   1.296   6.228   1.139
 3558SOL    HW111573   1.214   6.256   1.189
 3558SOL    HW211574   1.302   6.128   1.138
 3559SOL     OW11575   0.512   6.534   4.656
 3559SOL    HW111576   0.474   6.596   4.588
 3559SOL    HW211577   0.557   6.458   4.610
 3560SOL     OW11578   1.410   5.858   1.470
 3560SOL    HW111579   1.447   5.765   1.465
 3560SOL    HW211580   1.484   5.923   1.456
 3561SOL     OW11581   4.404   4.542   5.494
 3561SOL    HW111582   4.358   4.625   5.462
 3561SOL    HW211583   4.347   4.496   5.562
 3562SOL     OW11584   5.303   0.738   4.045
 3562SOL    HW111585   5.254   0.824   4.033
 3562SOL    HW211586   5.301   0.686   3.960
 3563SOL     OW11587   5.750   0.956   1.025
 3563SOL    HW111588   5.799   1.027   1.074
 3563SOL    HW211589   5.810   0.914   0.957
 3564SOL     OW11590   1.616   4.358   4.136
 3564SOL    HW111591   1.600   4.452   4.165
 3564SOL    HW211592   1.548   4.333   4.067
 3565SOL     OW11593   3.496   5.845   5.451
 3565SOL    HW111594   3.486   5.848   5.352
 3565SOL    HW211595   3.507   5.750   5.481
 3566SOL     OW11596   6.559   3.561   6.128
 3566SOL    HW111597   6.570   3.540   6.031
 3566SOL    HW211598   6.590   3.483   6.182
 3567SOL     OW11599   1.328   3.138   0.244
 3567SOL    HW111600   1.269   3.064   0.212
 3567SOL    HW211601   1.283   3.226   0.229
 3568SOL     OW11602   4.946   6.012   3.938
 3568SOL    HW111603   4.959   6.034   3.841
 3568SOL    HW211604   4.929   6.095   3.990
 3569SOL     OW11605   3.059   2.540   5.866
 3569SOL    HW111606   3.117   2.611   5.906
 3569SOL    HW211607   2.968   2.545   5.906
 3570SOL     OW11608   4.965   0.334   4.806
 3570SOL    HW111609   5.037   0.289   4.755
 3570SOL    HW211610   4.946   0.283   4.890
 3571SOL     OW11611   2.150   0.827   4.983
 3571SOL    HW111612   2.075   0.767   4.959
 3571SOL    HW211613   2.116   0.904   5.037
 3572SOL     OW11614   5.683   3.792   2.604
 3572SOL    HW111615   5.703   3.730   2.680
 3572SOL    HW211616   5.723   3.882   2.623
 3573SOL     OW11617   5.955   4.005   2.530
 3573SOL    HW111618   5.934   4.071   2.458
 3573SOL    HW211619   5.900   4.025   2.611
 3574SOL     OW11620   1.333   3.366   0.558
 3574SOL    HW111621   1.410   3.357   0.621
 3574SOL    HW211622   1.362   3.340   0.466
 3575SOL     OW11623   4.678   5.721   2.260
 3575SOL    HW111624   4.763   5.690   2.302
 3575SOL    HW211625   4.600   5.688   2.313
 3576SOL     OW11626   0.508   2.086   0.057
 3576SOL    HW111627   0.420   2.101   0.103
 3576SOL    HW211628   0.519   1.988   0.037
 3577SOL     OW11629   1.947   3.028   6.682
 3577SOL    HW111630   1.977   2.971   6.758
 3577SOL    HW211631   1.903   3.111   6.718
 3578SOL     OW11632   5.124   1.761   1.102
 3578SOL    HW111633   5.075   1.701   1.165
 3578SOL    HW211634   5.202   1.711   1.063
 3579SOL     OW11635   6.962   2.697   2.712
 3579SOL    HW111636   7.018   2.725   2.789
 3579SOL    HW211637   6.964   2.597   2.703
 3580SOL     OW11638   6.125   2.938   0.019
 3580SOL    HW111639   6.203   2.966   6.989
 3580SOL    HW211640   6.106   2.841   0.002
 3581SOL     OW11641   0.603   5.780   3.023
 3581SOL    HW111642   0.620   5.879   3.029
 3581SOL    HW211643   0.506   5.763   3.008
 3582SOL     OW11644   2.281   4.621   5.803
 3582SOL    HW111645   2.183   4.613   5.821
 3582SOL    HW211646   2.299   4.597   5.708
 3583SOL     OW11647   1.538   5.075   0.344
 3583SOL    HW111648   1.614   5.091   0.282
 3583SOL    HW211649   1.534   4.978   0.368
 3584SOL     OW11650   5.518   4.576   5.621
 3584SOL    HW111651   5.447   4.505   5.622
 3584SOL    HW211652   5.588   4.553   5.554
 3585SOL     OW11653   2.881   2.285   4.833
 3585SOL    HW111654   2.903   2.254   4.741
 3585SOL    HW211655   2.965   2.295   4.886
 3586SOL     OW11656   6.504   1.716   4.992
 3586SOL    HW111657   6.519   1.622   5.023
 3586SOL    HW211658   6.417   1.750   5.029
 3587SOL     OW11659   2.340   5.756   6.017
 3587SOL    HW111660   2.277   5.741   5.941
 3587SOL    HW211661   2.434   5.763   5.982
 3588SOL     OW11662   6.607   2.997   5.132
 3588SOL    HW111663   6.550   2.954   5.062
 3588SOL    HW211664   6.654   2.926   5.185
 3589SOL     OW11665   5.916   0.234   6.820
 3589SOL    HW111666   5.986   0.191   6.876
 3589SOL    HW211667   5.904   0.329   6.849
 3590SOL     OW11668   0.218   3.496   0.192
 3590SOL    HW111669   0.145   3.537   0.247
 3590SOL    HW211670   0.198   3.400   0.177
 3591SOL     OW11671   5.979   3.695   0.368
 3591SOL    HW111672   6.026   3.780   0.346
 3591SOL    HW211673   6.027   3.647   0.442
 3592SOL     OW11674   0.503   7.007   3.035
 3592SOL    HW111675   0.517   0.054   3.103
 3592SOL    HW211676   0.582   7.003   2.974
 3593SOL     OW11677   0.319   4.358   6.478
 3593SOL    HW111678   0.267   4.324   6.400
 3593SOL    HW211679   0.375   4.436   6.449
 3594SOL     OW11680   4.617   0.495   4.197
 3594SOL    HW111681   4.635   0.506   4.295
 3594SOL    HW211682   4.544   0.428   4.183
 3595SOL     OW11683   5.145   5.972   6.528
 3595SOL    HW111684   5.062   6.016   6.561
 3595SOL    HW211685   5.121   5.899   6.464
 3596SOL     OW11686   5.295   2.870   3.751
 3596SOL    HW111687   5.243   2.955   3.752
 3596SOL    HW211688   5.357   2.870   3.673
 3597SOL     OW11689   1.981   2.763   5.399
 3597SOL    HW111690   2.001   2.717   5.485
 3597SOL    HW211691   2.066   2.791   5.355
 3598SOL     OW11692   2.013   6.599   5.432
 3598SOL    HW111693   1.933   6.644   5.394
 3598SOL    HW211694   1.985   6.538   5.506
 3599SOL     OW11695   4.458   1.979   0.618
 3599SOL    HW111696   4.470   1.885   0.586
 3599SOL    HW211697   4.533   2.035   0.584
 3600SOL     OW11698   0.597   3.263   2.240
 3600SOL    HW111699   0.626   3.170   2.260
 3600SOL    HW211700   0.641   3.295   2.156
 3601SOL     OW11701   5.345   2.576   5.882
 3601SOL    HW111702   5.436   2.607   5.907
 3601SOL    HW211703   5.278   2.648   5.900
 3602SOL     OW11704   1.285   3.601   1.060
 3602SOL    HW111705   1.225   3.532   1.021
 3602SOL    HW211706   1.336   3.647   0.987
 3603SOL     OW11707   3.465   1.134   4.556
 3603SOL    HW111708   3.425   1.128   4.647
 3603SOL    HW211709   3.433   1.057   4.500
 3604SOL     OW11710   6.549   0.316   4.196
 3604SOL    HW111711   6.644   0.323   4.228
 3604SOL    HW211712   6.514   0.407   4.177
 3605SOL     OW11713   0.932   4.326   3.960
 3605SOL    HW111714   0.873   4.285   3.891
 3605SOL    HW211715   0.915   4.282   4.048
 3606SOL     OW11716   0.867   6.467   3.296
 3606SOL    HW111717   0.961   6.459   3.329
 3606SOL    HW211718   0.807   6.407   3.350
 3607SOL     OW11719   5.302   3.863   1.756
 3607SOL    HW111720   5.274   3.773   1.724
 3607SOL    HW211721   5.221   3.919   1.775
 3608SOL     OW11722   4.640   1.254   4.335
 3608SOL    HW111723   4.613   1.332   4.279
 3608SOL    HW211724   4.705   1.197   4.285
 3609SOL     OW11725   2.160   0.094   4.498
 3609SOL    HW111726   2.099   0.048   4.434
 3609SOL    HW211727   2.114   0.174   4.536
 3610SOL     OW11728   1.355   0.966   5.721
 3610SOL    HW111729   1.316   0.974   5.630
 3610SOL    HW211730   1.395   0.874   5.732
 3611SOL     OW11731   4.036   4.827   3.736
 3611SOL    HW111732   4.054   4.866   3.646
 3611SOL    HW211733   4.104   4.756   3.756
 3612SOL     OW11734   0.259   1.163   6.672
 3612SOL    HW111735   0.217   1.176   6.582
 3612SOL    HW211736   0.190   1.133   6.737
 3613SOL     OW11737   4.674   4.641   1.812
 3613SOL    HW111738   4.696   4.636   1.714
 3613SOL    HW211739   4.690   4.553   1.855
 3614SOL     OW11740   3.022   3.743   6.968
 3614SOL    HW111741   3.083   3.820   6.989
 3614SOL    HW211742   2.946   3.743   0.008
 3615SOL     OW11743   5.845   2.357   6.189
 3615SOL    HW111744   5.864   2.442   6.140
 3615SOL    HW211745   5.926   2.298   6.185
 3616SOL     OW11746   1.112   0.383   6.526
 3616SOL    HW111747   1.025   0.374   6.477
 3616SOL    HW211748   1.166   0.300   6.513
 3617SOL     OW11749   4.363   0.633   5.602
 3617SOL    HW111750   4.372   0.719   5.552
 3617SOL    HW211751   4.422   0.564   5.560
 3618SOL     OW11752   2.464   3.444   5.345
 3618SOL    HW111753   2.388   3.501   5.315
 3618SOL    HW211754   2.549   3.497   5.339
 3619SOL     OW11755   5.576   3.837   6.712
 3619SOL    HW111756   5.588   3.788   6.798
 3619SOL    HW211757   5.664   3.847   6.666
 3620SOL     OW11758   5.682   5.364   6.024
 3620SOL    HW111759   5.615   5.434   6.048
 3620SOL    HW211760   5.714   5.319   6.108
 3621SOL     OW11761   3.592   3.585   4.746
 3621SOL    HW111762   3.528   3.509   4.745
 3621SOL    HW211763   3.545   3.669   4.769
 3622SOL     OW11764   2.336   1.083   0.444
 3622SOL    HW111765   2.368   0.991   0.421
 3622SOL    HW211766   2.299   1.083   0.537
 3623SOL     OW11767   6.889   5.527   4.860
 3623SOL    HW111768   6.907   5.482   4.947
 3623SOL    HW211769   6.975   5.543   4.812
 3624SOL     OW11770   1.473   6.861   2.343
 3624SOL    HW111771   1.507   6.799   2.272
 3624SOL    HW211772   1.374   6.847   2.354
 3625SOL     OW11773   0.328   3.457   5.954
 3625SOL    HW111774   0.318   3.387   5.883
 3625SOL    HW211775   0.250   3.519   5.952
 3626SOL     OW11776   0.339   3.175   4.513
 3626SOL    HW111777   0.305   3.154   4.421
 3626SOL    HW211778   0.318   3.270   4.535
 3627SOL     OW11779   4.604   3.260   1.630
 3627SOL    HW111780   4.641   3.352   1.643
 3627SOL    HW211781   4.593   3.216   1.720
 3628SOL     OW11782   1.302   1.225   1.923
 3628SOL    HW111783   1.366   1.162   1.967
 3628SOL    HW211784   1.319   1.318   1.954
 3629SOL     OW11785   0.911   0.379   4.857
 3629SOL    HW111786   0.878   0.414   4.945
 3629SOL    HW211787   0.939   0.456   4.799
 3630SOL     OW11788   6.625   3.004   3.600
 3630SOL    HW111789   6.712   2.988   3.646
 3630SOL    HW211790   6.586   3.091   3.632
 3631SOL     OW11791   1.449   6.592   3.517
 3631SOL    HW111792   1.472   6.508   3.567
 3631SOL    HW211793   1.497   6.593   3.429
 3632SOL     OW11794   4.897   4.644   0.173
 3632SOL    HW111795   4.941   4.678   0.090
 3632SOL    HW211796   4.967   4.630   0.244
 3633SOL     OW11797   4.461   2.690   5.882
 3633SOL    HW111798   4.525   2.697   5.959
 3633SOL    HW211799   4.374   2.731   5.908
 3634SOL     OW11800   1.973   6.202   6.018
 3634SOL    HW111801   2.064   6.233   6.047
 3634SOL    HW211802   1.904   6.267   6.048
 3635SOL     OW11803   2.450   1.540   0.800
 3635SOL    HW111804   2.504   1.593   0.734
 3635SOL    HW211805   2.367   1.591   0.824
 3636SOL     OW11806   6.726   5.768   1.401
 3636SOL    HW111807   6.662   5.746   1.328
 3636SOL    HW211808   6.680   5.824   1.469
 3637SOL     OW11809   0.817   2.653   1.452
 3637SOL    HW111810   0.791   2.565   1.413
 3637SOL    HW211811   0.799   2.726   1.386
 3638SOL     OW11812   6.724   4.139   2.775
 3638SOL    HW111813   6.630   4.150   2.743
 3638SOL    HW211814   6.786   4.184   2.710
 3639SOL     OW11815   3.752   4.745   6.493
 3639SOL    HW111816   3.760   4.820   6.427
 3639SOL    HW211817   3.688   4.677   6.458
 3640SOL     OW11818   5.208   1.934   0.723
 3640SOL    HW111819   5.135   1.950   0.789
 3640SOL    HW211820   5.180   1.967   0.633
 3641SOL     OW11821   5.542   3.815   1.015
 3641SOL    HW111822   5.515   3.738   1.074
 3641SOL    HW211823   5.469   3.883   1.014
 3642SOL     OW11824   4.913   2.314   6.814
 3642SOL    HW111825   4.871   2.224   6.807
 3642SOL    HW211826   4.913   2.359   6.724
 3643SOL     OW11827   4.161   6.391   6.044
 3643SOL    HW111828   4.252   6.382   6.004
 3643SOL    HW211829   4.127   6.484   6.029
 3644SOL     OW11830   2.374   0.463   1.314
 3644SOL    HW111831   2.376   0.363   1.324
 3644SOL    HW211832   2.407   0.505   1.399
 3645SOL     OW11833   1.235   3.878   4.258
 3645SOL    HW111834   1.142   3.909   4.278
 3645SOL    HW211835   1.235   3.779   4.249
 3646SOL     OW11836   1.564   4.560   4.851
 3646SOL    HW111837   1.619   4.479   4.869
 3646SOL    HW211838   1.615   4.623   4.792
 3647SOL     OW11839   2.702   5.966   6.832
 3647SOL    HW111840   2.797   5.975   6.863
 3647SOL    HW211841   2.643   5.945   6.910
 3648SOL     OW11842   4.971   6.146   2.842
 3648SOL    HW111843   4.992   6.141   2.744
 3648SOL    HW211844   4.876   6.173   2.855
 3649SOL     OW11845   6.598   3.797   0.297
 3649SOL    HW111846   6.552   3.798   0.208
 3649SOL    HW211847   6.598   3.703   0.333
 3650SOL     OW11848   6.062   4.304   0.368
 3650SOL    HW111849   6.138   4.368   0.382
 3650SOL    HW211850   6.090   4.213   0.401
 3651SOL     OW11851   1.758   1.005   4.372
 3651SOL    HW111852   1.669   0.962   4.383
 3651SOL    HW211853   1.750   1.085   4.312
 3652SOL     OW11854   5.740   6.828   3.186
 3652SOL    HW111855   5.651   6.868   3.207
 3652SOL    HW211856   5.774   6.779   3.267
 3653SOL     OW11857   1.661   1.063   3.256
 3653SOL    HW111858   1.754   1.082   3.288
 3653SOL    HW211859   1.604   1.034   3.332
 3654SOL     OW11860   4.695   6.261   0.428
 3654SOL    HW111861   4.760   6.283   0.355
 3654SOL    HW211862   4.640   6.342   0.449
 3655SOL     OW11863   3.077   1.292   3.833
 3655SOL    HW111864   3.061   1.357   3.907
 3655SOL    HW211865   3.014   1.313   3.757
 3656SOL     OW11866   1.525   5.594   1.461
 3656SOL    HW111867   1.500   5.536   1.383
 3656SOL    HW211868   1.624   5.591   1.474
 3657SOL     OW11869   4.562   5.801   5.425
 3657SOL    HW111870   4.595   5.870   5.360
 3657SOL    HW211871   4.616   5.718   5.416
 3658SOL     OW11872   1.638   4.994   6.464
 3658SOL    HW111873   1.577   5.045   6.524
 3658SOL    HW211874   1.713   5.054   6.434
 3659SOL     OW11875   0.703   2.117   6.680
 3659SOL    HW111876   0.748   2.176   6.746
 3659SOL    HW211877   0.609   2.148   6.666
 3660SOL     OW11878   6.013   5.661   5.034
 3660SOL    HW111879   6.010   5.658   4.934
 3660SOL    HW211880   6.100   5.700   5.063
 3661SOL     OW11881   0.289   0.575   4.622
 3661SOL    HW111882   0.383   0.543   4.632
 3661SOL    HW211883   0.283   0.635   4.542
 3662SOL     OW11884   3.790   0.848   4.624
 3662SOL    HW111885   3.883   0.823   4.597
 3662SOL    HW211886   3.783   0.948   4.626
 3663SOL     OW11887   1.964   2.836   0.087
 3663SOL    HW111888   1.932   2.851   7.018
 3663SOL    HW211889   2.063   2.824   0.087
 3664SOL     OW11890   3.993   1.745   1.923
 3664SOL    HW111891   4.040   1.657   1.932
 3664SOL    HW211892   3.947   1.766   2.009
 3665SOL     OW11893   0.910   5.742   5.894
 3665SOL    HW111894   0.997   5.791   5.888
 3665SOL    HW211895   0.914   5.677   5.969
 3666SOL     OW11896   0.879   3.419   3.223
 3666SOL    HW111897   0.900   3.500   3.168
 3666SOL    HW211898   0.965   3.372   3.247
 3667SOL     OW11899   0.727   1.227   3.783
 3667SOL    HW111900   0.627   1.224   3.775
 3667SOL    HW211901   0.768   1.200   3.696
 3668SOL     OW11902   1.376   0.728   1.088
 3668SOL    HW111903   1.381   0.800   1.157
 3668SOL    HW211904   1.419   0.760   1.004
 3669SOL     OW11905   5.337   1.626   3.830
 3669SOL    HW111906   5.431   1.613   3.798
 3669SOL    HW211907   5.296   1.704   3.782
 3670SOL     OW11908   3.184   5.043   0.809
 3670SOL    HW111909   3.126   5.124   0.800
 3670SOL    HW211910   3.173   5.003   0.900
 3671SOL     OW11911   6.701   1.072   3.766
 3671SOL    HW111912   6.689   1.130   3.685
 3671SOL    HW211913   6.774   1.006   3.749
 3672SOL     OW11914   4.895   1.614   2.690
 3672SOL    HW111915   4.909   1.517   2.673
 3672SOL    HW211916   4.811   1.627   2.742
 3673SOL     OW11917   3.813   5.432   6.616
 3673SOL    HW111918   3.814   5.466   6.710
 3673SOL    HW211919   3.890   5.471   6.566
 3674SOL     OW11920   1.248   5.970   5.515
 3674SOL    HW111921   1.155   5.956   5.548
 3674SOL    HW211922   1.255   5.940   5.420
 3675SOL     OW11923   0.575   2.754   3.820
 3675SOL    HW111924   0.573   2.729   3.917
 3675SOL    HW211925   0.547   2.850   3.811
 3676SOL     OW11926   5.652   2.860   2.500
 3676SOL    HW111927   5.650   2.828   2.405
 3676SOL    HW211928   5.625   2.957   2.503
 3677SOL     OW11929   2.300   0.904   5.254
 3677SOL    HW111930   2.357   0.848   5.315
 3677SOL    HW211931   2.356   0.939   5.178
 3678SOL     OW11932   1.692   1.581   4.100
 3678SOL    HW111933   1.770   1.639   4.121
 3678SOL    HW211934   1.611   1.615   4.147
 3679SOL     OW11935   6.453   0.167   3.946
 3679SOL    HW111936   6.457   0.236   3.873
 3679SOL    HW211937   6.486   0.206   4.032
 3680SOL     OW11938   4.406   2.467   4.222
 3680SOL    HW111939   4.354   2.476   4.307
 3680SOL    HW211940   4.460   2.383   4.224
 3681SOL     OW11941   0.696   0.948   6.266
 3681SOL    HW111942   0.759   1.011   6.311
 3681SOL    HW211943   0.611   0.996   6.243
 3682SOL     OW11944   5.430   2.303   0.503
 3682SOL    HW111945   5.524   2.335   0.485
 3682SOL    HW211946   5.431   2.238   0.579
 3683SOL     OW11947   0.762   1.199   4.889
 3683SOL    HW111948   0.711   1.284   4.875
 3683SOL    HW211949   0.856   1.221   4.918
 3684SOL     OW11950   1.472   5.921   0.025
 3684SOL    HW111951   1.495   5.946   6.957
 3684SOL    HW211952   1.534   5.849   0.057
 3685SOL     OW11953   2.813   6.536   5.280
 3685SOL    HW111954   2.772   6.507   5.194
 3685SOL    HW211955   2.747   6.591   5.331
 3686SOL     OW11956   6.544   4.381   4.166
 3686SOL    HW111957   6.563   4.479   4.161
 3686SOL    HW211958   6.519   4.347   4.075
 3687SOL     OW11959   4.936   6.709   3.464
 3687SOL    HW111960   4.838   6.695   3.480
 3687SOL    HW211961   4.971   6.777   3.529
 3688SOL     OW11962   6.137   3.396   6.926
 3688SOL    HW111963   6.161   3.485   6.888
 3688SOL    HW211964   6.125   3.404   7.025
 3689SOL     OW11965   2.278   1.954   5.500
 3689SOL    HW111966   2.216   2.032   5.498
 3689SOL    HW211967   2.297   1.923   5.407
 3690SOL     OW11968   4.542   5.888   1.004
 3690SOL    HW111969   4.518   5.985   1.007
 3690SOL    HW211970   4.518   5.851   0.914
 3691SOL     OW11971   2.666   2.027   6.023
 3691SOL    HW111972   2.706   2.108   5.980
 3691SOL    HW211973   2.602   2.055   6.094
 3692SOL     OW11974   6.734   4.422   6.174
 3692SOL    HW111975   6.834   4.422   6.176
 3692SOL    HW211976   6.699   4.369   6.251
 3693SOL     OW11977   2.208   2.150   2.752
 3693SOL    HW111978   2.167   2.084   2.814
 3693SOL    HW211979   2.203   2.242   2.791
 3694SOL     OW11980   1.211   6.773   1.618
 3694SOL    HW111981   1.307   6.768   1.590
 3694SOL    HW211982   1.170   6.856   1.579
 3695SOL     OW11983   6.306   2.187   1.832
 3695SOL    HW111984   6.299   2.115   1.901
 3695SOL    HW211985   6.398   2.225   1.833
 3696SOL     OW11986   4.555   0.023   5.769
 3696SOL    HW111987   4.593   0.114   5.757
 3696SOL    HW211988   4.574   6.993   5.688
 3697SOL     OW11989   6.718   6.128   3.277
 3697SOL    HW111990   6.784   6.055   3.258
 3697SOL    HW211991   6.726   6.198   3.206
 3698SOL     OW11992   2.026   1.430   3.738
 3698SOL    HW111993   2.014   1.529   3.732
 3698SOL    HW211994   1.987   1.386   3.657
 3699SOL     OW11995   2.343   1.915   3.379
 3699SOL    HW111996   2.295   1.873   3.456
 3699SOL    HW211997   2.404   1.987   3.412
 3700SOL     OW11998   1.342   5.453   4.857
 3700SOL    HW111999   1.269   5.406   4.909
 3700SOL    HW212000   1.429   5.442   4.905
 3701SOL     OW12001   0.864   6.566   2.478
 3701SOL    HW112002   0.904   6.638   2.535
 3701SOL    HW212003   0.837   6.490   2.537
 3702SOL     OW12004   5.581   6.434   3.735
 3702SOL    HW112005   5.595   6.504   3.665
 3702SOL    HW212006   5.583   6.344   3.692
 3703SOL     OW12007   0.821   0.747   6.429
 3703SOL    HW112008   0.804   0.806   6.350
 3703SOL    HW212009   0.895   0.682   6.407
 3704SOL     OW12010   5.577   3.079   1.097
 3704SOL    HW112011   5.592   3.091   0.999
 3704SOL    HW212012   5.664   3.066   1.143
 3705SOL     OW12013   4.599   4.855   3.624
 3705SOL    HW112014   4.697   4.859   3.609
 3705SOL    HW212015   4.554   4.928   3.573
 3706SOL     OW12016   1.058   3.991   0.081
 3706SOL    HW112017   0.964   3.991   0.117
 3706SOL    HW212018   1.076   4.078   0.035
 3707SOL     OW12019   4.067   5.738   3.982
 3707SOL    HW112020   4.008   5.735   3.901
 3707SOL    HW212021   4.033   5.674   4.051
 3708SOL     OW12022   4.950   6.813   1.066
 3708SOL    HW112023   5.043   6.820   1.029
 3708SOL    HW212024   4.947   6.854   1.157
 3709SOL     OW12025   2.146   6.909   1.378
 3709SOL    HW112026   2.206   6.935   1.454
 3709SOL    HW212027   2.195   6.847   1.317
 3710SOL     OW12028   0.740   5.840   5.074
 3710SOL    HW112029   0.676   5.763   5.065
 3710SOL    HW212030   0.822   5.809   5.123
 3711SOL     OW12031   1.439   6.054   4.931
 3711SOL    HW112032   1.502   5.978   4.942
 3711SOL    HW212033   1.422   6.097   5.020
 3712SOL     OW12034   1.859   5.988   6.674
 3712SOL    HW112035   1.783   5.937   6.634
 3712SOL    HW212036   1.830   6.081   6.693
 3713SOL     OW12037   0.621   0.153   4.728
 3713SOL    HW112038   0.586   0.161   4.634
 3713SOL    HW212039   0.691   0.224   4.743
 3714SOL     OW12040   6.698   5.278   7.002
 3714SOL    HW112041   6.767   5.297   6.932
 3714SOL    HW212042   6.642   5.200   6.974
 3715SOL     OW12043   0.568   5.135   2.716
 3715SOL    HW112044   0.548   5.108   2.622
 3715SOL    HW212045   0.504   5.207   2.743
 3716SOL     OW12046   5.897   5.227   4.681
 3716SOL    HW112047   5.977   5.183   4.721
 3716SOL    HW212048   5.815   5.174   4.702
 3717SOL     OW12049   6.326   1.227   0.705
 3717SOL    HW112050   6.418   1.192   0.720
 3717SOL    HW212051   6.324   1.326   0.723
 3718SOL     OW12052   0.240   0.326   6.792
 3718SOL    HW112053   0.228   0.354   6.888
 3718SOL    HW212054   0.260   0.228   6.789
 3719SOL     OW12055   4.328   3.110   6.324
 3719SOL    HW112056   4.260   3.080   6.391
 3719SOL    HW212057   4.360   3.202   6.347
 3720SOL     OW12058   5.450   3.546   0.309
 3720SOL    HW112059   5.550   3.545   0.300
 3720SOL    HW212060   5.417   3.639   0.294
 3721SOL     OW12061   6.655   5.070   0.688
 3721SOL    HW112062   6.718   5.049   0.763
 3721SOL    HW212063   6.705   5.118   0.616
 3722SOL     OW12064   5.517   6.610   1.530
 3722SOL    HW112065   5.519   6.669   1.450
 3722SOL    HW212066   5.436   6.551   1.527
 3723SOL     OW12067   4.640   4.936   0.033
 3723SOL    HW112068   4.562   5.000   0.027
 3723SOL    HW212069   4.688   4.950   0.119
 3724SOL     OW12070   1.967   4.716   5.086
 3724SOL    HW112071   1.984   4.687   5.180
 3724SOL    HW212072   2.041   4.775   5.055
 3725SOL     OW12073   0.779   6.471   6.910
 3725SOL    HW112074   0.806   6.413   6.987
 3725SOL    HW212075   0.694   6.436   6.870
 3726SOL     OW12076   5.635   3.465   5.641
 3726SOL    HW112077   5.547   3.445   5.597
 3726SOL    HW212078   5.619   3.493   5.736
 3727SOL     OW12079   6.838   3.230   4.679
 3727SOL    HW112080   6.783   3.242   4.762
 3727SOL    HW212081   6.779   3.227   4.599
 3728SOL     OW12082   2.159   3.860   6.574
 3728SOL    HW112083   2.066   3.836   6.549
 3728SOL    HW212084   2.206   3.900   6.494
 3729SOL     OW12085   0.847   0.483   3.985
 3729SOL    HW112086   0.749   0.493   4.001
 3729SOL    HW212087   0.895   0.565   4.017
 3730SOL     OW12088   3.900   6.149   5.818
 3730SOL    HW112089   3.868   6.075   5.878
 3730SOL    HW212090   3.877   6.126   5.723
 3731SOL     OW12091   0.548   1.586   0.222
 3731SOL    HW112092   0.550   1.672   0.171
 3731SOL    HW212093   0.607   1.594   0.303
 3732SOL     OW12094   2.039   1.866   0.944
 3732SOL    HW112095   1.992   1.930   0.884
 3732SOL    HW212096   1.972   1.819   1.001
 3733SOL     OW12097   2.005   2.700   4.048
 3733SOL    HW112098   2.096   2.739   4.057
 3733SOL    HW212099   1.940   2.771   4.022
 3734SOL     OW12100   4.051   0.587   1.672
 3734SOL    HW112101   3.990   0.594   1.592
 3734SOL    HW212102   4.130   0.530   1.649
 3735SOL     OW12103   3.951   0.341   2.889
 3735SOL    HW112104   3.977   0.267   2.827
 3735SOL    HW212105   3.988   0.427   2.856
 3736SOL     OW12106   6.837   1.323   1.453
 3736SOL    HW112107   6.916   1.378   1.426
 3736SOL    HW212108   6.756   1.382   1.460
 3737SOL     OW12109   6.372   2.209   3.672
 3737SOL    HW112110   6.424   2.163   3.744
 3737SOL    HW212111   6.283   2.236   3.707
 3738SOL     OW12112   6.305   5.953   1.032
 3738SOL    HW112113   6.332   5.887   1.103
 3738SOL    HW212114   6.349   5.928   0.946
 3739SOL     OW12115   3.049   4.675   1.773
 3739SOL    HW112116   3.146   4.659   1.789
 3739SOL    HW212117   2.996   4.607   1.823
 3740SOL     OW12118   5.914   5.655   0.542
 3740SOL    HW112119   5.856   5.728   0.505
 3740SOL    HW212120   5.997   5.647   0.487
 3741SOL     OW12121   4.108   3.000   6.468
 3741SOL    HW112122   4.175   2.966   6.534
 3741SOL    HW212123   4.025   3.029   6.517
 3742SOL     OW12124   4.506   0.187   0.609
 3742SOL    HW112125   4.446   0.177   0.688
 3742SOL    HW212126   4.563   0.106   0.599
 3743SOL     OW12127   5.139   4.331   1.760
 3743SOL    HW112128   5.211   4.314   1.693
 3743SOL    HW212129   5.123   4.248   1.814
 3744SOL     OW12130   0.837   6.273   2.583
 3744SOL    HW112131   0.865   6.214   2.508
 3744SOL    HW212132   0.737   6.279   2.586
 3745SOL     OW12133   5.171   3.721   2.272
 3745SOL    HW112134   5.139   3.640   2.322
 3745SOL    HW212135   5.224   3.692   2.192
 3746SOL     OW12136   6.051   0.482   3.328
 3746SOL    HW112137   6.039   0.388   3.359
 3746SOL    HW212138   6.146   0.510   3.341
 3747SOL     OW12139   4.947   6.417   5.494
 3747SOL    HW112140   4.893   6.418   5.578
 3747SOL    HW212141   4.991   6.506   5.482
 3748SOL     OW12142   5.143   0.494   2.395
 3748SOL    HW112143   5.187   0.425   2.452
 3748SOL    HW212144   5.190   0.581   2.405
 3749SOL     OW12145   1.898   4.782   3.038
 3749SOL    HW112146   1.915   4.880   3.025
 3749SOL    HW212147   1.905   4.760   3.135
 3750SOL     OW12148   6.037   4.120   0.687
 3750SOL    HW112149   6.059   4.217   0.694
 3750SOL    HW212150   5.990   4.102   0.601
 3751SOL     OW12151   0.632   2.550   0.933
 3751SOL    HW112152   0.729   2.534   0.954
 3751SOL    HW212153   0.615   2.649   0.928
 3752SOL     OW12154   0.686   0.020   0.395
 3752SOL    HW112155   0.634   0.035   0.311
 3752SOL    HW212156   0.691   6.947   0.414
 3753SOL     OW12157   0.410   7.006   4.180
 3753SOL    HW112158   0.458   0.023   4.257
 3753SOL    HW212159   0.476   6.959   4.121
 3754SOL     OW12160   4.561   6.059   1.720
 3754SOL    HW112161   4.594   6.101   1.635
 3754SOL    HW212162   4.564   5.960   1.711
 3755SOL     OW12163   5.488   5.646   4.645
 3755SOL    HW112164   5.515   5.734   4.605
 3755SOL    HW212165   5.449   5.662   4.736
 3756SOL     OW12166   1.405   0.829   6.256
 3756SOL    HW112167   1.412   0.884   6.173
 3756SOL    HW212168   1.478   0.856   6.320
 3757SOL     OW12169   3.683   5.874   6.838
 3757SOL    HW112170   3.707   5.890   6.742
 3757SOL    HW212171   3.609   5.936   6.864
 3758SOL     OW12172   1.391   1.198   4.501
 3758SOL    HW112173   1.434   1.244   4.578
 3758SOL    HW212174   1.436   1.109   4.486
 3759SOL     OW12175   4.073   4.767   5.465
 3759SOL    HW112176   4.166   4.772   5.429
 3759SOL    HW212177   4.046   4.856   5.501
 3760SOL     OW12178   0.584   4.040   4.662
 3760SOL    HW112179   0.541   4.128   4.680
 3760SOL    HW212180   0.524   3.966   4.692
 3761SOL     OW12181   0.746   6.798   5.098
 3761SOL    HW112182   0.670   6.803   5.163
 3761SOL    HW212183   0.740   6.874   5.033
 3762SOL     OW12184   0.965   5.329   6.866
 3762SOL    HW112185   1.051   5.334   6.916
 3762SOL    HW212186   0.979   5.275   6.783
 3763SOL     OW12187   6.552   5.003   0.270
 3763SOL    HW112188   6.454   5.013   0.289
 3763SOL    HW212189   6.566   5.001   0.171
 3764SOL     OW12190   2.218   0.353   4.100
 3764SOL    HW112191   2.288   0.334   4.169
 3764SOL    HW212192   2.233   0.443   4.060
 3765SOL     OW12193   5.298   1.538   1.881
 3765SOL    HW112194   5.218   1.514   1.936
 3765SOL    HW212195   5.376   1.553   1.941
 3766SOL     OW12196   0.727   0.897   4.868
 3766SOL    HW112197   0.742   0.995   4.854
 3766SOL    HW212198   0.638   0.882   4.911
 3767SOL     OW12199   2.478   5.403   0.625
 3767SOL    HW112200   2.535   5.323   0.606
 3767SOL    HW212201   2.388   5.389   0.585
 3768SOL     OW12202   2.560   5.707   5.826
 3768SOL    HW112203   2.607   5.637   5.880
 3768SOL    HW212204   2.625   5.779   5.800
 3769SOL     OW12205   5.437   5.415   5.669
 3769SOL    HW112206   5.491   5.476   5.611
 3769SOL    HW212207   5.478   5.323   5.668
 3770SOL     OW12208   1.645   0.583   6.634
 3770SOL    HW112209   1.732   0.550   6.669
 3770SOL    HW212210   1.596   0.507   6.589
 3771SOL     OW12211   5.669   2.087   0.274
 3771SOL    HW112212   5.746   2.147   0.295
 3771SOL    HW212213   5.587   2.143   0.258
 3772SOL     OW12214   6.861   1.482   0.705
 3772SOL    HW112215   6.823   1.407   0.760
 3772SOL    HW212216   6.957   1.495   0.728
 3773SOL     OW12217   5.802   2.662   6.461
 3773SOL    HW112218   5.768   2.727   6.530
 3773SOL    HW212219   5.811   2.708   6.373
 3774SOL     OW12220   1.136   6.912   6.866
 3774SOL    HW112221   1.049   6.867   6.847
 3774SOL    HW212222   1.147   6.920   6.966
 3775SOL     OW12223   5.119   4.059   2.064
 3775SOL    HW112224   5.104   4.025   2.157
 3775SOL    HW212225   5.179   4.139   2.068
 3776SOL     OW12226   3.086   1.472   0.722
 3776SOL    HW112227   3.182   1.496   0.706
 3776SOL    HW212228   3.052   1.417   0.646
 3777SOL     OW12229   3.120   4.873   4.117
 3777SOL    HW112230   3.117   4.941   4.190
 3777SOL    HW212231   3.043   4.810   4.127
 3778SOL     OW12232   2.563   5.854   2.991
 3778SOL    HW112233   2.548   5.819   3.083
 3778SOL    HW212234   2.610   5.943   2.995
 3779SOL     OW12235   2.304   4.425   0.707
 3779SOL    HW112236   2.265   4.495   0.766
 3779SOL    HW212237   2.343   4.469   0.625
 3780SOL     OW12238   4.333   4.796   5.397
 3780SOL    HW112239   4.295   4.837   5.314
 3780SOL    HW212240   4.433   4.791   5.389
 3781SOL     OW12241   1.788   6.254   4.557
 3781SOL    HW112242   1.762   6.164   4.522
 3781SOL    HW212243   1.863   6.291   4.502
 3782SOL     OW12244   2.767   2.045   4.659
 3782SOL    HW112245   2.770   2.011   4.753
 3782SOL    HW212246   2.852   2.093   4.639
 3783SOL     OW12247   5.555   6.475   5.348
 3783SOL    HW112248   5.480   6.484   5.415
 3783SOL    HW212249   5.525   6.510   5.260
 3784SOL     OW12250   4.995   1.899   3.547
 3784SOL    HW112251   4.895   1.906   3.543
 3784SOL    HW212252   5.032   1.908   3.455
 3785SOL     OW12253   1.961   1.426   6.886
 3785SOL    HW112254   1.933   1.489   6.813
 3785SOL    HW212255   1.955   1.472   6.974
 3786SOL     OW12256   3.077   6.231   3.418
 3786SOL    HW112257   3.034   6.274   3.497
 3786SOL    HW212258   3.118   6.144   3.445
 3787SOL     OW12259   6.186   6.029   3.652
 3787SOL    HW112260   6.140   6.118   3.641
 3787SOL    HW212261   6.235   6.028   3.739
 3788SOL     OW12262   0.331   2.978   3.382
 3788SOL    HW112263   0.317   2.894   3.328
 3788SOL    HW212264   0.421   3.016   3.362
 3789SOL     OW12265   1.492   3.323   4.065
 3789SOL    HW112266   1.488   3.389   4.140
 3789SOL    HW212267   1.433   3.353   3.991
 3790SOL     OW12268   1.553   3.872   5.243
 3790SOL    HW112269   1.488   3.797   5.254
 3790SOL    HW212270   1.581   3.906   5.333
 3791SOL     OW12271   6.522   0.280   0.854
 3791SOL    HW112272   6.468   0.293   0.938
 3791SOL    HW212273   6.596   0.346   0.851
 3792SOL     OW12274   6.880   0.754   4.544
 3792SOL    HW112275   6.834   0.698   4.476
 3792SOL    HW212276   6.814   0.786   4.612
 3793SOL     OW12277   3.167   0.155   2.945
 3793SOL    HW112278   3.083   0.121   2.903
 3793SOL    HW212279   3.244   0.137   2.884
 3794SOL     OW12280   3.390   4.686   1.292
 3794SOL    HW112281   3.307   4.673   1.239
 3794SOL    HW212282   3.408   4.784   1.304
 3795SOL     OW12283   3.853   6.414   0.169
 3795SOL    HW112284   3.778   6.350   0.186
 3795SOL    HW212285   3.917   6.412   0.246
 3796SOL     OW12286   2.513   2.420   1.531
 3796SOL    HW112287   2.474   2.378   1.449
 3796SOL    HW212288   2.572   2.354   1.578
 3797SOL     OW12289   6.747   4.734   2.566
 3797SOL    HW112290   6.782   4.769   2.479
 3797SOL    HW212291   6.649   4.751   2.572
 3798SOL     OW12292   3.373   5.354   3.414
 3798SOL    HW112293   3.379   5.336   3.316
 3798SOL    HW212294   3.339   5.447   3.429
 3799SOL     OW12295   0.539   2.373   4.338
 3799SOL    HW112296   0.536   2.451   4.399
 3799SOL    HW212297   0.533   2.404   4.243
 3800SOL     OW12298   5.237   2.816   4.802
 3800SOL    HW112299   5.207   2.726   4.835
 3800SOL    HW212300   5.204   2.829   4.709
 3801SOL     OW12301   6.980   6.530   4.648
 3801SOL    HW112302   6.957   6.483   4.734
 3801SOL    HW212303   0.016   6.472   4.594
 3802SOL     OW12304   0.137   1.800   4.532
 3802SOL    HW112305   0.066   1.741   4.494
 3802SOL    HW212306   0.097   1.859   4.603
 3803SOL     OW12307   3.665   1.253   1.995
 3803SOL    HW112308   3.693   1.348   1.998
 3803SOL    HW212309   3.684   1.214   1.905
 3804SOL     OW12310   5.193   2.397   4.074
 3804SOL    HW112311   5.215   2.380   4.171
 3804SOL    HW212312   5.112   2.454   4.068
 3805SOL     OW12313   2.634   3.764   1.719
 3805SOL    HW112314   2.730   3.780   1.743
 3805SOL    HW212315   2.588   3.852   1.707
 3806SOL     OW12316   1.996   3.290   6.973
 3806SOL    HW112317   1.899   3.270   6.986
 3806SOL    HW212318   2.019   3.375   7.021
 3807SOL     OW12319   2.406   1.355   4.010
 3807SOL    HW112320   2.368   1.358   3.917
 3807SOL    HW212321   2.396   1.263   4.047
 3808SOL     OW12322   3.451   1.292   1.170
 3808SOL    HW112323   3.493   1.213   1.214
 3808SOL    HW212324   3.394   1.341   1.236
 3809SOL     OW12325   6.641   2.267   0.299
 3809SOL    HW112326   6.722   2.288   0.353
 3809SOL    HW212327   6.575   2.342   0.308
 3810SOL     OW12328   4.376   2.417   5.321
 3810SOL    HW112329   4.449   2.477   5.352
 3810SOL    HW212330   4.320   2.464   5.253
 3811SOL     OW12331   0.915   4.856   4.655
 3811SOL    HW112332   0.993   4.825   4.710
 3811SOL    HW212333   0.877   4.778   4.605
 3812SOL     OW12334   5.439   1.466   5.597
 3812SOL    HW112335   5.481   1.429   5.514
 3812SOL    HW212336   5.342   1.482   5.581
 3813SOL     OW12337   4.759   4.284   0.732
 3813SOL    HW112338   4.674   4.319   0.695
 3813SOL    HW212339   4.744   4.192   0.770
 3814SOL     OW12340   6.551   6.161   1.459
 3814SOL    HW112341   6.562   6.260   1.444
 3814SOL    HW212342   6.458   6.134   1.432
 3815SOL     OW12343   4.930   2.216   0.441
 3815SOL    HW112344   4.990   2.292   0.419
 3815SOL    HW212345   4.843   2.251   0.476
 3816SOL     OW12346   6.845   6.243   0.920
 3816SOL    HW112347   6.846   6.144   0.905
 3816SOL    HW212348   6.757   6.281   0.890
 3817SOL     OW12349   4.817   2.995   3.944
 3817SOL    HW112350   4.789   2.963   4.034
 3817SOL    HW212351   4.808   2.920   3.878
 3818SOL     OW12352   5.194   6.664   1.298
 3818SOL    HW112353   5.100   6.677   1.329
 3818SOL    HW212354   5.200   6.577   1.249
 3819SOL     OW12355   5.343   4.920   0.540
 3819SOL    HW112356   5.325   4.955   0.448
 3819SOL    HW212357   5.441   4.927   0.559
 3820SOL     OW12358   6.633   7.023   4.230
 3820SOL    HW112359   6.656   0.090   4.201
 3820SOL    HW212360   6.717   6.970   4.243
 3821SOL     OW12361   1.974   3.185   1.806
 3821SOL    HW112362   1.991   3.087   1.817
 3821SOL    HW212363   2.038   3.237   1.862
 3822SOL     OW12364   1.152   5.538   2.599
 3822SOL    HW112365   1.078   5.526   2.665
 3822SOL    HW212366   1.140   5.626   2.552
 3823SOL     OW12367   3.826   2.118   5.429
 3823SOL    HW112368   3.805   2.167   5.514
 3823SOL    HW212369   3.923   2.094   5.427
 3824SOL     OW12370   5.735   1.421   5.924
 3824SOL    HW112371   5.773   1.360   5.994
 3824SOL    HW212372   5.639   1.398   5.908
 3825SOL     OW12373   0.593   0.378   0.625
 3825SOL    HW112374   0.557   0.381   0.532
 3825SOL    HW212375   0.518   0.393   0.690
 3826SOL     OW12376   0.410   3.521   6.626
 3826SOL    HW112377   0.417   3.470   6.711
 3826SOL    HW212378   0.466   3.476   6.556
 3827SOL     OW12379   3.778   3.796   0.555
 3827SOL    HW112380   3.697   3.850   0.533
 3827SOL    HW212381   3.821   3.765   0.471
 3828SOL     OW12382   4.336   2.033   1.287
 3828SOL    HW112383   4.376   2.120   1.257
 3828SOL    HW212384   4.408   1.966   1.299
 3829SOL     OW12385   2.115   4.792   3.918
 3829SOL    HW112386   2.049   4.823   3.987
 3829SOL    HW212387   2.147   4.870   3.864
 3830SOL     OW12388   0.563   0.455   4.635
 3830SOL    HW112389   0.607   0.527   4.582
 3830SOL    HW212390   0.564   0.479   4.732
 3831SOL     OW12391   4.474   2.114   2.410
 3831SOL    HW112392   4.519   2.190   2.363
 3831SOL    HW212393   4.385   2.097   2.368
 3832SOL     OW12394   6.150   0.315   2.331
 3832SOL    HW112395   6.216   0.349   2.397
 3832SOL    HW212396   6.062   0.360   2.345
 3833SOL     OW12397   0.790   6.039   6.187
 3833SOL    HW112398   0.770   5.943   6.209
 3833SOL    HW212399   0.838   6.081   6.264
 3834SOL     OW12400   3.528   2.575   0.244
 3834SOL    HW112401   3.503   2.615   0.156
 3834SOL    HW212402   3.473   2.493   0.259
 3835SOL     OW12403   3.175   4.828   5.233
 3835SOL    HW112404   3.080   4.837   5.204
 3835SOL    HW212405   3.196   4.732   5.250
 3836SOL     OW12406   2.230   3.339   5.125
 3836SOL    HW112407   2.250   3.288   5.209
 3836SOL    HW212408   2.205   3.274   5.052
 3837SOL     OW12409   4.743   3.261   6.638
 3837SOL    HW112410   4.732   3.359   6.654
 3837SOL    HW212411   4.700   3.237   6.551
 3838SOL     OW12412   6.140   3.906   4.309
 3838SOL    HW112413   6.186   3.991   4.281
 3838SOL    HW212414   6.207   3.832   4.312
 3839SOL     OW12415   4.670   6.714   4.225
 3839SOL    HW112416   4.750   6.773   4.235
 3839SOL    HW212417   4.662   6.655   4.306
 3840SOL     OW12418   1.446   1.202   5.406
 3840SOL    HW112419   1.476   1.241   5.319
 3840SOL    HW212420   1.458   1.102   5.404
 3841SOL     OW12421   0.381   4.078   5.439
 3841SOL    HW112422   0.288   4.043   5.425
 3841SOL    HW212423   0.447   4.006   5.416
 3842SOL     OW12424   1.518   5.276   0.619
 3842SOL    HW112425   1.554   5.224   0.542
 3842SOL    HW212426   1.542   5.229   0.704
 3843SOL     OW12427   6.719   3.491   1.163
 3843SOL    HW112428   6.782   3.557   1.204
 3843SOL    HW212429   6.666   3.446   1.235
 3844SOL     OW12430   0.048   4.599   5.342
 3844SOL    HW112431   0.107   4.539   5.396
 3844SOL    HW212432   0.043   4.689   5.385
 3845SOL     OW12433   3.290   2.893   2.767
 3845SOL    HW112434   3.268   2.962   2.836
 3845SOL    HW212435   3.211   2.834   2.753
 3846SOL     OW12436   0.423   4.215   4.252
 3846SOL    HW112437   0.499   4.157   4.223
 3846SOL    HW212438   0.424   4.300   4.199
 3847SOL     OW12439   6.252   1.237   6.126
 3847SOL    HW112440   6.253   1.257   6.028
 3847SOL    HW212441   6.311   1.158   6.145
 3848SOL     OW12442   2.513   5.501   2.812
 3848SOL    HW112443   2.433   5.557   2.792
 3848SOL    HW212444   2.584   5.557   2.853
 3849SOL     OW12445   0.508   1.340   5.545
 3849SOL    HW112446   0.457   1.359   5.629
 3849SOL    HW212447   0.486   1.247   5.513
 3850SOL     OW12448   2.490   3.549   1.654
 3850SOL    HW112449   2.540   3.635   1.667
 3850SOL    HW212450   2.446   3.523   1.740
 3851SOL     OW12451   1.548   4.254   2.740
 3851SOL    HW112452   1.532   4.211   2.828
 3851SOL    HW212453   1.641   4.232   2.709
 3852SOL     OW12454   4.709   6.789   4.801
 3852SOL    HW112455   4.733   6.811   4.706
 3852SOL    HW212456   4.793   6.776   4.854
 3853SOL     OW12457   1.534   3.498   2.478
 3853SOL    HW112458   1.606   3.429   2.484
 3853SOL    HW212459   1.445   3.453   2.485
 3854SOL     OW12460   0.632   3.601   3.188
 3854SOL    HW112461   0.534   3.591   3.205
 3854SOL    HW212462   0.665   3.521   3.138
 3855SOL     OW12463   5.596   5.447   6.742
 3855SOL    HW112464   5.695   5.452   6.732
 3855SOL    HW212465   5.564   5.356   6.715
 3856SOL     OW12466   0.135   7.023   5.099
 3856SOL    HW112467   0.127   6.924   5.102
 3856SOL    HW212468   0.228   0.024   5.126
 3857SOL     OW12469   1.466   6.760   5.028
 3857SOL    HW112470   1.508   6.704   4.957
 3857SOL    HW212471   1.459   6.855   4.996
 3858SOL     OW12472   1.098   6.050   6.097
 3858SOL    HW112473   1.174   6.025   6.158
 3858SOL    HW212474   1.012   6.027   6.141
 3859SOL     OW12475   6.819   1.664   3.028
 3859SOL    HW112476   6.736   1.639   2.978
 3859SOL    HW212477   6.873   1.729   2.974
 3860SOL     OW12478   2.202   6.471   4.312
 3860SOL    HW112479   2.283   6.414   4.325
 3860SOL    HW212480   2.124   6.430   4.360
 3861SOL     OW12481   5.831   4.405   1.256
 3861SOL    HW112482   5.841   4.466   1.178
 3861SOL    HW212483   5.917   4.355   1.271
 3862SOL     OW12484   6.854   0.209   6.047
 3862SOL    HW112485   6.760   0.231   6.075
 3862SOL    HW212486   6.862   0.216   5.947
 3863SOL     OW12487   4.064   4.022   0.103
 3863SOL    HW112488   4.072   4.116   0.135
 3863SOL    HW212489   3.975   4.010   0.060
 3864SOL     OW12490   4.424   2.027   5.992
 3864SOL    HW112491   4.487   2.060   5.922
 3864SOL    HW212492   4.452   1.937   6.023
 3865SOL     OW12493   3.547   0.628   1.646
 3865SOL    HW112494   3.589   0.717   1.630
 3865SOL    HW212495   3.616   0.557   1.637
 3866SOL     OW12496   4.020   0.704   0.534
 3866SOL    HW112497   3.931   0.671   0.503
 3866SOL    HW212498   4.092   0.657   0.484
 3867SOL     OW12499   2.173   3.800   3.331
 3867SOL    HW112500   2.210   3.818   3.422
 3867SOL    HW212501   2.191   3.879   3.272
 3868SOL     OW12502   2.487   5.574   1.693
 3868SOL    HW112503   2.485   5.522   1.608
 3868SOL    HW212504   2.463   5.670   1.674
 3869SOL     OW12505   0.144   2.596   3.692
 3869SOL    HW112506   0.144   2.519   3.755
 3869SOL    HW212507   0.167   2.680   3.742
 3870SOL     OW12508   2.957   5.145   6.919
 3870SOL    HW112509   2.996   5.198   6.994
 3870SOL    HW212510   2.857   5.153   6.921
 3871SOL     OW12511   3.341   0.261   2.149
 3871SOL    HW112512   3.306   0.263   2.243
 3871SOL    HW212513   3.274   0.218   2.089
 3872SOL     OW12514   4.060   3.260   0.974
 3872SOL    HW112515   4.071   3.216   0.884
 3872SOL    HW212516   4.007   3.200   1.033
 3873SOL     OW12517   5.798   5.396   1.514
 3873SOL    HW112518   5.858   5.407   1.594
 3873SOL    HW212519   5.848   5.347   1.443
 3874SOL     OW12520   4.149   0.051   0.145
 3874SOL    HW112521   4.068   7.017   0.147
 3874SOL    HW212522   4.215   0.015   0.078
 3875SOL     OW12523   1.072   3.920   2.546
 3875SOL    HW112524   1.013   3.840   2.537
 3875SOL    HW212525   1.168   3.893   2.538
 3876SOL     OW12526   5.112   5.686   6.373
 3876SOL    HW112527   5.086   5.591   6.390
 3876SOL    HW212528   5.137   5.697   6.277
 3877SOL     OW12529   6.735   1.761   1.308
 3877SOL    HW112530   6.813   1.803   1.262
 3877SOL    HW212531   6.744   1.661   1.305
 3878SOL     OW12532   3.222   6.509   5.917
 3878SOL    HW112533   3.194   6.413   5.925
 3878SOL    HW212534   3.295   6.528   5.983
 3879SOL     OW12535   4.484   5.780   0.725
 3879SOL    HW112536   4.581   5.803   0.711
 3879SOL    HW212537   4.431   5.809   0.645
 3880SOL     OW12538   5.951   4.168   2.314
 3880SOL    HW112539   5.954   4.142   2.218
 3880SOL    HW212540   6.030   4.225   2.336
 3881SOL     OW12541   1.706   5.539   0.507
 3881SOL    HW112542   1.714   5.447   0.469
 3881SOL    HW212543   1.713   5.534   0.607
 3882SOL     OW12544   6.375   1.017   6.262
 3882SOL    HW112545   6.427   1.076   6.323
 3882SOL    HW212546   6.437   0.971   6.199
 3883SOL     OW12547   4.525   1.202   4.035
 3883SOL    HW112548   4.509   1.162   3.945
 3883SOL    HW212549   4.603   1.264   4.031
 3884SOL     OW12550   1.193   6.302   4.793
 3884SOL    HW112551   1.252   6.320   4.872
 3884SOL    HW212552   1.161   6.207   4.796
 3885SOL     OW12553   6.572   1.362   4.372
 3885SOL    HW112554   6.592   1.266   4.391
 3885SOL    HW212555   6.596   1.383   4.277
 3886SOL     OW12556   6.547   0.430   5.537
 3886SOL    HW112557   6.613   0.504   5.532
 3886SOL    HW212558   6.538   0.399   5.632
 3887SOL     OW12559   4.333   1.523   5.598
 3887SOL    HW112560   4.266   1.576   5.546
 3887SOL    HW212561   4.353   1.569   5.684
 3888SOL     OW12562   6.977   1.399   0.339
 3888SOL    HW112563   6.914   1.428   0.267
 3888SOL    HW212564   0.017   1.334   0.300
 3889SOL     OW12565   0.626   5.675   6.654
 3889SOL    HW112566   0.682   5.592   6.653
 3889SOL    HW212567   0.661   5.738   6.723
 3890SOL     OW12568   5.480   6.014   3.432
 3890SOL    HW112569   5.572   6.051   3.441
 3890SOL    HW212570   5.417   6.068   3.487
 3891SOL     OW12571   5.165   5.558   4.995
 3891SOL    HW112572   5.204   5.578   4.904
 3891SOL    HW212573   5.156   5.459   5.006
 3892SOL     OW12574   0.358   6.754   2.783
 3892SOL    HW112575   0.304   6.780   2.863
 3892SOL    HW212576   0.298   6.716   2.713
 3893SOL     OW12577   3.816   5.640   3.840
 3893SOL    HW112578   3.747   5.664   3.909
 3893SOL    HW212579   3.811   5.542   3.821
 3894SOL     OW12580   4.243   2.714   0.650
 3894SOL    HW112581   4.144   2.704   0.641
 3894SOL    HW212582   4.288   2.676   0.569
 3895SOL     OW12583   1.473   1.474   5.257
 3895SOL    HW112584   1.496   1.411   5.183
 3895SOL    HW212585   1.534   1.553   5.254
 3896SOL     OW12586   0.104   1.969   5.975
 3896SOL    HW112587   0.132   2.048   6.029
 3896SOL    HW212588   0.032   1.996   5.911
 3897SOL     OW12589   2.597   6.511   2.128
 3897SOL    HW112590   2.638   6.420   2.117
 3897SOL    HW212591   2.579   6.528   2.225
 3898SOL     OW12592   3.689   3.491   4.143
 3898SOL    HW112593   3.683   3.524   4.238
 3898SOL    HW212594   3.604   3.446   4.118
 3899SOL     OW12595   4.615   1.405   5.196
 3899SOL    HW112596   4.583   1.384   5.288
 3899SOL    HW212597   4.608   1.503   5.179
 3900SOL     OW12598   6.491   2.785   3.220
 3900SOL    HW112599   6.498   2.693   3.258
 3900SOL    HW212600   6.569   2.839   3.251
 3901SOL     OW12601   0.906   6.422   4.667
 3901SOL    HW112602   0.993   6.436   4.715
 3901SOL    HW212603   0.842   6.495   4.691
 3902SOL     OW12604   5.612   4.868   1.626
 3902SOL    HW112605   5.650   4.910   1.543
 3902SOL    HW212606   5.632   4.770   1.625
 3903SOL     OW12607   4.325   2.451   0.275
 3903SOL    HW112608   4.423   2.436   0.274
 3903SOL    HW212609   4.278   2.363   0.284
 3904SOL     OW12610   1.164   0.297   0.264
 3904SOL    HW112611   1.135   0.393   0.256
 3904SOL    HW212612   1.086   0.238   0.246
 3905SOL     OW12613   6.682   6.834   6.061
 3905SOL    HW112614   6.614   6.887   6.009
 3905SOL    HW212615   6.749   6.896   6.101
 3906SOL     OW12616   1.644   4.772   4.500
 3906SOL    HW112617   1.671   4.710   4.574
 3906SOL    HW212618   1.556   4.743   4.463
 3907SOL     OW12619   0.049   0.917   4.402
 3907SOL    HW112620   0.016   0.952   4.314
 3907SOL    HW212621   0.002   0.831   4.423
 3908SOL     OW12622   1.532   0.976   5.154
 3908SOL    HW112623   1.599   0.906   5.127
 3908SOL    HW212624   1.507   0.962   5.250
 3909SOL     OW12625   4.933   2.696   5.744
 3909SOL    HW112626   4.985   2.728   5.824
 3909SOL    HW212627   4.924   2.597   5.748
 3910SOL     OW12628   3.202   3.043   1.592
 3910SOL    HW112629   3.160   2.967   1.641
 3910SOL    HW212630   3.278   3.010   1.537
 3911SOL     OW12631   5.791   0.596   1.511
 3911SOL    HW112632   5.706   0.578   1.561
 3911SOL    HW212633   5.807   0.694   1.508
 3912SOL     OW12634   3.628   1.877   6.560
 3912SOL    HW112635   3.701   1.940   6.587
 3912SOL    HW212636   3.626   1.799   6.624
 3913SOL     OW12637   4.029   6.387   0.373
 3913SOL    HW112638   4.010   6.362   0.468
 3913SOL    HW212639   4.113   6.441   0.369
 3914SOL     OW12640   5.925   1.419   1.108
 3914SOL    HW112641   5.902   1.475   1.188
 3914SOL    HW212642   5.870   1.448   1.030
 3915SOL     OW12643   4.752   5.526   0.497
 3915SOL    HW112644   4.832   5.487   0.542
 3915SOL    HW212645   4.781   5.581   0.419
 3916SOL     OW12646   2.125   0.629   2.820
 3916SOL    HW112647   2.095   0.536   2.839
 3916SOL    HW212648   2.225   0.632   2.815
 3917SOL     OW12649   2.649   5.132   0.798
 3917SOL    HW112650   2.588   5.114   0.721
 3917SOL    HW212651   2.744   5.128   0.767
 3918SOL     OW12652   5.630   0.595   0.937
 3918SOL    HW112653   5.667   0.584   1.028
 3918SOL    HW212654   5.579   0.681   0.931
 3919SOL     OW12655   4.295   1.047   0.925
 3919SOL    HW112656   4.227   1.120   0.930
 3919SOL    HW212657   4.249   0.960   0.906
 3920SOL     OW12658   3.170   0.983   6.372
 3920SOL    HW112659   3.122   0.986   6.284
 3920SOL    HW212660   3.143   1.062   6.427
 3921SOL     OW12661   0.624   2.986   5.974
 3921SOL    HW112662   0.536   2.941   5.991
 3921SOL    HW212663   0.614   3.084   5.991
 3922SOL     OW12664   4.825   4.886   1.713
 3922SOL    HW112665   4.798   4.809   1.771
 3922SOL    HW212666   4.771   4.883   1.628
 3923SOL     OW12667   5.299   0.923   1.900
 3923SOL    HW112668   5.244   0.988   1.953
 3923SOL    HW212669   5.390   0.961   1.886
 3924SOL     OW12670   0.009   4.730   4.765
 3924SOL    HW112671   0.104   4.742   4.736
 3924SOL    HW212672   6.994   4.820   4.784
 3925SOL     OW12673   4.966   3.589   0.188
 3925SOL    HW112674   4.932   3.500   0.217
 3925SOL    HW212675   5.066   3.586   0.180
 3926SOL     OW12676   1.437   0.559   5.992
 3926SOL    HW112677   1.478   0.469   6.006
 3926SOL    HW212678   1.339   0.555   6.012
 3927SOL     OW12679   0.166   2.788   4.821
 3927SOL    HW112680   0.169   2.884   4.792
 3927SOL    HW212681   0.247   2.766   4.875
 3928SOL     OW12682   2.002   6.831   3.161
 3928SOL    HW112683   2.079   6.820   3.098
 3928SOL    HW212684   1.938   6.755   3.150
 3929SOL     OW12685   6.850   2.118   5.068
 3929SOL    HW112686   6.805   2.038   5.029
 3929SOL    HW212687   6.921   2.150   5.005
 3930SOL     OW12688   1.036   3.531   4.074
 3930SOL    HW112689   1.085   3.467   4.133
 3930SOL    HW212690   1.040   3.623   4.114
 3931SOL     OW12691   1.695   2.691   1.557
 3931SOL    HW112692   1.777   2.741   1.529
 3931SOL    HW212693   1.678   2.617   1.492
 3932SOL     OW12694   1.665   6.020   4.060
 3932SOL    HW112695   1.565   6.026   4.065
 3932SOL    HW212696   1.704   6.037   4.150
 3933SOL     OW12697   2.013   5.008   0.376
 3933SOL    HW112698   1.975   4.939   0.315
 3933SOL    HW212699   1.941   5.042   0.437
 3934SOL     OW12700   0.698   1.420   2.633
 3934SOL    HW112701   0.755   1.501   2.650
 3934SOL    HW212702   0.690   1.366   2.716
 3935SOL     OW12703   6.091   3.320   6.495
 3935SOL    HW112704   6.179   3.365   6.510
 3935SOL    HW212705   6.098   3.257   6.418
 3936SOL     OW12706   6.906   5.484   5.339
 3936SOL    HW112707   6.899   5.464   5.241
 3936SOL    HW212708   6.980   5.429   5.379
 3937SOL     OW12709   0.157   6.030   2.456
 3937SOL    HW112710   0.226   6.057   2.523
 3937SOL    HW212711   0.066   6.055   2.491
 3938SOL     OW12712   6.678   3.893   3.388
 3938SOL    HW112713   6.761   3.939   3.359
 3938SOL    HW212714   6.692   3.794   3.387
 3939SOL     OW12715   0.506   1.210   2.562
 3939SOL    HW112716   0.579   1.279   2.559
 3939SOL    HW212717   0.501   1.163   2.474
 3940SOL     OW12718   3.308   5.073   1.732
 3940SOL    HW112719   3.390   5.109   1.776
 3940SOL    HW212720   3.228   5.123   1.766
 3941SOL     OW12721   5.795   6.616   4.331
 3941SOL    HW112722   5.865   6.655   4.272
 3941SOL    HW212723   5.802   6.657   4.422
 3942SOL     OW12724   0.992   6.283   6.455
 3942SOL    HW112725   1.025   6.351   6.389
 3942SOL    HW212726   0.995   6.323   6.547
 3943SOL     OW12727   1.413   3.155   1.515
 3943SOL    HW112728   1.496   3.110   1.547
 3943SOL    HW212729   1.334   3.113   1.560
 3944SOL     OW12730   6.615   2.262   6.449
 3944SOL    HW112731   6.626   2.300   6.357
 3944SOL    HW212732   6.696   2.208   6.472
 3945SOL     OW12733   0.798   1.130   3.206
 3945SOL    HW112734   0.847   1.200   3.155
 3945SOL    HW212735   0.845   1.042   3.197
 3946SOL     OW12736   0.807   2.852   0.629
 3946SOL    HW112737   0.826   2.757   0.604
 3946SOL    HW212738   0.755   2.896   0.556
 3947SOL     OW12739   6.087   5.727   1.075
 3947SOL    HW112740   6.009   5.780   1.042
 3947SOL    HW212741   6.073   5.702   1.171
 3948SOL     OW12742   1.783   2.359   5.768
 3948SOL    HW112743   1.829   2.351   5.857
 3948SOL    HW212744   1.846   2.398   5.701
 3949SOL     OW12745   6.129   6.698   2.344
 3949SOL    HW112746   6.089   6.612   2.313
 3949SOL    HW212747   6.124   6.766   2.271
 3950SOL     OW12748   3.585   4.232   1.303
 3950SOL    HW112749   3.647   4.231   1.224
 3950SOL    HW212750   3.497   4.270   1.276
 3951SOL     OW12751   0.128   1.334   5.433
 3951SOL    HW112752   0.090   1.424   5.414
 3951SOL    HW212753   0.096   1.303   5.522
 3952SOL     OW12754   6.391   2.716   5.186
 3952SOL    HW112755   6.359   2.628   5.222
 3952SOL    HW212756   6.425   2.773   5.260
 3953SOL     OW12757   3.793   4.436   6.694
 3953SOL    HW112758   3.792   4.378   6.612
 3953SOL    HW212759   3.703   4.478   6.706
 3954SOL     OW12760   0.803   3.755   5.229
 3954SOL    HW112761   0.718   3.781   5.182
 3954SOL    HW212762   0.795   3.778   5.326
 3955SOL     OW12763   5.059   5.556   6.845
 3955SOL    HW112764   5.116   5.513   6.916
 3955SOL    HW212765   5.118   5.585   6.770
 3956SOL     OW12766   0.120   2.588   5.940
 3956SOL    HW112767   0.090   2.633   6.024
 3956SOL    HW212768   0.218   2.571   5.943
 3957SOL     OW12769   2.182   6.969   4.222
 3957SOL    HW112770   2.188   7.003   4.129
 3957SOL    HW212771   2.254   6.902   4.238
 3958SOL     OW12772   6.333   6.328   6.150
 3958SOL    HW112773   6.273   6.340   6.072
 3958SOL    HW212774   6.397   6.253   6.133
 3959SOL     OW12775   3.166   4.872   6.929
 3959SOL    HW112776   3.107   4.953   6.934
 3959SOL    HW212777   3.260   4.898   6.951
 3960SOL     OW12778   3.782   3.056   0.264
 3960SOL    HW112779   3.823   2.976   0.307
 3960SOL    HW212780   3.682   3.048   0.264
 3961SOL     OW12781   4.600   0.954   1.772
 3961SOL    HW112782   4.678   0.956   1.710
 3961SOL    HW212783   4.617   0.886   1.844
 3962SOL     OW12784   0.834   6.964   6.624
 3962SOL    HW112785   0.862   6.869   6.617
 3962SOL    HW212786   0.794   6.981   6.714
 3963SOL     OW12787   4.931   5.681   4.263
 3963SOL    HW112788   4.863   5.676   4.335
 3963SOL    HW212789   4.987   5.598   4.264
 3964SOL     OW12790   5.066   5.845   5.699
 3964SOL    HW112791   5.046   5.748   5.685
 3964SOL    HW212792   4.982   5.898   5.689
 3965SOL     OW12793   3.206   3.920   0.017
 3965SOL    HW112794   3.145   3.999   0.027
 3965SOL    HW212795   3.250   3.902   0.105
 3966SOL     OW12796   6.387   4.418   5.082
 3966SOL    HW112797   6.343   4.496   5.128
 3966SOL    HW212798   6.436   4.363   5.149
 3967SOL     OW12799   0.419   6.311   5.959
 3967SOL    HW112800   0.399   6.349   5.869
 3967SOL    HW212801   0.504   6.259   5.955
 3968SOL     OW12802   5.266   1.012   2.527
 3968SOL    HW112803   5.208   1.023   2.608
 3968SOL    HW212804   5.271   0.915   2.504
 3969SOL     OW12805   0.699   4.989   2.891
 3969SOL    HW112806   0.672   5.064   2.831
 3969SOL    HW212807   0.691   5.017   2.986
 3970SOL     OW12808   4.621   4.737   3.219
 3970SOL    HW112809   4.656   4.658   3.271
 3970SOL    HW212810   4.694   4.774   3.162
 3971SOL     OW12811   2.069   5.793   3.511
 3971SOL    HW112812   2.013   5.875   3.525
 3971SOL    HW212813   2.129   5.780   3.590
 3972SOL     OW12814   0.587   6.769   0.780
 3972SOL    HW112815   0.581   6.699   0.852
 3972SOL    HW212816   0.593   6.860   0.822
 3973SOL     OW12817   3.141   4.058   4.535
 3973SOL    HW112818   3.200   4.137   4.549
 3973SOL    HW212819   3.128   4.043   4.437
 3974SOL     OW12820   6.756   0.773   6.300
 3974SOL    HW112821   6.665   0.747   6.266
 3974SOL    HW212822   6.825   0.755   6.230
 3975SOL     OW12823   6.473   1.522   6.413
 3975SOL    HW112824   6.430   1.609   6.437
 3975SOL    HW212825   6.464   1.506   6.315
 3976SOL     OW12826   1.306   3.954   0.810
 3976SOL    HW112827   1.260   3.868   0.833
 3976SOL    HW212828   1.369   3.937   0.734
 3977SOL     OW12829   2.708   6.316   6.359
 3977SOL    HW112830   2.804   6.317   6.330
 3977SOL    HW212831   2.702   6.286   6.454
 3978SOL     OW12832   5.885   1.977   5.747
 3978SOL    HW112833   5.824   2.036   5.694
 3978SOL    HW212834   5.949   2.033   5.801
 3979SOL     OW12835   0.941   6.965   2.037
 3979SOL    HW112836   1.031   7.009   2.039
 3979SOL    HW212837   0.940   6.887   2.099
 3980SOL     OW12838   4.929   3.229   4.406
 3980SOL    HW112839   4.920   3.326   4.430
 3980SOL    HW212840   4.915   3.173   4.487
 3981SOL     OW12841   6.652   1.936   0.635
 3981SOL    HW112842   6.628   1.902   0.545
 3981SOL    HW212843   6.733   1.994   0.628
 3982SOL     OW12844   2.732   2.004   3.976
 3982SOL    HW112845   2.811   2.064   3.986
 3982SOL    HW212846   2.714   1.958   4.063
 3983SOL     OW12847   3.142   6.634   3.929
 3983SOL    HW112848   3.138   6.707   3.997
 3983SOL    HW212849   3.138   6.545   3.974
 3984SOL     OW12850   1.730   6.402   1.933
 3984SOL    HW112851   1.776   6.435   2.015
 3984SOL    HW212852   1.715   6.479   1.870
 3985SOL     OW12853   2.413   3.381   0.577
 3985SOL    HW112854   2.499   3.338   0.602
 3985SOL    HW212855   2.349   3.311   0.543
 3986SOL     OW12856   0.139   1.834   1.462
 3986SOL    HW112857   0.081   1.759   1.492
 3986SOL    HW212858   0.115   1.918   1.511
 3987SOL     OW12859   2.014   4.961   6.371
 3987SOL    HW112860   2.087   4.970   6.438
 3987SOL    HW212861   1.975   4.869   6.376
 3988SOL     OW12862   4.145   2.934   0.458
 3988SOL    HW112863   4.211   2.864   0.432
 3988SOL    HW212864   4.103   2.909   0.546
 3989SOL     OW12865   6.252   6.660   0.113
 3989SOL    HW112866   6.208   6.689   0.028
 3989SOL    HW212867   6.186   6.611   0.170
 3990SOL     OW12868   0.829   2.844   4.054
 3990SOL    HW112869   0.816   2.943   4.050
 3990SOL    HW212870   0.742   2.798   4.035
 3991SOL     OW12871   0.773   2.308   3.605
 3991SOL    HW112872   0.698   2.244   3.591
 3991SOL    HW212873   0.844   2.292   3.537
 3992SOL     OW12874   4.448   3.640   6.471
 3992SOL    HW112875   4.382   3.695   6.523
 3992SOL    HW212876   4.436   3.656   6.373
 3993SOL     OW12877   3.137   2.165   2.716
 3993SOL    HW112878   3.140   2.147   2.617
 3993SOL    HW212879   3.043   2.185   2.743
 3994SOL     OW12880   2.514   2.592   3.956
 3994SOL    HW112881   2.573   2.663   3.917
 3994SOL    HW212882   2.518   2.597   4.056
 3995SOL     OW12883   2.251   4.366   3.694
 3995SOL    HW112884   2.155   4.343   3.714
 3995SOL    HW212885   2.271   4.346   3.598
 3996SOL     OW12886   0.862   0.787   3.681
 3996SOL    HW112887   0.770   0.753   3.695
 3996SOL    HW212888   0.886   0.849   3.757
 3997SOL     OW12889   5.260   3.803   3.023
 3997SOL    HW112890   5.308   3.884   2.990
 3997SOL    HW212891   5.200   3.768   2.951
 3998SOL     OW12892   6.538   2.136   2.925
 3998SOL    HW112893   6.581   2.069   2.863
 3998SOL    HW212894   6.443   2.150   2.898
 3999SOL     OW12895   5.977   3.703   2.583
 3999SOL    HW112896   5.924   3.697   2.667
 3999SOL    HW212897   5.981   3.798   2.553
 4000SOL     OW12898   2.712   5.433   2.576
 4000SOL    HW112899   2.650   5.451   2.652
 4000SOL    HW212900   2.770   5.354   2.598
 4001SOL     OW12901   2.636   3.832   5.644
 4001SOL    HW112902   2.554   3.776   5.657
 4001SOL    HW212903   2.663   3.831   5.548
 4002SOL     OW12904   3.874   3.188   4.838
 4002SOL    HW112905   3.810   3.171   4.763
 4002SOL    HW212906   3.964   3.209   4.800
 4003SOL     OW12907   2.993   1.389   6.249
 4003SOL    HW112908   3.083   1.409   6.209
 4003SOL    HW212909   2.992   1.422   6.344
 4004SOL     OW12910   6.966   3.586   2.924
 4004SOL    HW112911   6.928   3.566   3.015
 4004SOL    HW212912   6.993   3.683   2.921
 4005SOL     OW12913   4.336   3.759   0.673
 4005SOL    HW112914   4.239   3.738   0.688
 4005SOL    HW212915   4.360   3.844   0.719
 4006SOL     OW12916   5.067   5.321   2.220
 4006SOL    HW112917   4.969   5.337   2.222
 4006SOL    HW212918   5.109   5.359   2.303
 4007SOL     OW12919   0.756   1.962   3.007
 4007SOL    HW112920   0.660   1.991   3.015
 4007SOL    HW212921   0.809   2.005   3.080
 4008SOL     OW12922   2.801   0.297   0.066
 4008SOL    HW112923   2.753   0.384   0.083
 4008SOL    HW212924   2.847   0.267   0.150
 4009SOL     OW12925   5.066   1.381   1.193
 4009SOL    HW112926   5.042   1.285   1.178
 4009SOL    HW212927   4.992   1.426   1.243
 4010SOL     OW12928   3.965   4.694   1.295
 4010SOL    HW112929   3.872   4.688   1.257
 4010SOL    HW212930   4.028   4.720   1.222
 4011SOL     OW12931   6.879   5.956   0.870
 4011SOL    HW112932   6.977   5.966   0.887
 4011SOL    HW212933   6.857   5.858   0.863
 4012SOL     OW12934   4.373   0.093   2.097
 4012SOL    HW112935   4.455   0.136   2.136
 4012SOL    HW212936   4.399   0.038   2.017
 4013SOL     OW12937   1.542   0.369   0.636
 4013SOL    HW112938   1.477   0.382   0.710
 4013SOL    HW212939   1.497   0.323   0.559
 4014SOL     OW12940   3.452   6.147   3.763
 4014SOL    HW112941   3.436   6.194   3.676
 4014SOL    HW212942   3.368   6.101   3.791
 4015SOL     OW12943   4.420   4.865   6.110
 4015SOL    HW112944   4.342   4.810   6.141
 4015SOL    HW212945   4.398   4.907   6.022
 4016SOL     OW12946   3.003   5.337   0.098
 4016SOL    HW112947   3.056   5.411   0.138
 4016SOL    HW212948   2.936   5.374   0.034
 4017SOL     OW12949   0.288   5.037   5.417
 4017SOL    HW112950   0.256   5.014   5.325
 4017SOL    HW212951   0.373   5.089   5.411
 4018SOL     OW12952   3.964   6.454   2.037
 4018SOL    HW112953   3.930   6.541   2.074
 4018SOL    HW212954   4.059   6.465   2.010
 4019SOL     OW12955   5.129   3.272   2.135
 4019SOL    HW112956   5.071   3.202   2.094
 4019SOL    HW212957   5.216   3.231   2.163
 4020SOL     OW12958   6.868   3.994   4.862
 4020SOL    HW112959   6.768   3.998   4.856
 4020SOL    HW212960   6.902   3.921   4.803
 4021SOL     OW12961   3.347   3.644   5.716
 4021SOL    HW112962   3.288   3.621   5.638
 4021SOL    HW212963   3.406   3.567   5.738
 4022SOL     OW12964   3.999   6.703   0.499
 4022SOL    HW112965   4.074   6.717   0.435
 4022SOL    HW212966   3.914   6.692   0.448
 4023SOL     OW12967   0.067   1.234   5.689
 4023SOL    HW112968   7.025   1.181   5.741
 4023SOL    HW212969   0.133   1.172   5.648
 4024SOL     OW12970   1.781   5.198   4.323
 4024SOL    HW112971   1.729   5.281   4.305
 4024SOL    HW212972   1.857   5.219   4.384
 4025SOL     OW12973   1.058   5.887   4.496
 4025SOL    HW112974   1.098   5.834   4.570
 4025SOL    HW212975   1.024   5.974   4.532
 4026SOL     OW12976   6.217   6.505   5.024
 4026SOL    HW112977   6.184   6.533   4.934
 4026SOL    HW212978   6.174   6.561   5.095
 4027SOL     OW12979   2.512   1.692   6.694
 4027SOL    HW112980   2.566   1.618   6.734
 4027SOL    HW212981   2.432   1.709   6.750
 4028SOL     OW12982   4.474   1.374   3.587
 4028SOL    HW112983   4.567   1.361   3.552
 4028SOL    HW212984   4.415   1.407   3.512
 4029SOL     OW12985   2.654   4.262   6.009
 4029SOL    HW112986   2.600   4.214   5.941
 4029SOL    HW212987   2.656   4.360   5.988
 4030SOL     OW12988   6.867   0.943   1.511
 4030SOL    HW112989   6.878   1.025   1.568
 4030SOL    HW212990   6.800   0.961   1.439
 4031SOL     OW12991   5.307   6.978   2.984
 4031SOL    HW112992   5.271   6.981   3.077
 4031SOL    HW212993   5.377   6.907   2.978
 4032SOL     OW12994   0.193   0.321   2.767
 4032SOL    HW112995   0.220   0.245   2.825
 4032SOL    HW212996   0.212   0.408   2.814
 4033SOL     OW12997   2.546   2.094   2.553
 4033SOL    HW112998   2.550   2.099   2.652
 4033SOL    HW212999   2.617   2.031   2.520
 4034SOL     OW13000   5.985   1.919   5.473
 4034SOL    HW113001   6.003   1.920   5.572
 4034SOL    HW213002   6.022   2.003   5.433
 4035SOL     OW13003   6.584   1.465   1.470
 4035SOL    HW113004   6.596   1.461   1.569
 4035SOL    HW213005   6.516   1.534   1.447
 4036SOL     OW13006   4.087   4.872   2.267
 4036SOL    HW113007   4.004   4.873   2.322
 4036SOL    HW213008   4.167   4.880   2.327
 4037SOL     OW13009   2.347   1.537   5.962
 4037SOL    HW113010   2.353   1.620   6.017
 4037SOL    HW213011   2.436   1.518   5.920
 4038SOL     OW13012   4.912   2.964   0.043
 4038SOL    HW113013   4.837   2.992   7.008
 4038SOL    HW213014   4.894   2.998   0.136
 4039SOL     OW13015   4.511   5.625   1.635
 4039SOL    HW113016   4.423   5.671   1.646
 4039SOL    HW213017   4.584   5.686   1.667
 4040SOL     OW13018   2.788   5.952   4.524
 4040SOL    HW113019   2.715   5.973   4.459
 4040SOL    HW213020   2.876   5.984   4.487
 4041SOL     OW13021   2.324   6.434   1.001
 4041SOL    HW113022   2.252   6.478   0.947
 4041SOL    HW213023   2.413   6.466   0.969
 4042SOL     OW13024   6.080   6.265   3.649
 4042SOL    HW113025   6.008   6.329   3.624
 4042SOL    HW213026   6.128   6.298   3.730
 4043SOL     OW13027   6.777   2.082   6.657
 4043SOL    HW113028   6.775   2.070   6.756
 4043SOL    HW213029   6.872   2.088   6.626
 4044SOL     OW13030   5.321   5.565   2.974
 4044SOL    HW113031   5.395   5.555   2.907
 4044SOL    HW213032   5.357   5.554   3.066
 4045SOL     OW13033   4.083   6.352   5.701
 4045SOL    HW113034   4.024   6.433   5.702
 4045SOL    HW213035   4.029   6.271   5.727
 4046SOL     OW13036   1.050   2.042   2.559
 4046SOL    HW113037   0.982   2.007   2.624
 4046SOL    HW213038   1.132   2.072   2.610
 4047SOL     OW13039   2.073   2.595   6.853
 4047SOL    HW113040   2.043   2.513   6.805
 4047SOL    HW213041   2.077   2.577   6.951
 4048SOL     OW13042   5.493   1.234   2.028
 4048SOL    HW113043   5.482   1.330   2.051
 4048SOL    HW213044   5.584   1.203   2.056
 4049SOL     OW13045   4.689   5.795   6.517
 4049SOL    HW113046   4.724   5.804   6.611
 4049SOL    HW213047   4.592   5.820   6.515
 4050SOL     OW13048   0.837   6.264   1.678
 4050SOL    HW113049   0.818   6.347   1.624
 4050SOL    HW213050   0.846   6.288   1.774
 4051SOL     OW13051   4.712   1.208   6.633
 4051SOL    HW113052   4.735   1.304   6.618
 4051SOL    HW213053   4.688   1.166   6.546
 4052SOL     OW13054   5.720   2.336   3.220
 4052SOL    HW113055   5.777   2.340   3.302
 4052SOL    HW213056   5.777   2.351   3.139
 4053SOL     OW13057   2.412   6.317   4.393
 4053SOL    HW113058   2.438   6.332   4.489
 4053SOL    HW213059   2.495   6.309   4.337
 4054SOL     OW13060   5.224   4.061   0.758
 4054SOL    HW113061   5.158   4.016   0.818
 4054SOL    HW213062   5.280   3.991   0.712
 4055SOL     OW13063   2.498   4.375   0.983
 4055SOL    HW113064   2.577   4.396   1.041
 4055SOL    HW213065   2.453   4.459   0.956
 4056SOL     OW13066   5.797   3.607   1.126
 4056SOL    HW113067   5.768   3.520   1.087
 4056SOL    HW213068   5.735   3.680   1.097
 4057SOL     OW13069   0.046   2.911   0.157
 4057SOL    HW113070   0.018   2.872   0.069
 4057SOL    HW213071   0.024   2.847   0.231
 4058SOL     OW13072   3.271   6.616   4.705
 4058SOL    HW113073   3.194   6.679   4.699
 4058SOL    HW213074   3.344   6.658   4.760
 4059SOL     OW13075   6.882   2.007   3.108
 4059SOL    HW113076   6.783   1.996   3.120
 4059SOL    HW213077   6.930   1.946   3.171
 4060SOL     OW13078   5.358   4.775   5.757
 4060SOL    HW113079   5.442   4.764   5.704
 4060SOL    HW213080   5.297   4.838   5.708
 4061SOL     OW13081   2.757   4.784   2.722
 4061SOL    HW113082   2.706   4.745   2.645
 4061SOL    HW213083   2.711   4.759   2.808
 4062SOL     OW13084   2.526   0.222   2.462
 4062SOL    HW113085   2.613   0.184   2.495
 4062SOL    HW213086   2.540   0.316   2.432
 4063SOL     OW13087   6.135   0.188   0.643
 4063SOL    HW113088   6.202   0.256   0.615
 4063SOL    HW213089   6.178   0.097   0.644
 4064SOL     OW13090   2.683   1.666   4.356
 4064SOL    HW113091   2.600   1.614   4.373
 4064SOL    HW213092   2.711   1.714   4.439
 4065SOL     OW13093   1.129   7.013   1.511
 4065SOL    HW113094   1.135   0.087   1.498
 4065SOL    HW213095   1.084   6.972   1.431
 4066SOL     OW13096   6.607   4.748   2.990
 4066SOL    HW113097   6.624   4.674   2.925
 4066SOL    HW213098   6.683   4.753   3.055
 4067SOL     OW13099   5.648   4.102   3.284
 4067SOL    HW113100   5.567   4.096   3.225
 4067SOL    HW213101   5.632   4.171   3.355
 4068SOL     OW13102   2.348   2.230   4.676
 4068SOL    HW113103   2.310   2.317   4.706
 4068SOL    HW213104   2.275   2.164   4.664
 4069SOL     OW13105   4.019   5.173   6.857
 4069SOL    HW113106   3.963   5.137   6.783
 4069SOL    HW213107   4.055   5.263   6.830
 4070SOL     OW13108   0.646   2.444   2.947
 4070SOL    HW113109   0.601   2.496   3.020
 4070SOL    HW213110   0.692   2.507   2.885
 4071SOL     OW13111   1.271   1.597   4.796
 4071SOL    HW113112   1.258   1.554   4.885
 4071SOL    HW213113   1.204   1.561   4.731
 4072SOL     OW13114   0.812   5.668   4.722
 4072SOL    HW113115   0.746   5.628   4.658
 4072SOL    HW213116   0.800   5.767   4.723
 4073SOL     OW13117   2.578   6.007   6.039
 4073SOL    HW113118   2.636   6.000   5.957
 4073SOL    HW213119   2.588   6.098   6.079
 4074SOL     OW13120   0.426   4.554   1.381
 4074SOL    HW113121   0.524   4.541   1.374
 4074SOL    HW213122   0.405   4.652   1.383
 4075SOL     OW13123   4.833   1.999   1.166
 4075SOL    HW113124   4.796   1.999   1.259
 4075SOL    HW213125   4.760   2.019   1.101
 4076SOL     OW13126   2.317   3.133   6.655
 4076SOL    HW113127   2.283   3.210   6.602
 4076SOL    HW213128   2.274   3.132   6.745
 4077SOL     OW13129   4.189   2.215   0.145
 4077SOL    HW113130   4.148   2.183   0.060
 4077SOL    HW213131   4.186   2.141   0.213
 4078SOL     OW13132   2.478   5.098   2.361
 4078SOL    HW113133   2.389   5.097   2.315
 4078SOL    HW213134   2.537   5.165   2.316
 4079SOL     OW13135   2.057   1.318   3.300
 4079SOL    HW113136   2.155   1.317   3.320
 4079SOL    HW213137   2.041   1.368   3.215
 4080SOL     OW13138   4.919   2.660   6.502
 4080SOL    HW113139   4.998   2.688   6.448
 4080SOL    HW213140   4.939   2.676   6.599
 4081SOL     OW13141   1.437   2.814   3.661
 4081SOL    HW113142   1.505   2.771   3.601
 4081SOL    HW213143   1.438   2.913   3.647
 4082SOL     OW13144   1.039   4.292   0.702
 4082SOL    HW113145   0.955   4.264   0.655
 4082SOL    HW213146   1.118   4.278   0.642
 4083SOL     OW13147   6.408   3.459   2.601
 4083SOL    HW113148   6.333   3.474   2.537
 4083SOL    HW213149   6.492   3.497   2.564
 4084SOL     OW13150   5.638   2.461   3.925
 4084SOL    HW113151   5.703   2.464   4.001
 4084SOL    HW213152   5.599   2.552   3.910
 4085SOL     OW13153   3.319   5.249   1.069
 4085SOL    HW113154   3.219   5.252   1.068
 4085SOL    HW213155   3.353   5.289   1.154
 4086SOL     OW13156   2.099   5.554   1.711
 4086SOL    HW113157   2.066   5.460   1.703
 4086SOL    HW213158   2.099   5.581   1.808
 4087SOL     OW13159   3.144   2.189   3.428
 4087SOL    HW113160   3.080   2.232   3.363
 4087SOL    HW213161   3.202   2.124   3.380
 4088SOL     OW13162   0.662   2.157   0.697
 4088SOL    HW113163   0.580   2.114   0.661
 4088SOL    HW213164   0.676   2.127   0.791
 4089SOL     OW13165   6.151   6.322   3.925
 4089SOL    HW113166   6.060   6.346   3.958
 4089SOL    HW213167   6.212   6.400   3.936
 4090SOL     OW13168   1.895   4.229   6.187
 4090SOL    HW113169   1.862   4.297   6.121
 4090SOL    HW213170   1.817   4.193   6.238
 4091SOL     OW13171   6.437   6.330   0.441
 4091SOL    HW113172   6.407   6.263   0.373
 4091SOL    HW213173   6.420   6.295   0.533
 4092SOL     OW13174   6.484   3.248   5.196
 4092SOL    HW113175   6.517   3.153   5.191
 4092SOL    HW213176   6.401   3.251   5.250
 4093SOL     OW13177   4.493   0.424   3.304
 4093SOL    HW113178   4.410   0.407   3.359
 4093SOL    HW213179   4.480   0.387   3.212
 4094SOL     OW13180   2.308   5.901   4.581
 4094SOL    HW113181   2.390   5.843   4.576
 4094SOL    HW213182   2.226   5.844   4.571
 4095SOL     OW13183   0.863   3.493   7.002
 4095SOL    HW113184   0.926   3.473   6.927
 4095SOL    HW213185   0.863   3.592   7.020
 4096SOL     OW13186   4.542   5.491   0.678
 4096SOL    HW113187   4.623   5.486   0.619
 4096SOL    HW213188   4.541   5.579   0.724
 4097SOL     OW13189   3.770   4.287   6.221
 4097SOL    HW113190   3.815   4.354   6.162
 4097SOL    HW213191   3.734   4.212   6.166
 4098SOL     OW13192   0.828   3.228   1.675
 4098SOL    HW113193   0.856   3.230   1.771
 4098SOL    HW213194   0.738   3.184   1.667
 4099SOL     OW13195   2.913   4.618   1.043
 4099SOL    HW113196   2.863   4.533   1.059
 4099SOL    HW213197   2.855   4.696   1.065
 4100SOL     OW13198   6.447   5.689   5.049
 4100SOL    HW113199   6.471   5.711   5.143
 4100SOL    HW213200   6.509   5.619   5.014
 4101SOL     OW13201   5.921   0.832   0.555
 4101SOL    HW113202   5.982   0.898   0.600
 4101SOL    HW213203   5.828   0.867   0.557
 4102SOL     OW13204   6.535   0.704   0.855
 4102SOL    HW113205   6.589   0.748   0.926
 4102SOL    HW213206   6.587   0.630   0.814
 4103SOL     OW13207   0.459   0.784   1.003
 4103SOL    HW113208   0.445   0.786   1.102
 4103SOL    HW213209   0.550   0.750   0.982
 4104SOL     OW13210   0.776   5.074   2.254
 4104SOL    HW113211   0.779   4.996   2.192
 4104SOL    HW213212   0.850   5.137   2.232
 4105SOL     OW13213   3.794   5.768   1.199
 4105SOL    HW113214   3.828   5.743   1.289
 4105SOL    HW213215   3.805   5.866   1.185
 4106SOL     OW13216   6.837   1.989   4.450
 4106SOL    HW113217   6.909   1.991   4.380
 4106SOL    HW213218   6.806   2.083   4.468
 4107SOL     OW13219   1.922   6.312   0.964
 4107SOL    HW113220   1.850   6.243   0.966
 4107SOL    HW213221   2.009   6.271   0.991
 4108SOL     OW13222   0.267   4.268   5.948
 4108SOL    HW113223   0.258   4.366   5.961
 4108SOL    HW213224   0.364   4.244   5.940
 4109SOL     OW13225   4.594   6.151   5.104
 4109SOL    HW113226   4.666   6.213   5.072
 4109SOL    HW213227   4.632   6.059   5.114
 4110SOL     OW13228   4.233   2.454   6.425
 4110SOL    HW113229   4.180   2.382   6.471
 4110SOL    HW213230   4.261   2.422   6.335
 4111SOL     OW13231   3.710   3.326   6.402
 4111SOL    HW113232   3.723   3.420   6.370
 4111SOL    HW213233   3.725   3.262   6.326
 4112SOL     OW13234   4.653   0.306   5.294
 4112SOL    HW113235   4.605   0.283   5.210
 4112SOL    HW213236   4.730   0.367   5.274
 4113SOL     OW13237   4.827   6.400   4.332
 4113SOL    HW113238   4.797   6.343   4.255
 4113SOL    HW213239   4.746   6.431   4.383
 4114SOL     OW13240   3.367   1.991   4.345
 4114SOL    HW113241   3.374   1.990   4.445
 4114SOL    HW213242   3.415   1.912   4.307
 4115SOL     OW13243   3.835   6.063   2.280
 4115SOL    HW113244   3.768   6.066   2.206
 4115SOL    HW213245   3.906   5.996   2.258
 4116SOL     OW13246   3.700   2.214   1.608
 4116SOL    HW113247   3.654   2.259   1.684
 4116SOL    HW213248   3.648   2.133   1.580
 4117SOL     OW13249   0.689   5.344   1.952
 4117SOL    HW113250   0.648   5.430   1.921
 4117SOL    HW213251   0.620   5.289   1.999
 4118SOL     OW13252   2.782   6.615   0.243
 4118SOL    HW113253   2.830   6.531   0.268
 4118SOL    HW213254   2.820   6.650   0.157
 4119SOL     OW13255   4.021   2.218   3.662
 4119SOL    HW113256   3.926   2.212   3.693
 4119SOL    HW213257   4.029   2.181   3.570
 4120SOL     OW13258   4.423   0.447   0.543
 4120SOL    HW113259   4.507   0.490   0.574
 4120SOL    HW213260   4.429   0.348   0.556
 4121SOL     OW13261   5.535   1.423   5.159
 4121SOL    HW113262   5.436   1.413   5.147
 4121SOL    HW213263   5.554   1.510   5.205
 4122SOL     OW13264   0.982   5.954   5.628
 4122SOL    HW113265   0.935   5.990   5.708
 4122SOL    HW213266   0.932   5.874   5.593
 4123SOL     OW13267   4.494   4.663   5.777
 4123SOL    HW113268   4.476   4.753   5.738
 4123SOL    HW213269   4.574   4.668   5.837
 4124SOL     OW13270   6.328   5.007   6.318
 4124SOL    HW113271   6.256   5.013   6.388
 4124SOL    HW213272   6.300   5.058   6.237
 4125SOL     OW13273   4.848   1.515   2.377
 4125SOL    HW113274   4.936   1.506   2.330
 4125SOL    HW213275   4.857   1.579   2.453
 4126SOL     OW13276   1.021   3.747   3.650
 4126SOL    HW113277   0.961   3.804   3.593
 4126SOL    HW213278   1.113   3.747   3.612
 4127SOL     OW13279   4.658   4.341   4.964
 4127SOL    HW113280   4.566   4.375   4.981
 4127SOL    HW213281   4.660   4.289   4.879
 4128SOL     OW13282   1.713   3.311   1.879
 4128SOL    HW113283   1.657   3.234   1.848
 4128SOL    HW213284   1.785   3.277   1.940
 4129SOL     OW13285   4.961   1.475   6.863
 4129SOL    HW113286   4.908   1.430   6.934
 4129SOL    HW213287   5.046   1.511   6.902
 4130SOL     OW13288   0.229   2.928   5.690
 4130SOL    HW113289   0.306   2.977   5.651
 4130SOL    HW213290   0.147   2.986   5.686
 4131SOL     OW13291   1.385   5.944   4.115
 4131SOL    HW113292   1.325   5.897   4.180
 4131SOL    HW213293   1.354   5.926   4.022
 4132SOL     OW13294   5.016   4.405   3.574
 4132SOL    HW113295   4.935   4.348   3.557
 4132SOL    HW213296   4.991   4.501   3.561
 4133SOL     OW13297   2.927   6.809   1.607
 4133SOL    HW113298   2.832   6.835   1.623
 4133SOL    HW213299   2.938   6.778   1.512
 4134SOL     OW13300   1.928   2.666   0.563
 4134SOL    HW113301   1.973   2.621   0.640
 4134SOL    HW213302   1.863   2.734   0.597
 4135SOL     OW13303   2.133   1.245   2.302
 4135SOL    HW113304   2.164   1.238   2.207
 4135SOL    HW213305   2.186   1.183   2.359
 4136SOL     OW13306   1.775   2.013   2.572
 4136SOL    HW113307   1.743   1.933   2.522
 4136SOL    HW213308   1.811   1.985   2.661
 4137SOL     OW13309   1.610   4.508   0.992
 4137SOL    HW113310   1.614   4.424   1.044
 4137SOL    HW213311   1.536   4.502   0.925
 4138SOL     OW13312   3.855   5.310   3.013
 4138SOL    HW113313   3.841   5.212   2.998
 4138SOL    HW213314   3.906   5.324   3.098
 4139SOL     OW13315   2.626   2.226   4.855
 4139SOL    HW113316   2.724   2.245   4.863
 4139SOL    HW213317   2.588   2.279   4.779
 4140SOL     OW13318   3.136   0.689   5.151
 4140SOL    HW113319   3.069   0.707   5.079
 4140SOL    HW213320   3.165   0.775   5.192
 4141SOL     OW13321   5.264   6.657   1.774
 4141SOL    HW113322   5.279   6.587   1.704
 4141SOL    HW213323   5.175   6.700   1.760
 4142SOL     OW13324   6.476   5.652   0.759
 4142SOL    HW113325   6.494   5.709   0.679
 4142SOL    HW213326   6.377   5.638   0.769
 4143SOL     OW13327   0.318   2.917   0.319
 4143SOL    HW113328   0.328   2.868   0.232
 4143SOL    HW213329   0.345   3.013   0.307
 4144SOL     OW13330   5.062   3.357   6.648
 4144SOL    HW113331   4.982   3.387   6.596
 4144SOL    HW213332   5.051   3.261   6.675
 4145SOL     OW13333   6.981   5.855   1.435
 4145SOL    HW113334   6.888   5.826   1.413
 4145SOL    HW213335   6.986   5.955   1.432
 4146SOL     OW13336   0.217   1.026   5.981
 4146SOL    HW113337   0.224   1.122   5.953
 4146SOL    HW213338   0.308   0.984   5.981
 4147SOL     OW13339   4.353   2.216   5.695
 4147SOL    HW113340   4.337   2.162   5.613
 4147SOL    HW213341   4.291   2.187   5.767
 4148SOL     OW13342   1.046   0.049   4.179
 4148SOL    HW113343   0.980   0.015   4.246
 4148SOL    HW213344   1.016   0.138   4.145
 4149SOL     OW13345   0.517   2.528   0.505
 4149SOL    HW113346   0.509   2.456   0.574
 4149SOL    HW213347   0.462   2.607   0.533
 4150SOL     OW13348   0.269   1.035   5.602
 4150SOL    HW113349   0.237   0.941   5.590
 4150SOL    HW213350   0.354   1.047   5.550
 4151SOL     OW13351   4.342   6.569   6.288
 4151SOL    HW113352   4.346   6.485   6.341
 4151SOL    HW213353   4.380   6.644   6.342
 4152SOL     OW13354   3.086   6.295   0.679
 4152SOL    HW113355   3.161   6.274   0.616
 4152SOL    HW213356   3.112   6.371   0.738
 4153SOL     OW13357   4.373   5.184   6.726
 4153SOL    HW113358   4.415   5.184   6.635
 4153SOL    HW213359   4.443   5.204   6.795
 4154SOL     OW13360   0.155   4.349   4.958
 4154SOL    HW113361   0.114   4.440   4.959
 4154SOL    HW213362   0.129   4.301   4.874
 4155SOL     OW13363   6.296   2.033   3.197
 4155SOL    HW113364   6.251   2.027   3.286
 4155SOL    HW213365   6.288   1.945   3.151
 4156SOL     OW13366   5.440   6.532   5.108
 4156SOL    HW113367   5.351   6.573   5.088
 4156SOL    HW213368   5.447   6.442   5.065
 4157SOL     OW13369   4.318   6.846   3.604
 4157SOL    HW113370   4.387   6.912   3.634
 4157SOL    HW213371   4.314   6.770   3.668
 4158SOL     OW13372   1.596   5.404   4.246
 4158SOL    HW113373   1.610   5.425   4.149
 4158SOL    HW213374   1.594   5.489   4.298
 4159SOL     OW13375   1.973   3.006   3.764
 4159SOL    HW113376   1.935   2.926   3.718
 4159SOL    HW213377   1.909   3.036   3.836
 4160SOL     OW13378   0.066   0.879   0.992
 4160SOL    HW113379   0.079   0.793   1.043
 4160SOL    HW213380   0.016   0.944   1.049
 4161SOL     OW13381   1.746   6.686   6.272
 4161SOL    HW113382   1.657   6.640   6.274
 4161SOL    HW213383   1.782   6.685   6.179
 4162SOL     OW13384   6.117   6.433   5.513
 4162SOL    HW113385   6.049   6.375   5.467
 4162SOL    HW213386   6.194   6.448   5.451
 4163SOL     OW13387   6.046   0.215   3.411
 4163SOL    HW113388   6.125   0.176   3.458
 4163SOL    HW213389   5.978   0.144   3.393
 4164SOL     OW13390   0.992   6.835   6.199
 4164SOL    HW113391   0.937   6.840   6.282
 4164SOL    HW213392   1.070   6.775   6.214
 4165SOL     OW13393   4.664   0.132   0.226
 4165SOL    HW113394   4.671   0.194   0.148
 4165SOL    HW213395   4.719   0.166   0.301
 4166SOL     OW13396   6.005   3.341   1.190
 4166SOL    HW113397   6.004   3.260   1.248
 4166SOL    HW213398   6.001   3.423   1.247
 4167SOL     OW13399   1.849   4.213   0.361
 4167SOL    HW113400   1.883   4.187   0.451
 4167SOL    HW213401   1.810   4.304   0.364
 4168SOL     OW13402   0.209   5.392   1.434
 4168SOL    HW113403   0.233   5.409   1.338
 4168SOL    HW213404   0.174   5.476   1.475
 4169SOL     OW13405   5.928   3.348   3.560
 4169SOL    HW113406   5.911   3.355   3.462
 4169SOL    HW213407   5.848   3.308   3.605
 4170SOL     OW13408   2.869   3.181   5.181
 4170SOL    HW113409   2.773   3.191   5.207
 4170SOL    HW213410   2.887   3.085   5.157
 4171SOL     OW13411   5.512   4.602   1.580
 4171SOL    HW113412   5.473   4.669   1.516
 4171SOL    HW213413   5.558   4.530   1.528
 4172SOL     OW13414   0.197   1.927   6.545
 4172SOL    HW113415   0.172   1.951   6.451
 4172SOL    HW213416   0.148   1.845   6.573
 4173SOL     OW13417   6.026   3.166   4.940
 4173SOL    HW113418   6.004   3.185   4.845
 4173SOL    HW213419   5.951   3.115   4.982
 4174SOL     OW13420   5.529   0.522   4.403
 4174SOL    HW113421   5.447   0.544   4.457
 4174SOL    HW213422   5.525   0.572   4.316
 4175SOL     OW13423   2.896   6.045   3.982
 4175SOL    HW113424   2.835   6.120   4.006
 4175SOL    HW213425   2.902   5.981   4.059
 4176SOL     OW13426   2.498   6.570   1.864
 4176SOL    HW113427   2.444   6.485   1.856
 4176SOL    HW213428   2.521   6.585   1.960
 4177SOL     OW13429   6.836   4.613   4.927
 4177SOL    HW113430   6.861   4.543   4.993
 4177SOL    HW213431   6.914   4.635   4.869
 4178SOL     OW13432   4.207   0.715   4.293
 4178SOL    HW113433   4.171   0.626   4.319
 4178SOL    HW213434   4.196   0.728   4.195
 4179SOL     OW13435   5.476   3.127   3.997
 4179SOL    HW113436   5.433   3.038   4.011
 4179SOL    HW213437   5.411   3.200   4.018
 4180SOL     OW13438   5.493   3.275   1.998
 4180SOL    HW113439   5.522   3.366   1.969
 4180SOL    HW213440   5.550   3.206   1.953
 4181SOL     OW13441   1.980   2.378   5.992
 4181SOL    HW113442   1.998   2.372   5.894
 4181SOL    HW213443   1.964   2.473   6.018
 4182SOL     OW13444   0.569   6.349   2.655
 4182SOL    HW113445   0.602   6.433   2.698
 4182SOL    HW213446   0.475   6.361   2.624
 4183SOL     OW13447   3.509   0.805   1.355
 4183SOL    HW113448   3.480   0.712   1.333
 4183SOL    HW213449   3.560   0.805   1.441
 4184SOL     OW13450   4.620   5.160   1.096
 4184SOL    HW113451   4.576   5.214   1.024
 4184SOL    HW213452   4.623   5.064   1.069
 4185SOL     OW13453   0.684   5.445   2.782
 4185SOL    HW113454   0.670   5.538   2.750
 4185SOL    HW213455   0.624   5.426   2.859
 4186SOL     OW13456   1.476   4.401   0.333
 4186SOL    HW113457   1.575   4.411   0.342
 4186SOL    HW213458   1.430   4.454   0.404
 4187SOL     OW13459   3.811   3.111   5.862
 4187SOL    HW113460   3.764   3.193   5.828
 4187SOL    HW213461   3.887   3.089   5.802
 4188SOL     OW13462   4.831   6.671   3.938
 4188SOL    HW113463   4.901   6.681   4.008
 4188SOL    HW213464   4.786   6.582   3.948
 4189SOL     OW13465   2.979   1.163   4.732
 4189SOL    HW113466   2.924   1.211   4.800
 4189SOL    HW213467   3.001   1.225   4.656
 4190SOL     OW13468   1.933   7.001   6.546
 4190SOL    HW113469   2.019   7.003   6.495
 4190SOL    HW213470   1.908   6.906   6.564
 4191SOL     OW13471   5.522   3.702   2.902
 4191SOL    HW113472   5.493   3.647   2.981
 4191SOL    HW213473   5.568   3.785   2.933
 4192SOL     OW13474   6.506   0.910   3.899
 4192SOL    HW113475   6.543   0.975   3.833
 4192SOL    HW213476   6.409   0.927   3.912
 4193SOL     OW13477   2.066   6.549   1.571
 4193SOL    HW113478   2.039   6.561   1.476
 4193SOL    HW213479   2.003   6.600   1.630
 4194SOL     OW13480   6.516   1.670   5.446
 4194SOL    HW113481   6.486   1.586   5.399
 4194SOL    HW213482   6.464   1.748   5.410
 4195SOL     OW13483   3.185   0.390   1.427
 4195SOL    HW113484   3.105   0.398   1.487
 4195SOL    HW213485   3.179   0.304   1.376
 4196SOL     OW13486   6.380   1.917   3.952
 4196SOL    HW113487   6.459   1.973   3.929
 4196SOL    HW213488   6.411   1.829   3.988
 4197SOL     OW13489   4.468   4.849   4.153
 4197SOL    HW113490   4.501   4.819   4.063
 4197SOL    HW213491   4.545   4.854   4.217
 4198SOL     OW13492   6.212   3.826   6.799
 4198SOL    HW113493   6.206   3.762   6.722
 4198SOL    HW213494   6.190   3.778   6.884
 4199SOL     OW13495   1.758   3.577   6.376
 4199SOL    HW113496   1.832   3.531   6.425
 4199SOL    HW213497   1.743   3.532   6.288
 4200SOL     OW13498   2.796   6.889   5.174
 4200SOL    HW113499   2.805   6.802   5.125
 4200SOL    HW213500   2.813   6.873   5.271
 4201SOL     OW13501   5.533   6.550   4.228
 4201SOL    HW113502   5.552   6.557   4.130
 4201SOL    HW213503   5.618   6.559   4.279
 4202SOL     OW13504   4.137   5.395   5.834
 4202SOL    HW113505   4.171   5.468   5.775
 4202SOL    HW213506   4.043   5.372   5.809
 4203SOL     OW13507   4.145   5.790   2.274
 4203SOL    HW113508   4.080   5.837   2.215
 4203SOL    HW213509   4.232   5.779   2.225
 4204SOL     OW13510   3.622   2.788   2.073
 4204SOL    HW113511   3.632   2.693   2.100
 4204SOL    HW213512   3.551   2.832   2.128
 4205SOL     OW13513   3.514   5.342   4.303
 4205SOL    HW113514   3.421   5.369   4.329
 4205SOL    HW213515   3.510   5.260   4.247
 4206SOL     OW13516   5.260   1.180   5.856
 4206SOL    HW113517   5.173   1.229   5.853
 4206SOL    HW213518   5.243   1.081   5.847
 4207SOL     OW13519   2.179   1.658   1.646
 4207SOL    HW113520   2.228   1.719   1.585
 4207SOL    HW213521   2.234   1.577   1.664
 4208SOL     OW13522   1.608   2.389   0.392
 4208SOL    HW113523   1.625   2.296   0.425
 4208SOL    HW213524   1.523   2.390   0.339
 4209SOL     OW13525   0.987   1.385   4.893
 4209SOL    HW113526   0.984   1.366   4.795
 4209SOL    HW213527   0.948   1.475   4.911
 4210SOL     OW13528   3.206   3.335   1.951
 4210SOL    HW113529   3.242   3.310   1.862
 4210SOL    HW213530   3.213   3.434   1.964
 4211SOL     OW13531   4.811   6.045   6.053
 4211SOL    HW113532   4.801   6.020   6.149
 4211SOL    HW213533   4.737   6.003   6.000
 4212SOL     OW13534   6.195   2.161   2.167
 4212SOL    HW113535   6.152   2.168   2.077
 4212SOL    HW213536   6.247   2.245   2.186
 4213SOL     OW13537   2.198   1.086   2.534
 4213SOL    HW113538   2.271   1.103   2.601
 4213SOL    HW213539   2.163   0.994   2.547
 4214SOL     OW13540   6.774   4.095   6.029
 4214SOL    HW113541   6.870   4.117   6.015
 4214SOL    HW213542   6.746   4.121   6.121
 4215SOL     OW13543   6.890   5.839   5.160
 4215SOL    HW113544   6.868   5.785   5.242
 4215SOL    HW213545   6.859   5.933   5.173
 4216SOL     OW13546   1.615   2.262   3.195
 4216SOL    HW113547   1.537   2.204   3.173
 4216SOL    HW213548   1.654   2.233   3.282
 4217SOL     OW13549   6.322   0.476   3.287
 4217SOL    HW113550   6.400   0.537   3.299
 4217SOL    HW213551   6.317   0.444   3.193
 4218SOL     OW13552   5.374   0.276   1.766
 4218SOL    HW113553   5.385   0.368   1.802
 4218SOL    HW213554   5.429   0.212   1.819
 4219SOL     OW13555   2.794   4.824   5.204
 4219SOL    HW113556   2.811   4.726   5.206
 4219SOL    HW213557   2.867   4.869   5.153
 4220SOL     OW13558   6.139   3.364   3.285
 4220SOL    HW113559   6.221   3.418   3.267
 4220SOL    HW213560   6.164   3.278   3.330
 4221SOL     OW13561   6.581   5.817   6.235
 4221SOL    HW113562   6.499   5.866   6.265
 4221SOL    HW213563   6.650   5.884   6.204
 4222SOL     OW13564   5.837   2.211   2.047
 4222SOL    HW113565   5.780   2.288   2.074
 4222SOL    HW213566   5.883   2.232   1.960
 4223SOL     OW13567   3.600   2.894   4.067
 4223SOL    HW113568   3.529   2.931   4.128
 4223SOL    HW213569   3.595   2.794   4.068
 4224SOL     OW13570   5.006   3.276   4.131
 4224SOL    HW113571   4.929   3.220   4.099
 4224SOL    HW213572   5.029   3.249   4.225
 4225SOL     OW13573   5.108   0.835   5.251
 4225SOL    HW113574   5.064   0.921   5.278
 4225SOL    HW213575   5.124   0.780   5.333
 4226SOL     OW13576   2.143   0.289   3.460
 4226SOL    HW113577   2.097   0.325   3.379
 4226SOL    HW213578   2.103   0.201   3.485
 4227SOL     OW13579   3.205   4.177   6.343
 4227SOL    HW113580   3.280   4.132   6.392
 4227SOL    HW213581   3.142   4.216   6.409
 4228SOL     OW13582   5.948   5.087   3.727
 4228SOL    HW113583   5.977   5.140   3.807
 4228SOL    HW213584   5.910   5.150   3.658
 4229SOL     OW13585   4.022   4.735   6.272
 4229SOL    HW113586   3.937   4.785   6.260
 4229SOL    HW213587   4.013   4.669   6.346
 4230SOL     OW13588   2.464   0.611   4.932
 4230SOL    HW113589   2.514   0.651   5.008
 4230SOL    HW213590   2.393   0.550   4.968
 4231SOL     OW13591   5.252   6.331   5.007
 4231SOL    HW113592   5.190   6.398   4.967
 4231SOL    HW213593   5.199   6.256   5.046
 4232SOL     OW13594   0.422   5.011   1.979
 4232SOL    HW113595   0.444   5.063   1.897
 4232SOL    HW213596   0.411   5.074   2.056
 4233SOL     OW13597   6.806   0.377   0.454
 4233SOL    HW113598   6.750   0.431   0.391
 4233SOL    HW213599   6.817   0.284   0.417
 4234SOL     OW13600   1.720   5.967   5.422
 4234SOL    HW113601   1.780   6.031   5.375
 4234SOL    HW213602   1.773   5.918   5.492
 4235SOL     OW13603   5.739   4.149   5.354
 4235SOL    HW113604   5.771   4.054   5.361
 4235SOL    HW213605   5.744   4.192   5.444
 4236SOL     OW13606   6.804   2.918   2.932
 4236SOL    HW113607   6.850   2.879   2.852
 4236SOL    HW213608   6.813   3.018   2.930
 4237SOL     OW13609   6.370   4.197   4.256
 4237SOL    HW113610   6.428   4.279   4.254
 4237SOL    HW213611   6.366   4.162   4.350
 4238SOL     OW13612   4.261   4.668   3.819
 4238SOL    HW113613   4.308   4.595   3.869
 4238SOL    HW213614   4.289   4.757   3.856
 4239SOL     OW13615   5.352   0.119   4.416
 4239SOL    HW113616   5.411   0.071   4.482
 4239SOL    HW213617   5.409   0.165   4.348
 4240SOL     OW13618   2.632   5.880   6.345
 4240SOL    HW113619   2.615   5.924   6.257
 4240SOL    HW213620   2.688   5.798   6.330
 4241SOL     OW13621   6.045   0.302   0.889
 4241SOL    HW113622   6.119   0.327   0.951
 4241SOL    HW213623   6.084   0.274   0.801
 4242SOL     OW13624   2.172   0.072   3.085
 4242SOL    HW113625   2.108   0.022   3.144
 4242SOL    HW213626   2.170   0.033   2.993
 4243SOL     OW13627   0.932   3.667   2.504
 4243SOL    HW113628   0.977   3.579   2.521
 4243SOL    HW213629   0.864   3.657   2.431
 4244SOL     OW13630   4.619   5.876   1.265
 4244SOL    HW113631   4.679   5.802   1.293
 4244SOL    HW213632   4.614   5.880   1.165
 4245SOL     OW13633   7.018   2.565   0.113
 4245SOL    HW113634   6.922   2.554   0.087
 4245SOL    HW213635   0.004   2.546   0.210
 4246SOL     OW13636   5.235   3.408   3.088
 4246SOL    HW113637   5.231   3.308   3.087
 4246SOL    HW213638   5.178   3.443   3.163
 4247SOL     OW13639   2.359   5.158   4.359
 4247SOL    HW113640   2.337   5.085   4.294
 4247SOL    HW213641   2.335   5.246   4.319
 4248SOL     OW13642   1.462   0.462   3.391
 4248SOL    HW113643   1.496   0.394   3.456
 4248SOL    HW213644   1.521   0.463   3.310
 4249SOL     OW13645   7.009   1.791   3.559
 4249SOL    HW113646   6.992   1.875   3.610
 4249SOL    HW213647   6.955   1.717   3.598
 4250SOL     OW13648   0.193   5.952   4.362
 4250SOL    HW113649   0.171   5.926   4.268
 4250SOL    HW213650   0.274   5.901   4.393
 4251SOL     OW13651   6.182   2.709   6.548
 4251SOL    HW113652   6.094   2.713   6.501
 4251SOL    HW213653   6.241   2.643   6.502
 4252SOL     OW13654   5.893   5.643   6.099
 4252SOL    HW113655   5.917   5.723   6.044
 4252SOL    HW213656   5.798   5.617   6.080
 4253SOL     OW13657   3.818   6.266   2.720
 4253SOL    HW113658   3.848   6.184   2.672
 4253SOL    HW213659   3.808   6.245   2.818
 4254SOL     OW13660   2.023   4.686   1.755
 4254SOL    HW113661   1.999   4.590   1.742
 4254SOL    HW213662   2.120   4.694   1.775
 4255SOL     OW13663   0.213   3.408   4.108
 4255SOL    HW113664   0.178   3.467   4.036
 4255SOL    HW213665   0.208   3.456   4.196
 4256SOL     OW13666   0.989   5.611   1.983
 4256SOL    HW113667   0.933   5.587   2.062
 4256SOL    HW213668   0.948   5.573   1.900
 4257SOL     OW13669   6.521   1.278   4.840
 4257SOL    HW113670   6.442   1.278   4.779
 4257SOL    HW213671   6.594   1.334   4.801
 4258SOL     OW13672   3.513   5.810   1.248
 4258SOL    HW113673   3.595   5.780   1.199
 4258SOL    HW213674   3.532   5.812   1.346
 4259SOL     OW13675   1.642   6.657   1.141
 4259SOL    HW113676   1.583   6.657   1.060
 4259SOL    HW213677   1.686   6.568   1.150
 4260SOL     OW13678   5.186   0.030   4.069
 4260SOL    HW113679   5.249   6.979   4.055
 4260SOL    HW213680   5.153   0.030   4.164
 4261SOL     OW13681   1.885   6.978   3.950
 4261SOL    HW113682   1.808   0.011   3.976
 4261SOL    HW213683   1.969   0.006   3.951
 4262SOL     OW13684   1.698   4.625   5.335
 4262SOL    HW113685   1.624   4.579   5.285
 4262SOL    HW213686   1.659   4.698   5.392
 4263SOL     OW13687   2.895   1.708   3.213
 4263SOL    HW113688   2.966   1.649   3.174
 4263SOL    HW213689   2.907   1.713   3.312
 4264SOL     OW13690   5.746   1.196   4.620
 4264SOL    HW113691   5.706   1.271   4.673
 4264SOL    HW213692   5.819   1.232   4.561
 4265SOL     OW13693   3.259   0.171   0.438
 4265SOL    HW113694   3.292   0.188   0.345
 4265SOL    HW213695   3.190   0.098   0.436
 4266SOL     OW13696   1.854   0.165   0.201
 4266SOL    HW113697   1.818   0.188   0.291
 4266SOL    HW213698   1.793   0.200   0.130
 4267SOL     OW13699   2.179   3.976   3.597
 4267SOL    HW113700   2.196   4.010   3.690
 4267SOL    HW213701   2.125   3.892   3.602
 4268SOL     OW13702   1.563   4.953   0.036
 4268SOL    HW113703   1.484   4.983   7.009
 4268SOL    HW213704   1.588   4.860   0.009
 4269SOL     OW13705   3.359   1.782   3.940
 4269SOL    HW113706   3.457   1.768   3.949
 4269SOL    HW213707   3.329   1.755   3.849
 4270SOL     OW13708   3.722   3.374   1.228
 4270SOL    HW113709   3.728   3.473   1.242
 4270SOL    HW213710   3.803   3.330   1.267
 4271SOL     OW13711   6.563   0.864   0.192
 4271SOL    HW113712   6.644   0.814   0.225
 4271SOL    HW213713   6.562   0.956   0.232
 4272SOL     OW13714   6.712   3.360   5.759
 4272SOL    HW113715   6.714   3.348   5.660
 4272SOL    HW213716   6.617   3.371   5.790
 4273SOL     OW13717   5.020   6.196   5.165
 4273SOL    HW113718   4.980   6.124   5.221
 4273SOL    HW213719   5.084   6.250   5.220
 4274SOL     OW13720   0.782   6.820   2.255
 4274SOL    HW113721   0.695   6.796   2.297
 4274SOL    HW213722   0.807   6.752   2.186
 4275SOL     OW13723   7.016   1.993   4.260
 4275SOL    HW113724   0.045   1.921   4.216
 4275SOL    HW213725   7.012   2.073   4.200
 4276SOL     OW13726   3.127   4.838   3.079
 4276SOL    HW113727   3.178   4.772   3.136
 4276SOL    HW213728   3.115   4.923   3.130
 4277SOL     OW13729   6.840   4.859   3.474
 4277SOL    HW113730   6.824   4.882   3.570
 4277SOL    HW213731   6.907   4.785   3.468
 4278SOL     OW13732   6.733   6.482   3.876
 4278SOL    HW113733   6.778   6.519   3.795
 4278SOL    HW213734   6.802   6.439   3.935
 4279SOL     OW13735   1.548   1.126   2.354
 4279SOL    HW113736   1.595   1.054   2.406
 4279SOL    HW213737   1.597   1.143   2.269
 4280SOL     OW13738   6.134   6.840   6.121
 4280SOL    HW113739   6.183   6.809   6.202
 4280SOL    HW213740   6.190   6.826   6.040
 4281SOL     OW13741   4.603   5.263   3.931
 4281SOL    HW113742   4.538   5.188   3.943
 4281SOL    HW213743   4.554   5.349   3.921
 4282SOL     OW13744   3.714   4.091   0.775
 4282SOL    HW113745   3.779   4.033   0.727
 4282SOL    HW213746   3.737   4.187   0.760
 4283SOL     OW13747   4.960   1.345   3.310
 4283SOL    HW113748   4.941   1.263   3.364
 4283SOL    HW213749   4.973   1.319   3.214
 4284SOL     OW13750   3.885   5.501   6.898
 4284SOL    HW113751   3.950   5.467   6.967
 4284SOL    HW213752   3.932   5.567   6.838
 4285SOL     OW13753   3.287   0.472   6.263
 4285SOL    HW113754   3.242   0.561   6.256
 4285SOL    HW213755   3.223   0.405   6.299
 4286SOL     OW13756   6.968   0.778   6.633
 4286SOL    HW113757   7.010   0.781   6.543
 4286SOL    HW213758   6.884   0.833   6.632
 4287SOL     OW13759   4.586   1.008   6.892
 4287SOL    HW113760   4.547   1.096   6.919
 4287SOL    HW213761   4.685   1.011   6.902
 4288SOL     OW13762   6.536   6.025   2.003
 4288SOL    HW113763   6.586   5.938   2.006
 4288SOL    HW213764   6.569   6.080   1.926
 4289SOL     OW13765   0.565   2.414   5.337
 4289SOL    HW113766   0.602   2.506   5.321
 4289SOL    HW213767   0.490   2.419   5.403
 4290SOL     OW13768   6.908   6.594   3.698
 4290SOL    HW113769   7.006   6.608   3.710
 4290SOL    HW213770   6.883   6.607   3.602
 4291SOL     OW13771   4.714   2.851   6.391
 4291SOL    HW113772   4.809   2.826   6.407
 4291SOL    HW213773   4.695   2.849   6.293
 4292SOL     OW13774   5.809   2.451   0.077
 4292SOL    HW113775   5.742   2.499   0.133
 4292SOL    HW213776   5.783   2.355   0.069
 4293SOL     OW13777   4.655   3.474   6.786
 4293SOL    HW113778   4.589   3.546   6.765
 4293SOL    HW213779   4.726   3.512   6.847
 4294SOL     OW13780   2.451   1.928   6.265
 4294SOL    HW113781   2.541   1.954   6.301
 4294SOL    HW213782   2.407   2.007   6.222
 4295SOL     OW13783   4.109   6.394   3.020
 4295SOL    HW113784   4.083   6.489   3.003
 4295SOL    HW213785   4.027   6.336   3.015
 4296SOL     OW13786   3.383   6.785   0.951
 4296SOL    HW113787   3.295   6.806   0.993
 4296SOL    HW213788   3.404   6.853   0.880
 4297SOL     OW13789   6.586   6.005   1.680
 4297SOL    HW113790   6.674   6.021   1.723
 4297SOL    HW213791   6.581   6.057   1.595
 4298SOL     OW13792   3.771   6.284   1.245
 4298SOL    HW113793   3.829   6.354   1.202
 4298SOL    HW213794   3.675   6.309   1.234
 4299SOL     OW13795   0.356   3.073   0.006
 4299SOL    HW113796   0.334   3.085   6.935
 4299SOL    HW213797   0.280   3.107   0.062
 4300SOL     OW13798   3.135   0.294   0.967
 4300SOL    HW113799   3.067   0.293   0.893
 4300SOL    HW213800   3.117   0.372   1.027
 4301SOL     OW13801   2.840   6.712   1.341
 4301SOL    HW113802   2.773   6.640   1.320
 4301SOL    HW213803   2.811   6.797   1.298
 4302SOL     OW13804   6.850   0.180   6.951
 4302SOL    HW113805   6.929   0.224   6.995
 4302SOL    HW213806   6.771   0.241   6.957
 4303SOL     OW13807   6.981   4.639   3.522
 4303SOL    HW113808   6.948   4.545   3.508
 4303SOL    HW213809   0.055   4.640   3.519
 4304SOL     OW13810   3.683   4.213   1.871
 4304SOL    HW113811   3.672   4.202   1.969
 4304SOL    HW213812   3.748   4.145   1.837
 4305SOL     OW13813   0.402   7.018   4.808
 4305SOL    HW113814   0.484   0.042   4.780
 4305SOL    HW213815   0.425   6.922   4.825
 4306SOL     OW13816   4.818   3.950   4.893
 4306SOL    HW113817   4.876   3.872   4.915
 4306SOL    HW213818   4.722   3.921   4.893
 4307SOL     OW13819   5.544   2.789   5.678
 4307SOL    HW113820   5.525   2.739   5.594
 4307SOL    HW213821   5.558   2.724   5.753
 4308SOL     OW13822   5.434   4.901   1.830
 4308SOL    HW113823   5.494   4.868   1.757
 4308SOL    HW213824   5.441   4.840   1.909
 4309SOL     OW13825   0.991   3.182   6.896
 4309SOL    HW113826   0.996   3.150   6.991
 4309SOL    HW213827   0.948   3.112   6.839
 4310SOL     OW13828   1.322   2.617   2.142
 4310SOL    HW113829   1.338   2.619   2.241
 4310SOL    HW213830   1.370   2.693   2.099
 4311SOL     OW13831   1.294   6.541   2.278
 4311SOL    HW113832   1.307   6.446   2.249
 4311SOL    HW213833   1.339   6.602   2.213
 4312SOL     OW13834   1.006   5.328   2.481
 4312SOL    HW113835   1.056   5.405   2.521
 4312SOL    HW213836   0.997   5.255   2.548
 4313SOL     OW13837   3.840   2.059   6.939
 4313SOL    HW113838   3.913   2.120   6.970
 4313SOL    HW213839   3.844   2.050   6.840
 4314SOL     OW13840   6.536   1.934   5.625
 4314SOL    HW113841   6.582   1.845   5.630
 4314SOL    HW213842   6.566   1.983   5.544
 4315SOL     OW13843   1.947   1.684   3.757
 4315SOL    HW113844   1.970   1.686   3.855
 4315SOL    HW213845   1.847   1.683   3.747
 4316SOL     OW13846   5.069   6.901   2.685
 4316SOL    HW113847   5.022   6.891   2.597
 4316SOL    HW213848   5.099   6.811   2.717
 4317SOL     OW13849   4.365   0.884   5.438
 4317SOL    HW113850   4.368   0.952   5.511
 4317SOL    HW213851   4.377   0.930   5.350
 4318SOL     OW13852   0.605   0.704   4.254
 4318SOL    HW113853   0.640   0.688   4.346
 4318SOL    HW213854   0.625   0.798   4.226
 4319SOL     OW13855   1.686   2.046   1.248
 4319SOL    HW113856   1.729   1.969   1.296
 4319SOL    HW213857   1.734   2.131   1.271
 4320SOL     OW13858   3.651   6.067   0.421
 4320SOL    HW113859   3.701   6.135   0.475
 4320SOL    HW213860   3.591   6.014   0.481
 4321SOL     OW13861   6.959   5.235   3.423
 4321SOL    HW113862   6.969   5.233   3.522
 4321SOL    HW213863   6.888   5.300   3.397
 4322SOL     OW13864   0.309   3.317   5.723
 4322SOL    HW113865   0.325   3.253   5.649
 4322SOL    HW213866   0.272   3.403   5.686
 4323SOL     OW13867   4.011   5.420   0.095
 4323SOL    HW113868   3.994   5.396   0.191
 4323SOL    HW213869   4.107   5.401   0.073
 4324SOL     OW13870   6.986   3.328   5.610
 4324SOL    HW113871   0.000   3.411   5.571
 4324SOL    HW213872   6.954   3.348   5.703
 4325SOL     OW13873   2.548   1.875   2.213
 4325SOL    HW113874   2.461   1.865   2.165
 4325SOL    HW213875   2.623   1.883   2.147
 4326SOL     OW13876   5.295   3.072   2.649
 4326SOL    HW113877   5.243   3.115   2.575
 4326SOL    HW213878   5.390   3.102   2.645
 4327SOL     OW13879   3.984   5.693   3.041
 4327SOL    HW113880   4.041   5.761   3.086
 4327SOL    HW213881   3.956   5.624   3.107
 4328SOL     OW13882   6.493   4.710   4.567
 4328SOL    HW113883   6.541   4.647   4.506
 4328SOL    HW213884   6.502   4.679   4.661
 4329SOL     OW13885   5.518   3.255   5.371
 4329SOL    HW113886   5.593   3.188   5.364
 4329SOL    HW213887   5.500   3.294   5.281
 4330SOL     OW13888   2.445   6.933   4.852
 4330SOL    HW113889   2.518   6.982   4.804
 4330SOL    HW213890   2.395   6.875   4.787
 4331SOL     OW13891   0.318   0.341   1.440
 4331SOL    HW113892   0.362   0.431   1.441
 4331SOL    HW213893   0.300   0.314   1.345
 4332SOL     OW13894   5.829   3.649   2.820
 4332SOL    HW113895   5.772   3.591   2.762
 4332SOL    HW213896   5.797   3.642   2.915
 4333SOL     OW13897   4.882   2.236   4.801
 4333SOL    HW113898   4.909   2.328   4.830
 4333SOL    HW213899   4.939   2.168   4.847
 4334SOL     OW13900   1.103   2.860   2.759
 4334SOL    HW113901   1.065   2.820   2.842
 4334SOL    HW213902   1.030   2.907   2.708
 4335SOL     OW13903   3.175   3.172   1.144
 4335SOL    HW113904   3.201   3.264   1.113
 4335SOL    HW213905   3.155   3.175   1.242
 4336SOL     OW13906   2.447   4.743   5.400
 4336SOL    HW113907   2.405   4.687   5.472
 4336SOL    HW213908   2.497   4.684   5.337
 4337SOL     OW13909   1.148   6.129   2.353
 4337SOL    HW113910   1.230   6.078   2.327
 4337SOL    HW213911   1.093   6.074   2.416
 4338SOL     OW13912   6.148   0.096   6.185
 4338SOL    HW113913   6.233   0.148   6.183
 4338SOL    HW213914   6.154   0.019   6.122
 4339SOL     OW13915   4.173   2.223   6.632
 4339SOL    HW113916   4.120   2.140   6.650
 4339SOL    HW213917   4.211   2.258   6.718
 4340SOL     OW13918   6.113   3.109   0.875
 4340SOL    HW113919   6.186   3.088   0.810
 4340SOL    HW213920   6.030   3.133   0.824
 4341SOL     OW13921   1.208   5.525   2.173
 4341SOL    HW113922   1.118   5.537   2.131
 4341SOL    HW213923   1.221   5.428   2.196
 4342SOL     OW13924   4.922   3.457   3.005
 4342SOL    HW113925   4.923   3.412   2.916
 4342SOL    HW213926   5.003   3.515   3.014
 4343SOL     OW13927   3.364   0.126   6.342
 4343SOL    HW113928   3.319   0.096   6.427
 4343SOL    HW213929   3.304   0.108   6.265
 4344SOL     OW13930   0.535   2.640   3.129
 4344SOL    HW113931   0.502   2.617   3.221
 4344SOL    HW213932   0.502   2.731   3.104
 4345SOL     OW13933   3.043   3.236   2.728
 4345SOL    HW113934   3.111   3.167   2.703
 4345SOL    HW213935   3.080   3.327   2.710
 4346SOL     OW13936   2.106   2.694   2.851
 4346SOL    HW113937   2.008   2.687   2.872
 4346SOL    HW213938   2.153   2.736   2.929
 4347SOL     OW13939   6.222   6.189   1.631
 4347SOL    HW113940   6.179   6.279   1.625
 4347SOL    HW213941   6.286   6.177   1.554
 4348SOL     OW13942   6.884   5.927   4.248
 4348SOL    HW113943   6.900   6.022   4.275
 4348SOL    HW213944   6.853   5.875   4.327
 4349SOL     OW13945   0.303   3.578   3.541
 4349SOL    HW113946   0.229   3.516   3.570
 4349SOL    HW213947   0.380   3.524   3.507
 4350SOL     OW13948   5.727   1.830   4.600
 4350SOL    HW113949   5.787   1.854   4.677
 4350SOL    HW213950   5.646   1.783   4.635
 4351SOL     OW13951   1.750   6.085   1.608
 4351SOL    HW113952   1.835   6.119   1.569
 4351SOL    HW213953   1.678   6.153   1.595
 4352SOL     OW13954   5.419   3.566   0.647
 4352SOL    HW113955   5.503   3.537   0.602
 4352SOL    HW213956   5.340   3.520   0.606
 4353SOL     OW13957   3.120   3.092   6.548
 4353SOL    HW113958   3.039   3.065   6.497
 4353SOL    HW213959   3.110   3.186   6.580
 4354SOL     OW13960   1.024   0.778   5.573
 4354SOL    HW113961   0.926   0.765   5.587
 4354SOL    HW213962   1.059   0.843   5.641
 4355SOL     OW13963   1.293   6.408   3.276
 4355SOL    HW113964   1.200   6.385   3.305
 4355SOL    HW213965   1.344   6.445   3.354
 4356SOL     OW13966   4.417   3.178   5.768
 4356SOL    HW113967   4.322   3.200   5.747
 4356SOL    HW213968   4.468   3.163   5.684
 4357SOL     OW13969   0.442   1.236   1.667
 4357SOL    HW113970   0.492   1.294   1.603
 4357SOL    HW213971   0.344   1.243   1.649
 4358SOL     OW13972   0.371   1.223   0.023
 4358SOL    HW113973   0.406   1.187   0.109
 4358SOL    HW213974   0.344   1.318   0.034
 4359SOL     OW13975   1.945   0.709   6.762
 4359SOL    HW113976   1.868   0.734   6.704
 4359SOL    HW213977   2.029   0.746   6.723
 4360SOL     OW13978   1.113   2.525   3.615
 4360SOL    HW113979   1.163   2.477   3.543
 4360SOL    HW213980   1.112   2.470   3.698
 4361SOL     OW13981   2.398   2.817   1.151
 4361SOL    HW113982   2.365   2.754   1.221
 4361SOL    HW213983   2.321   2.852   1.098
 4362SOL     OW13984   0.605   6.334   3.891
 4362SOL    HW113985   0.588   6.236   3.905
 4362SOL    HW213986   0.631   6.350   3.796
 4363SOL     OW13987   4.122   0.339   2.644
 4363SOL    HW113988   4.116   0.431   2.681
 4363SOL    HW213989   4.074   0.335   2.557
 4364SOL     OW13990   2.858   3.634   2.567
 4364SOL    HW113991   2.850   3.685   2.652
 4364SOL    HW213992   2.894   3.542   2.586
 4365SOL     OW13993   3.271   1.961   1.529
 4365SOL    HW113994   3.231   2.039   1.482
 4365SOL    HW213995   3.316   1.901   1.463
 4366SOL     OW13996   6.281   5.805   5.701
 4366SOL    HW113997   6.181   5.802   5.705
 4366SOL    HW213998   6.310   5.891   5.661
 4367SOL     OW13999   3.217   5.318   2.669
 4367SOL    HW114000   3.282   5.293   2.741
 4367SOL    HW214001   3.185   5.236   2.622
 4368SOL     OW14002   3.888   6.041   2.536
 4368SOL    HW114003   3.877   6.063   2.439
 4368SOL    HW214004   3.847   5.952   2.555
 4369SOL     OW14005   5.101   5.686   2.842
 4369SOL    HW114006   5.019   5.680   2.899
 4369SOL    HW214007   5.176   5.637   2.886
 4370SOL     OW14008   3.850   3.929   1.521
 4370SOL    HW114009   3.931   3.907   1.468
 4370SOL    HW214010   3.819   3.847   1.570
 4371SOL     OW14011   2.744   0.728   2.278
 4371SOL    HW114012   2.682   0.800   2.308
 4371SOL    HW214013   2.716   0.695   2.187
 4372SOL     OW14014   1.880   3.465   4.495
 4372SOL    HW114015   1.800   3.525   4.488
 4372SOL    HW214016   1.849   3.370   4.502
 4373SOL     OW14017   4.858   0.951   6.153
 4373SOL    HW114018   4.950   0.987   6.170
 4373SOL    HW214019   4.858   0.852   6.169
 4374SOL     OW14020   2.710   2.265   1.315
 4374SOL    HW114021   2.730   2.312   1.401
 4374SOL    HW214022   2.783   2.285   1.248
 4375SOL     OW14023   3.569   0.137   3.546
 4375SOL    HW114024   3.566   0.046   3.504
 4375SOL    HW214025   3.582   0.206   3.475
 4376SOL     OW14026   6.433   0.305   2.014
 4376SOL    HW114027   6.504   0.364   2.052
 4376SOL    HW214028   6.367   0.281   2.085
 4377SOL     OW14029   6.675   6.004   0.627
 4377SOL    HW114030   6.704   5.970   0.717
 4377SOL    HW214031   6.747   5.986   0.560
 4378SOL     OW14032   1.628   5.072   2.041
 4378SOL    HW114033   1.577   4.987   2.055
 4378SOL    HW214034   1.675   5.097   2.126
 4379SOL     OW14035   2.317   0.466   1.767
 4379SOL    HW114036   2.330   0.528   1.844
 4379SOL    HW214037   2.234   0.412   1.781
 4380SOL     OW14038   2.443   5.582   5.077
 4380SOL    HW114039   2.402   5.500   5.117
 4380SOL    HW214040   2.412   5.592   4.982
 4381SOL     OW14041   3.154   5.017   4.625
 4381SOL    HW114042   3.163   4.954   4.702
 4381SOL    HW214043   3.094   4.977   4.556
 4382SOL     OW14044   4.937   4.421   4.954
 4382SOL    HW114045   4.995   4.339   4.955
 4382SOL    HW214046   4.843   4.395   4.977
 4383SOL     OW14047   0.717   1.942   5.167
 4383SOL    HW114048   0.766   1.933   5.253
 4383SOL    HW214049   0.624   1.907   5.178
 4384SOL     OW14050   5.034   0.222   1.383
 4384SOL    HW114051   5.134   0.229   1.379
 4384SOL    HW214052   4.996   0.237   1.292
 4385SOL     OW14053   6.642   2.054   4.098
 4385SOL    HW114054   6.683   2.105   4.174
 4385SOL    HW214055   6.714   2.006   4.047
 4386SOL     OW14056   1.015   4.421   6.432
 4386SOL    HW114057   1.101   4.404   6.481
 4386SOL    HW214058   1.030   4.489   6.361
 4387SOL     OW14059   0.041   2.046   1.671
 4387SOL    HW114060   0.109   2.047   1.745
 4387SOL    HW214061   6.977   2.020   1.709
 4388SOL     OW14062   4.051   1.034   6.511
 4388SOL    HW114063   4.141   1.062   6.476
 4388SOL    HW214064   4.032   0.940   6.481
 4389SOL     OW14065   5.534   1.760   1.512
 4389SOL    HW114066   5.610   1.705   1.546
 4389SOL    HW214067   5.477   1.790   1.589
 4390SOL     OW14068   3.926   2.450   1.703
 4390SOL    HW114069   3.940   2.369   1.761
 4390SOL    HW214070   3.829   2.462   1.685
 4391SOL     OW14071   0.860   5.935   6.575
 4391SOL    HW114072   0.762   5.955   6.568
 4391SOL    HW214073   0.903   5.947   6.486
 4392SOL     OW14074   5.491   4.034   5.253
 4392SOL    HW114075   5.577   4.081   5.270
 4392SOL    HW214076   5.455   3.997   5.339
 4393SOL     OW14077   4.803   6.941   3.137
 4393SOL    HW114078   4.874   6.955   3.068
 4393SOL    HW214079   4.737   6.874   3.104
 4394SOL     OW14080   5.859   5.291   2.509
 4394SOL    HW114081   5.914   5.373   2.524
 4394SOL    HW214082   5.895   5.240   2.431
 4395SOL     OW14083   4.274   2.302   0.699
 4395SOL    HW114084   4.265   2.236   0.624
 4395SOL    HW214085   4.186   2.316   0.743
 4396SOL     OW14086   2.546   1.775   4.148
 4396SOL    HW114087   2.598   1.752   4.230
 4396SOL    HW214088   2.470   1.835   4.172
 4397SOL     OW14089   0.418   1.293   4.043
 4397SOL    HW114090   0.426   1.355   3.965
 4397SOL    HW214091   0.439   1.200   4.013
 4398SOL     OW14092   1.397   4.474   4.421
 4398SOL    HW114093   1.346   4.515   4.346
 4398SOL    HW214094   1.494   4.499   4.413
 4399SOL     OW14095   2.801   0.563   0.845
 4399SOL    HW114096   2.734   0.636   0.856
 4399SOL    HW214097   2.887   0.590   0.890
 4400SOL     OW14098   2.224   6.288   4.962
 4400SOL    HW114099   2.221   6.237   5.048
 4400SOL    HW214100   2.233   6.386   4.981
 4401SOL     OW14101   6.590   5.512   5.744
 4401SOL    HW114102   6.593   5.591   5.804
 4401SOL    HW214103   6.683   5.489   5.715
 4402SOL     OW14104   1.502   6.199   2.494
 4402SOL    HW114105   1.484   6.107   2.458
 4402SOL    HW214106   1.417   6.238   2.530
 4403SOL     OW14107   6.634   6.794   3.839
 4403SOL    HW114108   6.722   6.746   3.842
 4403SOL    HW214109   6.567   6.744   3.893
 4404SOL     OW14110   1.277   3.618   4.303
 4404SOL    HW114111   1.297   3.608   4.401
 4404SOL    HW214112   1.252   3.529   4.264
 4405SOL     OW14113   3.244   4.416   6.216
 4405SOL    HW114114   3.248   4.338   6.279
 4405SOL    HW214115   3.275   4.388   6.126
 4406SOL     OW14116   5.154   4.340   0.588
 4406SOL    HW114117   5.252   4.341   0.565
 4406SOL    HW214118   5.129   4.427   0.630
 4407SOL     OW14119   0.147   5.588   0.902
 4407SOL    HW114120   0.081   5.631   0.963
 4407SOL    HW214121   0.148   5.489   0.920
 4408SOL     OW14122   4.940   0.732   0.874
 4408SOL    HW114123   4.904   0.648   0.834
 4408SOL    HW214124   4.871   0.774   0.933
 4409SOL     OW14125   3.520   0.652   2.066
 4409SOL    HW114126   3.474   0.602   2.139
 4409SOL    HW214127   3.613   0.617   2.055
 4410SOL     OW14128   2.061   4.580   6.950
 4410SOL    HW114129   2.141   4.611   6.899
 4410SOL    HW214130   2.003   4.525   6.890
 4411SOL     OW14131   3.351   2.919   3.171
 4411SOL    HW114132   3.400   2.855   3.111
 4411SOL    HW214133   3.410   2.996   3.194
 4412SOL     OW14134   4.257   1.805   5.099
 4412SOL    HW114135   4.236   1.729   5.038
 4412SOL    HW214136   4.348   1.792   5.138
 4413SOL     OW14137   5.110   5.931   5.311
 4413SOL    HW114138   5.140   5.839   5.336
 4413SOL    HW214139   5.018   5.947   5.346
 4414SOL     OW14140   4.960   4.848   2.179
 4414SOL    HW114141   4.881   4.908   2.185
 4414SOL    HW214142   4.933   4.760   2.140
 4415SOL     OW14143   5.113   3.382   6.312
 4415SOL    HW114144   5.025   3.428   6.301
 4415SOL    HW214145   5.159   3.419   6.393
 4416SOL     OW14146   2.908   1.587   3.875
 4416SOL    HW114147   2.824   1.540   3.902
 4416SOL    HW214148   2.969   1.595   3.954
 4417SOL     OW14149   6.986   4.522   2.512
 4417SOL    HW114150   6.966   4.561   2.601
 4417SOL    HW214151   6.900   4.498   2.466
 4418SOL     OW14152   4.479   6.598   3.720
 4418SOL    HW114153   4.451   6.502   3.718
 4418SOL    HW214154   4.514   6.621   3.810
 4419SOL     OW14155   5.583   5.572   0.418
 4419SOL    HW114156   5.564   5.478   0.446
 4419SOL    HW214157   5.662   5.573   0.357
 4420SOL     OW14158   4.674   1.252   0.877
 4420SOL    HW114159   4.690   1.351   0.875
 4420SOL    HW214160   4.742   1.206   0.820
 4421SOL     OW14161   1.819   1.732   3.418
 4421SOL    HW114162   1.730   1.754   3.456
 4421SOL    HW214163   1.817   1.641   3.377
 4422SOL     OW14164   2.549   3.439   5.870
 4422SOL    HW114165   2.497   3.357   5.849
 4422SOL    HW214166   2.486   3.512   5.897
 4423SOL     OW14167   0.881   3.059   5.605
 4423SOL    HW114168   0.937   2.977   5.598
 4423SOL    HW214169   0.933   3.132   5.649
 4424SOL     OW14170   5.257   6.902   3.438
 4424SOL    HW114171   5.187   6.896   3.509
 4424SOL    HW214172   5.219   6.944   3.356
 4425SOL     OW14173   3.302   6.150   6.361
 4425SOL    HW114174   3.298   6.074   6.426
 4425SOL    HW214175   3.329   6.116   6.271
 4426SOL     OW14176   6.847   0.995   5.493
 4426SOL    HW114177   6.848   0.899   5.466
 4426SOL    HW214178   6.894   1.050   5.425
 4427SOL     OW14179   6.573   0.836   2.466
 4427SOL    HW114180   6.639   0.842   2.392
 4427SOL    HW214181   6.598   0.900   2.539
 4428SOL     OW14182   2.948   4.924   3.406
 4428SOL    HW114183   2.991   4.996   3.352
 4428SOL    HW214184   2.982   4.927   3.499
 4429SOL     OW14185   2.837   0.279   4.106
 4429SOL    HW114186   2.889   0.359   4.077
 4429SOL    HW214187   2.884   0.196   4.076
 4430SOL     OW14188   4.759   2.831   3.727
 4430SOL    HW114189   4.858   2.816   3.733
 4430SOL    HW214190   4.711   2.749   3.757
 4431SOL     OW14191   2.382   1.502   2.130
 4431SOL    HW114192   2.289   1.539   2.122
 4431SOL    HW214193   2.438   1.535   2.054
 4432SOL     OW14194   3.168   3.032   3.745
 4432SOL    HW114195   3.119   3.119   3.752
 4432SOL    HW214196   3.133   2.980   3.668
 4433SOL     OW14197   6.365   6.841   4.458
 4433SOL    HW114198   6.453   6.805   4.488
 4433SOL    HW214199   6.365   6.851   4.358
 4434SOL     OW14200   4.599   1.466   4.190
 4434SOL    HW114201   4.622   1.481   4.094
 4434SOL    HW214202   4.633   1.541   4.246
 4435SOL     OW14203   4.061   3.793   0.723
 4435SOL    HW114204   4.030   3.705   0.758
 4435SOL    HW214205   4.051   3.863   0.795
 4436SOL     OW14206   3.183   2.131   0.406
 4436SOL    HW114207   3.121   2.117   0.484
 4436SOL    HW214208   3.194   2.044   0.357
 4437SOL     OW14209   4.834   1.061   4.211
 4437SOL    HW114210   4.882   1.120   4.146
 4437SOL    HW214211   4.777   0.996   4.161
 4438SOL     OW14212   4.265   1.873   6.766
 4438SOL    HW114213   4.265   1.815   6.848
 4438SOL    HW214214   4.336   1.841   6.702
 4439SOL     OW14215   0.649   5.185   1.546
 4439SOL    HW114216   0.619   5.280   1.533
 4439SOL    HW214217   0.745   5.177   1.516
 4440SOL     OW14218   1.451   5.164   6.595
 4440SOL    HW114219   1.502   5.242   6.630
 4440SOL    HW214220   1.392   5.193   6.520
 4441SOL     OW14221   6.217   1.768   1.665
 4441SOL    HW114222   6.161   1.831   1.717
 4441SOL    HW214223   6.305   1.810   1.644
 4442SOL     OW14224   3.154   6.161   3.871
 4442SOL    HW114225   3.116   6.230   3.811
 4442SOL    HW214226   3.082   6.121   3.928
 4443SOL     OW14227   1.100   2.580   6.728
 4443SOL    HW114228   1.013   2.601   6.684
 4443SOL    HW214229   1.175   2.607   6.668
 4444SOL     OW14230   3.740   6.424   6.468
 4444SOL    HW114231   3.711   6.368   6.545
 4444SOL    HW214232   3.755   6.518   6.499
 4445SOL     OW14233   1.165   0.638   6.482
 4445SOL    HW114234   1.137   0.543   6.496
 4445SOL    HW214235   1.243   0.658   6.541
 4446SOL     OW14236   5.727   1.142   1.348
 4446SOL    HW114237   5.826   1.153   1.362
 4446SOL    HW214238   5.701   1.047   1.363
 4447SOL     OW14239   5.269   3.119   5.373
 4447SOL    HW114240   5.252   3.168   5.288
 4447SOL    HW214241   5.362   3.139   5.405
 4448SOL     OW14242   2.981   4.016   0.390
 4448SOL    HW114243   2.891   4.041   0.355
 4448SOL    HW214244   2.983   4.026   0.489
 4449SOL     OW14245   3.540   0.444   5.938
 4449SOL    HW114246   3.480   0.516   5.974
 4449SOL    HW214247   3.547   0.370   6.005
 4450SOL     OW14248   3.983   3.045   3.338
 4450SOL    HW114249   4.076   3.011   3.322
 4450SOL    HW214250   3.934   2.981   3.397
 4451SOL     OW14251   5.663   4.124   2.319
 4451SOL    HW114252   5.758   4.149   2.340
 4451SOL    HW214253   5.648   4.028   2.343
 4452SOL     OW14254   5.797   6.240   5.154
 4452SOL    HW114255   5.840   6.299   5.223
 4452SOL    HW214256   5.865   6.176   5.118
 4453SOL     OW14257   6.524   3.036   0.000
 4453SOL    HW114258   6.467   3.066   6.949
 4453SOL    HW214259   6.517   2.937   0.010
 4454SOL     OW14260   4.962   2.142   0.694
 4454SOL    HW114261   5.011   2.211   0.640
 4454SOL    HW214262   5.000   2.138   0.786
 4455SOL     OW14263   2.926   6.637   0.605
 4455SOL    HW114264   2.834   6.655   0.570
 4455SOL    HW214265   2.925   6.637   0.705
 4456SOL     OW14266   2.409   4.827   2.493
 4456SOL    HW114267   2.506   4.807   2.507
 4456SOL    HW214268   2.377   4.782   2.410
 4457SOL     OW14269   4.296   2.937   6.991
 4457SOL    HW114270   4.368   2.990   6.947
 4457SOL    HW214271   4.287   2.849   6.944
 4458SOL     OW14272   1.525   3.673   6.491
 4458SOL    HW114273   1.495   3.709   6.403
 4458SOL    HW214274   1.604   3.613   6.477
 4459SOL     OW14275   5.555   0.250   4.301
 4459SOL    HW114276   5.569   0.278   4.206
 4459SOL    HW214277   5.567   0.330   4.361
 4460SOL     OW14278   2.640   2.858   5.879
 4460SOL    HW114279   2.619   2.883   5.784
 4460SOL    HW214280   2.678   2.937   5.927
 4461SOL     OW14281   1.057   0.550   2.940
 4461SOL    HW114282   1.122   0.476   2.920
 4461SOL    HW214283   0.978   0.512   2.988
 4462SOL     OW14284   6.606   3.919   1.153
 4462SOL    HW114285   6.567   3.939   1.243
 4462SOL    HW214286   6.566   3.980   1.085
 4463SOL     OW14287   2.193   2.509   0.235
 4463SOL    HW114288   2.282   2.517   0.189
 4463SOL    HW214289   2.160   2.600   0.259
 4464SOL     OW14290   6.032   5.227   0.708
 4464SOL    HW114291   6.030   5.172   0.792
 4464SOL    HW214292   5.968   5.304   0.717
 4465SOL     OW14293   1.629   5.930   3.217
 4465SOL    HW114294   1.674   5.927   3.306
 4465SOL    HW214295   1.599   6.023   3.197
 4466SOL     OW14296   1.419   0.942   3.031
 4466SOL    HW114297   1.474   0.907   2.955
 4466SOL    HW214298   1.326   0.905   3.024
 4467SOL     OW14299   0.757   6.753   3.846
 4467SOL    HW114300   0.823   6.828   3.842
 4467SOL    HW214301   0.685   6.768   3.779
 4468SOL     OW14302   0.734   2.004   0.432
 4468SOL    HW114303   0.703   2.051   0.514
 4468SOL    HW214304   0.732   2.067   0.354
 4469SOL     OW14305   3.090   6.573   1.203
 4469SOL    HW114306   3.024   6.618   1.263
 4469SOL    HW214307   3.180   6.615   1.214
 4470SOL     OW14308   5.773   3.224   1.460
 4470SOL    HW114309   5.839   3.244   1.533
 4470SOL    HW214310   5.750   3.309   1.413
 4471SOL     OW14311   0.387   2.798   0.068
 4471SOL    HW114312   0.314   2.741   0.030
 4471SOL    HW214313   0.387   2.887   0.023
 4472SOL     OW14314   1.476   3.967   2.715
 4472SOL    HW114315   1.506   3.878   2.679
 4472SOL    HW214316   1.550   4.009   2.766
 4473SOL     OW14317   0.369   1.074   4.734
 4473SOL    HW114318   0.307   1.018   4.789
 4473SOL    HW214319   0.390   1.158   4.784
 4474SOL     OW14320   3.590   0.818   2.332
 4474SOL    HW114321   3.624   0.804   2.239
 4474SOL    HW214322   3.539   0.737   2.361
 4475SOL     OW14323   1.706   4.480   1.788
 4475SOL    HW114324   1.651   4.410   1.834
 4475SOL    HW214325   1.700   4.467   1.689
 4476SOL     OW14326   5.638   6.065   3.737
 4476SOL    HW114327   5.704   6.122   3.786
 4476SOL    HW214328   5.671   6.048   3.644
 4477SOL     OW14329   1.632   6.929   6.474
 4477SOL    HW114330   1.699   6.861   6.443
 4477SOL    HW214331   1.670   7.021   6.461
 4478SOL     OW14332   2.398   6.443   2.638
 4478SOL    HW114333   2.412   6.458   2.736
 4478SOL    HW214334   2.419   6.348   2.616
 4479SOL     OW14335   0.993   1.063   6.815
 4479SOL    HW114336   1.052   0.994   6.775
 4479SOL    HW214337   1.029   1.090   6.904
 4480SOL     OW14338   1.890   3.708   4.760
 4480SOL    HW114339   1.924   3.790   4.806
 4480SOL    HW214340   1.936   3.698   4.672
 4481SOL     OW14341   2.380   6.962   4.515
 4481SOL    HW114342   2.305   0.002   4.502
 4481SOL    HW214343   2.466   7.003   4.484
 4482SOL     OW14344   0.397   3.246   3.932
 4482SOL    HW114345   0.482   3.300   3.930
 4482SOL    HW214346   0.333   3.288   3.996
 4483SOL     OW14347   6.500   2.963   1.110
 4483SOL    HW114348   6.426   2.911   1.151
 4483SOL    HW214349   6.502   2.948   1.011
 4484SOL     OW14350   3.636   1.639   5.287
 4484SOL    HW114351   3.584   1.684   5.214
 4484SOL    HW214352   3.699   1.574   5.247
 4485SOL     OW14353   5.669   2.432   6.379
 4485SOL    HW114354   5.727   2.405   6.302
 4485SOL    HW214355   5.717   2.501   6.434
 4486SOL     OW14356   6.333   3.711   4.254
 4486SOL    HW114357   6.330   3.626   4.202
 4486SOL    HW214358   6.337   3.691   4.352
 4487SOL     OW14359   2.266   3.683   6.925
 4487SOL    HW114360   2.311   3.656   7.010
 4487SOL    HW214361   2.263   3.605   6.862
 4488SOL     OW14362   5.341   2.380   6.078
 4488SOL    HW114363   5.401   2.301   6.063
 4488SOL    HW214364   5.359   2.449   6.008
 4489SOL     OW14365   5.153   6.253   4.322
 4489SOL    HW114366   5.067   6.212   4.353
 4489SOL    HW214367   5.208   6.279   4.402
 4490SOL     OW14368   5.354   2.052   1.950
 4490SOL    HW114369   5.378   2.132   1.896
 4490SOL    HW214370   5.406   2.052   2.035
 4491SOL     OW14371   0.873   3.091   2.987
 4491SOL    HW114372   0.893   3.014   3.047
 4491SOL    HW214373   0.955   3.148   2.979
 4492SOL     OW14374   5.193   3.390   0.556
 4492SOL    HW114375   5.113   3.418   0.610
 4492SOL    HW214376   5.202   3.291   0.559
 4493SOL     OW14377   4.682   4.930   4.949
 4493SOL    HW114378   4.695   5.006   5.012
 4493SOL    HW214379   4.706   4.958   4.856
 4494SOL     OW14380   6.823   2.460   6.301
 4494SOL    HW114381   6.741   2.473   6.357
 4494SOL    HW214382   6.853   2.365   6.308
 4495SOL     OW14383   5.510   6.913   3.267
 4495SOL    HW114384   5.445   6.848   3.306
 4495SOL    HW214385   5.503   7.000   3.316
 4496SOL     OW14386   5.374   5.569   0.787
 4496SOL    HW114387   5.352   5.621   0.870
 4496SOL    HW214388   5.383   5.472   0.810
 4497SOL     OW14389   4.368   6.691   6.812
 4497SOL    HW114390   4.373   6.677   6.911
 4497SOL    HW214391   4.449   6.740   6.781
 4498SOL     OW14392   0.583   3.394   6.401
 4498SOL    HW114393   0.626   3.383   6.311
 4498SOL    HW214394   0.536   3.309   6.426
 4499SOL     OW14395   0.260   3.160   4.264
 4499SOL    HW114396   0.263   3.235   4.198
 4499SOL    HW214397   0.270   3.073   4.216
 4500SOL     OW14398   2.999   3.884   3.398
 4500SOL    HW114399   2.969   3.917   3.487
 4500SOL    HW214400   2.965   3.792   3.383
 4501SOL     OW14401   0.404   3.773   5.688
 4501SOL    HW114402   0.306   3.753   5.681
 4501SOL    HW214403   0.419   3.842   5.759
 4502SOL     OW14404   1.989   3.018   6.389
 4502SOL    HW114405   1.943   3.048   6.473
 4502SOL    HW214406   2.070   2.965   6.412
 4503SOL     OW14407   2.623   0.513   2.905
 4503SOL    HW114408   2.611   0.507   3.004
 4503SOL    HW214409   2.548   0.565   2.865
 4504SOL     OW14410   6.155   1.595   5.042
 4504SOL    HW114411   6.223   1.525   5.021
 4504SOL    HW214412   6.170   1.630   5.134
 4505SOL     OW14413   6.773   5.808   4.501
 4505SOL    HW114414   6.733   5.754   4.575
 4505SOL    HW214415   6.871   5.818   4.516
 4506SOL     OW14416   4.516   2.518   4.569
 4506SOL    HW114417   4.467   2.514   4.656
 4506SOL    HW214418   4.579   2.596   4.570
 4507SOL     OW14419   5.317   4.306   1.309
 4507SOL    HW114420   5.238   4.288   1.251
 4507SOL    HW214421   5.393   4.245   1.282
 4508SOL     OW14422   0.960   4.208   6.828
 4508SOL    HW114423   0.934   4.283   6.768
 4508SOL    HW214424   0.980   4.126   6.774
 4509SOL     OW14425   4.483   2.211   4.214
 4509SOL    HW114426   4.580   2.195   4.198
 4509SOL    HW214427   4.429   2.160   4.147
 4510SOL     OW14428   5.684   6.909   5.035
 4510SOL    HW114429   5.781   6.887   5.037
 4510SOL    HW214430   5.672   7.007   5.048
 4511SOL     OW14431   0.390   3.186   6.129
 4511SOL    HW114432   0.347   3.126   6.061
 4511SOL    HW214433   0.448   3.252   6.082
 4512SOL     OW14434   2.427   6.973   5.764
 4512SOL    HW114435   2.368   6.896   5.790
 4512SOL    HW214436   2.473   6.951   5.679
 4513SOL     OW14437   4.743   6.737   0.912
 4513SOL    HW114438   4.767   6.695   0.825
 4513SOL    HW214439   4.826   6.760   0.962
 4514SOL     OW14440   4.265   0.669   4.833
 4514SOL    HW114441   4.247   0.711   4.922
 4514SOL    HW214442   4.364   0.659   4.821
 4515SOL     OW14443   6.621   4.173   6.337
 4515SOL    HW114444   6.669   4.126   6.410
 4515SOL    HW214445   6.539   4.121   6.312
 4516SOL     OW14446   0.814   1.870   6.023
 4516SOL    HW114447   0.895   1.879   6.081
 4516SOL    HW214448   0.832   1.803   5.951
 4517SOL     OW14449   2.710   6.998   5.999
 4517SOL    HW114450   2.689   0.070   6.008
 4517SOL    HW214451   2.685   6.967   5.907
 4518SOL     OW14452   6.741   2.082   3.631
 4518SOL    HW114453   6.741   2.161   3.691
 4518SOL    HW214454   6.705   2.108   3.541
 4519SOL     OW14455   6.676   1.279   1.954
 4519SOL    HW114456   6.774   1.292   1.938
 4519SOL    HW214457   6.647   1.191   1.916
 4520SOL     OW14458   5.677   5.737   2.950
 4520SOL    HW114459   5.696   5.720   3.047
 4520SOL    HW214460   5.627   5.660   2.912
 4521SOL     OW14461   4.675   1.855   5.724
 4521SOL    HW114462   4.725   1.921   5.780
 4521SOL    HW214463   4.707   1.763   5.744
 4522SOL     OW14464   5.560   0.120   3.649
 4522SOL    HW114465   5.487   0.180   3.682
 4522SOL    HW214466   5.573   0.136   3.551
 4523SOL     OW14467   1.178   3.937   0.353
 4523SOL    HW114468   1.134   3.944   0.263
 4523SOL    HW214469   1.112   3.902   0.420
 4524SOL     OW14470   5.198   2.062   5.831
 4524SOL    HW114471   5.275   2.005   5.857
 4524SOL    HW214472   5.132   2.065   5.906
 4525SOL     OW14473   6.634   1.846   3.684
 4525SOL    HW114474   6.694   1.926   3.675
 4525SOL    HW214475   6.545   1.866   3.641
 4526SOL     OW14476   5.407   0.045   1.420
 4526SOL    HW114477   5.403   6.991   1.482
 4526SOL    HW214478   5.381   0.127   1.470
 4527SOL     OW14479   4.216   1.448   3.925
 4527SOL    HW114480   4.246   1.360   3.962
 4527SOL    HW214481   4.292   1.490   3.876
 4528SOL     OW14482   5.051   6.681   0.464
 4528SOL    HW114483   5.020   6.647   0.376
 4528SOL    HW214484   5.057   6.780   0.462
 4529SOL     OW14485   2.883   1.419   2.984
 4529SOL    HW114486   2.878   1.384   2.891
 4529SOL    HW214487   2.793   1.414   3.027
 4530SOL     OW14488   0.105   3.992   5.637
 4530SOL    HW114489   0.109   3.896   5.665
 4530SOL    HW214490   0.089   3.997   5.539
 4531SOL     OW14491   0.455   3.381   3.418
 4531SOL    HW114492   0.381   3.319   3.444
 4531SOL    HW214493   0.429   3.432   3.337
 4532SOL     OW14494   0.603   1.256   2.155
 4532SOL    HW114495   0.635   1.322   2.222
 4532SOL    HW214496   0.513   1.222   2.182
 4533SOL     OW14497   1.735   0.194   3.953
 4533SOL    HW114498   1.639   0.222   3.956
 4533SOL    HW214499   1.782   0.232   4.033
 4534SOL     OW14500   6.323   3.630   4.526
 4534SOL    HW114501   6.334   3.725   4.555
 4534SOL    HW214502   6.338   3.569   4.603
 4535SOL     OW14503   4.636   1.958   2.588
 4535SOL    HW114504   4.580   2.006   2.521
 4535SOL    HW214505   4.643   1.862   2.562
 4536SOL     OW14506   4.809   1.654   4.626
 4536SOL    HW114507   4.764   1.600   4.698
 4536SOL    HW214508   4.745   1.667   4.550
 4537SOL     OW14509   3.445   3.457   6.170
 4537SOL    HW114510   3.449   3.531   6.102
 4537SOL    HW214511   3.362   3.467   6.224
 4538SOL     OW14512   3.202   2.131   4.177
 4538SOL    HW114513   3.200   2.075   4.095
 4538SOL    HW214514   3.272   2.096   4.240
 4539SOL     OW14515   2.609   1.906   3.760
 4539SOL    HW114516   2.637   1.924   3.854
 4539SOL    HW214517   2.522   1.952   3.742
 4540SOL     OW14518   3.703   3.623   3.854
 4540SOL    HW114519   3.739   3.605   3.763
 4540SOL    HW214520   3.606   3.599   3.857
 4541SOL     OW14521   5.665   1.207   0.529
 4541SOL    HW114522   5.634   1.247   0.442
 4541SOL    HW214523   5.596   1.143   0.563
 4542SOL     OW14524   5.976   6.566   1.937
 4542SOL    HW114525   6.051   6.591   1.876
 4542SOL    HW214526   5.930   6.650   1.967
 4543SOL     OW14527   4.223   1.739   7.007
 4543SOL    HW114528   4.156   1.806   0.014
 4543SOL    HW214529   4.300   1.735   0.045
 4544SOL     OW14530   2.724   6.077   5.815
 4544SOL    HW114531   2.715   5.995   5.760
 4544SOL    HW214532   2.690   6.156   5.764
 4545SOL     OW14533   5.552   2.435   5.112
 4545SOL    HW114534   5.644   2.468   5.131
 4545SOL    HW214535   5.495   2.511   5.082
 4546SOL     OW14536   1.344   0.410   6.302
 4546SOL    HW114537   1.279   0.485   6.292
 4546SOL    HW214538   1.310   0.330   6.252
 4547SOL     OW14539   6.301   2.433   2.205
 4547SOL    HW114540   6.272   2.451   2.299
 4547SOL    HW214541   6.374   2.497   2.180
 4548SOL     OW14542   1.058   4.070   4.354
 4548SOL    HW114543   1.126   4.140   4.375
 4548SOL    HW214544   0.978   4.082   4.413
 4549SOL     OW14545   6.028   4.071   2.850
 4549SOL    HW114546   6.056   4.008   2.922
 4549SOL    HW214547   6.099   4.075   2.779
 4550SOL     OW14548   0.386   6.050   3.668
 4550SOL    HW114549   0.320   5.976   3.680
 4550SOL    HW214550   0.442   6.032   3.588
 4551SOL     OW14551   0.014   1.601   5.541
 4551SOL    HW114552   6.976   1.616   5.464
 4551SOL    HW214553   0.036   1.689   5.583
 4552SOL     OW14554   6.881   2.861   6.053
 4552SOL    HW114555   6.828   2.918   6.116
 4552SOL    HW214556   6.929   2.919   5.987
 4553SOL     OW14557   3.525   4.304   7.016
 4553SOL    HW114558   3.436   4.296   0.036
 4553SOL    HW214559   3.519   4.373   6.943
 4554SOL     OW14560   3.848   0.711   1.857
 4554SOL    HW114561   3.888   0.649   1.790
 4554SOL    HW214562   3.899   0.796   1.858
 4555SOL     OW14563   4.314   1.326   6.080
 4555SOL    HW114564   4.214   1.318   6.077
 4555SOL    HW214565   4.354   1.236   6.095
 4556SOL     OW14566   4.555   2.021   3.872
 4556SOL    HW114567   4.540   2.078   3.791
 4556SOL    HW214568   4.514   1.931   3.859
 4557SOL     OW14569   4.941   6.607   5.058
 4557SOL    HW114570   5.026   6.628   5.105
 4557SOL    HW214571   4.962   6.564   4.970
 4558SOL     OW14572   6.450   3.701   5.695
 4558SOL    HW114573   6.549   3.708   5.697
 4558SOL    HW214574   6.410   3.791   5.716
 4559SOL     OW14575   1.360   6.438   1.645
 4559SOL    HW114576   1.278   6.403   1.690
 4559SOL    HW214577   1.399   6.512   1.700
 4560SOL     OW14578   5.158   4.471   3.172
 4560SOL    HW114579   5.126   4.408   3.243
 4560SOL    HW214580   5.254   4.493   3.188
 4561SOL     OW14581   2.485   0.597   1.099
 4561SOL    HW114582   2.539   0.672   1.138
 4561SOL    HW214583   2.440   0.546   1.172
 4562SOL     OW14584   2.742   5.746   5.218
 4562SOL    HW114585   2.676   5.776   5.287
 4562SOL    HW214586   2.720   5.653   5.189
 4563SOL     OW14587   6.400   4.103   0.114
 4563SOL    HW114588   6.394   4.092   0.014
 4563SOL    HW214589   6.395   4.200   0.137
 4564SOL     OW14590   1.145   5.791   0.617
 4564SOL    HW114591   1.068   5.844   0.580
 4564SOL    HW214592   1.230   5.838   0.597
 4565SOL     OW14593   0.608   1.019   5.155
 4565SOL    HW114594   0.519   0.973   5.143
 4565SOL    HW214595   0.641   1.051   5.067
 4566SOL     OW14596   0.133   0.427   1.071
 4566SOL    HW114597   0.227   0.450   1.045
 4566SOL    HW214598   0.089   0.379   0.996
 4567SOL     OW14599   0.493   0.943   0.389
 4567SOL    HW114600   0.562   0.963   0.458
 4567SOL    HW214601   0.443   1.027   0.367
 4568SOL     OW14602   1.797   4.278   5.188
 4568SOL    HW114603   1.706   4.265   5.148
 4568SOL    HW214604   1.861   4.308   5.116
 4569SOL     OW14605   2.183   2.006   3.877
 4569SOL    HW114606   2.190   1.918   3.923
 4569SOL    HW214607   2.100   2.009   3.822
 4570SOL     OW14608   6.974   5.546   3.531
 4570SOL    HW114609   6.999   5.575   3.439
 4570SOL    HW214610   7.005   5.453   3.547
 4571SOL     OW14611   3.224   3.734   5.237
 4571SOL    HW114612   3.216   3.688   5.148
 4571SOL    HW214613   3.231   3.666   5.310
 4572SOL     OW14614   0.190   6.262   0.231
 4572SOL    HW114615   0.185   6.357   0.262
 4572SOL    HW214616   0.098   6.230   0.209
 4573SOL     OW14617   5.897   6.103   0.962
 4573SOL    HW114618   5.976   6.121   1.021
 4573SOL    HW214619   5.879   6.005   0.958
 4574SOL     OW14620   6.825   4.622   0.918
 4574SOL    HW114621   6.910   4.588   0.958
 4574SOL    HW214622   6.825   4.603   0.820
 4575SOL     OW14623   6.922   2.333   0.826
 4575SOL    HW114624   6.853   2.282   0.876
 4575SOL    HW214625   6.937   2.290   0.736
 4576SOL     OW14626   2.494   5.531   6.122
 4576SOL    HW114627   2.421   5.574   6.069
 4576SOL    HW214628   2.466   5.438   6.148
 4577SOL     OW14629   0.220   3.245   3.075
 4577SOL    HW114630   0.306   3.194   3.085
 4577SOL    HW214631   0.214   3.284   2.984
 4578SOL     OW14632   7.004   4.119   3.609
 4578SOL    HW114633   0.041   4.060   3.661
 4578SOL    HW214634   0.022   4.145   3.523
 4579SOL     OW14635   5.097   1.844   3.309
 4579SOL    HW114636   5.187   1.803   3.323
 4579SOL    HW214637   5.100   1.905   3.230
 4580SOL     OW14638   5.310   5.450   0.196
 4580SOL    HW114639   5.277   5.544   0.198
 4580SOL    HW214640   5.336   5.425   0.103
 4581SOL     OW14641   3.134   5.278   2.283
 4581SOL    HW114642   3.097   5.200   2.232
 4581SOL    HW214643   3.234   5.274   2.284
 4582SOL     OW14644   6.107   6.612   4.770
 4582SOL    HW114645   6.189   6.613   4.714
 4582SOL    HW214646   6.073   6.706   4.782
 4583SOL     OW14647   3.097   1.737   5.099
 4583SOL    HW114648   3.161   1.724   5.175
 4583SOL    HW214649   3.091   1.834   5.077
 4584SOL     OW14650   0.297   6.060   6.006
 4584SOL    HW114651   0.313   6.155   5.979
 4584SOL    HW214652   0.208   6.030   5.972
 4585SOL     OW14653   2.961   6.359   2.790
 4585SOL    HW114654   2.949   6.299   2.869
 4585SOL    HW214655   2.920   6.317   2.709
 4586SOL     OW14656   4.219   4.486   1.380
 4586SOL    HW114657   4.316   4.469   1.393
 4586SOL    HW214658   4.190   4.560   1.441
 4587SOL     OW14659   4.266   3.794   1.749
 4587SOL    HW114660   4.345   3.815   1.806
 4587SOL    HW214661   4.262   3.696   1.732
 4588SOL     OW14662   3.711   3.357   4.980
 4588SOL    HW114663   3.721   3.456   4.969
 4588SOL    HW214664   3.791   3.311   4.942
 4589SOL     OW14665   5.881   1.701   2.527
 4589SOL    HW114666   5.950   1.641   2.568
 4589SOL    HW214667   5.814   1.646   2.478
 4590SOL     OW14668   4.293   6.002   1.584
 4590SOL    HW114669   4.305   6.000   1.683
 4590SOL    HW214670   4.334   6.087   1.548
 4591SOL     OW14671   0.266   6.346   5.375
 4591SOL    HW114672   0.307   6.435   5.392
 4591SOL    HW214673   0.338   6.281   5.349
 4592SOL     OW14674   4.157   3.038   1.606
 4592SOL    HW114675   4.248   3.013   1.639
 4592SOL    HW214676   4.090   2.974   1.642
 4593SOL     OW14677   4.332   5.331   3.576
 4593SOL    HW114678   4.397   5.404   3.554
 4593SOL    HW214679   4.282   5.355   3.659
 4594SOL     OW14680   3.452   2.097   1.279
 4594SOL    HW114681   3.502   2.166   1.227
 4594SOL    HW214682   3.401   2.141   1.352
 4595SOL     OW14683   3.790   2.497   5.916
 4595SOL    HW114684   3.760   2.554   5.839
 4595SOL    HW214685   3.854   2.428   5.882
 4596SOL     OW14686   5.782   6.382   1.815
 4596SOL    HW114687   5.817   6.291   1.793
 4596SOL    HW214688   5.851   6.434   1.864
 4597SOL     OW14689   4.966   4.786   6.802
 4597SOL    HW114690   5.021   4.811   6.722
 4597SOL    HW214691   4.884   4.844   6.804
 4598SOL     OW14692   1.006   4.931   6.888
 4598SOL    HW114693   1.062   4.863   6.841
 4598SOL    HW214694   0.921   4.889   6.919
 4599SOL     OW14695   1.280   4.029   1.467
 4599SOL    HW114696   1.350   3.975   1.513
 4599SOL    HW214697   1.189   3.996   1.492
 4600SOL     OW14698   2.663   5.333   5.652
 4600SOL    HW114699   2.592   5.402   5.644
 4600SOL    HW214700   2.634   5.263   5.717
 4601SOL     OW14701   1.975   0.657   5.343
 4601SOL    HW114702   2.069   0.629   5.322
 4601SOL    HW214703   1.969   0.757   5.342
 4602SOL     OW14704   0.902   6.211   0.692
 4602SOL    HW114705   0.843   6.292   0.689
 4602SOL    HW214706   0.983   6.232   0.747
 4603SOL     OW14707   3.926   6.481   1.108
 4603SOL    HW114708   4.018   6.491   1.146
 4603SOL    HW214709   3.908   6.556   1.045
 4604SOL     OW14710   4.208   0.812   1.140
 4604SOL    HW114711   4.233   0.800   1.044
 4604SOL    HW214712   4.218   0.908   1.165
 4605SOL     OW14713   4.990   0.607   3.886
 4605SOL    HW114714   4.927   0.657   3.827
 4605SOL    HW214715   4.938   0.551   3.951
 4606SOL     OW14716   7.014   0.007   2.048
 4606SOL    HW114717   0.065   6.987   2.094
 4606SOL    HW214718   6.947   6.965   2.019
 4607SOL     OW14719   2.720   2.448   0.687
 4607SOL    HW114720   2.644   2.462   0.624
 4607SOL    HW214721   2.764   2.536   0.706
 4608SOL     OW14722   1.431   5.415   4.584
 4608SOL    HW114723   1.417   5.495   4.525
 4608SOL    HW214724   1.361   5.414   4.656
 4609SOL     OW14725   3.934   5.103   6.178
 4609SOL    HW114726   3.957   5.200   6.168
 4609SOL    HW214727   3.971   5.069   6.265
 4610SOL     OW14728   0.039   2.530   0.377
 4610SOL    HW114729   0.102   2.505   0.451
 4610SOL    HW214730   0.030   2.629   0.372
 4611SOL     OW14731   6.295   4.841   5.672
 4611SOL    HW114732   6.388   4.859   5.704
 4611SOL    HW214733   6.263   4.755   5.711
 4612SOL     OW14734   1.651   6.429   0.042
 4612SOL    HW114735   1.633   6.381   0.127
 4612SOL    HW214736   1.645   6.528   0.057
 4613SOL     OW14737   2.333   5.687   2.666
 4613SOL    HW114738   2.269   5.759   2.692
 4613SOL    HW214739   2.387   5.716   2.587
 4614SOL     OW14740   1.334   4.903   6.042
 4614SOL    HW114741   1.363   4.915   6.137
 4614SOL    HW214742   1.364   4.983   5.989
 4615SOL     OW14743   1.941   1.193   6.701
 4615SOL    HW114744   1.907   1.222   6.611
 4615SOL    HW214745   1.930   1.269   6.766
 4616SOL     OW14746   0.100   0.412   5.903
 4616SOL    HW114747   0.170   0.464   5.854
 4616SOL    HW214748   0.010   0.452   5.885
 4617SOL     OW14749   1.514   2.175   2.619
 4617SOL    HW114750   1.596   2.127   2.651
 4617SOL    HW214751   1.464   2.116   2.556
 4618SOL     OW14752   1.891   2.772   4.837
 4618SOL    HW114753   1.961   2.749   4.770
 4618SOL    HW214754   1.913   2.729   4.925
 4619SOL     OW14755   5.000   6.432   3.430
 4619SOL    HW114756   4.967   6.432   3.336
 4619SOL    HW214757   4.974   6.518   3.474
 4620SOL     OW14758   3.453   3.842   6.859
 4620SOL    HW114759   3.362   3.830   6.819
 4620SOL    HW214760   3.511   3.764   6.835
 4621SOL     OW14761   5.757   2.402   3.696
 4621SOL    HW114762   5.704   2.428   3.776
 4621SOL    HW214763   5.802   2.314   3.713
 4622SOL     OW14764   0.935   3.137   1.381
 4622SOL    HW114765   0.908   3.121   1.286
 4622SOL    HW214766   0.854   3.139   1.439
 4623SOL     OW14767   6.902   5.589   1.184
 4623SOL    HW114768   6.976   5.654   1.169
 4623SOL    HW214769   6.900   5.523   1.109
 4624SOL     OW14770   4.504   0.033   2.950
 4624SOL    HW114771   4.568   0.089   3.002
 4624SOL    HW214772   4.547   0.005   2.864
 4625SOL     OW14773   1.412   4.105   6.873
 4625SOL    HW114774   1.396   4.042   6.798
 4625SOL    HW214775   1.473   4.178   6.843
 4626SOL     OW14776   5.733   4.740   1.305
 4626SOL    HW114777   5.696   4.693   1.226
 4626SOL    HW214778   5.741   4.838   1.286
 4627SOL     OW14779   3.086   5.577   4.997
 4627SOL    HW114780   3.023   5.525   5.054
 4627SOL    HW214781   3.034   5.634   4.933
 4628SOL     OW14782   5.989   4.376   3.324
 4628SOL    HW114783   5.970   4.319   3.244
 4628SOL    HW214784   5.905   4.421   3.354
 4629SOL     OW14785   1.846   4.895   6.084
 4629SOL    HW114786   1.862   4.902   6.183
 4629SOL    HW214787   1.934   4.895   6.037
 4630SOL     OW14788   3.600   5.783   3.397
 4630SOL    HW114789   3.683   5.799   3.450
 4630SOL    HW214790   3.542   5.864   3.401
 4631SOL     OW14791   2.693   6.852   3.331
 4631SOL    HW114792   2.671   6.924   3.265
 4631SOL    HW214793   2.690   6.890   3.424
 4632SOL     OW14794   4.222   5.126   2.911
 4632SOL    HW114795   4.218   5.089   3.004
 4632SOL    HW214796   4.175   5.215   2.909
 4633SOL     OW14797   6.255   2.099   4.091
 4633SOL    HW114798   6.319   2.168   4.124
 4633SOL    HW214799   6.304   2.035   4.031
 4634SOL     OW14800   2.458   4.407   6.489
 4634SOL    HW114801   2.488   4.402   6.585
 4634SOL    HW214802   2.538   4.408   6.429
 4635SOL     OW14803   6.094   3.848   2.295
 4635SOL    HW114804   6.015   3.859   2.235
 4635SOL    HW214805   6.173   3.894   2.255
 4636SOL     OW14806   2.423   4.929   6.934
 4636SOL    HW114807   2.428   4.834   6.965
 4636SOL    HW214808   2.440   4.933   6.836
 4637SOL     OW14809   1.898   0.922   0.040
 4637SOL    HW114810   1.969   0.865   7.024
 4637SOL    HW214811   1.846   0.868   0.106
 4638SOL     OW14812   3.713   2.747   6.427
 4638SOL    HW114813   3.680   2.819   6.366
 4638SOL    HW214814   3.734   2.665   6.374
 4639SOL     OW14815   2.083   4.645   5.348
 4639SOL    HW114816   2.030   4.595   5.416
 4639SOL    HW214817   2.107   4.735   5.383
 4640SOL     OW14818   4.592   5.065   3.386
 4640SOL    HW114819   4.674   5.022   3.348
 4640SOL    HW214820   4.517   5.060   3.320
 4641SOL     OW14821   2.681   5.166   3.721
 4641SOL    HW114822   2.732   5.189   3.804
 4641SOL    HW214823   2.704   5.073   3.693
 4642SOL     OW14824   0.296   6.819   5.450
 4642SOL    HW114825   0.320   6.722   5.452
 4642SOL    HW214826   0.290   6.854   5.544
 4643SOL     OW14827   4.836   2.682   0.664
 4643SOL    HW114828   4.920   2.720   0.627
 4643SOL    HW214829   4.770   2.756   0.682
 4644SOL     OW14830   1.356   4.944   5.178
 4644SOL    HW114831   1.270   4.953   5.129
 4644SOL    HW214832   1.359   4.855   5.224
 4645SOL     OW14833   1.706   0.391   4.715
 4645SOL    HW114834   1.637   0.395   4.643
 4645SOL    HW214835   1.774   0.321   4.693
 4646SOL     OW14836   2.079   6.440   2.793
 4646SOL    HW114837   2.132   6.366   2.835
 4646SOL    HW214838   2.018   6.403   2.723
 4647SOL     OW14839   0.413   6.489   3.245
 4647SOL    HW114840   0.468   6.548   3.185
 4647SOL    HW214841   0.431   6.514   3.340
 4648SOL     OW14842   4.126   0.050   1.099
 4648SOL    HW114843   4.073   0.032   1.015
 4648SOL    HW214844   4.124   6.994   1.157
 4649SOL     OW14845   5.035   0.177   5.808
 4649SOL    HW114846   5.105   0.147   5.872
 4649SOL    HW214847   4.962   0.224   5.857
 4650SOL     OW14848   4.052   5.888   3.658
 4650SOL    HW114849   4.058   5.971   3.604
 4650SOL    HW214850   4.137   5.836   3.650
 4651SOL     OW14851   0.210   2.062   1.138
 4651SOL    HW114852   0.210   2.087   1.235
 4651SOL    HW214853   0.143   2.117   1.090
 4652SOL     OW14854   0.927   0.129   3.443
 4652SOL    HW114855   0.997   0.062   3.418
 4652SOL    HW214856   0.948   0.167   3.533
 4653SOL     OW14857   6.811   5.215   0.516
 4653SOL    HW114858   6.883   5.238   0.581
 4653SOL    HW214859   6.834   5.130   0.469
 4654SOL     OW14860   0.911   0.146   6.968
 4654SOL    HW114861   0.827   0.109   6.928
 4654SOL    HW214862   0.976   0.167   6.895
 4655SOL     OW14863   6.778   4.686   2.035
 4655SOL    HW114864   6.834   4.604   2.036
 4655SOL    HW214865   6.781   4.729   1.945
 4656SOL     OW14866   0.921   6.824   2.960
 4656SOL    HW114867   0.886   6.736   2.993
 4656SOL    HW214868   0.973   6.810   2.876
 4657SOL     OW14869   5.025   0.038   1.900
 4657SOL    HW114870   5.047   0.117   1.842
 4657SOL    HW214871   5.110   7.025   1.937
 4658SOL     OW14872   3.552   0.493   2.727
 4658SOL    HW114873   3.578   0.583   2.693
 4658SOL    HW214874   3.478   0.456   2.672
 4659SOL     OW14875   2.365   3.759   5.679
 4659SOL    HW114876   2.366   3.838   5.617
 4659SOL    HW214877   2.314   3.684   5.636
 4660SOL     OW14878   1.525   2.725   4.795
 4660SOL    HW114879   1.575   2.645   4.830
 4660SOL    HW214880   1.568   2.757   4.711
 4661SOL     OW14881   4.431   4.251   5.343
 4661SOL    HW114882   4.456   4.156   5.363
 4661SOL    HW214883   4.353   4.277   5.400
 4662SOL     OW14884   4.873   0.203   5.058
 4662SOL    HW114885   4.802   0.273   5.064
 4662SOL    HW214886   4.915   0.190   5.147
 4663SOL     OW14887   7.016   1.104   2.563
 4663SOL    HW114888   0.073   1.081   2.615
 4663SOL    HW214889   0.009   1.186   2.508
 4664SOL     OW14890   2.006   2.567   6.379
 4664SOL    HW114891   1.942   2.497   6.347
 4664SOL    HW214892   1.962   2.623   6.449
 4665SOL     OW14893   4.696   0.006   6.929
 4665SOL    HW114894   4.712   0.101   6.957
 4665SOL    HW214895   4.759   6.971   6.978
 4666SOL     OW14896   2.293   1.741   6.914
 4666SOL    HW114897   2.203   1.718   6.876
 4666SOL    HW214898   2.328   1.664   6.967
 4667SOL     OW14899   6.468   5.253   0.521
 4667SOL    HW114900   6.517   5.169   0.544
 4667SOL    HW214901   6.510   5.295   0.440
 4668SOL     OW14902   0.032   1.793   4.067
 4668SOL    HW114903   0.126   1.813   4.039
 4668SOL    HW214904   6.995   1.808   3.991
 4669SOL     OW14905   3.699   6.570   0.758
 4669SOL    HW114906   3.771   6.515   0.715
 4669SOL    HW214907   3.642   6.611   0.687
 4670SOL     OW14908   3.505   1.459   4.970
 4670SOL    HW114909   3.466   1.540   5.014
 4670SOL    HW214910   3.535   1.394   5.040
 4671SOL     OW14911   6.141   2.955   1.838
 4671SOL    HW114912   6.058   2.917   1.877
 4671SOL    HW214913   6.160   3.044   1.879
 4672SOL     OW14914   2.859   4.702   6.039
 4672SOL    HW114915   2.763   4.675   6.050
 4672SOL    HW214916   2.871   4.795   6.074
 4673SOL     OW14917   4.934   6.880   1.331
 4673SOL    HW114918   4.854   6.939   1.318
 4673SOL    HW214919   5.000   6.925   1.391
 4674SOL     OW14920   5.128   6.294   6.392
 4674SOL    HW114921   5.099   6.320   6.300
 4674SOL    HW214922   5.221   6.258   6.389
 4675SOL     OW14923   0.775   3.625   0.733
 4675SOL    HW114924   0.833   3.576   0.668
 4675SOL    HW214925   0.679   3.609   0.709
 4676SOL     OW14926   0.943   5.642   3.831
 4676SOL    HW114927   0.911   5.608   3.742
 4676SOL    HW214928   0.911   5.735   3.845
 4677SOL     OW14929   2.002   2.219   1.007
 4677SOL    HW114930   1.962   2.184   0.922
 4677SOL    HW214931   2.061   2.297   0.986
 4678SOL     OW14932   2.574   4.551   2.750
 4678SOL    HW114933   2.552   4.458   2.720
 4678SOL    HW214934   2.606   4.549   2.845
 4679SOL     OW14935   4.155   0.065   2.277
 4679SOL    HW114936   4.147   0.127   2.355
 4679SOL    HW214937   4.251   0.043   2.261
 4680SOL     OW14938   3.983   1.870   0.518
 4680SOL    HW114939   4.030   1.905   0.437
 4680SOL    HW214940   3.885   1.862   0.499
 4681SOL     OW14941   4.749   4.913   6.804
 4681SOL    HW114942   4.700   4.993   6.771
 4681SOL    HW214943   4.748   4.911   6.904
 4682SOL     OW14944   5.595   3.570   6.121
 4682SOL    HW114945   5.529   3.506   6.081
 4682SOL    HW214946   5.672   3.519   6.160
 4683SOL     OW14947   5.961   5.453   2.199
 4683SOL    HW114948   5.938   5.374   2.142
 4683SOL    HW214949   6.036   5.429   2.260
 4684SOL     OW14950   4.429   6.400   5.991
 4684SOL    HW114951   4.430   6.306   5.956
 4684SOL    HW214952   4.522   6.426   6.018
 4685SOL     OW14953   2.028   4.631   6.110
 4685SOL    HW114954   2.045   4.709   6.049
 4685SOL    HW214955   2.061   4.547   6.066
 4686SOL     OW14956   4.362   5.263   0.603
 4686SOL    HW114957   4.420   5.344   0.605
 4686SOL    HW214958   4.411   5.187   0.561
 4687SOL     OW14959   4.833   2.538   4.421
 4687SOL    HW114960   4.816   2.619   4.366
 4687SOL    HW214961   4.778   2.462   4.387
 4688SOL     OW14962   5.857   2.462   5.418
 4688SOL    HW114963   5.921   2.428   5.349
 4688SOL    HW214964   5.865   2.562   5.424
 4689SOL     OW14965   5.743   0.619   1.197
 4689SOL    HW114966   5.740   0.530   1.241
 4689SOL    HW214967   5.838   0.649   1.188
 4690SOL     OW14968   1.435   1.485   0.730
 4690SOL    HW114969   1.371   1.561   0.742
 4690SOL    HW214970   1.435   1.456   0.635
 4691SOL     OW14971   3.895   3.648   0.103
 4691SOL    HW114972   3.958   3.575   0.080
 4691SOL    HW214973   3.889   3.713   0.027
 4692SOL     OW14974   5.934   4.987   3.180
 4692SOL    HW114975   5.945   4.901   3.230
 4692SOL    HW214976   5.884   4.969   3.095
 4693SOL     OW14977   1.165   0.982   3.727
 4693SOL    HW114978   1.109   1.020   3.654
 4693SOL    HW214979   1.188   0.887   3.707
 4694SOL     OW14980   2.333   2.564   0.834
 4694SOL    HW114981   2.397   2.623   0.884
 4694SOL    HW214982   2.362   2.557   0.739
 4695SOL     OW14983   1.517   6.110   0.646
 4695SOL    HW114984   1.594   6.173   0.630
 4695SOL    HW214985   1.461   6.144   0.722
 4696SOL     OW14986   0.451   5.743   6.962
 4696SOL    HW114987   0.430   5.646   6.947
 4696SOL    HW214988   0.398   5.778   0.013
 4697SOL     OW14989   1.113   3.788   2.162
 4697SOL    HW114990   1.100   3.699   2.120
 4697SOL    HW214991   1.158   3.777   2.251
 4698SOL     OW14992   3.767   6.914   3.341
 4698SOL    HW114993   3.841   6.848   3.330
 4698SOL    HW214994   3.724   6.902   3.430
 4699SOL     OW14995   0.652   6.583   2.729
 4699SOL    HW114996   0.638   6.680   2.709
 4699SOL    HW214997   0.683   6.573   2.823
 4700SOL     OW14998   6.431   1.323   2.079
 4700SOL    HW114999   6.384   1.262   2.016
 4700SOL    HW215000   6.527   1.333   2.051
 4701SOL     OW15001   3.533   1.995   1.015
 4701SOL    HW115002   3.440   2.029   1.005
 4701SOL    HW215003   3.544   1.953   1.105
 4702SOL     OW15004   4.634   4.590   0.174
 4702SOL    HW115005   4.582   4.604   0.258
 4702SOL    HW215006   4.729   4.618   0.190
 4703SOL     OW15007   0.996   5.908   2.827
 4703SOL    HW115008   0.941   5.858   2.894
 4703SOL    HW215009   1.078   5.945   2.871
 4704SOL     OW15010   0.480   5.837   6.029
 4704SOL    HW115011   0.426   5.757   6.057
 4704SOL    HW215012   0.421   5.918   6.029
 4705SOL     OW15013   3.168   2.724   0.696
 4705SOL    HW115014   3.157   2.823   0.694
 4705SOL    HW215015   3.201   2.696   0.787
 4706SOL     OW15016   1.241   0.729   0.668
 4706SOL    HW115017   1.179   0.674   0.612
 4706SOL    HW215018   1.335   0.705   0.648
 4707SOL     OW15019   1.181   5.951   1.320
 4707SOL    HW115020   1.246   5.910   1.384
 4707SOL    HW215021   1.218   5.946   1.227
 4708SOL     OW15022   0.777   2.312   5.810
 4708SOL    HW115023   0.697   2.266   5.771
 4708SOL    HW215024   0.859   2.281   5.763
 4709SOL     OW15025   4.663   4.855   4.338
 4709SOL    HW115026   4.744   4.890   4.291
 4709SOL    HW215027   4.688   4.773   4.390
 4710SOL     OW15028   5.548   0.070   5.797
 4710SOL    HW115029   5.505   7.018   5.752
 4710SOL    HW215030   5.643   0.049   5.817
 4711SOL     OW15031   6.647   1.884   2.482
 4711SOL    HW115032   6.709   1.806   2.491
 4711SOL    HW215033   6.699   1.965   2.452
 4712SOL     OW15034   3.796   4.739   6.758
 4712SOL    HW115035   3.783   4.740   6.659
 4712SOL    HW215036   3.844   4.656   6.785
 4713SOL     OW15037   5.113   5.676   0.921
 4713SOL    HW115038   5.026   5.672   0.871
 4713SOL    HW215039   5.148   5.584   0.935
 4714SOL     OW15040   0.564   1.418   6.479
 4714SOL    HW115041   0.474   1.460   6.492
 4714SOL    HW215042   0.600   1.389   6.567
 4715SOL     OW15043   6.120   2.688   1.365
 4715SOL    HW115044   6.027   2.664   1.337
 4715SOL    HW215045   6.131   2.669   1.462
 4716SOL     OW15046   5.075   6.186   5.652
 4716SOL    HW115047   5.015   6.106   5.648
 4716SOL    HW215048   5.048   6.251   5.582
 4717SOL     OW15049   2.146   4.904   5.062
 4717SOL    HW115050   2.231   4.888   5.112
 4717SOL    HW215051   2.106   4.991   5.091
 4718SOL     OW15052   4.938   2.700   1.121
 4718SOL    HW115053   4.999   2.708   1.042
 4718SOL    HW215054   4.843   2.709   1.089
 4719SOL     OW15055   4.873   3.971   2.722
 4719SOL    HW115056   4.970   3.994   2.733
 4719SOL    HW215057   4.825   4.050   2.681
 4720SOL     OW15058   1.902   4.679   6.353
 4720SOL    HW115059   1.900   4.598   6.412
 4720SOL    HW215060   1.956   4.659   6.272
 4721SOL     OW15061   5.854   2.401   1.656
 4721SOL    HW115062   5.819   2.422   1.565
 4721SOL    HW215063   5.792   2.338   1.702
 4722SOL     OW15064   0.957   6.331   6.736
 4722SOL    HW115065   1.005   6.255   6.780
 4722SOL    HW215066   0.886   6.366   6.797
 4723SOL     OW15067   3.504   3.953   5.303
 4723SOL    HW115068   3.431   3.983   5.243
 4723SOL    HW215069   3.503   4.008   5.387
 4724SOL     OW15070   0.142   0.242   4.109
 4724SOL    HW115071   0.141   0.155   4.158
 4724SOL    HW215072   0.192   0.231   4.023
 4725SOL     OW15073   5.752   5.461   7.002
 4725SOL    HW115074   5.708   5.374   7.022
 4725SOL    HW215075   5.686   5.524   6.961
 4726SOL     OW15076   1.287   3.233   5.811
 4726SOL    HW115077   1.219   3.279   5.869
 4726SOL    HW215078   1.285   3.274   5.720
 4727SOL     OW15079   0.147   6.183   1.152
 4727SOL    HW115080   0.099   6.264   1.116
 4727SOL    HW215081   0.163   6.195   1.250
 4728SOL     OW15082   6.741   1.529   2.671
 4728SOL    HW115083   6.815   1.464   2.691
 4728SOL    HW215084   6.684   1.540   2.752
 4729SOL     OW15085   5.046   0.302   0.857
 4729SOL    HW115086   5.064   0.209   0.890
 4729SOL    HW215087   4.959   0.303   0.808
 4730SOL     OW15088   3.946   5.845   5.663
 4730SOL    HW115089   3.986   5.785   5.594
 4730SOL    HW215090   3.981   5.938   5.651
 4731SOL     OW15091   2.850   0.688   0.563
 4731SOL    HW115092   2.764   0.735   0.547
 4731SOL    HW215093   2.841   0.627   0.642
 4732SOL     OW15094   0.314   3.530   5.527
 4732SOL    HW115095   0.355   3.596   5.590
 4732SOL    HW215096   0.348   3.547   5.434
 4733SOL     OW15097   0.982   4.121   2.693
 4733SOL    HW115098   1.009   4.049   2.629
 4733SOL    HW215099   1.036   4.203   2.674
 4734SOL     OW15100   5.427   3.285   0.374
 4734SOL    HW115101   5.441   3.379   0.344
 4734SOL    HW215102   5.340   3.279   0.424
 4735SOL     OW15103   6.481   5.529   4.572
 4735SOL    HW115104   6.397   5.517   4.521
 4735SOL    HW215105   6.509   5.441   4.612
 4736SOL     OW15106   5.663   1.912   4.086
 4736SOL    HW115107   5.757   1.898   4.115
 4736SOL    HW215108   5.648   2.010   4.067
 4737SOL     OW15109   2.390   4.135   0.925
 4737SOL    HW115110   2.439   4.215   0.961
 4737SOL    HW215111   2.292   4.149   0.936
 4738SOL     OW15112   3.187   6.873   3.698
 4738SOL    HW115113   3.184   6.811   3.776
 4738SOL    HW215114   3.097   6.877   3.655
 4739SOL     OW15115   5.884   2.150   3.802
 4739SOL    HW115116   5.912   2.055   3.788
 4739SOL    HW215117   5.835   2.158   3.888
 4740SOL     OW15118   0.798   0.522   0.709
 4740SOL    HW115119   0.726   0.463   0.674
 4740SOL    HW215120   0.885   0.472   0.712
 4741SOL     OW15121   4.698   4.085   0.985
 4741SOL    HW115122   4.622   4.020   0.975
 4741SOL    HW215123   4.760   4.052   1.056
 4742SOL     OW15124   3.536   5.835   1.507
 4742SOL    HW115125   3.497   5.816   1.597
 4742SOL    HW215126   3.635   5.850   1.516
 4743SOL     OW15127   1.379   1.885   6.157
 4743SOL    HW115128   1.426   1.832   6.228
 4743SOL    HW215129   1.419   1.976   6.152
 4744SOL     OW15130   2.314   3.016   5.669
 4744SOL    HW115131   2.275   3.041   5.580
 4744SOL    HW215132   2.239   3.002   5.735
 4745SOL     OW15133   2.578   4.924   5.061
 4745SOL    HW115134   2.574   4.885   4.968
 4745SOL    HW215135   2.653   4.880   5.111
 4746SOL     OW15136   5.786   6.493   1.184
 4746SOL    HW115137   5.734   6.569   1.222
 4746SOL    HW215138   5.829   6.441   1.258
 4747SOL     OW15139   1.415   3.517   5.718
 4747SOL    HW115140   1.330   3.549   5.761
 4747SOL    HW215141   1.463   3.456   5.780
 4748SOL     OW15142   1.871   5.949   1.171
 4748SOL    HW115143   1.870   5.858   1.130
 4748SOL    HW215144   1.822   6.013   1.111
 4749SOL     OW15145   2.842   6.368   5.649
 4749SOL    HW115146   2.924   6.416   5.619
 4749SOL    HW215147   2.840   6.277   5.607
 4750SOL     OW15148   0.286   1.909   4.004
 4750SOL    HW115149   0.303   1.961   3.920
 4750SOL    HW215150   0.368   1.913   4.062
 4751SOL     OW15151   2.024   3.537   0.079
 4751SOL    HW115152   2.117   3.532   0.115
 4751SOL    HW215153   2.011   3.624   0.032
 4752SOL     OW15154   3.000   0.040   0.467
 4752SOL    HW115155   2.945   7.000   0.415
 4752SOL    HW215156   2.968   0.044   0.561
 4753SOL     OW15157   5.266   0.293   4.111
 4753SOL    HW115158   5.364   0.300   4.131
 4753SOL    HW215159   5.243   0.198   4.090
 4754SOL     OW15160   5.688   0.352   5.650
 4754SOL    HW115161   5.668   0.332   5.554
 4754SOL    HW215162   5.781   0.387   5.658
 4755SOL     OW15163   2.351   0.830   6.917
 4755SOL    HW115164   2.392   0.764   6.980
 4755SOL    HW215165   2.302   0.900   6.969
 4756SOL     OW15166   5.646   2.040   1.514
 4756SOL    HW115167   5.668   2.079   1.603
 4756SOL    HW215168   5.640   1.941   1.522
 4757SOL     OW15169   1.545   1.859   2.395
 4757SOL    HW115170   1.494   1.939   2.363
 4757SOL    HW215171   1.487   1.804   2.455
 4758SOL     OW15172   3.585   5.642   5.055
 4758SOL    HW115173   3.679   5.671   5.074
 4758SOL    HW215174   3.568   5.555   5.101
 4759SOL     OW15175   5.637   5.365   5.449
 4759SOL    HW115176   5.667   5.460   5.449
 4759SOL    HW215177   5.571   5.351   5.375
 4760SOL     OW15178   3.251   2.313   1.041
 4760SOL    HW115179   3.259   2.396   1.096
 4760SOL    HW215180   3.257   2.337   0.944
 4761SOL     OW15181   6.702   0.897   6.661
 4761SOL    HW115182   6.719   0.928   6.754
 4761SOL    HW215183   6.704   0.975   6.599
 4762SOL     OW15184   2.842   4.985   3.007
 4762SOL    HW115185   2.756   5.008   2.962
 4762SOL    HW215186   2.845   4.887   3.027
 4763SOL     OW15187   5.789   6.144   3.508
 4763SOL    HW115188   5.851   6.073   3.477
 4763SOL    HW215189   5.817   6.232   3.470
 4764SOL     OW15190   5.002   3.649   5.605
 4764SOL    HW115191   4.965   3.643   5.513
 4764SOL    HW215192   4.962   3.728   5.652
 4765SOL     OW15193   5.263   6.502   4.111
 4765SOL    HW115194   5.322   6.468   4.185
 4765SOL    HW215195   5.296   6.466   4.024
 4766SOL     OW15196   4.114   0.388   3.604
 4766SOL    HW115197   4.029   0.402   3.553
 4766SOL    HW215198   4.184   0.353   3.541
 4767SOL     OW15199   4.215   5.749   6.547
 4767SOL    HW115200   4.261   5.698   6.474
 4767SOL    HW215201   4.279   5.812   6.589
 4768SOL     OW15202   5.064   1.852   5.291
 4768SOL    HW115203   5.076   1.941   5.246
 4768SOL    HW215204   4.966   1.831   5.296
 4769SOL     OW15205   4.744   5.217   0.764
 4769SOL    HW115206   4.752   5.150   0.838
 4769SOL    HW215207   4.663   5.274   0.780
 4770SOL     OW15208   1.867   6.942   3.681
 4770SOL    HW115209   1.771   6.914   3.669
 4770SOL    HW215210   1.880   6.978   3.773
 4771SOL     OW15211   3.378   5.499   6.116
 4771SOL    HW115212   3.346   5.582   6.070
 4771SOL    HW215213   3.474   5.512   6.143
 4772SOL     OW15214   2.046   5.855   2.216
 4772SOL    HW115215   1.979   5.784   2.237
 4772SOL    HW215216   2.000   5.931   2.171
 4773SOL     OW15217   6.744   5.143   5.162
 4773SOL    HW115218   6.833   5.111   5.130
 4773SOL    HW215219   6.696   5.070   5.210
 4774SOL     OW15220   1.164   2.169   1.704
 4774SOL    HW115221   1.193   2.255   1.747
 4774SOL    HW215222   1.219   2.093   1.740
 4775SOL     OW15223   5.574   0.612   3.183
 4775SOL    HW115224   5.580   0.712   3.174
 4775SOL    HW215225   5.638   0.580   3.253
 4776SOL     OW15226   1.919   6.471   4.379
 4776SOL    HW115227   1.945   6.459   4.475
 4776SOL    HW215228   1.981   6.537   4.336
 4777SOL     OW15229   2.934   4.908   1.381
 4777SOL    HW115230   2.953   4.818   1.420
 4777SOL    HW215231   2.845   4.940   1.412
 4778SOL     OW15232   5.246   2.448   2.035
 4778SOL    HW115233   5.322   2.419   2.093
 4778SOL    HW215234   5.163   2.457   2.091
 4779SOL     OW15235   7.009   6.467   2.301
 4779SOL    HW115236   6.935   6.416   2.257
 4779SOL    HW215237   0.067   6.459   2.245
 4780SOL     OW15238   0.358   0.122   6.925
 4780SOL    HW115239   0.363   0.124   7.025
 4780SOL    HW215240   0.374   0.028   6.893
 4781SOL     OW15241   2.673   6.007   1.073
 4781SOL    HW115242   2.726   6.072   1.018
 4781SOL    HW215243   2.700   6.015   1.169
 4782SOL     OW15244   4.572   6.690   0.106
 4782SOL    HW115245   4.619   6.771   0.143
 4782SOL    HW215246   4.484   6.717   0.068
 4783SOL     OW15247   5.044   4.202   7.000
 4783SOL    HW115248   5.097   4.215   0.059
 4783SOL    HW215249   4.948   4.222   7.018
 4784SOL     OW15250   6.658   3.988   6.975
 4784SOL    HW115251   6.559   3.984   6.965
 4784SOL    HW215252   6.694   3.895   6.986
 4785SOL     OW15253   6.944   5.764   1.809
 4785SOL    HW115254   6.859   5.716   1.789
 4785SOL    HW215255   6.989   5.721   1.888
 4786SOL     OW15256   2.493   2.111   1.948
 4786SOL    HW115257   2.399   2.131   1.975
 4786SOL    HW215258   2.493   2.051   1.869
 4787SOL     OW15259   3.400   2.043   3.459
 4787SOL    HW115260   3.371   2.044   3.363
 4787SOL    HW215261   3.457   1.963   3.476
 4788SOL     OW15262   1.483   5.770   6.163
 4788SOL    HW115263   1.546   5.718   6.105
 4788SOL    HW215264   1.389   5.740   6.143
 4789SOL     OW15265   5.236   0.628   0.358
 4789SOL    HW115266   5.282   0.583   0.280
 4789SOL    HW215267   5.282   0.602   0.443
 4790SOL     OW15268   6.415   3.299   6.310
 4790SOL    HW115269   6.505   3.284   6.267
 4790SOL    HW215270   6.381   3.212   6.346
 4791SOL     OW15271   5.750   1.965   2.144
 4791SOL    HW115272   5.798   1.941   2.228
 4791SOL    HW215273   5.792   2.047   2.104
 4792SOL     OW15274   1.766   3.521   2.338
 4792SOL    HW115275   1.795   3.516   2.434
 4792SOL    HW215276   1.722   3.609   2.321
 4793SOL     OW15277   0.923   2.998   6.042
 4793SOL    HW115278   0.824   2.996   6.032
 4793SOL    HW215279   0.947   2.996   6.139
 4794SOL     OW15280   3.901   1.116   3.628
 4794SOL    HW115281   3.951   1.199   3.652
 4794SOL    HW215282   3.963   1.038   3.628
 4795SOL     OW15283   6.450   1.489   3.392
 4795SOL    HW115284   6.486   1.552   3.323
 4795SOL    HW215285   6.450   1.534   3.481
 4796SOL     OW15286   5.072   2.367   6.543
 4796SOL    HW115287   5.068   2.358   6.443
 4796SOL    HW215288   5.146   2.429   6.568
 4797SOL     OW15289   1.318   6.382   5.036
 4797SOL    HW115290   1.338   6.306   5.097
 4797SOL    HW215291   1.263   6.450   5.085
 4798SOL     OW15292   0.203   3.418   5.269
 4798SOL    HW115293   0.257   3.354   5.324
 4798SOL    HW215294   0.155   3.367   5.197
 4799SOL     OW15295   5.035   2.223   6.298
 4799SOL    HW115296   4.956   2.161   6.294
 4799SOL    HW215297   5.114   2.173   6.334
 4800SOL     OW15298   3.049   3.295   5.729
 4800SOL    HW115299   2.993   3.251   5.658
 4800SOL    HW215300   3.129   3.239   5.748
 4801SOL     OW15301   2.027   2.361   6.715
 4801SOL    HW115302   2.042   2.262   6.723
 4801SOL    HW215303   2.096   2.401   6.654
 4802SOL     OW15304   1.055   6.838   2.284
 4802SOL    HW115305   0.959   6.867   2.285
 4802SOL    HW215306   1.059   6.739   2.282
 4803SOL     OW15307   1.179   6.821   0.542
 4803SOL    HW115308   1.129   6.760   0.482
 4803SOL    HW215309   1.154   6.916   0.522
 4804SOL     OW15310   4.524   5.201   6.457
 4804SOL    HW115311   4.568   5.121   6.417
 4804SOL    HW215312   4.499   5.266   6.385
 4805SOL     OW15313   6.579   6.870   1.473
 4805SOL    HW115314   6.628   6.784   1.457
 4805SOL    HW215315   6.531   6.897   1.390
 4806SOL     OW15316   0.227   4.370   3.127
 4806SOL    HW115317   0.261   4.355   3.034
 4806SOL    HW215318   0.211   4.467   3.142
 4807SOL     OW15319   1.304   5.456   0.818
 4807SOL    HW115320   1.317   5.362   0.850
 4807SOL    HW215321   1.348   5.519   0.882
 4808SOL     OW15322   6.706   4.085   6.588
 4808SOL    HW115323   6.638   4.013   6.601
 4808SOL    HW215324   6.670   4.171   6.626
 4809SOL     OW15325   3.690   3.841   6.494
 4809SOL    HW115326   3.695   3.780   6.574
 4809SOL    HW215327   3.708   3.935   6.523
 4810SOL     OW15328   1.426   4.702   2.578
 4810SOL    HW115329   1.420   4.753   2.492
 4810SOL    HW215330   1.333   4.683   2.611
 4811SOL     OW15331   2.162   4.802   2.241
 4811SOL    HW115332   2.083   4.840   2.193
 4811SOL    HW215333   2.236   4.785   2.176
 4812SOL     OW15334   0.365   5.085   5.725
 4812SOL    HW115335   0.293   5.137   5.677
 4812SOL    HW215336   0.334   5.065   5.818
 4813SOL     OW15337   5.201   1.530   1.433
 4813SOL    HW115338   5.291   1.503   1.398
 4813SOL    HW215339   5.138   1.453   1.427
 4814SOL     OW15340   5.814   4.458   0.302
 4814SOL    HW115341   5.755   4.382   0.330
 4814SOL    HW215342   5.906   4.423   0.284
 4815SOL     OW15343   5.270   4.486   2.414
 4815SOL    HW115344   5.248   4.581   2.436
 4815SOL    HW215345   5.305   4.441   2.496
 4816SOL     OW15346   6.415   5.370   2.864
 4816SOL    HW115347   6.455   5.386   2.954
 4816SOL    HW215348   6.452   5.286   2.825
 4817SOL     OW15349   0.544   2.363   6.501
 4817SOL    HW115350   0.640   2.389   6.494
 4817SOL    HW215351   0.531   2.272   6.462
 4818SOL     OW15352   0.728   0.071   3.951
 4818SOL    HW115353   0.662   7.024   3.973
 4818SOL    HW215354   0.817   0.047   3.989
 4819SOL     OW15355   1.738   2.887   0.707
 4819SOL    HW115356   1.681   2.901   0.626
 4819SOL    HW215357   1.685   2.840   0.778
 4820SOL     OW15358   7.024   2.942   1.375
 4820SOL    HW115359   0.025   2.865   1.317
 4820SOL    HW215360   6.931   2.927   1.410
 4821SOL     OW15361   0.771   6.083   2.888
 4821SOL    HW115362   0.852   6.044   2.846
 4821SOL    HW215363   0.796   6.162   2.944
 4822SOL     OW15364   1.556   3.407   4.624
 4822SOL    HW115365   1.632   3.430   4.686
 4822SOL    HW215366   1.487   3.355   4.674
 4823SOL     OW15367   1.848   1.984   3.498
 4823SOL    HW115368   1.812   1.895   3.471
 4823SOL    HW215369   1.888   2.029   3.418
 4824SOL     OW15370   5.425   2.355   5.481
 4824SOL    HW115371   5.407   2.305   5.397
 4824SOL    HW215372   5.345   2.350   5.541
 4825SOL     OW15373   1.618   2.219   4.253
 4825SOL    HW115374   1.693   2.207   4.319
 4825SOL    HW215375   1.657   2.244   4.164
 4826SOL     OW15376   5.643   0.632   0.662
 4826SOL    HW115377   5.673   0.555   0.606
 4826SOL    HW215378   5.660   0.612   0.758
 4827SOL     OW15379   6.244   2.304   0.933
 4827SOL    HW115380   6.204   2.307   1.025
 4827SOL    HW215381   6.283   2.214   0.917
 4828SOL     OW15382   5.030   0.634   1.268
 4828SOL    HW115383   5.082   0.706   1.221
 4828SOL    HW215384   5.093   0.565   1.304
 4829SOL     OW15385   3.873   0.003   6.585
 4829SOL    HW115386   3.916   0.017   6.496
 4829SOL    HW215387   3.941   6.997   6.651
 4830SOL     OW15388   3.468   5.423   3.973
 4830SOL    HW115389   3.568   5.416   3.978
 4830SOL    HW215390   3.431   5.439   4.065
 4831SOL     OW15391   2.340   5.167   4.830
 4831SOL    HW115392   2.302   5.075   4.838
 4831SOL    HW215393   2.336   5.197   4.735
 4832SOL     OW15394   2.894   3.447   4.132
 4832SOL    HW115395   2.794   3.445   4.123
 4832SOL    HW215396   2.922   3.532   4.177
 4833SOL     OW15397   5.728   1.740   2.836
 4833SOL    HW115398   5.736   1.839   2.831
 4833SOL    HW215399   5.785   1.698   2.765
 4834SOL     OW15400   1.921   6.080   2.104
 4834SOL    HW115401   1.897   6.166   2.149
 4834SOL    HW215402   1.898   6.086   2.007
 4835SOL     OW15403   6.054   2.843   5.972
 4835SOL    HW115404   6.149   2.826   5.997
 4835SOL    HW215405   6.047   2.852   5.872
 4836SOL     OW15406   5.447   1.623   4.886
 4836SOL    HW115407   5.492   1.577   4.810
 4836SOL    HW215408   5.351   1.595   4.889
 4837SOL     OW15409   6.684   3.493   3.097
 4837SOL    HW115410   6.777   3.511   3.129
 4837SOL    HW215411   6.638   3.580   3.078
 4838SOL     OW15412   2.607   5.606   6.885
 4838SOL    HW115413   2.669   5.641   6.815
 4838SOL    HW215414   2.525   5.569   6.841
 4839SOL     OW15415   1.537   3.351   0.242
 4839SOL    HW115416   1.545   3.408   0.160
 4839SOL    HW215417   1.446   3.309   0.243
 4840SOL     OW15418   6.034   3.660   5.669
 4840SOL    HW115419   6.027   3.755   5.640
 4840SOL    HW215420   6.116   3.619   5.630
 4841SOL     OW15421   2.957   5.475   2.961
 4841SOL    HW115422   2.876   5.448   3.012
 4841SOL    HW215423   2.929   5.523   2.878
 4842SOL     OW15424   2.736   5.442   3.130
 4842SOL    HW115425   2.689   5.454   3.217
 4842SOL    HW215426   2.673   5.402   3.063
 4843SOL     OW15427   6.642   2.106   2.036
 4843SOL    HW115428   6.568   2.049   2.072
 4843SOL    HW215429   6.615   2.145   1.948
 4844SOL     OW15430   0.524   4.249   5.604
 4844SOL    HW115431   0.466   4.180   5.561
 4844SOL    HW215432   0.553   4.316   5.535
 4845SOL     OW15433   4.251   5.110   5.478
 4845SOL    HW115434   4.291   5.124   5.387
 4845SOL    HW215435   4.152   5.096   5.468
 4846SOL     OW15436   0.228   1.657   3.513
 4846SOL    HW115437   0.147   1.716   3.508
 4846SOL    HW215438   0.209   1.570   3.469
 4847SOL     OW15439   2.044   1.224   5.337
 4847SOL    HW115440   2.054   1.297   5.270
 4847SOL    HW215441   1.995   1.258   5.417
 4848SOL     OW15442   2.645   1.471   3.940
 4848SOL    HW115443   2.692   1.478   4.028
 4848SOL    HW215444   2.554   1.432   3.954
 4849SOL     OW15445   1.772   6.924   0.551
 4849SOL    HW115446   1.696   6.981   0.518
 4849SOL    HW215447   1.736   6.852   0.609
 4850SOL     OW15448   4.734   0.591   1.463
 4850SOL    HW115449   4.776   0.542   1.387
 4850SOL    HW215450   4.639   0.563   1.473
 4851SOL     OW15451   3.932   5.618   6.381
 4851SOL    HW115452   4.010   5.560   6.405
 4851SOL    HW215453   3.943   5.708   6.423
 4852SOL     OW15454   2.778   5.675   4.472
 4852SOL    HW115455   2.775   5.775   4.466
 4852SOL    HW215456   2.869   5.646   4.501
 4853SOL     OW15457   3.974   1.522   3.166
 4853SOL    HW115458   3.949   1.445   3.224
 4853SOL    HW215459   3.909   1.597   3.179
 4854SOL     OW15460   5.024   6.808   1.761
 4854SOL    HW115461   5.032   6.906   1.777
 4854SOL    HW215462   5.002   6.762   1.847
 4855SOL     OW15463   6.439   3.606   5.173
 4855SOL    HW115464   6.408   3.528   5.119
 4855SOL    HW215465   6.361   3.661   5.201
 4856SOL     OW15466   0.753   2.642   2.770
 4856SOL    HW115467   0.776   2.737   2.791
 4856SOL    HW215468   0.831   2.583   2.792
 4857SOL     OW15469   3.801   1.845   3.556
 4857SOL    HW115470   3.830   1.867   3.463
 4857SOL    HW215471   3.827   1.751   3.578
 4858SOL     OW15472   0.842   0.013   4.889
 4858SOL    HW115473   0.773   0.033   4.819
 4858SOL    HW215474   0.919   0.077   4.879
 4859SOL     OW15475   1.407   4.995   1.791
 4859SOL    HW115476   1.387   5.031   1.882
 4859SOL    HW215477   1.352   4.912   1.776
 4860SOL     OW15478   4.540   4.332   0.104
 4860SOL    HW115479   4.490   4.343   0.019
 4860SOL    HW215480   4.573   4.421   0.135
 4861SOL     OW15481   6.261   5.554   6.562
 4861SOL    HW115482   6.309   5.552   6.474
 4861SOL    HW215483   6.300   5.626   6.620
 4862SOL     OW15484   2.844   4.798   4.568
 4862SOL    HW115485   2.861   4.760   4.477
 4862SOL    HW215486   2.769   4.864   4.563
 4863SOL     OW15487   4.921   3.303   2.751
 4863SOL    HW115488   4.884   3.212   2.735
 4863SOL    HW215489   4.929   3.352   2.664
 4864SOL     OW15490   3.400   1.586   1.593
 4864SOL    HW115491   3.326   1.617   1.654
 4864SOL    HW215492   3.481   1.643   1.607
 4865SOL     OW15493   2.627   5.198   5.383
 4865SOL    HW115494   2.651   5.241   5.470
 4865SOL    HW215495   2.624   5.099   5.395
 4866SOL     OW15496   6.002   4.881   1.490
 4866SOL    HW115497   6.084   4.923   1.529
 4866SOL    HW215498   6.010   4.782   1.495
 4867SOL     OW15499   4.552   5.548   3.563
 4867SOL    HW115500   4.583   5.566   3.656
 4867SOL    HW215501   4.534   5.635   3.517
 4868SOL     OW15502   0.822   5.719   1.615
 4868SOL    HW115503   0.735   5.751   1.578
 4868SOL    HW215504   0.807   5.634   1.666
 4869SOL     OW15505   6.741   2.222   1.003
 4869SOL    HW115506   6.670   2.164   0.962
 4869SOL    HW215507   6.713   2.318   0.999
 4870SOL     OW15508   4.750   5.173   1.919
 4870SOL    HW115509   4.831   5.225   1.893
 4870SOL    HW215510   4.679   5.186   1.850
 4871SOL     OW15511   1.161   0.691   3.592
 4871SOL    HW115512   1.091   0.620   3.586
 4871SOL    HW215513   1.208   0.699   3.504
 4872SOL     OW15514   1.032   7.008   3.203
 4872SOL    HW115515   0.994   0.074   3.187
 4872SOL    HW215516   1.016   6.951   3.122
 4873SOL     OW15517   0.126   5.050   4.382
 4873SOL    HW115518   0.044   5.032   4.436
 4873SOL    HW215519   0.193   4.977   4.398
 4874SOL     OW15520   5.788   3.716   2.118
 4874SOL    HW115521   5.738   3.697   2.033
 4874SOL    HW215522   5.862   3.649   2.128
 4875SOL     OW15523   5.690   2.261   0.979
 4875SOL    HW115524   5.622   2.311   1.033
 4875SOL    HW215525   5.656   2.169   0.960
 4876SOL     OW15526   5.662   0.648   5.528
 4876SOL    HW115527   5.655   0.693   5.617
 4876SOL    HW215528   5.721   0.568   5.534
 4877SOL     OW15529   0.141   1.382   1.162
 4877SOL    HW115530   0.117   1.385   1.259
 4877SOL    HW215531   0.217   1.445   1.144
 4878SOL     OW15532   0.316   1.720   1.950
 4878SOL    HW115533   0.252   1.793   1.928
 4878SOL    HW215534   0.304   1.692   2.045
 4879SOL     OW15535   4.578   4.513   2.833
 4879SOL    HW115536   4.507   4.524   2.764
 4879SOL    HW215537   4.643   4.443   2.804
 4880SOL     OW15538   5.568   2.063   6.749
 4880SOL    HW115539   5.478   2.084   6.711
 4880SOL    HW215540   5.562   1.977   6.800
 4881SOL     OW15541   2.529   6.094   6.499
 4881SOL    HW115542   2.603   6.135   6.552
 4881SOL    HW215543   2.561   6.009   6.457
 4882SOL     OW15544   6.095   1.458   5.523
 4882SOL    HW115545   6.095   1.361   5.500
 4882SOL    HW215546   6.040   1.474   5.605
 4883SOL     OW15547   4.695   5.158   2.551
 4883SOL    HW115548   4.756   5.237   2.560
 4883SOL    HW215549   4.706   5.098   2.630
 4884SOL     OW15550   4.692   7.006   1.351
 4884SOL    HW115551   4.594   7.002   1.333
 4884SOL    HW215552   4.726   0.074   1.337
 4885SOL     OW15553   2.168   6.442   2.399
 4885SOL    HW115554   2.089   6.491   2.437
 4885SOL    HW215555   2.236   6.508   2.367
 4886SOL     OW15556   0.589   6.953   6.185
 4886SOL    HW115557   0.575   6.888   6.259
 4886SOL    HW215558   0.597   6.904   6.098
 4887SOL     OW15559   6.964   1.799   3.274
 4887SOL    HW115560   6.985   1.793   3.371
 4887SOL    HW215561   6.904   1.723   3.248
 4888SOL     OW15562   1.615   6.681   3.942
 4888SOL    HW115563   1.614   6.726   3.853
 4888SOL    HW215564   1.709   6.670   3.973
 4889SOL     OW15565   0.450   1.857   0.432
 4889SOL    HW115566   0.530   1.798   0.439
 4889SOL    HW215567   0.436   1.883   0.336
 4890SOL     OW15568   0.554   1.566   4.272
 4890SOL    HW115569   0.507   1.655   4.268
 4890SOL    HW215570   0.526   1.518   4.355
 4891SOL     OW15571   0.520   5.544   0.183
 4891SOL    HW115572   0.514   5.641   0.210
 4891SOL    HW215573   0.607   5.506   0.214
 4892SOL     OW15574   1.362   5.681   2.869
 4892SOL    HW115575   1.289   5.652   2.931
 4892SOL    HW215576   1.321   5.720   2.786
 4893SOL     OW15577   6.870   4.422   6.612
 4893SOL    HW115578   6.896   4.338   6.563
 4893SOL    HW215579   6.880   4.408   6.710
 4894SOL     OW15580   2.444   6.870   2.689
 4894SOL    HW115581   2.389   6.816   2.626
 4894SOL    HW215582   2.401   6.959   2.703
 4895SOL     OW15583   0.897   4.019   1.106
 4895SOL    HW115584   0.965   4.028   1.033
 4895SOL    HW215585   0.944   4.009   1.194
 4896SOL     OW15586   3.425   5.234   2.817
 4896SOL    HW115587   3.486   5.276   2.884
 4896SOL    HW215588   3.426   5.134   2.829
 4897SOL     OW15589   3.248   5.265   6.073
 4897SOL    HW115590   3.279   5.247   6.166
 4897SOL    HW215591   3.316   5.320   6.025
 4898SOL     OW15592   5.635   2.472   5.619
 4898SOL    HW115593   5.543   2.455   5.583
 4898SOL    HW215594   5.703   2.443   5.551
 4899SOL     OW15595   6.326   4.631   2.794
 4899SOL    HW115596   6.236   4.669   2.771
 4899SOL    HW215597   6.392   4.705   2.804
 4900SOL     OW15598   0.624   6.390   5.572
 4900SOL    HW115599   0.699   6.445   5.610
 4900SOL    HW215600   0.536   6.431   5.598
 4901SOL     OW15601   1.969   6.811   4.266
 4901SOL    HW115602   1.882   6.836   4.310
 4901SOL    HW215603   2.028   6.892   4.263
 4902SOL     OW15604   1.387   3.688   2.910
 4902SOL    HW115605   1.427   3.707   3.000
 4902SOL    HW215606   1.456   3.703   2.839
 4903SOL     OW15607   3.725   6.412   6.785
 4903SOL    HW115608   3.649   6.349   6.801
 4903SOL    HW215609   3.804   6.384   6.838
 4904SOL     OW15610   2.128   6.199   4.449
 4904SOL    HW115611   2.222   6.206   4.415
 4904SOL    HW215612   2.129   6.187   4.548
 4905SOL     OW15613   4.793   2.213   1.962
 4905SOL    HW115614   4.848   2.192   2.043
 4905SOL    HW215615   4.786   2.312   1.951
 4906SOL     OW15616   3.872   0.342   0.165
 4906SOL    HW115617   3.864   0.270   0.233
 4906SOL    HW215618   3.954   0.327   0.110
 4907SOL     OW15619   3.882   6.240   2.994
 4907SOL    HW115620   3.903   6.142   2.990
 4907SOL    HW215621   3.799   6.254   3.048
 4908SOL     OW15622   4.010   5.694   6.746
 4908SOL    HW115623   4.075   5.697   6.670
 4908SOL    HW215624   3.962   5.781   6.753
 4909SOL     OW15625   5.989   0.826   6.214
 4909SOL    HW115626   6.016   0.830   6.117
 4909SOL    HW215627   6.048   0.885   6.268
 4910SOL     OW15628   5.168   0.334   5.637
 4910SOL    HW115629   5.110   0.266   5.682
 4910SOL    HW215630   5.261   0.329   5.674
 4911SOL     OW15631   6.945   2.118   5.823
 4911SOL    HW115632   6.879   2.156   5.887
 4911SOL    HW215633   6.970   2.188   5.756
 4912SOL     OW15634   4.896   0.949   1.866
 4912SOL    HW115635   4.968   0.906   1.813
 4912SOL    HW215636   4.828   0.989   1.804
 4913SOL     OW15637   3.572   4.189   3.897
 4913SOL    HW115638   3.597   4.093   3.910
 4913SOL    HW215639   3.478   4.203   3.927
 4914SOL     OW15640   2.607   1.138   4.616
 4914SOL    HW115641   2.705   1.122   4.600
 4914SOL    HW215642   2.596   1.207   4.687
 4915SOL     OW15643   4.614   6.582   4.449
 4915SOL    HW115644   4.522   6.605   4.482
 4915SOL    HW215645   4.680   6.642   4.493
 4916SOL     OW15646   2.483   2.073   2.820
 4916SOL    HW115647   2.388   2.090   2.793
 4916SOL    HW215648   2.492   1.980   2.855
 4917SOL     OW15649   1.093   4.130   0.916
 4917SOL    HW115650   1.164   4.077   0.870
 4917SOL    HW215651   1.048   4.190   0.850
 4918SOL     OW15652   2.998   6.914   2.723
 4918SOL    HW115653   2.919   6.856   2.740
 4918SOL    HW215654   3.073   6.858   2.687
 4919SOL     OW15655   1.736   2.277   2.945
 4919SOL    HW115656   1.683   2.337   2.885
 4919SOL    HW215657   1.695   2.277   3.036
 4920SOL     OW15658   4.364   0.495   6.893
 4920SOL    HW115659   4.337   0.586   6.860
 4920SOL    HW215660   4.448   0.467   6.848
 4921SOL     OW15661   2.323   4.183   1.939
 4921SOL    HW115662   2.317   4.108   1.873
 4921SOL    HW215663   2.406   4.237   1.922
 4922SOL     OW15664   1.063   3.367   5.329
 4922SOL    HW115665   1.082   3.269   5.318
 4922SOL    HW215666   0.964   3.382   5.325
 4923SOL     OW15667   4.692   0.470   1.851
 4923SOL    HW115668   4.595   0.496   1.863
 4923SOL    HW215669   4.698   0.389   1.793
 4924SOL     OW15670   2.254   3.605   5.259
 4924SOL    HW115671   2.205   3.536   5.207
 4924SOL    HW215672   2.265   3.688   5.204
 4925SOL     OW15673   5.649   6.167   0.883
 4925SOL    HW115674   5.747   6.161   0.903
 4925SOL    HW215675   5.599   6.183   0.968
 4926SOL     OW15676   4.574   2.739   1.748
 4926SOL    HW115677   4.638   2.708   1.678
 4926SOL    HW215678   4.622   2.795   1.816
 4927SOL     OW15679   3.583   2.958   3.039
 4927SOL    HW115680   3.594   2.985   2.944
 4927SOL    HW215681   3.644   3.012   3.097
 4928SOL     OW15682   6.818   0.113   6.422
 4928SOL    HW115683   6.742   0.083   6.479
 4928SOL    HW215684   6.847   0.204   6.451
 4929SOL     OW15685   1.158   4.342   5.190
 4929SOL    HW115686   1.189   4.329   5.284
 4929SOL    HW215687   1.236   4.344   5.129
 4930SOL     OW15688   0.694   1.360   0.039
 4930SOL    HW115689   0.638   1.365   6.982
 4930SOL    HW215690   0.671   1.435   0.101
 4931SOL     OW15691   0.959   0.440   6.797
 4931SOL    HW115692   0.860   0.429   6.803
 4931SOL    HW215693   0.999   0.358   6.756
 4932SOL     OW15694   2.277   3.219   1.809
 4932SOL    HW115695   2.264   3.306   1.856
 4932SOL    HW215696   2.336   3.233   1.729
 4933SOL     OW15697   2.004   0.857   4.293
 4933SOL    HW115698   1.909   0.860   4.324
 4933SOL    HW215699   2.064   0.843   4.371
 4934SOL     OW15700   0.711   5.162   4.295
 4934SOL    HW115701   0.750   5.165   4.203
 4934SOL    HW215702   0.624   5.210   4.296
 4935SOL     OW15703   1.679   1.036   6.935
 4935SOL    HW115704   1.587   1.006   6.961
 4935SOL    HW215705   1.746   0.972   6.972
 4936SOL     OW15706   2.434   5.856   1.591
 4936SOL    HW115707   2.366   5.859   1.518
 4936SOL    HW215708   2.460   5.949   1.617
 4937SOL     OW15709   1.340   4.073   6.077
 4937SOL    HW115710   1.355   4.128   6.158
 4937SOL    HW215711   1.284   3.993   6.101
 4938SOL     OW15712   3.315   4.868   2.059
 4938SOL    HW115713   3.255   4.812   2.002
 4938SOL    HW215714   3.409   4.835   2.052
 4939SOL     OW15715   1.181   2.393   1.990
 4939SOL    HW115716   1.132   2.323   2.042
 4939SOL    HW215717   1.218   2.461   2.052
 4940SOL     OW15718   7.021   1.799   5.060
 4940SOL    HW115719   6.991   1.713   5.019
 4940SOL    HW215720   6.959   1.873   5.033
 4941SOL     OW15721   3.975   2.602   5.378
 4941SOL    HW115722   3.901   2.660   5.344
 4941SOL    HW215723   4.043   2.591   5.306
 4942SOL     OW15724   5.738   3.066   3.486
 4942SOL    HW115725   5.712   3.162   3.480
 4942SOL    HW215726   5.728   3.023   3.397
 4943SOL     OW15727   5.499   3.825   6.111
 4943SOL    HW115728   5.560   3.882   6.167
 4943SOL    HW215729   5.533   3.731   6.110
 4944SOL     OW15730   2.148   4.542   0.889
 4944SOL    HW115731   2.155   4.447   0.921
 4944SOL    HW215732   2.052   4.570   0.891
 4945SOL     OW15733   1.528   0.825   4.797
 4945SOL    HW115734   1.443   0.839   4.848
 4945SOL    HW215735   1.508   0.779   4.711
 4946SOL     OW15736   1.206   4.634   0.084
 4946SOL    HW115737   1.246   4.570   0.019
 4946SOL    HW215738   1.149   4.584   0.149
 4947SOL     OW15739   2.706   1.088   2.078
 4947SOL    HW115740   2.782   1.111   2.138
 4947SOL    HW215741   2.679   1.170   2.027
 4948SOL     OW15742   1.537   2.427   2.788
 4948SOL    HW115743   1.511   2.382   2.703
 4948SOL    HW215744   1.534   2.526   2.776
 4949SOL     OW15745   6.164   3.896   5.909
 4949SOL    HW115746   6.068   3.892   5.879
 4949SOL    HW215747   6.197   3.804   5.929
 4950SOL     OW15748   1.956   4.062   5.235
 4950SOL    HW115749   2.051   4.082   5.258
 4950SOL    HW215750   1.905   4.148   5.231
 4951SOL     OW15751   6.115   6.252   4.919
 4951SOL    HW115752   6.082   6.307   4.842
 4951SOL    HW215753   6.184   6.303   4.969
 4952SOL     OW15754   6.989   0.411   6.748
 4952SOL    HW115755   0.044   0.359   6.774
 4952SOL    HW215756   7.016   0.504   6.723
 4953SOL     OW15757   2.228   1.750   3.970
 4953SOL    HW115758   2.182   1.666   4.000
 4953SOL    HW215759   2.321   1.728   3.941
 4954SOL     OW15760   2.262   4.014   6.375
 4954SOL    HW115761   2.201   4.044   6.301
 4954SOL    HW215762   2.352   3.994   6.338
 4955SOL     OW15763   3.434   5.665   0.251
 4955SOL    HW115764   3.451   5.747   0.197
 4955SOL    HW215765   3.453   5.584   0.195
 4956SOL     OW15766   3.202   0.748   6.202
 4956SOL    HW115767   3.211   0.843   6.171
 4956SOL    HW215768   3.116   0.738   6.252
 4957SOL     OW15769   6.142   3.506   0.155
 4957SOL    HW115770   6.067   3.471   0.211
 4957SOL    HW215771   6.222   3.524   0.213
 4958SOL     OW15772   1.900   6.017   5.654
 4958SOL    HW115773   1.915   5.918   5.645
 4958SOL    HW215774   1.872   6.038   5.748
 4959SOL     OW15775   6.688   1.789   0.974
 4959SOL    HW115776   6.693   1.784   1.073
 4959SOL    HW215777   6.635   1.711   0.939
 4960SOL     OW15778   4.064   4.811   3.431
 4960SOL    HW115779   4.036   4.840   3.339
 4960SOL    HW215780   4.119   4.727   3.423
 4961SOL     OW15781   3.344   0.675   6.489
 4961SOL    HW115782   3.440   0.664   6.462
 4961SOL    HW215783   3.330   0.769   6.520
 4962SOL     OW15784   5.580   2.667   0.919
 4962SOL    HW115785   5.546   2.579   0.953
 4962SOL    HW215786   5.637   2.710   0.989
 4963SOL     OW15787   1.857   5.670   1.085
 4963SOL    HW115788   1.856   5.610   1.165
 4963SOL    HW215789   1.903   5.623   1.010
 4964SOL     OW15790   1.956   6.435   5.075
 4964SOL    HW115791   1.942   6.367   5.004
 4964SOL    HW215792   2.051   6.468   5.071
 4965SOL     OW15793   0.666   0.118   2.734
 4965SOL    HW115794   0.604   0.043   2.712
 4965SOL    HW215795   0.714   0.098   2.819
 4966SOL     OW15796   1.569   6.434   4.618
 4966SOL    HW115797   1.513   6.436   4.535
 4966SOL    HW215798   1.642   6.367   4.607
 4967SOL     OW15799   3.043   5.462   5.987
 4967SOL    HW115800   2.948   5.432   5.990
 4967SOL    HW215801   3.103   5.388   6.016
 4968SOL     OW15802   6.990   1.106   3.905
 4968SOL    HW115803   6.928   1.073   3.976
 4968SOL    HW215804   0.055   1.067   3.920
 4969SOL     OW15805   0.219   5.599   2.764
 4969SOL    HW115806   0.159   5.560   2.694
 4969SOL    HW215807   0.309   5.555   2.759
 4970SOL     OW15808   1.998   0.649   1.569
 4970SOL    HW115809   1.994   0.556   1.606
 4970SOL    HW215810   2.032   0.646   1.475
 4971SOL     OW15811   6.424   6.120   3.301
 4971SOL    HW115812   6.388   6.140   3.210
 4971SOL    HW215813   6.512   6.165   3.313
 4972SOL     OW15814   1.237   4.227   0.473
 4972SOL    HW115815   1.287   4.304   0.433
 4972SOL    HW215816   1.197   4.172   0.399
 4973SOL     OW15817   0.670   0.547   1.758
 4973SOL    HW115818   0.640   0.642   1.770
 4973SOL    HW215819   0.769   0.545   1.743
 4974SOL     OW15820   5.893   4.548   1.006
 4974SOL    HW115821   5.895   4.474   0.938
 4974SOL    HW215822   5.923   4.633   0.963
 4975SOL     OW15823   5.701   4.237   0.592
 4975SOL    HW115824   5.778   4.176   0.573
 4975SOL    HW215825   5.622   4.208   0.537
 4976SOL     OW15826   1.300   0.249   4.704
 4976SOL    HW115827   1.362   0.217   4.632
 4976SOL    HW215828   1.348   0.316   4.761
 4977SOL     OW15829   3.678   4.104   6.597
 4977SOL    HW115830   3.634   4.107   6.687
 4977SOL    HW215831   3.677   4.195   6.557
 4978SOL     OW15832   5.108   4.803   4.484
 4978SOL    HW115833   5.140   4.736   4.551
 4978SOL    HW215834   5.153   4.787   4.397
 4979SOL     OW15835   0.267   6.532   6.810
 4979SOL    HW115836   0.172   6.505   6.820
 4979SOL    HW215837   0.305   6.495   6.725
 4980SOL     OW15838   5.505   5.017   2.569
 4980SOL    HW115839   5.489   5.088   2.500
 4980SOL    HW215840   5.439   5.029   2.644
 4981SOL     OW15841   3.621   5.807   2.005
 4981SOL    HW115842   3.703   5.856   1.977
 4981SOL    HW215843   3.646   5.733   2.067
 4982SOL     OW15844   3.538   1.804   6.297
 4982SOL    HW115845   3.570   1.798   6.391
 4982SOL    HW215846   3.511   1.898   6.277
 4983SOL     OW15847   6.141   4.670   4.750
 4983SOL    HW115848   6.235   4.701   4.743
 4983SOL    HW215849   6.098   4.708   4.832
 4984SOL     OW15850   4.747   4.162   2.566
 4984SOL    HW115851   4.792   4.204   2.487
 4984SOL    HW215852   4.663   4.118   2.536
 4985SOL     OW15853   5.229   6.217   2.511
 4985SOL    HW115854   5.150   6.178   2.463
 4985SOL    HW215855   5.271   6.147   2.568
 4986SOL     OW15856   6.377   4.951   0.643
 4986SOL    HW115857   6.449   4.885   0.663
 4986SOL    HW215858   6.298   4.904   0.605
 4987SOL     OW15859   1.309   6.281   2.190
 4987SOL    HW115860   1.242   6.240   2.252
 4987SOL    HW215861   1.391   6.224   2.186
 4988SOL     OW15862   6.139   1.341   3.657
 4988SOL    HW115863   6.077   1.264   3.666
 4988SOL    HW215864   6.087   1.426   3.658
 4989SOL     OW15865   4.806   0.374   2.115
 4989SOL    HW115866   4.790   0.302   2.048
 4989SOL    HW215867   4.810   0.462   2.069
 4990SOL     OW15868   3.019   2.126   6.233
 4990SOL    HW115869   3.060   2.125   6.324
 4990SOL    HW215870   3.019   2.033   6.196
 4991SOL     OW15871   0.029   5.309   3.684
 4991SOL    HW115872   0.120   5.278   3.712
 4991SOL    HW215873   7.008   5.350   3.763
 4992SOL     OW15874   5.573   1.002   2.930
 4992SOL    HW115875   5.558   1.031   2.836
 4992SOL    HW215876   5.670   0.983   2.944
 4993SOL     OW15877   3.915   6.095   5.161
 4993SOL    HW115878   3.850   6.119   5.234
 4993SOL    HW215879   3.873   6.111   5.072
 4994SOL     OW15880   2.636   5.744   4.754
 4994SOL    HW115881   2.727   5.712   4.782
 4994SOL    HW215882   2.642   5.840   4.727
 4995SOL     OW15883   1.233   1.065   5.232
 4995SOL    HW115884   1.253   1.027   5.322
 4995SOL    HW215885   1.286   1.148   5.218
 4996SOL     OW15886   6.723   1.292   3.507
 4996SOL    HW115887   6.715   1.339   3.595
 4996SOL    HW215888   6.636   1.249   3.483
 4997SOL     OW15889   3.836   2.603   1.193
 4997SOL    HW115890   3.779   2.679   1.222
 4997SOL    HW215891   3.897   2.575   1.267
 4998SOL     OW15892   1.769   3.194   4.461
 4998SOL    HW115893   1.856   3.168   4.418
 4998SOL    HW215894   1.746   3.127   4.532
 4999SOL     OW15895   0.011   3.447   4.650
 4999SOL    HW115896   6.973   3.377   4.616
 4999SOL    HW215897   0.084   3.403   4.703
 5000SOL     OW15898   3.170   0.144   3.468
 5000SOL    HW115899   3.213   0.085   3.400
 5000SOL    HW215900   3.222   0.229   3.476
 5001SOL     OW15901   0.811   5.883   2.208
 5001SOL    HW115902   0.909   5.898   2.207
 5001SOL    HW215903   0.771   5.914   2.122
 5002SOL     OW15904   0.112   4.992   2.039
 5002SOL    HW115905   0.112   4.897   2.010
 5002SOL    HW215906   0.051   5.045   1.980
 5003SOL     OW15907   4.624   6.570   2.757
 5003SOL    HW115908   4.609   6.551   2.854
 5003SOL    HW215909   4.647   6.484   2.710
 5004SOL     OW15910   2.135   4.856   5.520
 5004SOL    HW115911   2.060   4.804   5.561
 5004SOL    HW215912   2.218   4.841   5.573
 5005SOL     OW15913   2.812   2.718   6.462
 5005SOL    HW115914   2.793   2.809   6.425
 5005SOL    HW215915   2.879   2.672   6.403
 5006SOL     OW15916   6.069   1.169   2.178
 5006SOL    HW115917   6.136   1.095   2.182
 5006SOL    HW215918   6.064   1.204   2.085
 5007SOL     OW15919   0.064   6.997   1.325
 5007SOL    HW115920   7.024   7.008   1.400
 5007SOL    HW215921   0.112   0.058   1.310
 5008SOL     OW15922   5.814   5.765   1.210
 5008SOL    HW115923   5.891   5.722   1.258
 5008SOL    HW215924   5.735   5.768   1.272
 5009SOL     OW15925   0.402   2.788   0.547
 5009SOL    HW115926   0.367   2.820   0.459
 5009SOL    HW215927   0.346   2.825   0.620
 5010SOL     OW15928   4.377   2.062   0.919
 5010SOL    HW115929   4.386   2.151   0.964
 5010SOL    HW215930   4.393   2.072   0.821
 5011SOL     OW15931   1.947   4.358   1.380
 5011SOL    HW115932   1.960   4.456   1.368
 5011SOL    HW215933   1.887   4.342   1.458
 5012SOL     OW15934   6.298   2.302   5.074
 5012SOL    HW115935   6.307   2.357   4.991
 5012SOL    HW215936   6.300   2.361   5.154
 5013SOL     OW15937   5.390   1.048   6.296
 5013SOL    HW115938   5.425   1.002   6.378
 5013SOL    HW215939   5.443   1.131   6.280
 5014SOL     OW15940   6.538   4.333   6.904
 5014SOL    HW115941   6.615   4.397   6.897
 5014SOL    HW215942   6.504   4.332   6.998
 5015SOL     OW15943   4.424   1.042   4.759
 5015SOL    HW115944   4.327   1.017   4.756
 5015SOL    HW215945   4.454   1.067   4.667
 5016SOL     OW15946   0.979   2.749   4.890
 5016SOL    HW115947   0.951   2.768   4.985
 5016SOL    HW215948   1.079   2.739   4.887
 5017SOL     OW15949   1.851   2.264   1.261
 5017SOL    HW115950   1.928   2.298   1.315
 5017SOL    HW215951   1.885   2.219   1.179
 5018SOL     OW15952   1.466   5.210   2.684
 5018SOL    HW115953   1.487   5.214   2.782
 5018SOL    HW215954   1.378   5.165   2.670
 5019SOL     OW15955   2.323   6.284   5.552
 5019SOL    HW115956   2.416   6.249   5.537
 5019SOL    HW215957   2.269   6.215   5.601
 5020SOL     OW15958   6.548   0.244   6.115
 5020SOL    HW115959   6.509   0.336   6.103
 5020SOL    HW215960   6.520   0.207   6.203
 5021SOL     OW15961   1.248   1.098   1.115
 5021SOL    HW115962   1.277   1.064   1.025
 5021SOL    HW215963   1.149   1.088   1.124
 5022SOL     OW15964   1.446   2.268   1.635
 5022SOL    HW115965   1.393   2.335   1.583
 5022SOL    HW215966   1.438   2.288   1.732
 5023SOL     OW15967   0.262   4.160   1.554
 5023SOL    HW115968   0.246   4.257   1.536
 5023SOL    HW215969   0.304   4.149   1.644
 5024SOL     OW15970   6.024   5.299   1.337
 5024SOL    HW115971   6.124   5.289   1.332
 5024SOL    HW215972   5.982   5.252   1.259
 5025SOL     OW15973   4.122   2.253   3.899
 5025SOL    HW115974   4.100   2.248   3.802
 5025SOL    HW215975   4.042   2.230   3.954
 5026SOL     OW15976   6.978   5.704   5.649
 5026SOL    HW115977   6.953   5.677   5.741
 5026SOL    HW215978   0.045   5.744   5.650
 5027SOL     OW15979   6.227   0.181   1.814
 5027SOL    HW115980   6.301   0.124   1.851
 5027SOL    HW215981   6.210   0.257   1.877
 5028SOL     OW15982   6.654   1.914   2.783
 5028SOL    HW115983   6.603   1.881   2.704
 5028SOL    HW215984   6.744   1.870   2.786
 5029SOL     OW15985   6.127   2.262   2.753
 5029SOL    HW115986   6.121   2.182   2.694
 5029SOL    HW215987   6.146   2.233   2.847
 5030SOL     OW15988   6.493   6.406   6.882
 5030SOL    HW115989   6.500   6.309   6.904
 5030SOL    HW215990   6.556   6.428   6.807
 5031SOL     OW15991   6.539   1.299   5.760
 5031SOL    HW115992   6.577   1.382   5.801
 5031SOL    HW215993   6.458   1.271   5.810
 5032SOL     OW15994   3.230   1.444   6.112
 5032SOL    HW115995   3.305   1.411   6.055
 5032SOL    HW215996   3.265   1.508   6.180
 5033SOL     OW15997   2.154   0.345   6.597
 5033SOL    HW115998   2.245   0.304   6.605
 5033SOL    HW215999   2.162   0.438   6.562
 5034SOL     OW16000   5.896   0.124   3.727
 5034SOL    HW116001   5.909   0.085   3.636
 5034SOL    HW216002   5.951   0.073   3.793
 5035SOL     OW16003   0.073   4.250   5.733
 5035SOL    HW116004   0.067   4.169   5.674
 5035SOL    HW216005   0.158   4.247   5.785
 5036SOL     OW16006   0.039   4.849   6.934
 5036SOL    HW116007   0.042   4.784   7.010
 5036SOL    HW216008   0.092   4.930   6.957
 5037SOL     OW16009   5.400   4.750   2.044
 5037SOL    HW116010   5.326   4.713   1.988
 5037SOL    HW216011   5.449   4.675   2.089
 5038SOL     OW16012   3.445   3.057   5.184
 5038SOL    HW116013   3.377   2.996   5.141
 5038SOL    HW216014   3.519   3.002   5.222
 5039SOL     OW16015   2.150   3.249   5.482
 5039SOL    HW116016   2.070   3.189   5.480
 5039SOL    HW216017   2.224   3.209   5.427
 5040SOL     OW16018   0.803   6.535   5.714
 5040SOL    HW116019   0.874   6.582   5.661
 5040SOL    HW216020   0.844   6.493   5.795
 5041SOL     OW16021   1.916   1.521   1.897
 5041SOL    HW116022   1.818   1.500   1.898
 5041SOL    HW216023   1.962   1.460   1.833
 5042SOL     OW16024   6.803   3.400   0.561
 5042SOL    HW116025   6.789   3.389   0.659
 5042SOL    HW216026   6.891   3.445   0.543
 5043SOL     OW16027   4.209   0.285   6.811
 5043SOL    HW116028   4.179   0.298   6.717
 5043SOL    HW216029   4.260   0.366   6.841
 5044SOL     OW16030   0.562   6.077   0.952
 5044SOL    HW116031   0.512   6.037   1.029
 5044SOL    HW216032   0.652   6.109   0.982
 5045SOL     OW16033   5.862   5.872   6.536
 5045SOL    HW116034   5.873   5.787   6.587
 5045SOL    HW216035   5.872   5.950   6.598
 5046SOL     OW16036   4.119   3.762   3.152
 5046SOL    HW116037   4.060   3.801   3.081
 5046SOL    HW216038   4.204   3.813   3.156
 5047SOL     OW16039   1.555   4.154   3.003
 5047SOL    HW116040   1.553   4.077   3.067
 5047SOL    HW216041   1.505   4.231   3.042
 5048SOL     OW16042   1.278   1.023   3.285
 5048SOL    HW116043   1.362   1.014   3.338
 5048SOL    HW216044   1.294   0.991   3.191
 5049SOL     OW16045   5.031   1.748   0.036
 5049SOL    HW116046   5.095   1.695   7.005
 5049SOL    HW216047   5.008   1.696   0.118
 5050SOL     OW16048   1.515   0.966   0.259
 5050SOL    HW116049   1.605   0.951   0.301
 5050SOL    HW216050   1.484   0.881   0.218
 5051SOL     OW16051   5.022   4.438   1.361
 5051SOL    HW116052   4.975   4.390   1.435
 5051SOL    HW216053   5.067   4.371   1.302
 5052SOL     OW16054   2.671   1.504   5.612
 5052SOL    HW116055   2.684   1.407   5.590
 5052SOL    HW216056   2.750   1.556   5.580
 5053SOL     OW16057   1.254   4.628   3.357
 5053SOL    HW116058   1.211   4.683   3.429
 5053SOL    HW216059   1.329   4.575   3.397
 5054SOL     OW16060   2.439   4.721   4.367
 5054SOL    HW116061   2.400   4.771   4.289
 5054SOL    HW216062   2.492   4.644   4.334
 5055SOL     OW16063   0.663   2.534   6.223
 5055SOL    HW116064   0.710   2.467   6.280
 5055SOL    HW216065   0.676   2.511   6.127
 5056SOL     OW16066   5.910   4.049   6.025
 5056SOL    HW116067   5.841   4.116   6.052
 5056SOL    HW216068   5.999   4.093   6.017
 5057SOL     OW16069   0.119   6.887   3.517
 5057SOL    HW116070   0.111   6.801   3.466
 5057SOL    HW216071   0.047   6.893   3.585
 5058SOL     OW16072   3.794   3.778   5.663
 5058SOL    HW116073   3.755   3.859   5.707
 5058SOL    HW216074   3.747   3.760   5.577
 5059SOL     OW16075   6.377   0.923   3.207
 5059SOL    HW116076   6.412   0.856   3.273
 5059SOL    HW216077   6.280   0.939   3.223
 5060SOL     OW16078   0.208   2.305   6.407
 5060SOL    HW116079   0.158   2.389   6.428
 5060SOL    HW216080   0.290   2.300   6.464
 5061SOL     OW16081   5.077   2.744   0.521
 5061SOL    HW116082   5.145   2.743   0.594
 5061SOL    HW216083   5.079   2.833   0.475
 5062SOL     OW16084   6.282   6.554   2.779
 5062SOL    HW116085   6.325   6.644   2.777
 5062SOL    HW216086   6.309   6.502   2.698
 5063SOL     OW16087   0.568   0.358   2.673
 5063SOL    HW116088   0.597   0.262   2.666
 5063SOL    HW216089   0.480   0.369   2.627
 5064SOL     OW16090   4.982   3.293   0.903
 5064SOL    HW116091   4.945   3.351   0.830
 5064SOL    HW216092   4.915   3.222   0.926
 5065SOL     OW16093   2.962   0.843   5.621
 5065SOL    HW116094   2.930   0.789   5.543
 5065SOL    HW216095   3.004   0.927   5.587
 5066SOL     OW16096   5.113   4.397   2.199
 5066SOL    HW116097   5.176   4.390   2.122
 5066SOL    HW216098   5.162   4.432   2.279
 5067SOL     OW16099   4.953   1.098   1.189
 5067SOL    HW116100   4.939   1.050   1.276
 5067SOL    HW216101   4.926   1.038   1.114
 5068SOL     OW16102   2.787   4.385   0.964
 5068SOL    HW116103   2.723   4.420   0.896
 5068SOL    HW216104   2.874   4.364   0.921
 5069SOL     OW16105   1.169   4.054   3.818
 5069SOL    HW116106   1.184   4.122   3.746
 5069SOL    HW216107   1.217   3.969   3.795
 5070SOL     OW16108   5.122   3.802   3.874
 5070SOL    HW116109   5.045   3.854   3.910
 5070SOL    HW216110   5.190   3.787   3.946
 5071SOL     OW16111   5.030   2.050   4.452
 5071SOL    HW116112   5.000   2.145   4.462
 5071SOL    HW216113   4.968   1.989   4.501
 5072SOL     OW16114   0.978   6.758   0.383
 5072SOL    HW116115   0.907   6.796   0.442
 5072SOL    HW216116   0.936   6.705   0.310
 5073SOL     OW16117   6.733   6.806   3.114
 5073SOL    HW116118   6.768   6.886   3.164
 5073SOL    HW216119   6.635   6.817   3.099
 5074SOL     OW16120   3.298   3.261   6.795
 5074SOL    HW116121   3.383   3.284   6.748
 5074SOL    HW216122   3.220   3.297   6.744
 5075SOL     OW16123   0.508   2.046   6.340
 5075SOL    HW116124   0.476   2.121   6.282
 5075SOL    HW216125   0.467   2.054   6.431
 5076SOL     OW16126   3.557   0.803   0.932
 5076SOL    HW116127   3.511   0.886   0.901
 5076SOL    HW216128   3.607   0.822   1.016
 5077SOL     OW16129   0.566   2.536   4.581
 5077SOL    HW116130   0.565   2.441   4.613
 5077SOL    HW216131   0.614   2.593   4.647
 5078SOL     OW16132   0.997   1.754   3.669
 5078SOL    HW116133   1.068   1.823   3.658
 5078SOL    HW216134   0.952   1.738   3.581
 5079SOL     OW16135   2.413   5.000   6.116
 5079SOL    HW116136   2.435   5.054   6.197
 5079SOL    HW216137   2.445   4.906   6.128
 5080SOL     OW16138   6.017   6.141   5.817
 5080SOL    HW116139   5.996   6.053   5.860
 5080SOL    HW216140   5.938   6.173   5.765
 5081SOL     OW16141   3.596   2.905   3.792
 5081SOL    HW116142   3.632   2.994   3.764
 5081SOL    HW216143   3.605   2.895   3.891
 5082SOL     OW16144   6.043   5.496   5.668
 5082SOL    HW116145   6.143   5.487   5.667
 5082SOL    HW216146   6.007   5.455   5.752
 5083SOL     OW16147   2.152   6.655   2.940
 5083SOL    HW116148   2.248   6.684   2.933
 5083SOL    HW216149   2.135   6.580   2.877
 5084SOL     OW16150   0.913   5.105   4.531
 5084SOL    HW116151   0.920   5.026   4.592
 5084SOL    HW216152   0.860   5.080   4.450
 5085SOL     OW16153   5.475   2.628   6.965
 5085SOL    HW116154   5.492   2.667   6.875
 5085SOL    HW216155   5.406   2.556   6.958
 5086SOL     OW16156   6.429   5.496   3.960
 5086SOL    HW116157   6.346   5.547   3.933
 5086SOL    HW216158   6.470   5.456   3.878
 5087SOL     OW16159   6.282   6.072   3.902
 5087SOL    HW116160   6.345   6.028   3.966
 5087SOL    HW216161   6.283   6.171   3.917
 5088SOL     OW16162   5.305   1.814   4.441
 5088SOL    HW116163   5.212   1.778   4.455
 5088SOL    HW216164   5.359   1.747   4.391
 5089SOL     OW16165   5.873   2.966   3.254
 5089SOL    HW116166   5.850   2.871   3.277
 5089SOL    HW216167   5.956   2.967   3.198
 5090SOL     OW16168   1.985   3.913   2.590
 5090SOL    HW116169   1.928   3.944   2.665
 5090SOL    HW216170   1.929   3.901   2.508
 5091SOL     OW16171   1.764   6.482   2.896
 5091SOL    HW116172   1.666   6.465   2.880
 5091SOL    HW216173   1.816   6.453   2.816
 5092SOL     OW16174   2.987   2.838   1.293
 5092SOL    HW116175   2.988   2.854   1.194
 5092SOL    HW216176   2.935   2.911   1.338
 5093SOL     OW16177   3.028   1.238   1.587
 5093SOL    HW116178   3.038   1.283   1.498
 5093SOL    HW216179   3.072   1.293   1.658
 5094SOL     OW16180   0.598   6.620   4.245
 5094SOL    HW116181   0.623   6.530   4.209
 5094SOL    HW216182   0.677   6.662   4.288
 5095SOL     OW16183   1.089   1.699   4.147
 5095SOL    HW116184   1.135   1.785   4.168
 5095SOL    HW216185   1.096   1.680   4.049
 5096SOL     OW16186   4.366   3.988   0.257
 5096SOL    HW116187   4.292   4.046   0.290
 5096SOL    HW216188   4.328   3.906   0.214
 5097SOL     OW16189   1.945   0.346   6.766
 5097SOL    HW116190   2.028   0.354   6.710
 5097SOL    HW216191   1.909   0.253   6.758
 5098SOL     OW16192   0.744   0.607   1.445
 5098SOL    HW116193   0.750   0.676   1.372
 5098SOL    HW216194   0.791   0.641   1.527
 5099SOL     OW16195   0.550   0.266   6.687
 5099SOL    HW116196   0.453   0.244   6.677
 5099SOL    HW216197   0.589   0.282   6.597
 5100SOL     OW16198   4.680   6.643   5.590
 5100SOL    HW116199   4.682   6.606   5.497
 5100SOL    HW216200   4.644   6.573   5.652
 5101SOL     OW16201   4.666   6.554   0.343
 5101SOL    HW116202   4.637   6.645   0.374
 5101SOL    HW216203   4.635   6.539   0.249
 5102SOL     OW16204   5.899   0.584   6.022
 5102SOL    HW116205   5.888   0.683   6.031
 5102SOL    HW216206   5.831   0.549   5.957
 5103SOL     OW16207   0.288   0.768   4.141
 5103SOL    HW116208   0.383   0.798   4.151
 5103SOL    HW216209   0.263   0.712   4.220
 5104SOL     OW16210   1.908   6.323   2.244
 5104SOL    HW116211   1.819   6.327   2.289
 5104SOL    HW216212   1.977   6.365   2.302
 5105SOL     OW16213   4.088   3.447   0.093
 5105SOL    HW116214   4.184   3.436   0.068
 5105SOL    HW216215   4.057   3.367   0.145
 5106SOL     OW16216   3.432   0.274   1.814
 5106SOL    HW116217   3.531   0.261   1.818
 5106SOL    HW216218   3.410   0.370   1.832
 5107SOL     OW16219   3.310   1.087   0.653
 5107SOL    HW116220   3.223   1.040   0.638
 5107SOL    HW216221   3.315   1.168   0.595
 5108SOL     OW16222   3.062   3.119   3.483
 5108SOL    HW116223   3.055   3.164   3.572
 5108SOL    HW216224   3.159   3.109   3.458
 5109SOL     OW16225   0.755   1.292   1.159
 5109SOL    HW116226   0.684   1.229   1.126
 5109SOL    HW216227   0.723   1.386   1.150
 5110SOL     OW16228   0.525   6.748   6.344
 5110SOL    HW116229   0.583   6.771   6.422
 5110SOL    HW216230   0.508   6.649   6.344
 5111SOL     OW16231   0.788   1.281   5.656
 5111SOL    HW116232   0.875   1.323   5.630
 5111SOL    HW216233   0.725   1.285   5.579
 5112SOL     OW16234   0.273   0.128   2.981
 5112SOL    HW116235   0.296   0.198   3.048
 5112SOL    HW216236   0.342   0.055   2.983
 5113SOL     OW16237   1.623   6.814   1.342
 5113SOL    HW116238   1.718   6.817   1.373
 5113SOL    HW216239   1.617   6.760   1.258
 5114SOL     OW16240   3.618   2.852   0.559
 5114SOL    HW116241   3.559   2.848   0.640
 5114SOL    HW216242   3.636   2.760   0.526
 5115SOL     OW16243   2.177   4.455   5.180
 5115SOL    HW116244   2.256   4.401   5.209
 5115SOL    HW216245   2.156   4.523   5.251
 5116SOL     OW16246   5.533   6.581   6.267
 5116SOL    HW116247   5.601   6.560   6.197
 5116SOL    HW216248   5.443   6.547   6.238
 5117SOL     OW16249   1.595   4.646   4.212
 5117SOL    HW116250   1.597   4.736   4.255
 5117SOL    HW216251   1.615   4.654   4.115
 5118SOL     OW16252   4.713   6.149   0.835
 5118SOL    HW116253   4.720   6.071   0.774
 5118SOL    HW216254   4.660   6.124   0.916
 5119SOL     OW16255   5.194   0.540   1.745
 5119SOL    HW116256   5.122   0.556   1.678
 5119SOL    HW216257   5.154   0.523   1.835
 5120SOL     OW16258   5.591   1.603   3.725
 5120SOL    HW116259   5.572   1.672   3.654
 5120SOL    HW216260   5.565   1.513   3.691
 5121SOL     OW16261   1.668   2.454   7.018
 5121SOL    HW116262   1.647   2.356   0.003
 5121SOL    HW216263   1.711   2.487   0.077
 5122SOL     OW16264   3.144   0.807   4.513
 5122SOL    HW116265   3.107   0.891   4.473
 5122SOL    HW216266   3.076   0.734   4.506
 5123SOL     OW16267   6.004   3.468   4.585
 5123SOL    HW116268   5.958   3.511   4.508
 5123SOL    HW216269   6.040   3.539   4.646
 5124SOL     OW16270   2.485   5.177   6.321
 5124SOL    HW116271   2.577   5.197   6.287
 5124SOL    HW216272   2.420   5.239   6.278
 5125SOL     OW16273   6.942   3.678   4.737
 5125SOL    HW116274   6.970   3.590   4.699
 5125SOL    HW216275   6.846   3.695   4.715
 5126SOL     OW16276   6.225   4.587   5.696
 5126SOL    HW116277   6.126   4.596   5.706
 5126SOL    HW216278   6.254   4.495   5.725
 5127SOL     OW16279   6.055   3.746   0.071
 5127SOL    HW116280   5.982   3.735   0.003
 5127SOL    HW216281   6.066   3.660   0.122
 5128SOL     OW16282   1.164   0.589   0.280
 5128SOL    HW116283   1.140   0.590   0.377
 5128SOL    HW216284   1.252   0.635   0.267
 5129SOL     OW16285   5.060   1.059   2.723
 5129SOL    HW116286   4.983   0.996   2.712
 5129SOL    HW216287   5.026   1.150   2.747
 5130SOL     OW16288   1.372   5.718   4.847
 5130SOL    HW116289   1.455   5.749   4.801
 5130SOL    HW216290   1.360   5.620   4.833
 5131SOL     OW16291   2.797   4.736   3.303
 5131SOL    HW116292   2.870   4.798   3.329
 5131SOL    HW216293   2.713   4.788   3.286
 5132SOL     OW16294   3.326   1.080   5.944
 5132SOL    HW116295   3.375   1.000   5.910
 5132SOL    HW216296   3.266   1.053   6.019
 5133SOL     OW16297   2.755   5.493   6.043
 5133SOL    HW116298   2.661   5.506   6.077
 5133SOL    HW216299   2.787   5.578   6.002
 5134SOL     OW16300   6.553   0.125   2.660
 5134SOL    HW116301   6.576   0.219   2.683
 5134SOL    HW216302   6.486   0.124   2.585
 5135SOL     OW16303   6.565   4.040   3.088
 5135SOL    HW116304   6.537   4.057   3.182
 5135SOL    HW216305   6.532   3.950   3.059
 5136SOL     OW16306   6.493   1.631   5.905
 5136SOL    HW116307   6.560   1.625   5.831
 5136SOL    HW216308   6.415   1.685   5.875
 5137SOL     OW16309   4.923   3.092   5.720
 5137SOL    HW116310   5.012   3.073   5.677
 5137SOL    HW216311   4.850   3.064   5.658
 5138SOL     OW16312   3.874   3.928   3.890
 5138SOL    HW116313   3.847   3.985   3.813
 5138SOL    HW216314   3.959   3.880   3.868
 5139SOL     OW16315   1.073   0.090   4.678
 5139SOL    HW116316   1.148   0.151   4.701
 5139SOL    HW216317   1.047   0.103   4.583
 5140SOL     OW16318   3.792   1.633   6.294
 5140SOL    HW116319   3.779   1.569   6.370
 5140SOL    HW216320   3.704   1.668   6.264
 5141SOL     OW16321   6.542   2.744   1.395
 5141SOL    HW116322   6.613   2.784   1.338
 5141SOL    HW216323   6.476   2.695   1.338
 5142SOL     OW16324   6.134   6.980   5.354
 5142SOL    HW116325   6.059   6.923   5.388
 5142SOL    HW216326   6.103   0.049   5.342
 5143SOL     OW16327   1.021   4.202   4.987
 5143SOL    HW116328   1.077   4.232   5.064
 5143SOL    HW216329   1.080   4.164   4.916
 5144SOL     OW16330   1.943   3.753   6.462
 5144SOL    HW116331   1.861   3.699   6.441
 5144SOL    HW216332   1.926   3.849   6.443
 5145SOL     OW16333   3.414   6.518   6.645
 5145SOL    HW116334   3.426   6.422   6.671
 5145SOL    HW216335   3.463   6.576   6.710
 5146SOL     OW16336   3.864   4.058   5.187
 5146SOL    HW116337   3.922   4.139   5.184
 5146SOL    HW216338   3.775   4.079   5.147
 5147SOL     OW16339   5.727   4.897   3.718
 5147SOL    HW116340   5.653   4.901   3.785
 5147SOL    HW216341   5.780   4.982   3.722
 5148SOL     OW16342   0.389   0.476   2.492
 5148SOL    HW116343   0.384   0.460   2.394
 5148SOL    HW216344   0.455   0.549   2.511
 5149SOL     OW16345   5.606   4.991   4.366
 5149SOL    HW116346   5.701   4.973   4.342
 5149SOL    HW216347   5.583   4.944   4.451
 5150SOL     OW16348   1.880   4.460   3.670
 5150SOL    HW116349   1.852   4.425   3.581
 5150SOL    HW216350   1.940   4.394   3.714
 5151SOL     OW16351   5.679   3.820   1.682
 5151SOL    HW116352   5.615   3.803   1.756
 5151SOL    HW216353   5.629   3.851   1.601
 5152SOL     OW16354   0.925   5.883   6.847
 5152SOL    HW116355   0.905   5.896   6.750
 5152SOL    HW216356   0.840   5.865   6.896
 5153SOL     OW16357   1.235   1.397   0.995
 5153SOL    HW116358   1.319   1.451   1.004
 5153SOL    HW216359   1.160   1.443   1.042
 5154SOL     OW16360   1.602   3.004   6.622
 5154SOL    HW116361   1.647   3.014   6.711
 5154SOL    HW216362   1.638   3.073   6.559
 5155SOL     OW16363   2.963   2.003   1.037
 5155SOL    HW116364   2.956   2.006   0.938
 5155SOL    HW216365   3.059   2.018   1.064
 5156SOL     OW16366   5.491   4.546   4.775
 5156SOL    HW116367   5.455   4.486   4.846
 5156SOL    HW216368   5.591   4.538   4.774
 5157SOL     OW16369   3.146   1.536   2.219
 5157SOL    HW116370   3.082   1.541   2.142
 5157SOL    HW216371   3.185   1.627   2.235
 5158SOL     OW16372   3.083   2.364   1.413
 5158SOL    HW116373   3.006   2.373   1.476
 5158SOL    HW216374   3.048   2.357   1.320
 5159SOL     OW16375   6.212   4.065   6.112
 5159SOL    HW116376   6.263   4.148   6.088
 5159SOL    HW216377   6.209   4.003   6.033
 5160SOL     OW16378   6.330   6.405   3.442
 5160SOL    HW116379   6.403   6.411   3.509
 5160SOL    HW216380   6.322   6.310   3.410
 5161SOL     OW16381   1.237   3.396   0.231
 5161SOL    HW116382   1.138   3.386   0.245
 5161SOL    HW216383   1.254   3.463   0.159
 5162SOL     OW16384   0.561   5.421   2.293
 5162SOL    HW116385   0.540   5.513   2.260
 5162SOL    HW216386   0.621   5.427   2.372
 5163SOL     OW16387   3.832   6.706   0.962
 5163SOL    HW116388   3.809   6.659   0.877
 5163SOL    HW216389   3.834   6.804   0.946
 5164SOL     OW16390   2.555   3.127   0.286
 5164SOL    HW116391   2.639   3.102   0.239
 5164SOL    HW216392   2.497   3.046   0.296
 5165SOL     OW16393   1.185   4.073   6.508
 5165SOL    HW116394   1.249   4.146   6.533
 5165SOL    HW216395   1.231   4.008   6.447
 5166SOL     OW16396   1.782   5.167   2.267
 5166SOL    HW116397   1.727   5.240   2.309
 5166SOL    HW216398   1.793   5.092   2.332
 5167SOL     OW16399   6.022   4.306   5.284
 5167SOL    HW116400   6.084   4.321   5.360
 5167SOL    HW216401   6.008   4.207   5.271
 5168SOL     OW16402   4.725   1.945   2.112
 5168SOL    HW116403   4.708   2.038   2.144
 5168SOL    HW216404   4.823   1.934   2.093
 5169SOL     OW16405   4.713   1.844   3.976
 5169SOL    HW116406   4.797   1.854   3.923
 5169SOL    HW216407   4.658   1.927   3.967
 5170SOL     OW16408   1.273   3.727   5.519
 5170SOL    HW116409   1.349   3.769   5.568
 5170SOL    HW216410   1.258   3.774   5.432
 5171SOL     OW16411   0.813   5.053   5.504
 5171SOL    HW116412   0.827   4.955   5.521
 5171SOL    HW216413   0.887   5.105   5.545
 5172SOL     OW16414   1.183   4.881   3.717
 5172SOL    HW116415   1.171   4.915   3.810
 5172SOL    HW216416   1.279   4.855   3.703
 5173SOL     OW16417   4.345   4.052   6.361
 5173SOL    HW116418   4.298   4.078   6.277
 5173SOL    HW216419   4.403   3.972   6.343
 5174SOL     OW16420   1.888   6.716   4.012
 5174SOL    HW116421   1.912   6.722   4.109
 5174SOL    HW216422   1.879   6.808   3.974
 5175SOL     OW16423   2.611   4.073   6.562
 5175SOL    HW116424   2.562   4.127   6.494
 5175SOL    HW216425   2.690   4.029   6.519
 5176SOL     OW16426   5.105   5.185   6.332
 5176SOL    HW116427   5.059   5.158   6.247
 5176SOL    HW216428   5.167   5.261   6.314
 5177SOL     OW16429   5.191   6.434   1.183
 5177SOL    HW116430   5.200   6.349   1.236
 5177SOL    HW216431   5.124   6.422   1.110
 5178SOL     OW16432   0.628   4.775   1.687
 5178SOL    HW116433   0.546   4.824   1.716
 5178SOL    HW216434   0.632   4.686   1.733
 5179SOL     OW16435   5.024   4.221   3.262
 5179SOL    HW116436   4.966   4.175   3.329
 5179SOL    HW216437   4.971   4.242   3.180
 5180SOL     OW16438   3.503   0.071   1.156
 5180SOL    HW116439   3.603   0.066   1.155
 5180SOL    HW216440   3.470   0.081   1.250
 5181SOL     OW16441   0.218   0.508   7.002
 5181SOL    HW116442   0.306   0.554   6.987
 5181SOL    HW216443   0.144   0.567   6.970
 5182SOL     OW16444   4.505   4.503   2.231
 5182SOL    HW116445   4.496   4.408   2.202
 5182SOL    HW216446   4.422   4.553   2.208
 5183SOL     OW16447   4.120   1.473   2.944
 5183SOL    HW116448   4.088   1.496   3.036
 5183SOL    HW216449   4.127   1.557   2.890
 5184SOL     OW16450   2.295   2.273   3.499
 5184SOL    HW116451   2.221   2.235   3.443
 5184SOL    HW216452   2.377   2.216   3.488
 5185SOL     OW16453   4.930   0.332   3.265
 5185SOL    HW116454   4.912   0.405   3.199
 5185SOL    HW216455   5.024   0.301   3.256
 5186SOL     OW16456   5.989   2.721   5.441
 5186SOL    HW116457   6.022   2.762   5.356
 5186SOL    HW216458   6.063   2.720   5.509
 5187SOL     OW16459   2.260   5.600   4.473
 5187SOL    HW116460   2.279   5.522   4.413
 5187SOL    HW216461   2.346   5.645   4.498
 5188SOL     OW16462   6.870   6.119   1.447
 5188SOL    HW116463   6.783   6.098   1.493
 5188SOL    HW216464   6.852   6.175   1.366
 5189SOL     OW16465   5.288   5.946   6.786
 5189SOL    HW116466   5.245   5.972   6.699
 5189SOL    HW216467   5.369   6.004   6.801
 5190SOL     OW16468   1.806   3.149   2.435
 5190SOL    HW116469   1.858   3.229   2.407
 5190SOL    HW216470   1.727   3.178   2.489
 5191SOL     OW16471   2.966   5.850   2.992
 5191SOL    HW116472   3.001   5.757   2.977
 5191SOL    HW216473   2.938   5.860   3.088
 5192SOL     OW16474   2.128   5.801   1.643
 5192SOL    HW116475   2.037   5.827   1.611
 5192SOL    HW216476   2.129   5.703   1.664
 5193SOL     OW16477   4.741   6.816   6.154
 5193SOL    HW116478   4.800   6.895   6.138
 5193SOL    HW216479   4.693   6.792   6.069
 5194SOL     OW16480   2.641   1.914   6.638
 5194SOL    HW116481   2.726   1.922   6.586
 5194SOL    HW216482   2.609   1.819   6.636
 5195SOL     OW16483   0.207   0.256   3.639
 5195SOL    HW116484   0.143   0.331   3.656
 5195SOL    HW216485   0.221   0.247   3.540
 5196SOL     OW16486   4.478   6.735   2.012
 5196SOL    HW116487   4.438   6.653   2.055
 5196SOL    HW216488   4.570   6.714   1.979
 5197SOL     OW16489   1.420   3.814   6.706
 5197SOL    HW116490   1.321   3.803   6.714
 5197SOL    HW216491   1.452   3.770   6.623
 5198SOL     OW16492   4.244   5.508   3.149
 5198SOL    HW116493   4.255   5.426   3.204
 5198SOL    HW216494   4.199   5.485   3.063
 5199SOL     OW16495   0.199   5.340   0.971
 5199SOL    HW116496   0.122   5.300   1.020
 5199SOL    HW216497   0.268   5.371   1.036
 5200SOL     OW16498   6.702   3.311   4.904
 5200SOL    HW116499   6.694   3.409   4.892
 5200SOL    HW216500   6.696   3.289   5.002
 5201SOL     OW16501   0.526   6.760   3.323
 5201SOL    HW116502   0.462   6.761   3.247
 5201SOL    HW216503   0.501   6.688   3.387
 5202SOL     OW16504   6.337   2.844   6.004
 5202SOL    HW116505   6.316   2.769   5.940
 5202SOL    HW216506   6.421   2.889   5.976
 5203SOL     OW16507   1.764   2.434   6.673
 5203SOL    HW116508   1.730   2.518   6.713
 5203SOL    HW216509   1.861   2.422   6.697
 5204SOL     OW16510   3.787   5.111   0.372
 5204SOL    HW116511   3.740   5.026   0.348
 5204SOL    HW216512   3.734   5.159   0.442
 5205SOL     OW16513   1.590   0.036   0.870
 5205SOL    HW116514   1.597   6.969   0.832
 5205SOL    HW216515   1.680   0.080   0.868
 5206SOL     OW16516   0.495   3.779   6.264
 5206SOL    HW116517   0.548   3.725   6.330
 5206SOL    HW216518   0.529   3.761   6.172
 5207SOL     OW16519   0.631   5.472   4.264
 5207SOL    HW116520   0.730   5.468   4.275
 5207SOL    HW216521   0.607   5.447   4.170
 5208SOL     OW16522   3.552   1.260   0.366
 5208SOL    HW116523   3.466   1.276   0.415
 5208SOL    HW216524   3.607   1.343   0.369
 5209SOL     OW16525   5.844   5.614   4.502
 5209SOL    HW116526   5.774   5.573   4.562
 5209SOL    HW216527   5.928   5.628   4.554
 5210SOL     OW16528   5.798   3.208   5.772
 5210SOL    HW116529   5.743   3.287   5.745
 5210SOL    HW216530   5.742   3.147   5.829
 5211SOL     OW16531   3.698   2.882   4.362
 5211SOL    HW116532   3.798   2.882   4.359
 5211SOL    HW216533   3.662   2.831   4.284
 5212SOL     OW16534   6.736   2.202   1.302
 5212SOL    HW116535   6.819   2.167   1.346
 5212SOL    HW216536   6.753   2.215   1.204
 5213SOL     OW16537   5.104   1.972   0.192
 5213SOL    HW116538   5.109   1.896   0.127
 5213SOL    HW216539   5.073   2.054   0.145
 5214SOL     OW16540   5.334   1.290   6.700
 5214SOL    HW116541   5.329   1.194   6.728
 5214SOL    HW216542   5.425   1.326   6.721
 5215SOL     OW16543   5.077   5.503   3.512
 5215SOL    HW116544   5.140   5.559   3.458
 5215SOL    HW216545   5.128   5.432   3.560
 5216SOL     OW16546   4.948   6.162   1.253
 5216SOL    HW116547   4.943   6.075   1.204
 5216SOL    HW216548   4.940   6.238   1.189
 5217SOL     OW16549   3.489   5.088   4.174
 5217SOL    HW116550   3.419   5.034   4.127
 5217SOL    HW216551   3.514   5.043   4.259
 5218SOL     OW16552   1.553   0.100   3.382
 5218SOL    HW116553   1.541   0.026   3.316
 5218SOL    HW216554   1.651   0.117   3.396
 5219SOL     OW16555   3.640   0.612   6.548
 5219SOL    HW116556   3.659   0.515   6.531
 5219SOL    HW216557   3.676   0.637   6.638
 5220SOL     OW16558   1.772   5.459   2.959
 5220SOL    HW116559   1.728   5.522   2.895
 5220SOL    HW216560   1.768   5.498   3.051
 5221SOL     OW16561   5.570   2.339   4.608
 5221SOL    HW116562   5.622   2.255   4.623
 5221SOL    HW216563   5.477   2.316   4.579
 5222SOL     OW16564   2.577   0.372   4.045
 5222SOL    HW116565   2.666   0.331   4.066
 5222SOL    HW216566   2.545   0.425   4.124
 5223SOL     OW16567   4.784   0.853   1.563
 5223SOL    HW116568   4.860   0.892   1.511
 5223SOL    HW216569   4.767   0.760   1.531
 5224SOL     OW16570   0.137   1.532   3.217
 5224SOL    HW116571   0.063   1.538   3.283
 5224SOL    HW216572   0.164   1.625   3.189
 5225SOL     OW16573   6.620   0.981   3.072
 5225SOL    HW116574   6.527   0.953   3.096
 5225SOL    HW216575   6.618   1.073   3.033
 5226SOL     OW16576   0.513   6.217   5.348
 5226SOL    HW116577   0.534   6.136   5.293
 5226SOL    HW216578   0.556   6.209   5.438
 5227SOL     OW16579   1.682   4.619   3.751
 5227SOL    HW116580   1.739   4.552   3.704
 5227SOL    HW216581   1.725   4.645   3.838
 5228SOL     OW16582   6.598   2.521   0.734
 5228SOL    HW116583   6.500   2.542   0.735
 5228SOL    HW216584   6.613   2.434   0.688
 5229SOL     OW16585   1.566   4.302   6.769
 5229SOL    HW116586   1.637   4.352   6.818
 5229SOL    HW216587   1.608   4.243   6.700
 5230SOL     OW16588   0.288   0.078   0.801
 5230SOL    HW116589   0.377   0.057   0.842
 5230SOL    HW216590   0.302   0.120   0.711
 5231SOL     OW16591   3.026   3.494   4.483
 5231SOL    HW116592   2.956   3.538   4.427
 5231SOL    HW216593   2.983   3.445   4.559
 5232SOL     OW16594   2.990   1.817   6.195
 5232SOL    HW116595   3.049   1.765   6.133
 5232SOL    HW216596   2.895   1.801   6.170
 5233SOL     OW16597   6.660   0.007   1.052
 5233SOL    HW116598   6.629   0.074   1.119
 5233SOL    HW216599   6.754   0.029   1.025
 5234SOL     OW16600   3.058   0.336   6.457
 5234SOL    HW116601   2.987   0.289   6.404
 5234SOL    HW216602   3.114   0.268   6.504
 5235SOL     OW16603   1.837   3.030   1.416
 5235SOL    HW116604   1.929   3.068   1.403
 5235SOL    HW216605   1.797   3.008   1.327
 5236SOL     OW16606   5.736   2.973   1.995
 5236SOL    HW116607   5.659   2.959   1.933
 5236SOL    HW216608   5.781   2.886   2.012
 5237SOL     OW16609   2.381   1.504   5.201
 5237SOL    HW116610   2.427   1.415   5.209
 5237SOL    HW216611   2.290   1.498   5.242
 5238SOL     OW16612   2.179   5.022   0.608
 5238SOL    HW116613   2.139   5.018   0.517
 5238SOL    HW216614   2.134   4.955   0.668
 5239SOL     OW16615   4.048   3.811   3.709
 5239SOL    HW116616   4.107   3.764   3.774
 5239SOL    HW216617   4.068   3.777   3.616
 5240SOL     OW16618   3.070   1.875   5.811
 5240SOL    HW116619   3.107   1.825   5.889
 5240SOL    HW216620   3.070   1.973   5.831
 5241SOL     OW16621   1.622   5.999   6.330
 5241SOL    HW116622   1.643   5.962   6.240
 5241SOL    HW216623   1.554   6.071   6.321
 5242SOL     OW16624   6.536   6.443   5.555
 5242SOL    HW116625   6.471   6.416   5.627
 5242SOL    HW216626   6.607   6.501   5.595
 5243SOL     OW16627   2.184   6.239   1.665
 5243SOL    HW116628   2.245   6.312   1.632
 5243SOL    HW216629   2.137   6.270   1.748
 5244SOL     OW16630   4.421   3.659   6.204
 5244SOL    HW116631   4.408   3.581   6.143
 5244SOL    HW216632   4.377   3.740   6.166
 5245SOL     OW16633   4.524   4.398   6.651
 5245SOL    HW116634   4.595   4.353   6.597
 5245SOL    HW216635   4.434   4.360   6.628
 5246SOL     OW16636   5.574   4.373   2.738
 5246SOL    HW116637   5.651   4.385   2.676
 5246SOL    HW216638   5.496   4.428   2.707
 5247SOL     OW16639   1.635   6.023   0.273
 5247SOL    HW116640   1.580   5.943   0.292
 5247SOL    HW216641   1.708   6.030   0.341
 5248SOL     OW16642   6.027   0.841   5.946
 5248SOL    HW116643   5.970   0.771   5.904
 5248SOL    HW216644   5.982   0.930   5.937
 5249SOL     OW16645   0.604   5.588   5.102
 5249SOL    HW116646   0.602   5.572   5.201
 5249SOL    HW216647   0.511   5.595   5.067
 5250SOL     OW16648   6.913   1.554   5.967
 5250SOL    HW116649   6.923   1.517   5.875
 5250SOL    HW216650   6.843   1.503   6.016
 5251SOL     OW16651   0.554   2.802   1.376
 5251SOL    HW116652   0.531   2.737   1.448
 5251SOL    HW216653   0.472   2.847   1.343
 5252SOL     OW16654   1.851   5.722   0.765
 5252SOL    HW116655   1.812   5.633   0.786
 5252SOL    HW216656   1.942   5.710   0.726
 5253SOL     OW16657   5.141   3.432   5.644
 5253SOL    HW116658   5.090   3.516   5.622
 5253SOL    HW216659   5.091   3.380   5.713
 5254SOL     OW16660   5.521   1.783   3.513
 5254SOL    HW116661   5.575   1.829   3.442
 5254SOL    HW216662   5.472   1.851   3.567
 5255SOL     OW16663   4.112   6.916   4.981
 5255SOL    HW116664   4.208   6.924   4.955
 5255SOL    HW216665   4.093   6.822   5.012
 5256SOL     OW16666   4.692   1.323   3.443
 5256SOL    HW116667   4.693   1.404   3.385
 5256SOL    HW216668   4.697   1.241   3.385
 5257SOL     OW16669   4.072   0.453   2.179
 5257SOL    HW116670   4.041   0.530   2.124
 5257SOL    HW216671   4.117   0.386   2.120
 5258SOL     OW16672   5.004   3.748   1.450
 5258SOL    HW116673   4.909   3.774   1.467
 5258SOL    HW216674   5.033   3.679   1.516
 5259SOL     OW16675   4.692   6.327   1.273
 5259SOL    HW116676   4.711   6.370   1.361
 5259SOL    HW216677   4.724   6.387   1.199
 5260SOL     OW16678   5.565   3.176   0.835
 5260SOL    HW116679   5.618   3.184   0.751
 5260SOL    HW216680   5.495   3.105   0.824
 5261SOL     OW16681   1.157   2.874   5.994
 5261SOL    HW116682   1.143   2.784   5.951
 5261SOL    HW216683   1.075   2.929   5.982
 5262SOL     OW16684   2.820   0.121   2.517
 5262SOL    HW116685   2.827   0.048   2.585
 5262SOL    HW216686   2.865   0.092   2.432
 5263SOL     OW16687   0.809   0.533   5.941
 5263SOL    HW116688   0.863   0.521   5.858
 5263SOL    HW216689   0.712   0.530   5.919
 5264SOL     OW16690   5.806   0.831   1.806
 5264SOL    HW116691   5.839   0.917   1.768
 5264SOL    HW216692   5.881   0.764   1.808
 5265SOL     OW16693   5.168   4.311   2.615
 5265SOL    HW116694   5.133   4.341   2.527
 5265SOL    HW216695   5.141   4.216   2.631
 5266SOL     OW16696   2.528   6.697   1.582
 5266SOL    HW116697   2.570   6.607   1.568
 5266SOL    HW216698   2.529   6.718   1.680
 5267SOL     OW16699   4.797   4.467   5.914
 5267SOL    HW116700   4.798   4.567   5.918
 5267SOL    HW216701   4.719   4.437   5.859
 5268SOL     OW16702   6.901   5.626   5.888
 5268SOL    HW116703   6.928   5.596   5.979
 5268SOL    HW216704   6.802   5.643   5.886
 5269SOL     OW16705   2.622   5.862   3.971
 5269SOL    HW116706   2.606   5.960   3.957
 5269SOL    HW216707   2.694   5.831   3.909
 5270SOL     OW16708   4.317   2.220   1.717
 5270SOL    HW116709   4.287   2.160   1.643
 5270SOL    HW216710   4.262   2.203   1.799
 5271SOL     OW16711   4.673   5.205   4.425
 5271SOL    HW116712   4.703   5.113   4.401
 5271SOL    HW216713   4.575   5.213   4.407
 5272SOL     OW16714   1.620   5.486   3.509
 5272SOL    HW116715   1.670   5.532   3.582
 5272SOL    HW216716   1.674   5.486   3.425
 5273SOL     OW16717   0.496   3.247   2.802
 5273SOL    HW116718   0.510   3.157   2.763
 5273SOL    HW216719   0.546   3.254   2.889
 5274SOL     OW16720   6.092   4.730   2.714
 5274SOL    HW116721   6.005   4.725   2.763
 5274SOL    HW216722   6.109   4.824   2.686
 5275SOL     OW16723   3.021   1.513   6.488
 5275SOL    HW116724   2.952   1.585   6.497
 5275SOL    HW216725   3.070   1.503   6.574
 5276SOL     OW16726   0.456   5.963   0.731
 5276SOL    HW116727   0.416   5.896   0.794
 5276SOL    HW216728   0.510   6.029   0.783
 5277SOL     OW16729   1.536   2.711   2.783
 5277SOL    HW116730   1.636   2.712   2.773
 5277SOL    HW216731   1.508   2.789   2.840
 5278SOL     OW16732   5.419   6.856   5.214
 5278SOL    HW116733   5.457   6.824   5.301
 5278SOL    HW216734   5.492   6.872   5.149
 5279SOL     OW16735   1.759   6.221   6.908
 5279SOL    HW116736   1.789   6.152   6.974
 5279SOL    HW216737   1.699   6.286   6.954
 5280SOL     OW16738   3.478   5.249   5.547
 5280SOL    HW116739   3.422   5.282   5.471
 5280SOL    HW216740   3.454   5.154   5.567
 5281SOL     OW16741   1.935   1.305   3.970
 5281SOL    HW116742   1.926   1.340   3.877
 5281SOL    HW216743   1.931   1.205   3.969
 5282SOL     OW16744   1.770   0.285   1.727
 5282SOL    HW116745   1.774   0.218   1.802
 5282SOL    HW216746   1.744   0.374   1.763
 5283SOL     OW16747   1.820   0.540   2.949
 5283SOL    HW116748   1.890   0.470   2.969
 5283SOL    HW216749   1.851   0.598   2.874
 5284SOL     OW16750   4.803   3.045   3.512
 5284SOL    HW116751   4.804   2.954   3.552
 5284SOL    HW216752   4.786   3.038   3.413
 5285SOL     OW16753   0.519   3.455   4.397
 5285SOL    HW116754   0.445   3.436   4.462
 5285SOL    HW216755   0.539   3.553   4.398
 5286SOL     OW16756   6.403   3.315   0.878
 5286SOL    HW116757   6.432   3.409   0.893
 5286SOL    HW216758   6.364   3.278   0.962
 5287SOL     OW16759   3.019   5.441   1.304
 5287SOL    HW116760   2.926   5.477   1.309
 5287SOL    HW216761   3.028   5.361   1.363
 5288SOL     OW16762   3.737   0.560   2.448
 5288SOL    HW116763   3.711   0.463   2.443
 5288SOL    HW216764   3.770   0.590   2.359
 5289SOL     OW16765   2.015   5.572   5.323
 5289SOL    HW116766   2.052   5.486   5.288
 5289SOL    HW216767   1.922   5.586   5.288
 5290SOL     OW16768   1.544   3.784   5.661
 5290SOL    HW116769   1.543   3.689   5.691
 5290SOL    HW216770   1.639   3.817   5.658
 5291SOL     OW16771   2.777   4.447   6.581
 5291SOL    HW116772   2.746   4.460   6.486
 5291SOL    HW216773   2.861   4.499   6.595
 5292SOL     OW16774   5.743   4.646   6.099
 5292SOL    HW116775   5.692   4.697   6.031
 5292SOL    HW216776   5.682   4.583   6.147
 5293SOL     OW16777   2.167   6.854   4.997
 5293SOL    HW116778   2.131   6.940   4.959
 5293SOL    HW216779   2.267   6.853   4.985
 5294SOL     OW16780   5.246   2.339   5.709
 5294SOL    HW116781   5.288   2.410   5.767
 5294SOL    HW216782   5.251   2.251   5.756
 5295SOL     OW16783   3.971   1.288   2.798
 5295SOL    HW116784   3.922   1.224   2.857
 5295SOL    HW216785   4.048   1.327   2.848
 5296SOL     OW16786   3.047   4.476   6.814
 5296SOL    HW116787   3.034   4.551   6.748
 5296SOL    HW216788   3.044   4.389   6.766
 5297SOL     OW16789   1.578   3.626   0.321
 5297SOL    HW116790   1.673   3.624   0.289
 5297SOL    HW216791   1.551   3.534   0.350
 5298SOL     OW16792   1.194   5.979   0.063
 5298SOL    HW116793   1.294   5.969   0.070
 5298SOL    HW216794   1.171   6.021   7.001
 5299SOL     OW16795   2.613   3.126   0.849
 5299SOL    HW116796   2.685   3.169   0.903
 5299SOL    HW216797   2.528   3.122   0.902
 5300SOL     OW16798   0.375   5.763   1.231
 5300SOL    HW116799   0.381   5.852   1.186
 5300SOL    HW216800   0.400   5.773   1.328
 5301SOL     OW16801   4.272   1.524   6.785
 5301SOL    HW116802   4.274   1.558   6.691
 5301SOL    HW216803   4.259   1.600   6.848
 5302SOL     OW16804   6.183   5.623   3.873
 5302SOL    HW116805   6.132   5.683   3.811
 5302SOL    HW216806   6.121   5.585   3.941
 5303SOL     OW16807   0.236   5.228   4.591
 5303SOL    HW116808   0.222   5.170   4.511
 5303SOL    HW216809   0.156   5.288   4.602
 5304SOL     OW16810   6.000   0.743   1.085
 5304SOL    HW116811   6.067   0.674   1.110
 5304SOL    HW216812   5.973   0.731   0.989
 5305SOL     OW16813   0.574   4.398   3.735
 5305SOL    HW116814   0.563   4.476   3.673
 5305SOL    HW216815   0.664   4.357   3.723
 5306SOL     OW16816   0.794   4.344   4.953
 5306SOL    HW116817   0.883   4.321   4.914
 5306SOL    HW216818   0.798   4.333   5.053
 5307SOL     OW16819   4.135   1.957   0.261
 5307SOL    HW116820   4.065   1.938   0.192
 5307SOL    HW216821   4.225   1.939   0.223
 5308SOL     OW16822   1.101   4.206   3.011
 5308SOL    HW116823   1.173   4.272   2.988
 5308SOL    HW216824   1.106   4.129   2.948
 5309SOL     OW16825   4.117   4.678   1.957
 5309SOL    HW116826   4.204   4.628   1.957
 5309SOL    HW216827   4.056   4.638   1.889
 5310SOL     OW16828   5.960   3.270   1.639
 5310SOL    HW116829   6.036   3.323   1.600
 5310SOL    HW216830   5.968   3.268   1.738
 5311SOL     OW16831   6.746   6.975   0.061
 5311SOL    HW116832   6.736   6.910   7.011
 5311SOL    HW216833   6.773   0.039   0.025
 5312SOL     OW16834   1.148   5.696   1.118
 5312SOL    HW116835   1.084   5.690   1.195
 5312SOL    HW216836   1.096   5.704   1.033
 5313SOL     OW16837   1.345   3.038   6.101
 5313SOL    HW116838   1.425   3.015   6.047
 5313SOL    HW216839   1.269   2.977   6.076
 5314SOL     OW16840   3.760   6.675   0.333
 5314SOL    HW116841   3.764   6.600   0.267
 5314SOL    HW216842   3.741   6.761   0.284
 5315SOL     OW16843   4.808   3.457   1.730
 5315SOL    HW116844   4.865   3.406   1.665
 5315SOL    HW216845   4.863   3.527   1.775
 5316SOL     OW16846   1.224   3.225   5.028
 5316SOL    HW116847   1.171   3.299   4.985
 5316SOL    HW216848   1.216   3.142   4.973
 5317SOL     OW16849   5.923   1.341   5.007
 5317SOL    HW116850   5.849   1.305   5.063
 5317SOL    HW216851   6.008   1.292   5.027
 5318SOL     OW16852   0.903   2.718   0.314
 5318SOL    HW116853   0.920   2.671   0.401
 5318SOL    HW216854   0.824   2.779   0.325
 5319SOL     OW16855   3.968   5.892   0.147
 5319SOL    HW116856   3.903   5.832   0.192
 5319SOL    HW216857   3.928   5.929   0.063
 5320SOL     OW16858   4.783   4.717   0.566
 5320SOL    HW116859   4.794   4.810   0.532
 5320SOL    HW216860   4.694   4.681   0.537
 5321SOL     OW16861   1.894   4.867   4.423
 5321SOL    HW116862   1.799   4.838   4.436
 5321SOL    HW216863   1.933   4.892   4.511
 5322SOL     OW16864   5.491   6.412   6.703
 5322SOL    HW116865   5.474   6.345   6.776
 5322SOL    HW216866   5.523   6.364   6.621
 5323SOL     OW16867   3.987   1.870   0.031
 5323SOL    HW116868   3.948   1.958   0.004
 5323SOL    HW216869   3.947   1.797   7.000
 5324SOL     OW16870   2.972   2.328   0.774
 5324SOL    HW116871   2.896   2.377   0.731
 5324SOL    HW216872   2.950   2.230   0.780
 5325SOL     OW16873   4.303   0.335   4.390
 5325SOL    HW116874   4.217   0.383   4.373
 5325SOL    HW216875   4.357   0.385   4.457
 5326SOL     OW16876   6.260   5.021   2.957
 5326SOL    HW116877   6.327   4.960   2.915
 5326SOL    HW216878   6.178   5.025   2.899
 5327SOL     OW16879   5.441   2.669   5.428
 5327SOL    HW116880   5.519   2.606   5.426
 5327SOL    HW216881   5.455   2.740   5.359
 5328SOL     OW16882   3.802   3.007   5.040
 5328SOL    HW116883   3.822   3.088   4.984
 5328SOL    HW216884   3.743   2.945   4.989
 5329SOL     OW16885   0.297   4.580   0.243
 5329SOL    HW116886   0.239   4.518   0.297
 5329SOL    HW216887   0.377   4.530   0.210
 5330SOL     OW16888   3.933   4.039   6.220
 5330SOL    HW116889   3.858   4.105   6.223
 5330SOL    HW216890   3.895   3.947   6.208
 5331SOL     OW16891   5.447   1.104   0.659
 5331SOL    HW116892   5.367   1.155   0.625
 5331SOL    HW216893   5.430   1.006   0.649
 5332SOL     OW16894   0.697   3.003   1.278
 5332SOL    HW116895   0.628   3.075   1.286
 5332SOL    HW216896   0.660   2.917   1.312
 5333SOL     OW16897   0.547   0.221   3.158
 5333SOL    HW116898   0.613   0.262   3.221
 5333SOL    HW216899   0.556   0.262   3.067
 5334SOL     OW16900   3.048   0.226   4.317
 5334SOL    HW116901   2.978   0.160   4.343
 5334SOL    HW216902   3.023   0.270   4.231
 5335SOL     OW16903   6.885   6.130   2.002
 5335SOL    HW116904   6.955   6.073   2.046
 5335SOL    HW216905   6.855   6.085   1.917
 5336SOL     OW16906   1.844   2.873   3.502
 5336SOL    HW116907   1.789   2.792   3.525
 5336SOL    HW216908   1.904   2.851   3.425
 5337SOL     OW16909   5.069   4.221   1.191
 5337SOL    HW116910   5.088   4.241   1.095
 5337SOL    HW216911   5.018   4.135   1.198
 5338SOL     OW16912   5.924   1.878   6.683
 5338SOL    HW116913   5.871   1.794   6.693
 5338SOL    HW216914   5.953   1.911   6.773
 5339SOL     OW16915   6.535   2.178   3.896
 5339SOL    HW116916   6.596   2.256   3.880
 5339SOL    HW216917   6.567   2.126   3.975
 5340SOL     OW16918   4.914   3.879   0.642
 5340SOL    HW116919   4.926   3.874   0.741
 5340SOL    HW216920   4.817   3.871   0.619
 5341SOL     OW16921   3.303   2.548   6.389
 5341SOL    HW116922   3.379   2.575   6.449
 5341SOL    HW216923   3.245   2.627   6.370
 5342SOL     OW16924   2.982   0.056   4.023
 5342SOL    HW116925   3.036   0.114   3.962
 5342SOL    HW216926   3.040   7.011   4.062
 5343SOL     OW16927   3.935   3.492   4.530
 5343SOL    HW116928   3.948   3.581   4.487
 5343SOL    HW216929   3.843   3.458   4.510
 5344SOL     OW16930   2.075   3.104   2.617
 5344SOL    HW116931   2.021   3.128   2.537
 5344SOL    HW216932   2.091   3.186   2.673
 5345SOL     OW16933   3.580   6.627   1.355
 5345SOL    HW116934   3.489   6.665   1.369
 5345SOL    HW216935   3.601   6.626   1.257
 5346SOL     OW16936   3.662   6.100   3.971
 5346SOL    HW116937   3.695   6.166   4.039
 5346SOL    HW216938   3.580   6.136   3.927
 5347SOL     OW16939   0.547   2.329   1.562
 5347SOL    HW116940   0.633   2.318   1.513
 5347SOL    HW216941   0.520   2.426   1.561
 5348SOL     OW16942   0.334   2.395   1.006
 5348SOL    HW116943   0.401   2.428   0.939
 5348SOL    HW216944   0.349   2.442   1.093
 5349SOL     OW16945   2.079   2.729   0.338
 5349SOL    HW116946   2.055   2.818   0.299
 5349SOL    HW216947   2.007   2.700   0.401
 5350SOL     OW16948   2.228   0.252   5.491
 5350SOL    HW116949   2.211   0.154   5.479
 5350SOL    HW216950   2.209   0.277   5.586
 5351SOL     OW16951   6.279   5.720   2.173
 5351SOL    HW116952   6.360   5.662   2.171
 5351SOL    HW216953   6.274   5.768   2.260
 5352SOL     OW16954   2.522   4.829   3.461
 5352SOL    HW116955   2.556   4.897   3.396
 5352SOL    HW216956   2.439   4.863   3.505
 5353SOL     OW16957   3.859   5.175   3.413
 5353SOL    HW116958   3.785   5.242   3.418
 5353SOL    HW216959   3.832   5.100   3.353
 5354SOL     OW16960   2.955   5.579   1.836
 5354SOL    HW116961   2.974   5.572   1.934
 5354SOL    HW216962   2.896   5.657   1.819
 5355SOL     OW16963   5.773   3.639   3.706
 5355SOL    HW116964   5.794   3.730   3.740
 5355SOL    HW216965   5.831   3.618   3.627
 5356SOL     OW16966   5.495   4.423   1.820
 5356SOL    HW116967   5.475   4.482   1.742
 5356SOL    HW216968   5.588   4.441   1.853
 5357SOL     OW16969   4.607   6.928   0.681
 5357SOL    HW116970   4.577   6.852   0.738
 5357SOL    HW216971   4.653   6.893   0.599
 5358SOL     OW16972   4.617   1.845   0.273
 5358SOL    HW116973   4.664   1.803   0.196
 5358SOL    HW216974   4.673   1.920   0.309
 5359SOL     OW16975   1.181   1.856   6.406
 5359SOL    HW116976   1.137   1.859   6.495
 5359SOL    HW216977   1.133   1.790   6.347
 5360SOL     OW16978   4.254   6.545   5.599
 5360SOL    HW116979   4.210   6.635   5.611
 5360SOL    HW216980   4.204   6.476   5.652
 5361SOL     OW16981   2.500   1.017   5.050
 5361SOL    HW116982   2.423   1.049   4.996
 5361SOL    HW216983   2.571   1.087   5.052
 5362SOL     OW16984   5.875   5.195   3.444
 5362SOL    HW116985   5.937   5.268   3.415
 5362SOL    HW216986   5.869   5.125   3.373
 5363SOL     OW16987   0.391   0.034   6.580
 5363SOL    HW116988   0.418   7.011   6.664
 5363SOL    HW216989   0.337   6.998   6.522
 5364SOL     OW16990   6.289   6.540   1.787
 5364SOL    HW116991   6.234   6.536   1.703
 5364SOL    HW216992   6.356   6.466   1.786
 5365SOL     OW16993   3.679   3.659   6.741
 5365SOL    HW116994   3.727   3.576   6.769
 5365SOL    HW216995   3.722   3.738   6.785
 5366SOL     OW16996   5.269   5.902   1.673
 5366SOL    HW116997   5.239   5.978   1.731
 5366SOL    HW216998   5.206   5.891   1.597
 5367SOL     OW16999   0.772   6.609   0.192
 5367SOL    HW117000   0.675   6.589   0.208
 5367SOL    HW217001   0.825   6.524   0.200
 5368SOL     OW17002   5.234   0.254   3.175
 5368SOL    HW117003   5.226   0.353   3.172
 5368SOL    HW217004   5.312   0.225   3.119
 5369SOL     OW17005   3.058   6.643   2.373
 5369SOL    HW117006   3.133   6.594   2.419
 5369SOL    HW217007   3.085   6.665   2.280
 5370SOL     OW17008   4.397   2.935   1.662
 5370SOL    HW117009   4.427   2.840   1.659
 5370SOL    HW217010   4.445   2.983   1.736
 5371SOL     OW17011   1.402   3.952   4.982
 5371SOL    HW117012   1.410   3.948   5.082
 5371SOL    HW217013   1.345   4.030   4.956
 5372SOL     OW17014   2.659   5.753   3.632
 5372SOL    HW117015   2.739   5.808   3.659
 5372SOL    HW217016   2.603   5.806   3.568
 5373SOL     OW17017   3.825   6.571   4.237
 5373SOL    HW117018   3.878   6.633   4.295
 5373SOL    HW217019   3.729   6.600   4.236
 5374SOL     OW17020   1.133   3.812   6.885
 5374SOL    HW117021   1.120   3.864   6.801
 5374SOL    HW217022   1.093   3.862   6.962
 5375SOL     OW17023   1.995   5.054   4.688
 5375SOL    HW117024   1.976   5.142   4.645
 5375SOL    HW217025   1.912   5.018   4.730
 5376SOL     OW17026   1.383   3.122   0.875
 5376SOL    HW117027   1.395   3.028   0.844
 5376SOL    HW217028   1.410   3.130   0.971
 5377SOL     OW17029   0.398   6.793   2.209
 5377SOL    HW117030   0.356   6.728   2.145
 5377SOL    HW217031   0.423   6.876   2.159
 5378SOL     OW17032   0.088   0.748   1.820
 5378SOL    HW117033   0.129   0.667   1.862
 5378SOL    HW217034   0.149   0.782   1.748
 5379SOL     OW17035   1.925   5.296   4.559
 5379SOL    HW117036   1.962   5.374   4.609
 5379SOL    HW217037   1.828   5.286   4.580
 5380SOL     OW17038   2.101   2.213   3.292
 5380SOL    HW117039   2.083   2.292   3.233
 5380SOL    HW217040   2.042   2.137   3.265
 5381SOL     OW17041   6.673   3.839   1.540
 5381SOL    HW117042   6.656   3.754   1.590
 5381SOL    HW217043   6.592   3.863   1.486
 5382SOL     OW17044   2.960   0.309   1.808
 5382SOL    HW117045   3.015   0.349   1.880
 5382SOL    HW217046   3.015   0.243   1.756
 5383SOL     OW17047   2.283   2.672   5.746
 5383SOL    HW117048   2.358   2.723   5.704
 5383SOL    HW217049   2.289   2.576   5.720
 5384SOL     OW17050   5.961   6.855   5.073
 5384SOL    HW117051   5.995   6.847   4.979
 5384SOL    HW217052   5.996   6.778   5.127
 5385SOL     OW17053   2.993   3.224   4.001
 5385SOL    HW117054   2.946   3.293   4.055
 5385SOL    HW217055   2.936   3.141   3.996
 5386SOL     OW17056   4.715   0.040   4.425
 5386SOL    HW117057   4.771   6.992   4.388
 5386SOL    HW217058   4.620   0.010   4.431
 5387SOL     OW17059   2.272   6.488   3.820
 5387SOL    HW117060   2.211   6.555   3.778
 5387SOL    HW217061   2.218   6.423   3.874
 5388SOL     OW17062   6.826   0.472   4.391
 5388SOL    HW117063   6.810   0.373   4.395
 5388SOL    HW217064   6.924   0.489   4.382
 5389SOL     OW17065   4.316   1.022   2.230
 5389SOL    HW117066   4.284   1.111   2.198
 5389SOL    HW217067   4.369   1.035   2.314
 5390SOL     OW17068   4.732   4.255   3.091
 5390SOL    HW117069   4.766   4.161   3.085
 5390SOL    HW217070   4.710   4.289   3.000
 5391SOL     OW17071   2.116   2.327   1.377
 5391SOL    HW117072   2.209   2.291   1.383
 5391SOL    HW217073   2.113   2.419   1.417
 5392SOL     OW17074   5.401   3.088   1.305
 5392SOL    HW117075   5.436   3.103   1.212
 5392SOL    HW217076   5.301   3.091   1.303
 5393SOL     OW17077   5.069   6.995   6.330
 5393SOL    HW117078   5.103   0.038   6.266
 5393SOL    HW217079   5.101   7.018   6.422
 5394SOL     OW17080   6.906   5.261   6.841
 5394SOL    HW117081   6.935   5.219   6.756
 5394SOL    HW217082   6.984   5.305   6.886
 5395SOL     OW17083   4.660   0.727   1.949
 5395SOL    HW117084   4.747   0.769   1.976
 5395SOL    HW217085   4.666   0.628   1.960
 5396SOL     OW17086   4.440   4.829   2.743
 5396SOL    HW117087   4.426   4.920   2.783
 5396SOL    HW217088   4.499   4.836   2.663
 5397SOL     OW17089   0.169   2.403   1.538
 5397SOL    HW117090   0.152   2.348   1.620
 5397SOL    HW217091   0.109   2.483   1.538
 5398SOL     OW17092   3.530   2.115   3.020
 5398SOL    HW117093   3.465   2.152   3.086
 5398SOL    HW217094   3.483   2.093   2.934
 5399SOL     OW17095   2.526   5.793   0.626
 5399SOL    HW117096   2.593   5.842   0.571
 5399SOL    HW217097   2.543   5.810   0.723
 5400SOL     OW17098   2.784   4.034   0.860
 5400SOL    HW117099   2.766   3.939   0.883
 5400SOL    HW217100   2.770   4.092   0.940
 5401SOL     OW17101   5.739   3.361   1.043
 5401SOL    HW117102   5.691   3.303   0.977
 5401SOL    HW217103   5.791   3.304   1.106
 5402SOL     OW17104   2.374   4.847   1.436
 5402SOL    HW117105   2.340   4.900   1.359
 5402SOL    HW217106   2.346   4.891   1.522
 5403SOL     OW17107   6.062   2.199   6.177
 5403SOL    HW117108   6.157   2.169   6.185
 5403SOL    HW217109   6.001   2.123   6.202
 5404SOL     OW17110   0.906   0.909   2.558
 5404SOL    HW117111   0.860   0.856   2.486
 5404SOL    HW217112   0.927   0.849   2.635
 5405SOL     OW17113   6.148   6.034   0.444
 5405SOL    HW117114   6.178   5.957   0.500
 5405SOL    HW217115   6.070   6.006   0.389
 5406SOL     OW17116   2.590   0.158   6.296
 5406SOL    HW117117   2.690   0.158   6.293
 5406SOL    HW217118   2.557   0.073   6.337
 5407SOL     OW17119   4.725   2.631   1.534
 5407SOL    HW117120   4.803   2.579   1.501
 5407SOL    HW217121   4.653   2.631   1.465
 5408SOL     OW17122   3.445   1.194   6.252
 5408SOL    HW117123   3.453   1.271   6.189
 5408SOL    HW217124   3.432   1.110   6.201
 5409SOL     OW17125   5.724   1.334   4.041
 5409SOL    HW117126   5.634   1.375   4.051
 5409SOL    HW217127   5.770   1.374   3.962
 5410SOL     OW17128   1.910   3.462   1.010
 5410SOL    HW117129   1.912   3.561   0.995
 5410SOL    HW217130   1.896   3.443   1.107
 5411SOL     OW17131   6.540   4.852   6.149
 5411SOL    HW117132   6.519   4.890   6.239
 5411SOL    HW217133   6.459   4.811   6.110
 5412SOL     OW17134   4.314   0.737   6.817
 5412SOL    HW117135   4.370   0.812   6.783
 5412SOL    HW217136   4.236   0.774   6.868
 5413SOL     OW17137   1.904   0.705   0.879
 5413SOL    HW117138   1.981   0.643   0.894
 5413SOL    HW217139   1.870   0.737   0.968
 5414SOL     OW17140   6.251   3.027   5.044
 5414SOL    HW117141   6.186   3.061   4.976
 5414SOL    HW217142   6.301   2.949   5.006
 5415SOL     OW17143   1.519   6.235   1.513
 5415SOL    HW117144   1.596   6.297   1.528
 5415SOL    HW217145   1.437   6.274   1.555
 5416SOL     OW17146   4.020   4.582   6.503
 5416SOL    HW117147   4.070   4.581   6.589
 5416SOL    HW217148   3.936   4.635   6.513
 5417SOL     OW17149   3.924   6.513   5.312
 5417SOL    HW117150   3.898   6.450   5.385
 5417SOL    HW217151   4.012   6.486   5.274
 5418SOL     OW17152   4.065   6.455   4.417
 5418SOL    HW117153   4.009   6.383   4.458
 5418SOL    HW217154   4.030   6.545   4.443
 5419SOL     OW17155   3.284   5.243   0.353
 5419SOL    HW117156   3.259   5.146   0.352
 5419SOL    HW217157   3.285   5.278   0.260
 5420SOL     OW17158   1.794   2.187   1.967
 5420SOL    HW117159   1.813   2.274   2.013
 5420SOL    HW217160   1.830   2.191   1.873
 5421SOL     OW17161   2.194   3.993   2.405
 5421SOL    HW117162   2.179   4.006   2.307
 5421SOL    HW217163   2.127   3.929   2.441
 5422SOL     OW17164   0.569   5.878   6.456
 5422SOL    HW117165   0.495   5.937   6.489
 5422SOL    HW217166   0.568   5.792   6.507
 5423SOL     OW17167   5.466   2.873   0.051
 5423SOL    HW117168   5.402   2.883   0.127
 5423SOL    HW217169   5.474   2.776   0.027
 5424SOL     OW17170   4.885   2.984   4.255
 5424SOL    HW117171   4.878   3.080   4.283
 5424SOL    HW217172   4.980   2.960   4.237
 5425SOL     OW17173   4.354   1.396   4.277
 5425SOL    HW117174   4.446   1.417   4.245
 5425SOL    HW217175   4.293   1.473   4.258
 5426SOL     OW17176   6.670   5.053   3.925
 5426SOL    HW117177   6.684   5.152   3.932
 5426SOL    HW217178   6.572   5.034   3.919
 5427SOL     OW17179   5.564   4.900   0.848
 5427SOL    HW117180   5.652   4.947   0.861
 5427SOL    HW217181   5.493   4.945   0.901
 5428SOL     OW17182   6.961   0.359   1.760
 5428SOL    HW117183   6.896   0.339   1.833
 5428SOL    HW217184   6.915   0.348   1.671
 5429SOL     OW17185   0.882   1.877   5.701
 5429SOL    HW117186   0.934   1.926   5.770
 5429SOL    HW217187   0.943   1.847   5.628
 5430SOL     OW17188   0.802   3.455   5.308
 5430SOL    HW117189   0.802   3.538   5.252
 5430SOL    HW217190   0.775   3.477   5.401
 5431SOL     OW17191   3.509   6.087   6.864
 5431SOL    HW117192   3.488   6.104   6.767
 5431SOL    HW217193   3.503   6.173   6.915
 5432SOL     OW17194   4.201   6.619   6.630
 5432SOL    HW117195   4.176   6.693   6.568
 5432SOL    HW217196   4.266   6.652   6.698
 5433SOL     OW17197   0.252   1.592   4.087
 5433SOL    HW117198   0.327   1.529   4.107
 5433SOL    HW217199   0.165   1.551   4.114
 5434SOL     OW17200   3.730   1.113   4.622
 5434SOL    HW117201   3.633   1.136   4.619
 5434SOL    HW217202   3.774   1.161   4.698
 5435SOL     OW17203   5.407   1.299   1.756
 5435SOL    HW117204   5.336   1.353   1.801
 5435SOL    HW217205   5.473   1.267   1.824
 5436SOL     OW17206   5.002   3.921   4.259
 5436SOL    HW117207   4.924   3.942   4.317
 5436SOL    HW217208   5.079   3.981   4.283
 5437SOL     OW17209   2.725   5.263   6.175
 5437SOL    HW117210   2.810   5.226   6.214
 5437SOL    HW217211   2.741   5.356   6.143
 5438SOL     OW17212   5.778   4.041   2.722
 5438SOL    HW117213   5.695   4.060   2.774
 5438SOL    HW217214   5.856   4.039   2.784
 5439SOL     OW17215   0.970   2.225   0.995
 5439SOL    HW117216   1.032   2.281   1.050
 5439SOL    HW217217   1.023   2.170   0.931
 5440SOL     OW17218   0.827   0.267   2.170
 5440SOL    HW117219   0.895   0.331   2.206
 5440SOL    HW217220   0.862   0.226   2.086
 5441SOL     OW17221   4.966   2.815   3.391
 5441SOL    HW117222   5.051   2.866   3.404
 5441SOL    HW217223   4.918   2.851   3.311
 5442SOL     OW17224   3.469   6.297   3.470
 5442SOL    HW117225   3.446   6.337   3.381
 5442SOL    HW217226   3.529   6.359   3.519
 5443SOL     OW17227   2.617   0.861   3.636
 5443SOL    HW117228   2.666   0.941   3.602
 5443SOL    HW217229   2.673   0.814   3.704
 5444SOL     OW17230   1.791   0.432   3.639
 5444SOL    HW117231   1.849   0.375   3.696
 5444SOL    HW217232   1.843   0.513   3.610
 5445SOL     OW17233   5.769   3.895   4.687
 5445SOL    HW117234   5.785   3.905   4.588
 5445SOL    HW217235   5.690   3.950   4.713
 5446SOL     OW17236   6.551   5.227   5.492
 5446SOL    HW117237   6.525   5.315   5.450
 5446SOL    HW217238   6.545   5.155   5.423
 5447SOL     OW17239   1.670   1.659   6.724
 5447SOL    HW117240   1.592   1.632   6.667
 5447SOL    HW217241   1.676   1.759   6.726
 5448SOL     OW17242   5.593   3.177   4.591
 5448SOL    HW117243   5.541   3.133   4.663
 5448SOL    HW217244   5.587   3.123   4.507
 5449SOL     OW17245   1.636   2.148   6.998
 5449SOL    HW117246   1.710   2.161   6.932
 5449SOL    HW217247   1.668   2.091   0.049
 5450SOL     OW17248   1.817   0.674   2.017
 5450SOL    HW117249   1.870   0.591   2.001
 5450SOL    HW217250   1.731   0.652   2.062
 5451SOL     OW17251   1.722   5.484   3.962
 5451SOL    HW117252   1.696   5.576   3.992
 5451SOL    HW217253   1.771   5.489   3.875
 5452SOL     OW17254   1.904   4.462   0.110
 5452SOL    HW117255   1.954   4.507   0.037
 5452SOL    HW217256   1.965   4.444   0.187
 5453SOL     OW17257   5.282   4.327   2.006
 5453SOL    HW117258   5.315   4.398   1.944
 5453SOL    HW217259   5.358   4.266   2.030
 5454SOL     OW17260   7.020   4.170   6.030
 5454SOL    HW117261   0.075   4.171   5.970
 5454SOL    HW217262   7.025   4.246   6.094
 5455SOL     OW17263   6.282   3.030   1.272
 5455SOL    HW117264   6.288   2.945   1.219
 5455SOL    HW217265   6.311   3.107   1.214
 5456SOL     OW17266   2.560   0.519   6.417
 5456SOL    HW117267   2.474   0.494   6.463
 5456SOL    HW217268   2.635   0.467   6.457
 5457SOL     OW17269   6.538   2.489   0.354
 5457SOL    HW117270   6.466   2.555   0.377
 5457SOL    HW217271   6.626   2.524   0.385
 5458SOL     OW17272   0.659   4.082   0.750
 5458SOL    HW117273   0.717   4.002   0.766
 5458SOL    HW217274   0.705   4.145   0.688
 5459SOL     OW17275   1.698   4.322   0.007
 5459SOL    HW117276   1.753   4.389   0.057
 5459SOL    HW217277   1.607   4.315   0.048
 5460SOL     OW17278   4.057   0.584   3.201
 5460SOL    HW117279   4.005   0.506   3.165
 5460SOL    HW217280   4.009   0.622   3.280
 5461SOL     OW17281   5.828   6.955   5.851
 5461SOL    HW117282   5.904   7.017   5.872
 5461SOL    HW217283   5.787   6.923   5.936
 5462SOL     OW17284   0.298   0.138   0.206
 5462SOL    HW117285   0.210   0.160   0.165
 5462SOL    HW217286   0.315   0.039   0.198
 5463SOL     OW17287   0.079   1.825   0.841
 5463SOL    HW117288   0.034   1.766   0.773
 5463SOL    HW217289   0.010   1.873   0.894
 5464SOL     OW17290   0.852   1.231   4.384
 5464SOL    HW117291   0.890   1.307   4.332
 5464SOL    HW217292   0.757   1.216   4.357
 5465SOL     OW17293   3.730   0.324   3.726
 5465SOL    HW117294   3.787   0.335   3.645
 5465SOL    HW217295   3.648   0.270   3.702
 5466SOL     OW17296   5.294   2.551   4.855
 5466SOL    HW117297   5.372   2.553   4.793
 5466SOL    HW217298   5.323   2.579   4.947
 5467SOL     OW17299   5.223   3.129   3.106
 5467SOL    HW117300   5.211   3.089   3.015
 5467SOL    HW217301   5.311   3.101   3.144
 5468SOL     OW17302   6.160   2.924   4.059
 5468SOL    HW117303   6.212   2.980   3.994
 5468SOL    HW217304   6.089   2.875   4.010
 5469SOL     OW17305   3.226   6.409   6.322
 5469SOL    HW117306   3.265   6.322   6.351
 5469SOL    HW217307   3.272   6.484   6.369
 5470SOL     OW17308   3.202   5.902   3.225
 5470SOL    HW117309   3.197   5.959   3.307
 5470SOL    HW217310   3.117   5.851   3.215
 5471SOL     OW17311   5.246   0.190   2.851
 5471SOL    HW117312   5.271   0.103   2.893
 5471SOL    HW217313   5.148   0.189   2.830
 5472SOL     OW17314   4.567   3.864   5.862
 5472SOL    HW117315   4.619   3.788   5.900
 5472SOL    HW217316   4.551   3.932   5.933
 5473SOL     OW17317   0.359   2.852   2.037
 5473SOL    HW117318   0.266   2.887   2.049
 5473SOL    HW217319   0.385   2.800   2.119
 5474SOL     OW17320   0.790   5.150   4.030
 5474SOL    HW117321   0.884   5.148   3.997
 5474SOL    HW217322   0.750   5.239   4.012
 5475SOL     OW17323   2.467   3.033   1.666
 5475SOL    HW117324   2.442   3.125   1.635
 5475SOL    HW217325   2.542   2.998   1.610
 5476SOL     OW17326   1.993   4.651   5.653
 5476SOL    HW117327   1.938   4.668   5.735
 5476SOL    HW217328   1.959   4.569   5.607
 5477SOL     OW17329   2.629   4.592   3.502
 5477SOL    HW117330   2.714   4.576   3.452
 5477SOL    HW217331   2.603   4.688   3.494
 5478SOL     OW17332   3.479   5.212   5.021
 5478SOL    HW117333   3.401   5.176   5.073
 5478SOL    HW217334   3.502   5.147   4.948
 5479SOL     OW17335   4.845   1.807   6.563
 5479SOL    HW117336   4.941   1.795   6.536
 5479SOL    HW217337   4.814   1.724   6.610
 5480SOL     OW17338   5.913   4.349   2.778
 5480SOL    HW117339   5.854   4.389   2.848
 5480SOL    HW217340   5.937   4.256   2.804
 5481SOL     OW17341   4.262   1.187   4.084
 5481SOL    HW117342   4.358   1.172   4.060
 5481SOL    HW217343   4.257   1.254   4.158
 5482SOL     OW17344   3.327   4.718   1.754
 5482SOL    HW117345   3.419   4.684   1.772
 5482SOL    HW217346   3.332   4.814   1.725
 5483SOL     OW17347   0.205   1.932   5.478
 5483SOL    HW117348   0.282   1.883   5.518
 5483SOL    HW217349   0.191   1.901   5.384
 5484SOL     OW17350   3.809   1.273   4.271
 5484SOL    HW117351   3.821   1.241   4.365
 5484SOL    HW217352   3.764   1.362   4.272
 5485SOL     OW17353   4.097   0.106   5.645
 5485SOL    HW117354   4.013   0.052   5.647
 5485SOL    HW217355   4.159   0.073   5.716
 5486SOL     OW17356   2.528   5.854   4.991
 5486SOL    HW117357   2.572   5.833   4.904
 5486SOL    HW217358   2.483   5.773   5.027
 5487SOL     OW17359   4.270   2.687   6.573
 5487SOL    HW117360   4.241   2.618   6.508
 5487SOL    HW217361   4.268   2.648   6.666
 5488SOL     OW17362   6.280   0.247   1.112
 5488SOL    HW117363   6.226   0.246   1.196
 5488SOL    HW217364   6.377   0.235   1.134
 5489SOL     OW17365   0.513   3.894   1.635
 5489SOL    HW117366   0.594   3.917   1.581
 5489SOL    HW217367   0.432   3.898   1.577
 5490SOL     OW17368   3.013   0.643   2.469
 5490SOL    HW117369   3.094   0.632   2.527
 5490SOL    HW217370   3.029   0.599   2.381
 5491SOL     OW17371   1.131   2.935   0.315
 5491SOL    HW117372   1.093   2.848   0.282
 5491SOL    HW217373   1.214   2.916   0.368
 5492SOL     OW17374   0.863   3.617   6.703
 5492SOL    HW117375   0.916   3.688   6.656
 5492SOL    HW217376   0.924   3.562   6.760
 5493SOL     OW17377   3.451   2.995   4.255
 5493SOL    HW117378   3.358   3.006   4.292
 5493SOL    HW217379   3.514   2.971   4.329
 5494SOL     OW17380   0.020   3.609   5.520
 5494SOL    HW117381   0.086   3.631   5.449
 5494SOL    HW217382   6.955   3.643   5.493
 5495SOL     OW17383   5.989   0.940   1.279
 5495SOL    HW117384   6.001   0.862   1.217
 5495SOL    HW217385   6.015   1.024   1.233
 5496SOL     OW17386   3.948   0.700   3.439
 5496SOL    HW117387   3.855   0.735   3.450
 5496SOL    HW217388   4.007   0.742   3.508
 5497SOL     OW17389   0.906   1.177   5.211
 5497SOL    HW117390   0.819   1.156   5.166
 5497SOL    HW217391   0.980   1.126   5.167
 5498SOL     OW17392   6.954   5.144   1.921
 5498SOL    HW117393   6.962   5.231   1.970
 5498SOL    HW217394   6.871   5.096   1.952
 5499SOL     OW17395   0.980   0.510   4.407
 5499SOL    HW117396   1.040   0.431   4.396
 5499SOL    HW217397   1.017   0.587   4.355
 5500SOL     OW17398   1.031   0.695   6.840
 5500SOL    HW117399   0.942   0.739   6.849
 5500SOL    HW217400   1.018   0.599   6.815
 5501SOL     OW17401   3.731   2.277   0.353
 5501SOL    HW117402   3.674   2.351   0.389
 5501SOL    HW217403   3.766   2.222   0.429
 5502SOL     OW17404   5.443   3.954   6.453
 5502SOL    HW117405   5.359   3.906   6.427
 5502SOL    HW217406   5.424   4.016   6.529
 5503SOL     OW17407   7.024   4.677   0.486
 5503SOL    HW117408   0.068   4.629   0.540
 5503SOL    HW217409   7.016   4.634   0.396
 5504SOL     OW17410   4.389   1.239   4.988
 5504SOL    HW117411   4.435   1.313   4.940
 5504SOL    HW217412   4.382   1.159   4.927
 5505SOL     OW17413   1.973   4.301   3.229
 5505SOL    HW117414   1.921   4.372   3.181
 5505SOL    HW217415   1.931   4.285   3.318
 5506SOL     OW17416   0.275   3.399   0.760
 5506SOL    HW117417   0.192   3.452   0.738
 5506SOL    HW217418   0.339   3.405   0.683
 5507SOL     OW17419   3.680   0.877   4.885
 5507SOL    HW117420   3.586   0.867   4.851
 5507SOL    HW217421   3.740   0.903   4.810
 5508SOL     OW17422   1.152   1.534   0.400
 5508SOL    HW117423   1.159   1.465   0.472
 5508SOL    HW217424   1.181   1.495   0.313
 5509SOL     OW17425   0.829   5.888   0.209
 5509SOL    HW117426   0.873   5.899   0.120
 5509SOL    HW217427   0.822   5.791   0.232
 5510SOL     OW17428   4.171   5.389   6.780
 5510SOL    HW117429   4.237   5.327   6.737
 5510SOL    HW217430   4.216   5.438   6.854
 5511SOL     OW17431   1.765   0.984   4.855
 5511SOL    HW117432   1.791   1.051   4.786
 5511SOL    HW217433   1.679   0.940   4.828
 5512SOL     OW17434   3.945   1.484   0.898
 5512SOL    HW117435   3.953   1.574   0.855
 5512SOL    HW217436   3.899   1.493   0.986
 5513SOL     OW17437   3.667   5.577   6.293
 5513SOL    HW117438   3.764   5.600   6.305
 5513SOL    HW217439   3.656   5.478   6.289
 5514SOL     OW17440   3.198   0.960   4.748
 5514SOL    HW117441   3.191   0.934   4.652
 5514SOL    HW217442   3.144   1.043   4.764
 5515SOL     OW17443   1.252   5.560   1.619
 5515SOL    HW117444   1.205   5.648   1.624
 5515SOL    HW217445   1.343   5.572   1.579
 5516SOL     OW17446   1.943   2.245   4.776
 5516SOL    HW117447   1.953   2.266   4.874
 5516SOL    HW217448   1.934   2.146   4.765
 5517SOL     OW17449   2.096   3.766   2.034
 5517SOL    HW117450   2.078   3.768   2.133
 5517SOL    HW217451   2.127   3.675   2.007
 5518SOL     OW17452   6.166   5.396   6.277
 5518SOL    HW117453   6.229   5.394   6.354
 5518SOL    HW217454   6.180   5.316   6.220
 5519SOL     OW17455   6.159   2.932   3.083
 5519SOL    HW117456   6.244   2.898   3.123
 5519SOL    HW217457   6.094   2.856   3.073
 5520SOL     OW17458   5.359   0.211   2.068
 5520SOL    HW117459   5.285   0.266   2.107
 5520SOL    HW217460   5.422   0.271   2.018
 5521SOL     OW17461   5.396   6.257   2.055
 5521SOL    HW117462   5.415   6.245   2.153
 5521SOL    HW217463   5.370   6.352   2.038
 5522SOL     OW17464   6.455   5.323   1.441
 5522SOL    HW117465   6.398   5.257   1.392
 5522SOL    HW217466   6.547   5.286   1.452
 5523SOL     OW17467   4.122   0.612   1.959
 5523SOL    HW117468   4.049   0.674   1.932
 5523SOL    HW217469   4.170   0.579   1.878
 5524SOL     OW17470   3.608   7.004   4.766
 5524SOL    HW117471   3.551   6.958   4.697
 5524SOL    HW217472   3.676   0.036   4.720
 5525SOL     OW17473   1.805   2.522   0.247
 5525SOL    HW117474   1.786   2.620   0.251
 5525SOL    HW217475   1.737   2.473   0.301
 5526SOL     OW17476   5.054   5.009   2.764
 5526SOL    HW117477   4.998   4.950   2.707
 5526SOL    HW217478   5.028   4.998   2.860
 5527SOL     OW17479   5.115   3.924   3.453
 5527SOL    HW117480   5.092   3.910   3.357
 5527SOL    HW217481   5.046   3.882   3.511
 5528SOL     OW17482   1.870   0.983   1.049
 5528SOL    HW117483   1.900   0.891   1.073
 5528SOL    HW217484   1.799   0.977   0.978
 5529SOL     OW17485   3.341   7.009   4.463
 5529SOL    HW117486   3.367   0.015   4.372
 5529SOL    HW217487   3.245   6.981   4.464
 5530SOL     OW17488   6.076   1.913   1.457
 5530SOL    HW117489   6.111   2.003   1.479
 5530SOL    HW217490   6.113   1.846   1.521
 5531SOL     OW17491   3.981   3.608   1.419
 5531SOL    HW117492   3.942   3.645   1.503
 5531SOL    HW217493   3.917   3.623   1.343
 5532SOL     OW17494   1.215   3.224   1.122
 5532SOL    HW117495   1.216   3.303   1.059
 5532SOL    HW217496   1.223   3.257   1.216
 5533SOL     OW17497   5.163   1.318   3.626
 5533SOL    HW117498   5.183   1.381   3.551
 5533SOL    HW217499   5.135   1.370   3.707
 5534SOL     OW17500   1.029   1.532   6.794
 5534SOL    HW117501   0.985   1.606   6.845
 5534SOL    HW217502   0.961   1.462   6.773
 5535SOL     OW17503   1.209   1.252   3.156
 5535SOL    HW117504   1.241   1.248   3.061
 5535SOL    HW217505   1.257   1.182   3.209
 5536SOL     OW17506   4.028   0.399   4.083
 5536SOL    HW117507   4.091   0.435   4.151
 5536SOL    HW217508   4.075   0.332   4.026
 5537SOL     OW17509   3.168   0.912   2.455
 5537SOL    HW117510   3.198   0.850   2.527
 5537SOL    HW217511   3.230   0.990   2.450
 5538SOL     OW17512   3.819   5.783   5.117
 5538SOL    HW117513   3.814   5.876   5.082
 5538SOL    HW217514   3.879   5.728   5.059
 5539SOL     OW17515   1.452   3.862   1.556
 5539SOL    HW117516   1.541   3.817   1.546
 5539SOL    HW217517   1.382   3.794   1.579
 5540SOL     OW17518   4.812   4.661   3.877
 5540SOL    HW117519   4.734   4.724   3.874
 5540SOL    HW217520   4.895   4.711   3.853
 5541SOL     OW17521   5.013   0.324   6.410
 5541SOL    HW117522   5.022   0.422   6.426
 5541SOL    HW217523   4.948   0.285   6.475
 5542SOL     OW17524   3.998   3.400   6.103
 5542SOL    HW117525   4.088   3.410   6.060
 5542SOL    HW217526   3.969   3.304   6.096
 5543SOL     OW17527   5.282   3.823   6.291
 5543SOL    HW117528   5.203   3.762   6.285
 5543SOL    HW217529   5.344   3.805   6.214
 5544SOL     OW17530   4.973   6.470   6.636
 5544SOL    HW117531   4.978   6.396   6.570
 5544SOL    HW217532   4.930   6.550   6.594
 5545SOL     OW17533   4.559   1.433   2.884
 5545SOL    HW117534   4.618   1.355   2.860
 5545SOL    HW217535   4.488   1.402   2.947
 5546SOL     OW17536   0.894   5.124   5.218
 5546SOL    HW117537   0.845   5.209   5.236
 5546SOL    HW217538   0.853   5.050   5.270
 5547SOL     OW17539   2.700   6.455   4.991
 5547SOL    HW117540   2.725   6.485   4.899
 5547SOL    HW217541   2.650   6.528   5.038
 5548SOL     OW17542   6.263   3.551   5.538
 5548SOL    HW117543   6.306   3.466   5.506
 5548SOL    HW217544   6.326   3.600   5.598
 5549SOL     OW17545   3.488   4.725   0.095
 5549SOL    HW117546   3.584   4.704   0.073
 5549SOL    HW217547   3.431   4.646   0.072
 5550SOL     OW17548   2.761   5.732   2.131
 5550SOL    HW117549   2.791   5.640   2.155
 5550SOL    HW217550   2.738   5.783   2.215
 5551SOL     OW17551   1.868   0.585   2.612
 5551SOL    HW117552   1.791   0.526   2.586
 5551SOL    HW217553   1.838   0.680   2.612
 5552SOL     OW17554   0.195   1.728   0.089
 5552SOL    HW117555   0.226   1.767   0.175
 5552SOL    HW217556   0.117   1.780   0.055
 5553SOL     OW17557   4.110   6.552   0.067
 5553SOL    HW117558   4.142   6.458   0.056
 5553SOL    HW217559   4.030   6.553   0.128
 5554SOL     OW17560   2.850   2.227   5.904
 5554SOL    HW117561   2.855   2.217   5.805
 5554SOL    HW217562   2.942   2.223   5.943
 5555SOL     OW17563   0.764   5.691   3.603
 5555SOL    HW117564   0.733   5.709   3.697
 5555SOL    HW217565   0.684   5.683   3.543
 5556SOL     OW17566   0.634   2.161   4.470
 5556SOL    HW117567   0.583   2.228   4.416
 5556SOL    HW217568   0.628   2.185   4.567
 5557SOL     OW17569   2.933   5.822   4.132
 5557SOL    HW117570   3.032   5.814   4.119
 5557SOL    HW217571   2.886   5.757   4.072
 5558SOL     OW17572   5.249   3.283   5.163
 5558SOL    HW117573   5.281   3.368   5.204
 5558SOL    HW217574   5.154   3.294   5.132
 5559SOL     OW17575   2.299   6.944   1.597
 5559SOL    HW117576   2.336   6.885   1.669
 5559SOL    HW217577   2.359   7.023   1.584
 5560SOL     OW17578   6.844   6.920   3.466
 5560SOL    HW117579   6.804   6.834   3.435
 5560SOL    HW217580   6.851   6.983   3.388
 5561SOL     OW17581   1.208   2.693   4.281
 5561SOL    HW117582   1.128   2.753   4.278
 5561SOL    HW217583   1.217   2.647   4.192
 5562SOL     OW17584   1.887   2.720   6.606
 5562SOL    HW117585   1.826   2.798   6.618
 5562SOL    HW217586   1.930   2.697   6.694
 5563SOL     OW17587   4.667   6.328   2.027
 5563SOL    HW117588   4.766   6.328   2.022
 5563SOL    HW217589   4.638   6.357   2.118
 5564SOL     OW17590   5.343   3.387   1.637
 5564SOL    HW117591   5.440   3.367   1.653
 5564SOL    HW217592   5.288   3.305   1.654
 5565SOL     OW17593   4.120   2.410   5.483
 5565SOL    HW117594   4.054   2.481   5.457
 5565SOL    HW217595   4.212   2.448   5.478
 5566SOL     OW17596   1.700   5.941   0.804
 5566SOL    HW117597   1.625   5.950   0.739
 5566SOL    HW217598   1.752   5.859   0.784
 5567SOL     OW17599   1.625   5.286   0.968
 5567SOL    HW117600   1.528   5.275   0.987
 5567SOL    HW217601   1.678   5.232   1.032
 5568SOL     OW17602   4.532   2.360   0.820
 5568SOL    HW117603   4.444   2.357   0.772
 5568SOL    HW217604   4.517   2.343   0.918
 5569SOL     OW17605   4.080   1.441   1.948
 5569SOL    HW117606   4.035   1.428   1.860
 5569SOL    HW217607   4.038   1.381   2.016
 5570SOL     OW17608   6.033   4.850   4.969
 5570SOL    HW117609   5.997   4.944   4.970
 5570SOL    HW217610   5.973   4.791   5.023
 5571SOL     OW17611   0.337   5.781   0.925
 5571SOL    HW117612   0.270   5.716   0.889
 5571SOL    HW217613   0.364   5.753   1.017
 5572SOL     OW17614   3.803   2.465   6.762
 5572SOL    HW117615   3.840   2.545   6.714
 5572SOL    HW217616   3.844   2.460   6.853
 5573SOL     OW17617   1.542   3.688   0.591
 5573SOL    HW117618   1.480   3.766   0.602
 5573SOL    HW217619   1.575   3.685   0.497
 5574SOL     OW17620   0.139   7.015   4.262
 5574SOL    HW117621   0.135   0.048   4.342
 5574SOL    HW217622   0.232   7.013   4.226
 5575SOL     OW17623   1.571   1.080   1.150
 5575SOL    HW117624   1.659   1.097   1.194
 5575SOL    HW217625   1.503   1.059   1.220
 5576SOL     OW17626   6.456   4.966   1.399
 5576SOL    HW117627   6.502   4.886   1.358
 5576SOL    HW217628   6.409   5.017   1.327
 5577SOL     OW17629   2.046   3.332   5.746
 5577SOL    HW117630   2.046   3.432   5.742
 5577SOL    HW217631   2.087   3.296   5.662
 5578SOL     OW17632   3.287   2.397   0.021
 5578SOL    HW117633   3.300   2.415   0.118
 5578SOL    HW217634   3.342   2.461   6.993
 5579SOL     OW17635   5.128   3.916   6.612
 5579SOL    HW117636   5.216   3.870   6.605
 5579SOL    HW217637   5.055   3.848   6.627
 5580SOL     OW17638   4.755   2.021   0.559
 5580SOL    HW117639   4.777   1.924   0.561
 5580SOL    HW217640   4.819   2.071   0.617
 5581SOL     OW17641   2.171   0.612   6.493
 5581SOL    HW117642   2.164   0.675   6.571
 5581SOL    HW217643   2.201   0.662   6.412
 5582SOL     OW17644   3.298   3.899   3.832
 5582SOL    HW117645   3.361   3.823   3.847
 5582SOL    HW217646   3.347   3.974   3.788
 5583SOL     OW17647   3.609   6.402   1.856
 5583SOL    HW117648   3.566   6.377   1.769
 5583SOL    HW217649   3.683   6.466   1.840
 5584SOL     OW17650   5.737   4.501   3.411
 5584SOL    HW117651   5.690   4.521   3.325
 5584SOL    HW217652   5.761   4.586   3.457
 5585SOL     OW17653   6.056   0.854   3.766
 5585SOL    HW117654   6.050   0.816   3.674
 5585SOL    HW217655   5.965   0.856   3.807
 5586SOL     OW17656   1.790   1.851   6.366
 5586SOL    HW117657   1.790   1.919   6.293
 5586SOL    HW217658   1.814   1.895   6.452
 5587SOL     OW17659   3.209   0.755   3.357
 5587SOL    HW117660   3.205   0.805   3.443
 5587SOL    HW217661   3.256   0.668   3.370
 5588SOL     OW17662   2.394   0.119   4.999
 5588SOL    HW117663   2.390   0.198   4.939
 5588SOL    HW217664   2.394   0.035   4.944
 5589SOL     OW17665   5.105   2.952   6.141
 5589SOL    HW117666   5.148   3.038   6.166
 5589SOL    HW217667   5.056   2.915   6.220
 5590SOL     OW17668   6.385   5.824   4.620
 5590SOL    HW117669   6.446   5.753   4.655
 5590SOL    HW217670   6.352   5.880   4.696
 5591SOL     OW17671   6.170   0.527   0.286
 5591SOL    HW117672   6.248   0.589   0.276
 5591SOL    HW217673   6.085   0.579   0.280
 5592SOL     OW17674   1.239   3.891   3.466
 5592SOL    HW117675   1.251   3.937   3.378
 5592SOL    HW217676   1.294   3.938   3.535
 5593SOL     OW17677   0.425   2.798   6.067
 5593SOL    HW117678   0.453   2.778   6.160
 5593SOL    HW217679   0.422   2.714   6.013
 5594SOL     OW17680   2.202   0.489   0.143
 5594SOL    HW117681   2.161   0.421   0.082
 5594SOL    HW217682   2.235   0.444   0.226
 5595SOL     OW17683   6.472   0.873   5.779
 5595SOL    HW117684   6.491   0.829   5.692
 5595SOL    HW217685   6.420   0.810   5.837
 5596SOL     OW17686   5.466   0.648   2.790
 5596SOL    HW117687   5.548   0.664   2.736
 5596SOL    HW217688   5.417   0.568   2.754
 5597SOL     OW17689   5.780   1.643   6.740
 5597SOL    HW117690   5.818   1.555   6.767
 5597SOL    HW217691   5.698   1.661   6.794
 5598SOL     OW17692   5.360   1.892   4.124
 5598SOL    HW117693   5.366   1.893   4.223
 5598SOL    HW217694   5.448   1.918   4.085
 5599SOL     OW17695   5.259   3.796   1.344
 5599SOL    HW117696   5.165   3.792   1.377
 5599SOL    HW217697   5.317   3.738   1.401
 5600SOL     OW17698   2.005   0.796   3.016
 5600SOL    HW117699   1.925   0.746   3.048
 5600SOL    HW217700   2.067   0.733   2.969
 5601SOL     OW17701   5.167   2.794   5.925
 5601SOL    HW117702   5.211   2.853   5.857
 5601SOL    HW217703   5.157   2.845   6.011
 5602SOL     OW17704   0.904   2.075   3.209
 5602SOL    HW117705   0.894   2.156   3.152
 5602SOL    HW217706   0.936   2.102   3.300
 5603SOL     OW17707   4.586   2.377   5.097
 5603SOL    HW117708   4.577   2.472   5.069
 5603SOL    HW217709   4.515   2.355   5.165
 5604SOL     OW17710   1.382   0.125   4.460
 5604SOL    HW117711   1.381   0.038   4.510
 5604SOL    HW217712   1.404   0.108   4.364
 5605SOL     OW17713   1.826   0.081   4.297
 5605SOL    HW117714   1.851   0.174   4.269
 5605SOL    HW217715   1.803   0.080   4.394
 5606SOL     OW17716   5.074   1.387   0.770
 5606SOL    HW117717   5.166   1.408   0.803
 5606SOL    HW217718   5.007   1.442   0.820
 5607SOL     OW17719   6.191   2.458   3.050
 5607SOL    HW117720   6.133   2.539   3.065
 5607SOL    HW217721   6.275   2.486   3.005
 5608SOL     OW17722   5.503   0.745   4.240
 5608SOL    HW117723   5.420   0.746   4.185
 5608SOL    HW217724   5.514   0.833   4.287
 5609SOL     OW17725   5.716   6.602   0.563
 5609SOL    HW117726   5.750   6.632   0.652
 5609SOL    HW217727   5.718   6.502   0.559
 5610SOL     OW17728   5.391   3.889   7.014
 5610SOL    HW117729   5.360   3.947   6.939
 5610SOL    HW217730   5.348   3.799   7.008
 5611SOL     OW17731   0.477   5.192   1.787
 5611SOL    HW117732   0.420   5.272   1.770
 5611SOL    HW217733   0.531   5.171   1.705
 5612SOL     OW17734   2.915   2.057   0.235
 5612SOL    HW117735   2.963   2.032   0.151
 5612SOL    HW217736   2.836   2.113   0.213
 5613SOL     OW17737   0.121   5.254   5.158
 5613SOL    HW117738   0.214   5.251   5.120
 5613SOL    HW217739   0.125   5.281   5.254
 5614SOL     OW17740   5.835   1.952   4.816
 5614SOL    HW117741   5.933   1.970   4.812
 5614SOL    HW217742   5.806   1.950   4.911
 5615SOL     OW17743   0.137   2.315   2.360
 5615SOL    HW117744   0.109   2.339   2.268
 5615SOL    HW217745   0.153   2.398   2.414
 5616SOL     OW17746   1.613   2.842   4.025
 5616SOL    HW117747   1.705   2.860   4.060
 5616SOL    HW217748   1.545   2.862   4.097
 5617SOL     OW17749   1.669   5.192   5.853
 5617SOL    HW117750   1.749   5.197   5.793
 5617SOL    HW217751   1.692   5.232   5.942
 5618SOL     OW17752   6.782   5.102   4.306
 5618SOL    HW117753   6.844   5.110   4.227
 5618SOL    HW217754   6.828   5.053   4.380
 5619SOL     OW17755   3.758   3.325   3.919
 5619SOL    HW117756   3.791   3.382   3.844
 5619SOL    HW217757   3.737   3.382   3.998
 5620SOL     OW17758   4.197   4.322   5.903
 5620SOL    HW117759   4.176   4.264   5.982
 5620SOL    HW217760   4.117   4.326   5.842
 5621SOL     OW17761   1.691   2.525   5.308
 5621SOL    HW117762   1.642   2.612   5.299
 5621SOL    HW217763   1.707   2.487   5.217
 5622SOL     OW17764   4.500   5.385   4.802
 5622SOL    HW117765   4.589   5.418   4.832
 5622SOL    HW217766   4.510   5.298   4.753
 5623SOL     OW17767   4.705   6.099   4.266
 5623SOL    HW117768   4.614   6.124   4.233
 5623SOL    HW217769   4.698   6.054   4.355
 5624SOL     OW17770   6.830   5.532   3.761
 5624SOL    HW117771   6.861   5.550   3.668
 5624SOL    HW217772   6.734   5.503   3.759
 5625SOL     OW17773   1.656   5.289   4.625
 5625SOL    HW117774   1.630   5.193   4.633
 5625SOL    HW217775   1.577   5.344   4.600
 5626SOL     OW17776   2.287   4.135   4.393
 5626SOL    HW117777   2.231   4.113   4.473
 5626SOL    HW217778   2.342   4.216   4.412
 5627SOL     OW17779   1.330   5.744   0.279
 5627SOL    HW117780   1.309   5.813   0.348
 5627SOL    HW217781   1.422   5.759   0.243
 5628SOL     OW17782   3.076   3.229   0.730
 5628SOL    HW117783   3.060   3.260   0.637
 5628SOL    HW217784   3.032   3.293   0.794
 5629SOL     OW17785   4.591   3.612   0.877
 5629SOL    HW117786   4.529   3.585   0.951
 5629SOL    HW217787   4.560   3.571   0.792
 5630SOL     OW17788   1.518   4.472   6.514
 5630SOL    HW117789   1.607   4.493   6.476
 5630SOL    HW217790   1.446   4.494   6.448
 5631SOL     OW17791   4.352   0.700   1.784
 5631SOL    HW117792   4.400   0.612   1.790
 5631SOL    HW217793   4.362   0.748   1.871
 5632SOL     OW17794   5.619   0.493   6.347
 5632SOL    HW117795   5.591   0.412   6.398
 5632SOL    HW217796   5.710   0.521   6.377
 5633SOL     OW17797   0.557   4.676   5.663
 5633SOL    HW117798   0.580   4.599   5.603
 5633SOL    HW217799   0.592   4.760   5.624
 5634SOL     OW17800   3.135   5.610   5.782
 5634SOL    HW117801   3.105   5.541   5.848
 5634SOL    HW217802   3.215   5.576   5.732
 5635SOL     OW17803   2.521   6.826   6.715
 5635SOL    HW117804   2.461   6.862   6.785
 5635SOL    HW217805   2.523   6.726   6.720
 5636SOL     OW17806   5.988   0.779   5.638
 5636SOL    HW117807   6.049   0.856   5.657
 5636SOL    HW217808   5.902   0.812   5.598
 5637SOL     OW17809   5.264   6.053   5.099
 5637SOL    HW117810   5.215   6.046   5.186
 5637SOL    HW217811   5.354   6.095   5.116
 5638SOL     OW17812   4.872   5.952   1.069
 5638SOL    HW117813   4.958   5.917   1.032
 5638SOL    HW217814   4.800   5.944   1.000
 5639SOL     OW17815   1.887   6.924   1.433
 5639SOL    HW117816   1.986   6.916   1.420
 5639SOL    HW217817   1.865   7.018   1.461
 5640SOL     OW17818   2.328   6.545   3.222
 5640SOL    HW117819   2.273   6.587   3.150
 5640SOL    HW217820   2.424   6.545   3.194
 5641SOL     OW17821   1.338   4.960   4.832
 5641SOL    HW117822   1.367   4.975   4.926
 5641SOL    HW217823   1.415   4.975   4.770
 5642SOL     OW17824   0.555   4.691   6.096
 5642SOL    HW117825   0.589   4.618   6.038
 5642SOL    HW217826   0.541   4.774   6.041
 5643SOL     OW17827   3.868   2.145   4.691
 5643SOL    HW117828   3.949   2.176   4.742
 5643SOL    HW217829   3.877   2.047   4.671
 5644SOL     OW17830   5.078   1.637   4.469
 5644SOL    HW117831   4.992   1.640   4.519
 5644SOL    HW217832   5.092   1.545   4.432
 5645SOL     OW17833   5.141   4.765   2.389
 5645SOL    HW117834   5.220   4.808   2.345
 5645SOL    HW217835   5.058   4.790   2.341
 5646SOL     OW17836   0.563   5.694   3.425
 5646SOL    HW117837   0.496   5.625   3.453
 5646SOL    HW217838   0.521   5.785   3.430
 5647SOL     OW17839   6.711   5.878   0.267
 5647SOL    HW117840   6.689   5.792   0.312
 5647SOL    HW217841   6.757   5.939   0.332
 5648SOL     OW17842   1.869   1.295   3.524
 5648SOL    HW117843   1.790   1.357   3.521
 5648SOL    HW217844   1.922   1.304   3.440
 5649SOL     OW17845   2.017   0.328   4.863
 5649SOL    HW117846   1.940   0.315   4.926
 5649SOL    HW217847   2.092   0.374   4.910
 5650SOL     OW17848   7.012   4.956   1.078
 5650SOL    HW117849   6.991   4.902   1.160
 5650SOL    HW217850   0.077   4.929   1.042
 5651SOL     OW17851   0.900   1.838   1.790
 5651SOL    HW117852   0.840   1.767   1.827
 5651SOL    HW217853   0.979   1.849   1.850
 5652SOL     OW17854   5.461   5.900   1.877
 5652SOL    HW117855   5.395   5.891   1.802
 5652SOL    HW217856   5.475   5.997   1.898
 5653SOL     OW17857   6.994   6.188   6.121
 5653SOL    HW117858   0.014   6.130   6.189
 5653SOL    HW217859   6.898   6.162   6.114
 5654SOL     OW17860   0.291   0.582   5.750
 5654SOL    HW117861   0.265   0.653   5.684
 5654SOL    HW217862   0.384   0.599   5.783
 5655SOL     OW17863   1.186   2.961   4.030
 5655SOL    HW117864   1.174   2.867   3.998
 5655SOL    HW217865   1.266   2.965   4.090
 5656SOL     OW17866   3.232   4.484   0.870
 5656SOL    HW117867   3.177   4.406   0.900
 5656SOL    HW217868   3.251   4.476   0.773
 5657SOL     OW17869   5.246   6.502   1.551
 5657SOL    HW117870   5.281   6.457   1.468
 5657SOL    HW217871   5.156   6.540   1.532
 5658SOL     OW17872   3.283   6.656   5.514
 5658SOL    HW117873   3.255   6.621   5.603
 5658SOL    HW217874   3.278   6.756   5.514
 5659SOL     OW17875   2.900   3.264   2.967
 5659SOL    HW117876   2.956   3.210   2.904
 5659SOL    HW217877   2.812   3.284   2.925
 5660SOL     OW17878   5.482   0.317   0.507
 5660SOL    HW117879   5.577   0.342   0.488
 5660SOL    HW217880   5.431   0.399   0.536
 5661SOL     OW17881   6.849   5.742   5.412
 5661SOL    HW117882   6.841   5.653   5.368
 5661SOL    HW217883   6.890   5.731   5.503
 5662SOL     OW17884   2.396   4.716   4.070
 5662SOL    HW117885   2.393   4.740   3.973
 5662SOL    HW217886   2.368   4.620   4.081
 5663SOL     OW17887   0.825   4.213   0.520
 5663SOL    HW117888   0.860   4.253   0.435
 5663SOL    HW217889   0.816   4.114   0.509
 5664SOL     OW17890   0.475   4.829   3.418
 5664SOL    HW117891   0.525   4.776   3.350
 5664SOL    HW217892   0.409   4.888   3.372
 5665SOL     OW17893   1.304   2.343   6.548
 5665SOL    HW117894   1.398   2.374   6.535
 5665SOL    HW217895   1.243   2.422   6.553
 5666SOL     OW17896   4.828   5.638   0.801
 5666SOL    HW117897   4.865   5.546   0.816
 5666SOL    HW217898   4.740   5.646   0.848
 5667SOL     OW17899   0.854   4.600   3.067
 5667SOL    HW117900   0.780   4.534   3.080
 5667SOL    HW217901   0.832   4.684   3.115
 5668SOL     OW17902   5.159   1.441   6.575
 5668SOL    HW117903   5.119   1.511   6.635
 5668SOL    HW217904   5.207   1.374   6.631
 5669SOL     OW17905   0.138   5.024   6.222
 5669SOL    HW117906   0.047   5.046   6.188
 5669SOL    HW217907   0.135   4.940   6.275
 5670SOL     OW17908   0.192   3.203   3.733
 5670SOL    HW117909   0.272   3.220   3.790
 5670SOL    HW217910   0.115   3.175   3.790
 5671SOL     OW17911   1.816   6.318   6.340
 5671SOL    HW117912   1.879   6.247   6.368
 5671SOL    HW217913   1.829   6.338   6.242
 5672SOL     OW17914   4.713   3.633   5.970
 5672SOL    HW117915   4.740   3.557   5.911
 5672SOL    HW217916   4.654   3.599   6.044
 5673SOL     OW17917   0.250   0.378   2.278
 5673SOL    HW117918   0.215   0.308   2.216
 5673SOL    HW217919   0.214   0.362   2.370
 5674SOL     OW17920   6.976   3.928   1.716
 5674SOL    HW117921   6.985   3.833   1.745
 5674SOL    HW217922   6.886   3.963   1.743
 5675SOL     OW17923   4.121   2.158   5.365
 5675SOL    HW117924   4.204   2.108   5.389
 5675SOL    HW217925   4.122   2.247   5.409
 5676SOL     OW17926   2.303   1.058   0.974
 5676SOL    HW117927   2.248   1.018   1.046
 5676SOL    HW217928   2.326   1.153   0.997
 5677SOL     OW17929   6.870   1.417   3.139
 5677SOL    HW117930   6.851   1.512   3.114
 5677SOL    HW217931   6.903   1.368   3.058
 5678SOL     OW17932   3.231   6.285   3.168
 5678SOL    HW117933   3.176   6.276   3.251
 5678SOL    HW217934   3.291   6.365   3.176
 5679SOL     OW17935   1.546   6.661   4.791
 5679SOL    HW117936   1.449   6.665   4.767
 5679SOL    HW217937   1.591   6.592   4.735
 5680SOL     OW17938   1.801   5.526   0.004
 5680SOL    HW117939   1.744   5.448   7.005
 5680SOL    HW217940   1.848   5.507   0.090
 5681SOL     OW17941   0.775   3.246   6.641
 5681SOL    HW117942   0.868   3.212   6.657
 5681SOL    HW217943   0.753   3.317   6.707
 5682SOL     OW17944   1.650   3.006   5.636
 5682SOL    HW117945   1.699   2.963   5.712
 5682SOL    HW217946   1.695   2.982   5.550
 5683SOL     OW17947   3.775   2.640   6.174
 5683SOL    HW117948   3.838   2.714   6.198
 5683SOL    HW217949   3.780   2.623   6.076
 5684SOL     OW17950   4.076   3.160   4.141
 5684SOL    HW117951   4.139   3.164   4.219
 5684SOL    HW217952   3.983   3.145   4.175
 5685SOL     OW17953   0.508   4.787   2.103
 5685SOL    HW117954   0.465   4.852   2.040
 5685SOL    HW217955   0.487   4.693   2.075
 5686SOL     OW17956   3.361   0.697   0.461
 5686SOL    HW117957   3.273   0.728   0.497
 5686SOL    HW217958   3.422   0.674   0.537
 5687SOL     OW17959   6.653   4.457   4.464
 5687SOL    HW117960   6.646   4.407   4.377
 5687SOL    HW217961   6.740   4.507   4.466
 5688SOL     OW17962   6.529   2.101   0.848
 5688SOL    HW117963   6.558   2.036   0.778
 5688SOL    HW217964   6.468   2.056   0.913
 5689SOL     OW17965   3.870   1.565   1.155
 5689SOL    HW117966   3.920   1.601   1.233
 5689SOL    HW217967   3.777   1.540   1.183
 5690SOL     OW17968   3.518   5.912   0.595
 5690SOL    HW117969   3.452   5.845   0.562
 5690SOL    HW217970   3.545   5.889   0.689
 5691SOL     OW17971   2.784   6.300   2.092
 5691SOL    HW117972   2.848   6.305   2.168
 5691SOL    HW217973   2.749   6.206   2.084
 5692SOL     OW17974   6.492   2.023   6.369
 5692SOL    HW117975   6.477   2.010   6.271
 5692SOL    HW217976   6.506   2.121   6.388
 5693SOL     OW17977   4.984   2.487   2.157
 5693SOL    HW117978   4.973   2.389   2.171
 5693SOL    HW217979   4.951   2.536   2.238
 5694SOL     OW17980   0.857   1.277   3.488
 5694SOL    HW117981   0.775   1.331   3.507
 5694SOL    HW217982   0.839   1.213   3.414
 5695SOL     OW17983   1.045   2.195   2.880
 5695SOL    HW117984   1.123   2.176   2.821
 5695SOL    HW217985   0.963   2.152   2.842
 5696SOL     OW17986   2.754   0.843   4.352
 5696SOL    HW117987   2.773   0.913   4.422
 5696SOL    HW217988   2.833   0.837   4.291
 5697SOL     OW17989   6.816   2.489   1.464
 5697SOL    HW117990   6.880   2.560   1.493
 5697SOL    HW217991   6.795   2.500   1.367
 5698SOL     OW17992   0.210   2.023   2.245
 5698SOL    HW117993   0.189   2.102   2.301
 5698SOL    HW217994   0.276   2.049   2.174
 5699SOL     OW17995   6.094   1.826   3.946
 5699SOL    HW117996   6.185   1.865   3.951
 5699SOL    HW217997   6.028   1.887   3.989
 5700SOL     OW17998   0.144   6.321   4.756
 5700SOL    HW117999   0.128   6.225   4.733
 5700SOL    HW218000   0.240   6.335   4.780
 5701SOL     OW18001   0.843   5.719   2.946
 5701SOL    HW118002   0.759   5.760   2.982
 5701SOL    HW218003   0.835   5.620   2.948
 5702SOL     OW18004   1.964   0.165   6.329
 5702SOL    HW118005   1.909   0.129   6.404
 5702SOL    HW218006   2.060   0.164   6.355
 5703SOL     OW18007   4.323   4.841   6.950
 5703SOL    HW118008   4.235   4.881   6.923
 5703SOL    HW218009   4.387   4.914   6.973
 5704SOL     OW18010   4.268   5.719   2.544
 5704SOL    HW118011   4.263   5.735   2.445
 5704SOL    HW218012   4.289   5.805   2.590
 5705SOL     OW18013   6.067   1.099   0.791
 5705SOL    HW118014   6.161   1.132   0.798
 5705SOL    HW218015   6.014   1.160   0.732
 5706SOL     OW18016   1.713   1.732   0.131
 5706SOL    HW118017   1.702   1.709   0.228
 5706SOL    HW218018   1.653   1.675   0.076
 5707SOL     OW18019   1.058   0.129   6.744
 5707SOL    HW118020   1.098   0.041   6.769
 5707SOL    HW218021   1.015   0.123   6.654
 5708SOL     OW18022   5.502   0.439   1.968
 5708SOL    HW118023   5.461   0.511   2.024
 5708SOL    HW218024   5.570   0.480   1.907
 5709SOL     OW18025   0.489   5.954   3.434
 5709SOL    HW118026   0.412   5.983   3.377
 5709SOL    HW218027   0.573   5.998   3.400
 5710SOL     OW18028   2.702   3.564   5.397
 5710SOL    HW118029   2.695   3.541   5.495
 5710SOL    HW218030   2.698   3.663   5.386
 5711SOL     OW18031   4.884   0.318   3.630
 5711SOL    HW118032   4.925   0.235   3.590
 5711SOL    HW218033   4.798   0.338   3.583
 5712SOL     OW18034   1.007   0.028   5.616
 5712SOL    HW118035   1.068   0.069   5.684
 5712SOL    HW218036   0.990   0.094   5.543
 5713SOL     OW18037   0.980   2.381   1.265
 5713SOL    HW118038   1.027   2.352   1.349
 5713SOL    HW218039   1.045   2.378   1.189
 5714SOL     OW18040   1.322   6.511   6.658
 5714SOL    HW118041   1.400   6.532   6.599
 5714SOL    HW218042   1.324   6.570   6.739
 5715SOL     OW18043   1.225   5.941   3.272
 5715SOL    HW118044   1.294   5.994   3.221
 5715SOL    HW218045   1.269   5.863   3.316
 5716SOL     OW18046   0.814   4.094   5.521
 5716SOL    HW118047   0.755   4.111   5.599
 5716SOL    HW218048   0.759   4.085   5.438
 5717SOL     OW18049   1.774   5.022   0.552
 5717SOL    HW118050   1.703   4.973   0.502
 5717SOL    HW218051   1.787   4.982   0.642
 5718SOL     OW18052   1.878   4.437   6.837
 5718SOL    HW118053   1.806   4.415   6.903
 5718SOL    HW218054   1.922   4.353   6.806
 5719SOL     OW18055   3.221   1.090   5.672
 5719SOL    HW118056   3.240   1.068   5.768
 5719SOL    HW218057   3.301   1.067   5.616
 5720SOL     OW18058   0.398   5.222   5.059
 5720SOL    HW118059   0.414   5.223   5.158
 5720SOL    HW218060   0.487   5.219   5.012
 5721SOL     OW18061   0.978   3.383   0.238
 5721SOL    HW118062   0.925   3.446   0.180
 5721SOL    HW218063   0.956   3.289   0.213
 5722SOL     OW18064   4.998   1.409   4.709
 5722SOL    HW118065   4.904   1.376   4.699
 5722SOL    HW218066   5.061   1.338   4.678
 5723SOL     OW18067   4.534   4.639   0.455
 5723SOL    HW118068   4.545   4.553   0.506
 5723SOL    HW218069   4.474   4.701   0.506
 5724SOL     OW18070   3.748   2.412   5.368
 5724SOL    HW118071   3.833   2.457   5.394
 5724SOL    HW218072   3.765   2.315   5.351
 5725SOL     OW18073   4.753   5.811   3.542
 5725SOL    HW118074   4.776   5.715   3.525
 5725SOL    HW218075   4.780   5.866   3.463
 5726SOL     OW18076   6.999   3.165   3.890
 5726SOL    HW118077   6.983   3.139   3.985
 5726SOL    HW218078   6.955   3.254   3.872
 5727SOL     OW18079   6.054   3.424   2.659
 5727SOL    HW118080   6.020   3.513   2.630
 5727SOL    HW218081   6.052   3.419   2.759
 5728SOL     OW18082   5.204   1.570   6.934
 5728SOL    HW118083   5.270   1.640   6.960
 5728SOL    HW218084   5.234   1.481   6.968
 5729SOL     OW18085   1.320   1.704   1.152
 5729SOL    HW118086   1.376   1.788   1.156
 5729SOL    HW218087   1.380   1.625   1.149
 5730SOL     OW18088   4.158   5.404   5.552
 5730SOL    HW118089   4.242   5.401   5.498
 5730SOL    HW218090   4.108   5.318   5.542
 5731SOL     OW18091   1.378   6.343   3.654
 5731SOL    HW118092   1.308   6.364   3.722
 5731SOL    HW218093   1.357   6.256   3.610
 5732SOL     OW18094   5.915   5.102   4.997
 5732SOL    HW118095   5.902   5.126   5.093
 5732SOL    HW218096   5.880   5.175   4.938
 5733SOL     OW18097   3.734   1.166   6.108
 5733SOL    HW118098   3.758   1.070   6.118
 5733SOL    HW218099   3.741   1.192   6.011
 5734SOL     OW18100   0.992   0.175   5.393
 5734SOL    HW118101   0.906   0.127   5.376
 5734SOL    HW218102   1.035   0.198   5.306
 5735SOL     OW18103   3.879   0.963   2.166
 5735SOL    HW118104   3.820   1.010   2.232
 5735SOL    HW218105   3.972   0.956   2.204
 5736SOL     OW18106   5.350   4.426   6.726
 5736SOL    HW118107   5.409   4.498   6.764
 5736SOL    HW218108   5.391   4.391   6.642
 5737SOL     OW18109   5.206   5.863   1.104
 5737SOL    HW118110   5.292   5.899   1.068
 5737SOL    HW218111   5.169   5.794   1.041
 5738SOL     OW18112   3.967   1.488   6.821
 5738SOL    HW118113   4.063   1.475   6.798
 5738SOL    HW218114   3.925   1.552   6.757
 5739SOL     OW18115   1.750   6.650   5.353
 5739SOL    HW118116   1.709   6.718   5.293
 5739SOL    HW218117   1.731   6.558   5.317
 5740SOL     OW18118   4.902   3.455   0.701
 5740SOL    HW118119   4.927   3.532   0.643
 5740SOL    HW218120   4.809   3.426   0.680
 5741SOL     OW18121   0.088   3.592   3.847
 5741SOL    HW118122   0.074   3.520   3.779
 5741SOL    HW218123   0.006   3.647   3.854
 5742SOL     OW18124   3.863   0.296   3.463
 5742SOL    HW118125   3.814   0.271   3.379
 5742SOL    HW218126   3.910   0.216   3.499
 5743SOL     OW18127   3.271   4.663   6.072
 5743SOL    HW118128   3.360   4.707   6.082
 5743SOL    HW218129   3.263   4.588   6.138
 5744SOL     OW18130   6.012   0.977   2.747
 5744SOL    HW118131   6.048   0.888   2.719
 5744SOL    HW218132   5.919   0.987   2.711
 5745SOL     OW18133   2.826   1.751   3.691
 5745SOL    HW118134   2.753   1.809   3.728
 5745SOL    HW218135   2.861   1.692   3.763
 5746SOL     OW18136   4.600   0.180   3.173
 5746SOL    HW118137   4.611   0.142   3.264
 5746SOL    HW218138   4.655   0.264   3.165
 5747SOL     OW18139   0.498   6.224   1.874
 5747SOL    HW118140   0.558   6.279   1.932
 5747SOL    HW218141   0.434   6.285   1.827
 5748SOL     OW18142   1.000   0.307   0.677
 5748SOL    HW118143   0.951   0.275   0.596
 5748SOL    HW218144   1.057   0.234   0.714
 5749SOL     OW18145   1.849   6.302   4.837
 5749SOL    HW118146   1.773   6.345   4.885
 5749SOL    HW218147   1.835   6.309   4.739
 5750SOL     OW18148   5.904   5.361   5.857
 5750SOL    HW118149   5.943   5.277   5.895
 5750SOL    HW218150   5.824   5.388   5.911
 5751SOL     OW18151   1.763   3.471   4.821
 5751SOL    HW118152   1.752   3.474   4.921
 5751SOL    HW218153   1.801   3.558   4.790
 5752SOL     OW18154   5.923   6.967   1.327
 5752SOL    HW118155   5.900   7.006   1.238
 5752SOL    HW218156   5.973   0.009   1.381
 5753SOL     OW18157   3.111   3.470   5.082
 5753SOL    HW118158   3.074   3.378   5.070
 5753SOL    HW218159   3.210   3.465   5.099
 5754SOL     OW18160   1.085   5.770   1.642
 5754SOL    HW118161   1.105   5.848   1.700
 5754SOL    HW218162   0.986   5.761   1.630
 5755SOL     OW18163   1.643   2.094   5.605
 5755SOL    HW118164   1.553   2.125   5.634
 5755SOL    HW218165   1.692   2.055   5.683
 5756SOL     OW18166   6.701   0.352   3.195
 5756SOL    HW118167   6.680   0.448   3.213
 5756SOL    HW218168   6.710   0.303   3.281
 5757SOL     OW18169   0.406   5.710   3.923
 5757SOL    HW118170   0.419   5.633   3.861
 5757SOL    HW218171   0.329   5.692   3.984
 5758SOL     OW18172   2.424   0.755   3.464
 5758SOL    HW118173   2.402   0.824   3.395
 5758SOL    HW218174   2.493   0.790   3.527
 5759SOL     OW18175   4.548   0.609   1.141
 5759SOL    HW118176   4.488   0.531   1.121
 5759SOL    HW218177   4.643   0.580   1.138
 5760SOL     OW18178   6.751   2.437   2.353
 5760SOL    HW118179   6.675   2.428   2.418
 5760SOL    HW218180   6.803   2.520   2.374
 5761SOL     OW18181   5.187   5.288   5.578
 5761SOL    HW118182   5.224   5.243   5.659
 5761SOL    HW218183   5.247   5.363   5.551
 5762SOL     OW18184   4.825   4.101   0.238
 5762SOL    HW118185   4.828   4.003   0.222
 5762SOL    HW218186   4.817   4.149   0.150
 5763SOL     OW18187   5.303   5.985   0.520
 5763SOL    HW118188   5.320   5.889   0.543
 5763SOL    HW218189   5.371   6.042   0.565
 5764SOL     OW18190   4.320   5.329   4.194
 5764SOL    HW118191   4.365   5.410   4.157
 5764SOL    HW218192   4.349   5.248   4.143
 5765SOL     OW18193   6.691   3.327   0.807
 5765SOL    HW118194   6.688   3.227   0.800
 5765SOL    HW218195   6.606   3.360   0.848
 5766SOL     OW18196   2.185   2.025   4.619
 5766SOL    HW118197   2.090   2.024   4.650
 5766SOL    HW218198   2.196   1.959   4.545
 5767SOL     OW18199   2.183   0.092   6.849
 5767SOL    HW118200   2.101   0.138   6.884
 5767SOL    HW218201   2.167   7.018   6.849
 5768SOL     OW18202   0.406   6.969   3.501
 5768SOL    HW118203   0.460   6.896   3.459
 5768SOL    HW218204   0.313   6.938   3.516
 5769SOL     OW18205   2.905   5.849   5.007
 5769SOL    HW118206   2.880   5.780   4.939
 5769SOL    HW218207   2.839   5.848   5.082
 5770SOL     OW18208   6.980   6.322   7.010
 5770SOL    HW118209   6.976   6.234   6.963
 5770SOL    HW218210   6.959   6.395   6.946
 5771SOL     OW18211   1.904   0.315   4.207
 5771SOL    HW118212   1.910   0.376   4.286
 5771SOL    HW218213   1.936   0.361   4.125
 5772SOL     OW18214   5.087   1.215   1.514
 5772SOL    HW118215   5.185   1.207   1.497
 5772SOL    HW218216   5.069   1.201   1.611
 5773SOL     OW18217   4.377   0.902   2.929
 5773SOL    HW118218   4.470   0.884   2.899
 5773SOL    HW218219   4.333   0.816   2.954
 5774SOL     OW18220   1.851   0.505   4.440
 5774SOL    HW118221   1.865   0.594   4.483
 5774SOL    HW218222   1.798   0.517   4.356
 5775SOL     OW18223   1.010   6.707   2.692
 5775SOL    HW118224   1.096   6.701   2.743
 5775SOL    HW218225   0.997   6.801   2.660
 5776SOL     OW18226   1.215   0.038   3.670
 5776SOL    HW118227   1.212   0.014   3.573
 5776SOL    HW218228   1.299   0.003   3.711
 5777SOL     OW18229   0.764   6.808   3.454
 5777SOL    HW118230   0.709   6.841   3.531
 5777SOL    HW218231   0.703   6.785   3.378
 5778SOL     OW18232   1.398   0.954   0.517
 5778SOL    HW118233   1.407   0.904   0.431
 5778SOL    HW218234   1.349   0.898   0.584
 5779SOL     OW18235   4.587   2.655   0.485
 5779SOL    HW118236   4.598   2.738   0.540
 5779SOL    HW218237   4.524   2.592   0.531
 5780SOL     OW18238   5.190   5.968   4.831
 5780SOL    HW118239   5.158   5.922   4.748
 5780SOL    HW218240   5.171   5.911   4.910
 5781SOL     OW18241   6.330   4.867   4.413
 5781SOL    HW118242   6.386   4.811   4.474
 5781SOL    HW218243   6.317   4.957   4.453
 5782SOL     OW18244   1.550   1.823   0.417
 5782SOL    HW118245   1.541   1.731   0.379
 5782SOL    HW218246   1.605   1.819   0.500
 5783SOL     OW18247   0.842   0.731   2.356
 5783SOL    HW118248   0.791   0.753   2.273
 5783SOL    HW218249   0.933   0.772   2.350
 5784SOL     OW18250   0.868   6.611   5.256
 5784SOL    HW118251   0.857   6.686   5.191
 5784SOL    HW218252   0.780   6.590   5.297
 5785SOL     OW18253   1.918   2.229   0.604
 5785SOL    HW118254   1.835   2.198   0.558
 5785SOL    HW218255   1.958   2.305   0.552
 5786SOL     OW18256   6.728   4.311   0.664
 5786SOL    HW118257   6.773   4.233   0.706
 5786SOL    HW218258   6.672   4.279   0.587
 5787SOL     OW18259   2.262   2.554   5.407
 5787SOL    HW118260   2.184   2.509   5.364
 5787SOL    HW218261   2.286   2.637   5.357
 5788SOL     OW18262   2.797   1.322   2.373
 5788SOL    HW118263   2.889   1.287   2.359
 5788SOL    HW218264   2.796   1.421   2.361
 5789SOL     OW18265   3.409   4.973   0.001
 5789SOL    HW118266   3.489   5.033   7.025
 5789SOL    HW218267   3.434   4.883   0.037
 5790SOL     OW18268   1.723   3.991   4.136
 5790SOL    HW118269   1.762   4.070   4.184
 5790SOL    HW218270   1.796   3.940   4.091
 5791SOL     OW18271   3.968   0.674   2.292
 5791SOL    HW118272   4.001   0.589   2.335
 5791SOL    HW218273   4.045   0.718   2.245
 5792SOL     OW18274   6.822   2.486   3.055
 5792SOL    HW118275   6.918   2.472   3.033
 5792SOL    HW218276   6.810   2.576   3.098
 5793SOL     OW18277   5.206   0.375   4.390
 5793SOL    HW118278   5.123   0.426   4.369
 5793SOL    HW218279   5.231   0.318   4.312
 5794SOL     OW18280   3.769   2.004   0.874
 5794SOL    HW118281   3.685   2.015   0.927
 5794SOL    HW218282   3.773   2.076   0.804
 5795SOL     OW18283   6.624   6.139   6.876
 5795SOL    HW118284   6.602   6.061   6.934
 5795SOL    HW218285   6.594   6.121   6.782
 5796SOL     OW18286   3.701   1.032   0.376
 5796SOL    HW118287   3.642   0.963   0.333
 5796SOL    HW218288   3.654   1.120   0.376
 5797SOL     OW18289   4.388   1.828   5.688
 5797SOL    HW118290   4.486   1.836   5.709
 5797SOL    HW218291   4.335   1.846   5.770
 5798SOL     OW18292   0.777   4.619   4.874
 5798SOL    HW118293   0.778   4.526   4.912
 5798SOL    HW218294   0.729   4.680   4.936
 5799SOL     OW18295   5.499   1.324   3.629
 5799SOL    HW118296   5.407   1.286   3.626
 5799SOL    HW218297   5.557   1.266   3.687
 5800SOL     OW18298   6.087   6.101   1.138
 5800SOL    HW118299   6.165   6.063   1.087
 5800SOL    HW218300   6.053   6.033   1.203
 5801SOL     OW18301   1.757   2.146   3.992
 5801SOL    HW118302   1.799   2.218   3.936
 5801SOL    HW218303   1.828   2.098   4.043
 5802SOL     OW18304   1.255   4.645   1.243
 5802SOL    HW118305   1.171   4.624   1.193
 5802SOL    HW218306   1.241   4.726   1.299
 5803SOL     OW18307   1.643   4.864   2.331
 5803SOL    HW118308   1.643   4.849   2.232
 5803SOL    HW218309   1.674   4.782   2.378
 5804SOL     OW18310   0.245   5.581   4.135
 5804SOL    HW118311   0.151   5.574   4.168
 5804SOL    HW218312   0.308   5.573   4.212
 5805SOL     OW18313   2.751   3.593   6.024
 5805SOL    HW118314   2.842   3.582   5.983
 5805SOL    HW218315   2.683   3.548   5.966
 5806SOL     OW18316   6.871   6.036   5.837
 5806SOL    HW118317   6.851   6.133   5.853
 5806SOL    HW218318   6.817   6.004   5.759
 5807SOL     OW18319   0.704   3.853   2.000
 5807SOL    HW118320   0.615   3.807   1.990
 5807SOL    HW218321   0.765   3.822   1.927
 5808SOL     OW18322   6.009   4.558   4.524
 5808SOL    HW118323   5.945   4.629   4.496
 5808SOL    HW218324   6.065   4.592   4.599
 5809SOL     OW18325   6.627   1.979   4.625
 5809SOL    HW118326   6.648   1.985   4.527
 5809SOL    HW218327   6.665   1.895   4.662
 5810SOL     OW18328   3.881   1.709   4.066
 5810SOL    HW118329   3.828   1.778   4.018
 5810SOL    HW218330   3.898   1.631   4.005
 5811SOL     OW18331   3.195   0.501   5.822
 5811SOL    HW118332   3.194   0.422   5.884
 5811SOL    HW218333   3.277   0.556   5.840
 5812SOL     OW18334   6.141   1.548   4.009
 5812SOL    HW118335   6.172   1.566   4.103
 5812SOL    HW218336   6.096   1.629   3.972
 5813SOL     OW18337   2.007   1.466   1.085
 5813SOL    HW118338   1.916   1.507   1.077
 5813SOL    HW218339   2.008   1.376   1.041
 5814SOL     OW18340   6.416   4.523   1.284
 5814SOL    HW118341   6.326   4.492   1.255
 5814SOL    HW218342   6.471   4.445   1.313
 5815SOL     OW18343   4.624   2.622   4.156
 5815SOL    HW118344   4.540   2.570   4.173
 5815SOL    HW218345   4.641   2.684   4.232
 5816SOL     OW18346   4.200   6.026   0.100
 5816SOL    HW118347   4.115   6.007   0.150
 5816SOL    HW218348   4.201   5.973   0.015
 5817SOL     OW18349   5.500   3.501   6.456
 5817SOL    HW118350   5.400   3.494   6.459
 5817SOL    HW218351   5.539   3.463   6.540
 5818SOL     OW18352   6.635   5.487   4.979
 5818SOL    HW118353   6.725   5.507   4.941
 5818SOL    HW218354   6.612   5.391   4.964
 5819SOL     OW18355   4.319   6.718   0.052
 5819SOL    HW118356   4.308   6.816   0.040
 5819SOL    HW218357   4.232   6.677   0.077
 5820SOL     OW18358   4.109   5.618   4.327
 5820SOL    HW118359   4.098   5.710   4.366
 5820SOL    HW218360   4.204   5.604   4.300
 5821SOL     OW18361   0.028   0.384   2.466
 5821SOL    HW118362   6.963   0.378   2.424
 5821SOL    HW218363   0.046   0.300   2.517
 5822SOL     OW18364   0.808   2.373   2.232
 5822SOL    HW118365   0.869   2.448   2.257
 5822SOL    HW218366   0.862   2.297   2.194
 5823SOL     OW18367   1.295   1.408   5.430
 5823SOL    HW118368   1.344   1.323   5.447
 5823SOL    HW218369   1.360   1.482   5.411
 5824SOL     OW18370   6.300   4.627   2.415
 5824SOL    HW118371   6.362   4.549   2.427
 5824SOL    HW218372   6.228   4.623   2.485
 5825SOL     OW18373   2.279   2.253   5.152
 5825SOL    HW118374   2.283   2.154   5.136
 5825SOL    HW218375   2.372   2.288   5.166
 5826SOL     OW18376   0.123   5.151   5.613
 5826SOL    HW118377   0.171   5.101   5.541
 5826SOL    HW218378   0.063   5.088   5.663
 5827SOL     OW18379   2.212   4.331   4.773
 5827SOL    HW118380   2.216   4.426   4.805
 5827SOL    HW218381   2.294   4.310   4.721
 5828SOL     OW18382   0.013   2.899   1.845
 5828SOL    HW118383   6.979   2.975   1.870
 5828SOL    HW218384   0.108   2.920   1.870
 5829SOL     OW18385   1.915   1.358   3.077
 5829SOL    HW118386   1.939   1.348   2.981
 5829SOL    HW218387   1.849   1.287   3.103
 5830SOL     OW18388   4.742   0.088   5.431
 5830SOL    HW118389   4.677   0.012   5.435
 5830SOL    HW218390   4.698   0.166   5.387
 5831SOL     OW18391   0.279   0.767   4.428
 5831SOL    HW118392   0.358   0.824   4.452
 5831SOL    HW218393   0.197   0.824   4.426
 5832SOL     OW18394   3.896   4.509   6.137
 5832SOL    HW118395   3.957   4.484   6.213
 5832SOL    HW218396   3.937   4.584   6.085
 5833SOL     OW18397   3.882   3.413   5.320
 5833SOL    HW118398   3.798   3.375   5.281
 5833SOL    HW218399   3.882   3.512   5.309
 5834SOL     OW18400   6.614   3.183   0.217
 5834SOL    HW118401   6.709   3.195   0.245
 5834SOL    HW218402   6.610   3.128   0.134
 5835SOL     OW18403   4.905   3.452   3.813
 5835SOL    HW118404   4.894   3.507   3.896
 5835SOL    HW218405   4.852   3.367   3.823
 5836SOL     OW18406   2.963   6.217   2.551
 5836SOL    HW118407   3.008   6.171   2.627
 5836SOL    HW218408   2.895   6.156   2.510
 5837SOL     OW18409   4.025   4.924   5.971
 5837SOL    HW118410   3.999   5.002   6.028
 5837SOL    HW218411   4.124   4.914   5.971
 5838SOL     OW18412   2.712   1.417   6.176
 5838SOL    HW118413   2.809   1.427   6.199
 5838SOL    HW218414   2.698   1.441   6.080
 5839SOL     OW18415   0.386   1.944   2.658
 5839SOL    HW118416   0.349   2.035   2.678
 5839SOL    HW218417   0.384   1.929   2.559
 5840SOL     OW18418   0.823   5.574   6.843
 5840SOL    HW118419   0.870   5.492   6.877
 5840SOL    HW218420   0.801   5.634   6.919
 5841SOL     OW18421   5.164   1.763   2.390
 5841SOL    HW118422   5.097   1.789   2.459
 5841SOL    HW218423   5.171   1.663   2.386
 5842SOL     OW18424   4.734   3.172   0.945
 5842SOL    HW118425   4.733   3.180   0.845
 5842SOL    HW218426   4.651   3.213   0.982
 5843SOL     OW18427   2.209   3.960   2.740
 5843SOL    HW118428   2.267   3.880   2.722
 5843SOL    HW218429   2.128   3.957   2.682
 5844SOL     OW18430   0.925   6.808   5.920
 5844SOL    HW118431   0.948   6.810   6.018
 5844SOL    HW218432   1.006   6.783   5.868
 5845SOL     OW18433   1.199   0.311   2.809
 5845SOL    HW118434   1.219   0.373   2.733
 5845SOL    HW218435   1.134   0.241   2.778
 5846SOL     OW18436   6.908   3.075   3.293
 5846SOL    HW118437   6.960   3.021   3.227
 5846SOL    HW218438   6.958   3.159   3.315
 5847SOL     OW18439   2.300   2.339   1.807
 5847SOL    HW118440   2.338   2.424   1.842
 5847SOL    HW218441   2.216   2.317   1.856
 5848SOL     OW18442   2.657   5.057   2.817
 5848SOL    HW118443   2.565   5.048   2.779
 5848SOL    HW218444   2.720   4.997   2.768
 5849SOL     OW18445   0.170   6.895   6.713
 5849SOL    HW118446   0.157   6.860   6.620
 5849SOL    HW218447   0.099   6.963   6.733
 5850SOL     OW18448   0.216   4.079   2.281
 5850SOL    HW118449   0.302   4.126   2.262
 5850SOL    HW218450   0.198   4.012   2.209
 5851SOL     OW18451   5.541   3.312   2.870
 5851SOL    HW118452   5.449   3.313   2.832
 5851SOL    HW218453   5.536   3.299   2.969
 5852SOL     OW18454   5.598   6.455   3.304
 5852SOL    HW118455   5.688   6.428   3.270
 5852SOL    HW218456   5.529   6.389   3.273
 5853SOL     OW18457   3.294   5.538   4.213
 5853SOL    HW118458   3.219   5.487   4.171
 5853SOL    HW218459   3.293   5.632   4.180
 5854SOL     OW18460   5.924   4.589   5.593
 5854SOL    HW118461   5.845   4.569   5.535
 5854SOL    HW218462   5.895   4.641   5.673
 5855SOL     OW18463   0.553   0.501   4.906
 5855SOL    HW118464   0.583   0.408   4.926
 5855SOL    HW218465   0.625   0.566   4.931
 5856SOL     OW18466   1.876   6.338   3.923
 5856SOL    HW118467   1.851   6.244   3.900
 5856SOL    HW218468   1.828   6.367   4.006
 5857SOL     OW18469   6.390   1.969   5.837
 5857SOL    HW118470   6.458   1.952   5.765
 5857SOL    HW218471   6.328   1.891   5.843
 5858SOL     OW18472   2.454   2.559   1.970
 5858SOL    HW118473   2.461   2.649   1.927
 5858SOL    HW218474   2.454   2.569   2.070
 5859SOL     OW18475   5.657   6.627   1.766
 5859SOL    HW118476   5.623   6.627   1.673
 5859SOL    HW218477   5.704   6.540   1.784
 5860SOL     OW18478   1.918   3.856   1.831
 5860SOL    HW118479   1.927   3.780   1.768
 5860SOL    HW218480   1.984   3.846   1.906
 5861SOL     OW18481   4.602   1.749   4.436
 5861SOL    HW118482   4.581   1.844   4.461
 5861SOL    HW218483   4.520   1.693   4.446
 5862SOL     OW18484   4.770   5.195   2.890
 5862SOL    HW118485   4.830   5.129   2.936
 5862SOL    HW218486   4.675   5.164   2.895
 5863SOL     OW18487   2.592   0.642   4.450
 5863SOL    HW118488   2.676   0.691   4.427
 5863SOL    HW218489   2.568   0.660   4.546
 5864SOL     OW18490   3.903   3.702   1.656
 5864SOL    HW118491   3.857   3.706   1.745
 5864SOL    HW218492   3.985   3.646   1.663
 5865SOL     OW18493   5.989   0.136   5.914
 5865SOL    HW118494   6.018   0.218   5.864
 5865SOL    HW218495   5.956   0.162   6.005
 5866SOL     OW18496   4.483   5.658   0.247
 5866SOL    HW118497   4.510   5.754   0.244
 5866SOL    HW218498   4.383   5.652   0.240
 5867SOL     OW18499   0.269   3.983   0.900
 5867SOL    HW118500   0.358   3.942   0.882
 5867SOL    HW218501   0.278   4.050   0.974
 5868SOL     OW18502   0.481   1.043   5.422
 5868SOL    HW118503   0.461   1.106   5.347
 5868SOL    HW218504   0.579   1.023   5.423
 5869SOL     OW18505   2.926   5.805   3.245
 5869SOL    HW118506   2.896   5.847   3.331
 5869SOL    HW218507   2.926   5.705   3.256
 5870SOL     OW18508   5.104   5.825   5.047
 5870SOL    HW118509   5.156   5.739   5.045
 5870SOL    HW218510   5.138   5.882   5.121
 5871SOL     OW18511   4.435   2.890   0.227
 5871SOL    HW118512   4.523   2.853   0.198
 5871SOL    HW218513   4.374   2.895   0.148
 5872SOL     OW18514   4.013   5.377   0.368
 5872SOL    HW118515   4.076   5.451   0.391
 5872SOL    HW218516   4.031   5.298   0.426
 5873SOL     OW18517   2.293   2.600   1.331
 5873SOL    HW118518   2.339   2.514   1.309
 5873SOL    HW218519   2.307   2.622   1.428
 5874SOL     OW18520   3.471   3.638   0.592
 5874SOL    HW118521   3.470   3.732   0.558
 5874SOL    HW218522   3.483   3.575   0.516
 5875SOL     OW18523   3.795   1.166   1.053
 5875SOL    HW118524   3.779   1.186   0.956
 5875SOL    HW218525   3.868   1.098   1.061
 5876SOL     OW18526   2.798   3.096   6.951
 5876SOL    HW118527   2.781   3.029   7.024
 5876SOL    HW218528   2.716   3.106   6.895
 5877SOL     OW18529   0.581   6.483   1.291
 5877SOL    HW118530   0.589   6.556   1.224
 5877SOL    HW218531   0.488   6.445   1.289
 5878SOL     OW18532   5.078   5.080   3.418
 5878SOL    HW118533   5.058   5.105   3.513
 5878SOL    HW218534   5.048   5.154   3.358
 5879SOL     OW18535   2.266   3.367   6.504
 5879SOL    HW118536   2.294   3.318   6.422
 5879SOL    HW218537   2.197   3.435   6.481
 5880SOL     OW18538   4.699   4.304   6.494
 5880SOL    HW118539   4.701   4.372   6.421
 5880SOL    HW218540   4.697   4.212   6.455
 5881SOL     OW18541   1.230   0.093   1.778
 5881SOL    HW118542   1.273   0.183   1.769
 5881SOL    HW218543   1.179   0.072   1.695
 5882SOL     OW18544   1.475   6.853   6.074
 5882SOL    HW118545   1.464   6.901   6.161
 5882SOL    HW218546   1.465   6.755   6.089
 5883SOL     OW18547   0.675   1.095   0.533
 5883SOL    HW118548   0.770   1.104   0.501
 5883SOL    HW218549   0.675   1.075   0.631
 5884SOL     OW18550   5.510   1.137   4.851
 5884SOL    HW118551   5.444   1.097   4.787
 5884SOL    HW218552   5.462   1.191   4.919
 5885SOL     OW18553   0.837   5.487   1.761
 5885SOL    HW118554   0.920   5.451   1.718
 5885SOL    HW218555   0.797   5.417   1.820
 5886SOL     OW18556   1.175   2.967   3.628
 5886SOL    HW118557   1.120   3.051   3.626
 5886SOL    HW218558   1.265   2.987   3.668
 5887SOL     OW18559   2.791   2.094   1.925
 5887SOL    HW118560   2.714   2.094   1.861
 5887SOL    HW218561   2.809   2.188   1.955
 5888SOL     OW18562   1.984   6.586   1.314
 5888SOL    HW118563   1.892   6.559   1.284
 5888SOL    HW218564   2.046   6.585   1.236
 5889SOL     OW18565   6.786   1.228   0.449
 5889SOL    HW118566   6.827   1.182   0.528
 5889SOL    HW218567   6.853   1.291   0.409
 5890SOL     OW18568   1.567   6.707   2.558
 5890SOL    HW118569   1.474   6.669   2.559
 5890SOL    HW218570   1.568   6.790   2.503
 5891SOL     OW18571   2.109   4.283   0.546
 5891SOL    HW118572   2.045   4.224   0.594
 5891SOL    HW218573   2.185   4.307   0.607
 5892SOL     OW18574   6.600   5.275   1.964
 5892SOL    HW118575   6.616   5.176   1.973
 5892SOL    HW218576   6.547   5.292   1.881
 5893SOL     OW18577   2.329   4.701   1.766
 5893SOL    HW118578   2.341   4.655   1.677
 5893SOL    HW218579   2.380   4.652   1.836
 5894SOL     OW18580   0.510   5.663   5.622
 5894SOL    HW118581   0.527   5.749   5.574
 5894SOL    HW218582   0.559   5.664   5.710
 5895SOL     OW18583   5.945   4.105   3.446
 5895SOL    HW118584   5.944   4.202   3.419
 5895SOL    HW218585   6.037   4.069   3.434
 5896SOL     OW18586   5.415   1.710   1.066
 5896SOL    HW118587   5.412   1.807   1.089
 5896SOL    HW218588   5.483   1.664   1.123
 5897SOL     OW18589   3.600   0.887   1.878
 5897SOL    HW118590   3.686   0.920   1.917
 5897SOL    HW218591   3.601   0.787   1.876
 5898SOL     OW18592   2.236   1.691   5.555
 5898SOL    HW118593   2.270   1.784   5.567
 5898SOL    HW218594   2.303   1.637   5.503
 5899SOL     OW18595   6.767   6.014   6.550
 5899SOL    HW118596   6.688   6.011   6.612
 5899SOL    HW218597   6.806   5.922   6.543
 5900SOL     OW18598   6.515   5.131   2.717
 5900SOL    HW118599   6.474   5.045   2.747
 5900SOL    HW218600   6.615   5.122   2.717
 5901SOL     OW18601   2.707   1.392   0.197
 5901SOL    HW118602   2.784   1.417   0.138
 5901SOL    HW218603   2.663   1.309   0.162
 5902SOL     OW18604   5.523   3.507   5.167
 5902SOL    HW118605   5.453   3.519   5.238
 5902SOL    HW218606   5.596   3.574   5.181
 5903SOL     OW18607   4.821   3.176   6.890
 5903SOL    HW118608   4.791   3.206   6.799
 5903SOL    HW218609   4.902   3.118   6.880
 5904SOL     OW18610   0.895   4.314   0.989
 5904SOL    HW118611   0.890   4.346   0.894
 5904SOL    HW218612   0.956   4.235   0.994
 5905SOL     OW18613   5.540   0.977   4.382
 5905SOL    HW118614   5.586   0.940   4.463
 5905SOL    HW218615   5.595   1.051   4.344
 5906SOL     OW18616   4.649   1.824   5.417
 5906SOL    HW118617   4.661   1.858   5.510
 5906SOL    HW218618   4.739   1.799   5.379
 5907SOL     OW18619   1.424   0.236   0.199
 5907SOL    HW118620   1.326   0.253   0.215
 5907SOL    HW218621   1.447   0.261   0.105
 5908SOL     OW18622   6.156   4.260   6.944
 5908SOL    HW118623   6.223   4.334   6.933
 5908SOL    HW218624   6.192   4.177   6.901
 5909SOL     OW18625   0.365   5.573   6.645
 5909SOL    HW118626   0.460   5.599   6.661
 5909SOL    HW218627   0.354   5.543   6.551
 5910SOL     OW18628   0.644   5.414   0.462
 5910SOL    HW118629   0.658   5.318   0.437
 5910SOL    HW218630   0.708   5.439   0.535
 5911SOL     OW18631   0.312   5.622   6.107
 5911SOL    HW118632   0.310   5.575   6.196
 5911SOL    HW218633   0.280   5.559   6.036
 5912SOL     OW18634   5.904   3.503   6.656
 5912SOL    HW118635   5.896   3.426   6.719
 5912SOL    HW218636   5.948   3.473   6.572
 5913SOL     OW18637   2.398   2.814   6.037
 5913SOL    HW118638   2.486   2.823   5.990
 5913SOL    HW218639   2.374   2.717   6.043
 5914SOL     OW18640   2.633   5.551   6.508
 5914SOL    HW118641   2.540   5.589   6.502
 5914SOL    HW218642   2.632   5.471   6.569
 5915SOL     OW18643   6.186   3.395   1.523
 5915SOL    HW118644   6.115   3.438   1.466
 5915SOL    HW218645   6.217   3.461   1.592
 5916SOL     OW18646   4.290   6.954   5.802
 5916SOL    HW118647   4.380   6.971   5.761
 5916SOL    HW218648   4.301   6.909   5.890
 5917SOL     OW18649   4.122   3.483   3.751
 5917SOL    HW118650   4.088   3.438   3.833
 5917SOL    HW218651   4.198   3.544   3.775
 5918SOL     OW18652   2.166   3.785   5.086
 5918SOL    HW118653   2.149   3.729   5.006
 5918SOL    HW218654   2.236   3.854   5.065
 5919SOL     OW18655   2.981   2.257   6.668
 5919SOL    HW118656   2.886   2.226   6.663
 5919SOL    HW218657   3.011   2.256   6.763
 5920SOL     OW18658   3.314   6.919   0.103
 5920SOL    HW118659   3.319   7.001   0.046
 5920SOL    HW218660   3.280   6.842   0.048
 5921SOL     OW18661   3.335   5.306   5.313
 5921SOL    HW118662   3.253   5.361   5.322
 5921SOL    HW218663   3.315   5.224   5.259
 5922SOL     OW18664   5.955   5.224   3.978
 5922SOL    HW118665   5.855   5.226   3.971
 5922SOL    HW218666   5.981   5.204   4.073
 5923SOL     OW18667   5.771   1.092   2.619
 5923SOL    HW118668   5.827   1.152   2.562
 5923SOL    HW218669   5.674   1.108   2.601
 5924SOL     OW18670   6.303   2.481   4.859
 5924SOL    HW118671   6.380   2.537   4.888
 5924SOL    HW218672   6.324   2.438   4.772
 5925SOL     OW18673   4.362   6.518   3.107
 5925SOL    HW118674   4.351   6.617   3.098
 5925SOL    HW218675   4.292   6.472   3.052
 5926SOL     OW18676   3.911   5.161   1.909
 5926SOL    HW118677   3.935   5.076   1.957
 5926SOL    HW218678   3.833   5.204   1.954
 5927SOL     OW18679   2.022   4.298   2.728
 5927SOL    HW118680   2.028   4.274   2.825
 5927SOL    HW218681   2.046   4.394   2.715
 5928SOL     OW18682   3.196   0.148   1.802
 5928SOL    HW118683   3.291   0.170   1.780
 5928SOL    HW218684   3.189   0.123   1.899
 5929SOL     OW18685   0.765   7.002   5.799
 5929SOL    HW118686   0.802   6.914   5.831
 5929SOL    HW218687   0.816   0.006   5.718
 5930SOL     OW18688   6.656   1.401   3.738
 5930SOL    HW118689   6.742   1.402   3.790
 5930SOL    HW218690   6.579   1.400   3.801
 5931SOL     OW18691   6.061   5.043   2.778
 5931SOL    HW118692   6.123   5.106   2.730
 5931SOL    HW218693   5.967   5.076   2.770
 5932SOL     OW18694   2.600   6.239   0.601
 5932SOL    HW118695   2.529   6.171   0.584
 5932SOL    HW218696   2.687   6.192   0.616
 5933SOL     OW18697   6.952   4.972   2.985
 5933SOL    HW118698   6.925   4.950   2.891
 5933SOL    HW218699   6.947   4.889   3.041
 5934SOL     OW18700   3.762   4.085   4.125
 5934SOL    HW118701   3.790   4.020   4.054
 5934SOL    HW218702   3.725   4.167   4.082
 5935SOL     OW18703   4.143   3.404   4.362
 5935SOL    HW118704   4.064   3.441   4.411
 5935SOL    HW218705   4.226   3.426   4.413
 5936SOL     OW18706   4.412   3.360   6.456
 5936SOL    HW118707   4.407   3.325   6.550
 5936SOL    HW218708   4.416   3.460   6.459
 5937SOL     OW18709   0.942   4.430   2.044
 5937SOL    HW118710   0.923   4.333   2.062
 5937SOL    HW218711   0.895   4.486   2.112
 5938SOL     OW18712   1.250   5.317   4.072
 5938SOL    HW118713   1.165   5.364   4.050
 5938SOL    HW218714   1.317   5.335   4.001
 5939SOL     OW18715   3.147   0.408   3.309
 5939SOL    HW118716   3.068   0.468   3.304
 5939SOL    HW218717   3.193   0.406   3.219
 5940SOL     OW18718   4.348   6.519   2.166
 5940SOL    HW118719   4.426   6.484   2.218
 5940SOL    HW218720   4.264   6.502   2.217
 5941SOL     OW18721   6.506   3.694   2.207
 5941SOL    HW118722   6.489   3.689   2.305
 5941SOL    HW218723   6.563   3.617   2.179
 5942SOL     OW18724   5.035   2.736   0.179
 5942SOL    HW118725   5.011   2.803   0.108
 5942SOL    HW218726   4.952   2.690   0.211
 5943SOL     OW18727   4.013   5.017   0.648
 5943SOL    HW118728   3.974   5.098   0.690
 5943SOL    HW218729   4.020   5.030   0.549
 5944SOL     OW18730   5.221   1.692   1.678
 5944SOL    HW118731   5.211   1.636   1.595
 5944SOL    HW218732   5.229   1.632   1.758
 5945SOL     OW18733   0.120   5.358   5.423
 5945SOL    HW118734   0.194   5.417   5.457
 5945SOL    HW218735   0.105   5.284   5.488
 5946SOL     OW18736   3.321   3.168   5.754
 5946SOL    HW118737   3.383   3.092   5.733
 5946SOL    HW218738   3.316   3.181   5.853
 5947SOL     OW18739   3.608   3.318   1.698
 5947SOL    HW118740   3.654   3.229   1.691
 5947SOL    HW218741   3.577   3.331   1.792
 5948SOL     OW18742   4.041   5.222   3.782
 5948SOL    HW118743   3.997   5.154   3.841
 5948SOL    HW218744   4.062   5.181   3.693
 5949SOL     OW18745   4.072   3.895   1.359
 5949SOL    HW118746   4.137   3.971   1.364
 5949SOL    HW218747   4.118   3.810   1.385
 5950SOL     OW18748   5.431   2.899   5.220
 5950SOL    HW118749   5.440   2.957   5.140
 5950SOL    HW218750   5.357   2.933   5.278
 5951SOL     OW18751   0.793   5.948   4.838
 5951SOL    HW118752   0.768   5.931   4.933
 5951SOL    HW218753   0.890   5.971   4.832
 5952SOL     OW18754   5.632   5.691   4.144
 5952SOL    HW118755   5.695   5.666   4.071
 5952SOL    HW218756   5.539   5.660   4.120
 5953SOL     OW18757   7.021   3.064   5.609
 5953SOL    HW118758   7.003   3.162   5.600
 5953SOL    HW218759   7.006   3.019   5.521
 5954SOL     OW18760   6.902   5.042   5.963
 5954SOL    HW118761   6.811   5.001   5.970
 5954SOL    HW218762   6.904   5.130   6.011
 5955SOL     OW18763   5.561   6.188   2.323
 5955SOL    HW118764   5.652   6.216   2.291
 5955SOL    HW218765   5.562   6.090   2.345
 5956SOL     OW18766   3.271   2.041   0.811
 5956SOL    HW118767   3.260   2.062   0.908
 5956SOL    HW218768   3.314   2.119   0.764
 5957SOL     OW18769   4.863   0.518   5.312
 5957SOL    HW118770   4.946   0.506   5.257
 5957SOL    HW218771   4.881   0.491   5.406
 5958SOL     OW18772   6.020   6.640   2.891
 5958SOL    HW118773   6.106   6.601   2.858
 5958SOL    HW218774   5.993   6.595   2.976
 5959SOL     OW18775   3.629   1.454   5.686
 5959SOL    HW118776   3.710   1.482   5.634
 5959SOL    HW218777   3.568   1.401   5.626
 5960SOL     OW18778   3.575   6.358   4.696
 5960SOL    HW118779   3.481   6.323   4.689
 5960SOL    HW218780   3.640   6.283   4.688
 5961SOL     OW18781   4.574   0.762   4.183
 5961SOL    HW118782   4.620   0.789   4.268
 5961SOL    HW218783   4.587   0.664   4.168
 5962SOL     OW18784   4.893   6.022   1.999
 5962SOL    HW118785   4.828   6.039   2.073
 5962SOL    HW218786   4.887   5.926   1.971
 5963SOL     OW18787   3.413   2.885   4.805
 5963SOL    HW118788   3.409   2.893   4.706
 5963SOL    HW218789   3.506   2.862   4.833
 5964SOL     OW18790   0.309   5.012   5.963
 5964SOL    HW118791   0.387   5.063   5.999
 5964SOL    HW218792   0.240   5.002   6.036
 5965SOL     OW18793   1.713   2.019   5.866
 5965SOL    HW118794   1.807   2.050   5.860
 5965SOL    HW218795   1.655   2.093   5.902
 5966SOL     OW18796   3.131   5.404   5.574
 5966SOL    HW118797   3.102   5.493   5.538
 5966SOL    HW218798   3.205   5.417   5.640
 5967SOL     OW18799   4.040   6.215   1.624
 5967SOL    HW118800   4.026   6.121   1.594
 5967SOL    HW218801   4.117   6.219   1.688
 5968SOL     OW18802   5.584   1.387   3.088
 5968SOL    HW118803   5.515   1.316   3.076
 5968SOL    HW218804   5.623   1.381   3.180
 5969SOL     OW18805   6.722   1.385   5.296
 5969SOL    HW118806   6.728   1.340   5.385
 5969SOL    HW218807   6.627   1.411   5.279
 5970SOL     OW18808   0.556   5.021   2.471
 5970SOL    HW118809   0.501   4.973   2.402
 5970SOL    HW218810   0.628   5.073   2.425
 5971SOL     OW18811   2.156   0.688   3.325
 5971SOL    HW118812   2.236   0.715   3.379
 5971SOL    HW218813   2.092   0.765   3.320
 5972SOL     OW18814   4.319   6.447   0.621
 5972SOL    HW118815   4.413   6.418   0.605
 5972SOL    HW218816   4.279   6.480   0.535
 5973SOL     OW18817   1.751   5.175   2.869
 5973SOL    HW118818   1.815   5.168   2.946
 5973SOL    HW218819   1.751   5.269   2.835
 5974SOL     OW18820   5.734   4.282   6.086
 5974SOL    HW118821   5.752   4.343   6.008
 5974SOL    HW218822   5.691   4.334   6.159
 5975SOL     OW18823   3.242   2.402   0.764
 5975SOL    HW118824   3.148   2.394   0.730
 5975SOL    HW218825   3.305   2.362   0.697
 5976SOL     OW18826   3.052   3.235   4.996
 5976SOL    HW118827   3.071   3.160   4.932
 5976SOL    HW218828   2.984   3.205   5.063
 5977SOL     OW18829   1.869   5.002   1.385
 5977SOL    HW118830   1.928   4.955   1.320
 5977SOL    HW218831   1.794   5.047   1.336
 5978SOL     OW18832   5.408   4.884   3.276
 5978SOL    HW118833   5.409   4.902   3.374
 5978SOL    HW218834   5.494   4.913   3.236
 5979SOL     OW18835   6.311   0.747   2.800
 5979SOL    HW118836   6.337   0.834   2.757
 5979SOL    HW218837   6.233   0.708   2.751
 5980SOL     OW18838   4.242   3.789   6.614
 5980SOL    HW118839   4.168   3.738   6.658
 5980SOL    HW218840   4.267   3.867   6.670
 5981SOL     OW18841   6.479   0.945   2.096
 5981SOL    HW118842   6.568   0.907   2.122
 5981SOL    HW218843   6.461   0.924   2.000
 5982SOL     OW18844   6.471   2.406   6.858
 5982SOL    HW118845   6.463   2.310   6.835
 5982SOL    HW218846   6.514   2.415   6.948
 5983SOL     OW18847   2.097   1.697   4.773
 5983SOL    HW118848   2.097   1.741   4.683
 5983SOL    HW218849   2.003   1.673   4.798
 5984SOL     OW18850   6.479   7.019   5.236
 5984SOL    HW118851   6.491   0.054   5.314
 5984SOL    HW218852   6.493   0.045   5.151
 5985SOL     OW18853   5.797   3.288   4.258
 5985SOL    HW118854   5.786   3.359   4.328
 5985SOL    HW218855   5.853   3.324   4.184
 5986SOL     OW18856   3.061   3.529   3.623
 5986SOL    HW118857   2.995   3.542   3.549
 5986SOL    HW218858   3.071   3.615   3.674
 5987SOL     OW18859   4.037   1.502   4.572
 5987SOL    HW118860   4.086   1.585   4.598
 5987SOL    HW218861   4.091   1.422   4.602
 5988SOL     OW18862   4.313   6.237   5.129
 5988SOL    HW118863   4.405   6.262   5.100
 5988SOL    HW218864   4.264   6.318   5.158
 5989SOL     OW18865   2.770   5.724   6.695
 5989SOL    HW118866   2.762   5.669   6.611
 5989SOL    HW218867   2.718   5.809   6.684
 5990SOL     OW18868   4.509   4.358   0.587
 5990SOL    HW118869   4.480   4.293   0.516
 5990SOL    HW218870   4.429   4.397   0.632
 5991SOL     OW18871   4.700   4.677   5.043
 5991SOL    HW118872   4.625   4.616   5.019
 5991SOL    HW218873   4.685   4.766   5.001
 5992SOL     OW18874   3.619   0.720   4.138
 5992SOL    HW118875   3.542   0.672   4.180
 5992SOL    HW218876   3.619   0.816   4.168
 5993SOL     OW18877   3.468   6.841   6.024
 5993SOL    HW118878   3.465   6.741   6.034
 5993SOL    HW218879   3.507   6.864   5.936
 5994SOL     OW18880   6.216   1.977   2.393
 5994SOL    HW118881   6.225   2.040   2.316
 5994SOL    HW218882   6.299   1.981   2.449
 5995SOL     OW18883   6.424   4.412   2.519
 5995SOL    HW118884   6.433   4.384   2.615
 5995SOL    HW218885   6.370   4.343   2.470
 5996SOL     OW18886   0.469   5.670   0.492
 5996SOL    HW118887   0.520   5.594   0.450
 5996SOL    HW218888   0.465   5.746   0.428
 5997SOL     OW18889   0.865   6.938   2.603
 5997SOL    HW118890   0.888   0.002   2.640
 5997SOL    HW218891   0.768   6.920   2.618
 5998SOL     OW18892   5.504   3.002   1.607
 5998SOL    HW118893   5.486   3.038   1.516
 5998SOL    HW218894   5.563   3.065   1.657
 5999SOL     OW18895   1.058   2.194   2.118
 5999SOL    HW118896   1.098   2.153   2.200
 5999SOL    HW218897   1.017   2.122   2.061
 6000SOL     OW18898   3.789   6.237   1.515
 6000SOL    HW118899   3.816   6.265   1.423
 6000SOL    HW218900   3.864   6.254   1.579
 6001SOL     OW18901   0.415   4.021   6.398
 6001SOL    HW118902   0.369   3.941   6.357
 6001SOL    HW218903   0.507   4.030   6.359
 6002SOL     OW18904   0.732   6.880   1.367
 6002SOL    HW118905   0.659   6.834   1.316
 6002SOL    HW218906   0.781   6.813   1.422
 6003SOL     OW18907   6.406   2.399   4.615
 6003SOL    HW118908   6.493   2.431   4.651
 6003SOL    HW218909   6.419   2.310   4.569
 6004SOL     OW18910   0.188   4.614   2.730
 6004SOL    HW118911   0.094   4.609   2.762
 6004SOL    HW218912   0.210   4.532   2.677
 6005SOL     OW18913   4.261   5.107   4.838
 6005SOL    HW118914   4.203   5.027   4.824
 6005SOL    HW218915   4.344   5.098   4.783
 6006SOL     OW18916   3.537   6.691   0.133
 6006SOL    HW118917   3.476   6.740   0.196
 6006SOL    HW218918   3.487   6.614   0.093
 6007SOL     OW18919   4.876   3.157   3.738
 6007SOL    HW118920   4.828   3.141   3.652
 6007SOL    HW218921   4.842   3.093   3.807
 6008SOL     OW18922   2.165   5.289   6.602
 6008SOL    HW118923   2.200   5.197   6.585
 6008SOL    HW218924   2.236   5.356   6.580
 6009SOL     OW18925   2.855   1.048   4.506
 6009SOL    HW118926   2.908   1.065   4.589
 6009SOL    HW218927   2.888   1.107   4.433
 6010SOL     OW18928   2.024   4.325   2.174
 6010SOL    HW118929   2.050   4.244   2.226
 6010SOL    HW218930   1.971   4.298   2.094
 6011SOL     OW18931   4.562   2.362   2.310
 6011SOL    HW118932   4.621   2.401   2.380
 6011SOL    HW218933   4.572   2.414   2.225
 6012SOL     OW18934   6.553   1.777   0.406
 6012SOL    HW118935   6.561   1.684   0.439
 6012SOL    HW218936   6.463   1.790   0.364
 6013SOL     OW18937   5.281   2.106   2.871
 6013SOL    HW118938   5.235   2.018   2.858
 6013SOL    HW218939   5.380   2.093   2.869
 6014SOL     OW18940   4.389   1.344   0.931
 6014SOL    HW118941   4.450   1.266   0.934
 6014SOL    HW218942   4.443   1.429   0.928
 6015SOL     OW18943   5.629   1.989   5.870
 6015SOL    HW118944   5.641   2.089   5.865
 6015SOL    HW218945   5.700   1.945   5.815
 6016SOL     OW18946   0.310   1.491   0.055
 6016SOL    HW118947   0.246   1.568   0.059
 6016SOL    HW218948   0.365   1.490   0.139
 6017SOL     OW18949   6.488   4.778   2.562
 6017SOL    HW118950   6.443   4.858   2.522
 6017SOL    HW218951   6.438   4.695   2.536
 6018SOL     OW18952   3.416   2.236   0.607
 6018SOL    HW118953   3.378   2.181   0.533
 6018SOL    HW218954   3.470   2.311   0.567
 6019SOL     OW18955   4.995   1.431   4.146
 6019SOL    HW118956   5.063   1.468   4.083
 6019SOL    HW218957   4.924   1.500   4.161
 6020SOL     OW18958   1.381   5.971   2.357
 6020SOL    HW118959   1.381   5.973   2.257
 6020SOL    HW218960   1.458   5.917   2.389
 6021SOL     OW18961   3.612   6.975   2.623
 6021SOL    HW118962   3.601   6.897   2.684
 6021SOL    HW218963   3.646   0.028   2.674
 6022SOL     OW18964   4.189   0.900   4.697
 6022SOL    HW118965   4.160   0.892   4.602
 6022SOL    HW218966   4.199   0.809   4.736
 6023SOL     OW18967   6.034   1.256   2.857
 6023SOL    HW118968   6.011   1.187   2.788
 6023SOL    HW218969   5.949   1.291   2.898
 6024SOL     OW18970   0.660   4.391   2.771
 6024SOL    HW118971   0.588   4.338   2.726
 6024SOL    HW218972   0.721   4.330   2.820
 6025SOL     OW18973   3.691   0.292   2.411
 6025SOL    HW118974   3.627   0.243   2.351
 6025SOL    HW218975   3.682   0.257   2.504
 6026SOL     OW18976   0.070   4.178   4.124
 6026SOL    HW118977   6.998   4.194   4.137
 6026SOL    HW218978   0.118   4.190   4.211
 6027SOL     OW18979   2.197   4.052   5.655
 6027SOL    HW118980   2.251   3.992   5.596
 6027SOL    HW218981   2.124   4.000   5.698
 6028SOL     OW18982   1.029   3.810   0.568
 6028SOL    HW118983   1.069   3.741   0.628
 6028SOL    HW218984   0.957   3.769   0.512
 6029SOL     OW18985   2.271   6.262   6.051
 6029SOL    HW118986   2.284   6.181   5.994
 6029SOL    HW218987   2.301   6.242   6.144
 6030SOL     OW18988   2.527   0.257   2.905
 6030SOL    HW118989   2.577   0.341   2.885
 6030SOL    HW218990   2.585   0.195   2.958
 6031SOL     OW18991   4.065   4.860   4.146
 6031SOL    HW118992   3.979   4.863   4.197
 6031SOL    HW218993   4.046   4.873   4.048
 6032SOL     OW18994   1.822   3.654   2.855
 6032SOL    HW118995   1.886   3.693   2.789
 6032SOL    HW218996   1.832   3.699   2.943
 6033SOL     OW18997   2.872   2.213   2.691
 6033SOL    HW118998   2.859   2.116   2.670
 6033SOL    HW218999   2.835   2.269   2.617
 6034SOL     OW19000   1.697   5.917   4.961
 6034SOL    HW119001   1.777   5.950   5.011
 6034SOL    HW219002   1.719   5.907   4.864
 6035SOL     OW19003   6.042   1.583   3.685
 6035SOL    HW119004   6.016   1.566   3.780
 6035SOL    HW219005   5.960   1.578   3.627
 6036SOL     OW19006   0.147   6.715   4.307
 6036SOL    HW119007   0.188   6.697   4.217
 6036SOL    HW219008   0.088   6.795   4.301
 6037SOL     OW19009   4.691   5.166   6.683
 6037SOL    HW119010   4.760   5.239   6.691
 6037SOL    HW219011   4.623   5.192   6.615
 6038SOL     OW19012   1.453   3.724   6.221
 6038SOL    HW119013   1.505   3.639   6.212
 6038SOL    HW219014   1.435   3.762   6.130
 6039SOL     OW19015   3.265   3.472   3.440
 6039SOL    HW119016   3.184   3.466   3.382
 6039SOL    HW219017   3.238   3.493   3.534
 6040SOL     OW19018   0.426   2.102   6.597
 6040SOL    HW119019   0.443   2.145   6.686
 6040SOL    HW219020   0.358   2.030   6.608
 6041SOL     OW19021   1.648   1.290   5.530
 6041SOL    HW119022   1.720   1.234   5.490
 6041SOL    HW219023   1.560   1.266   5.488
 6042SOL     OW19024   5.463   5.442   1.841
 6042SOL    HW119025   5.419   5.503   1.775
 6042SOL    HW219026   5.407   5.435   1.923
 6043SOL     OW19027   1.103   5.016   5.062
 6043SOL    HW119028   1.101   5.045   4.966
 6043SOL    HW219029   1.025   5.057   5.110
 6044SOL     OW19030   1.380   2.259   1.275
 6044SOL    HW119031   1.417   2.352   1.278
 6044SOL    HW219032   1.297   2.254   1.331
 6045SOL     OW19033   5.839   5.827   0.957
 6045SOL    HW119034   5.833   5.809   1.055
 6045SOL    HW219035   5.748   5.823   0.916
 6046SOL     OW19036   2.614   2.276   0.917
 6046SOL    HW119037   2.637   2.318   0.830
 6046SOL    HW219038   2.516   2.289   0.936
 6047SOL     OW19039   6.610   1.503   2.914
 6047SOL    HW119040   6.543   1.569   2.948
 6047SOL    HW219041   6.565   1.441   2.850
 6048SOL     OW19042   4.886   6.390   3.203
 6048SOL    HW119043   4.867   6.293   3.185
 6048SOL    HW219044   4.800   6.440   3.211
 6049SOL     OW19045   5.097   3.654   6.100
 6049SOL    HW119046   5.113   3.564   6.061
 6049SOL    HW219047   5.011   3.691   6.064
 6050SOL     OW19048   3.680   4.024   5.813
 6050SOL    HW119049   3.590   3.986   5.832
 6050SOL    HW219050   3.672   4.096   5.744
 6051SOL     OW19051   3.019   2.249   4.040
 6051SOL    HW119052   3.055   2.263   3.948
 6051SOL    HW219053   3.086   2.200   4.095
 6052SOL     OW19054   6.671   6.786   6.916
 6052SOL    HW119055   6.730   6.759   6.840
 6052SOL    HW219056   6.654   6.707   6.974
 6053SOL     OW19057   3.707   0.463   6.972
 6053SOL    HW119058   3.760   0.431   0.025
 6053SOL    HW219059   3.674   0.556   6.990
 6054SOL     OW19060   2.570   4.244   0.689
 6054SOL    HW119061   2.472   4.248   0.712
 6054SOL    HW219062   2.609   4.159   0.724
 6055SOL     OW19063   5.748   0.824   6.348
 6055SOL    HW119064   5.820   0.824   6.278
 6055SOL    HW219065   5.777   0.767   6.425
 6056SOL     OW19066   5.485   3.063   5.014
 6056SOL    HW119067   5.526   3.153   5.031
 6056SOL    HW219068   5.542   3.013   4.948
 6057SOL     OW19069   5.165   2.896   4.505
 6057SOL    HW119070   5.196   2.831   4.436
 6057SOL    HW219071   5.235   2.966   4.518
 6058SOL     OW19072   5.389   2.444   2.697
 6058SOL    HW119073   5.376   2.367   2.635
 6058SOL    HW219074   5.481   2.482   2.685
 6059SOL     OW19075   4.484   5.483   5.880
 6059SOL    HW119076   4.526   5.573   5.895
 6059SOL    HW219077   4.516   5.420   5.951
 6060SOL     OW19078   3.016   4.034   5.949
 6060SOL    HW119079   3.071   3.964   5.903
 6060SOL    HW219080   2.938   4.059   5.891
 6061SOL     OW19081   4.317   2.661   6.853
 6061SOL    HW119082   4.410   2.653   6.888
 6061SOL    HW219083   4.255   2.607   6.909
 6062SOL     OW19084   2.139   0.824   4.510
 6062SOL    HW119085   2.163   0.766   4.587
 6062SOL    HW219086   2.215   0.887   4.491
 6063SOL     OW19087   3.944   1.239   6.952
 6063SOL    HW119088   3.911   1.324   6.913
 6063SOL    HW219089   3.874   1.199   7.011
 6064SOL     OW19090   2.781   6.050   2.416
 6064SOL    HW119091   2.743   6.042   2.325
 6064SOL    HW219092   2.848   5.976   2.430
 6065SOL     OW19093   5.435   6.828   2.192
 6065SOL    HW119094   5.509   6.833   2.125
 6065SOL    HW219095   5.473   6.802   2.281
 6066SOL     OW19096   4.143   1.489   0.620
 6066SOL    HW119097   4.083   1.410   0.615
 6066SOL    HW219098   4.238   1.459   0.621
 6067SOL     OW19099   5.356   1.801   0.013
 6067SOL    HW119100   5.386   1.725   0.071
 6067SOL    HW219101   5.375   1.888   0.059
 6068SOL     OW19102   6.296   3.088   4.508
 6068SOL    HW119103   6.280   2.992   4.530
 6068SOL    HW219104   6.242   3.114   4.428
 6069SOL     OW19105   0.784   3.822   5.499
 6069SOL    HW119106   0.865   3.764   5.510
 6069SOL    HW219107   0.795   3.906   5.553
 6070SOL     OW19108   2.562   1.746   5.576
 6070SOL    HW119109   2.639   1.782   5.628
 6070SOL    HW219110   2.548   1.649   5.599
 6071SOL     OW19111   4.833   6.040   5.309
 6071SOL    HW119112   4.774   5.984   5.251
 6071SOL    HW219113   4.777   6.111   5.352
 6072SOL     OW19114   0.744   0.885   1.850
 6072SOL    HW119115   0.767   0.848   1.760
 6072SOL    HW219116   0.789   0.973   1.863
 6073SOL     OW19117   6.710   3.819   0.650
 6073SOL    HW119118   6.611   3.810   0.641
 6073SOL    HW219119   6.749   3.735   0.687
 6074SOL     OW19120   0.790   6.667   4.534
 6074SOL    HW119121   0.814   6.698   4.442
 6074SOL    HW219122   0.838   6.724   4.601
 6075SOL     OW19123   0.104   2.232   6.141
 6075SOL    HW119124   0.167   2.284   6.199
 6075SOL    HW219125   0.011   2.242   6.176
 6076SOL     OW19126   2.300   6.150   5.183
 6076SOL    HW119127   2.288   6.228   5.244
 6076SOL    HW219128   2.397   6.124   5.179
 6077SOL     OW19129   5.265   5.401   2.028
 6077SOL    HW119130   5.288   5.304   2.013
 6077SOL    HW219131   5.179   5.407   2.078
 6078SOL     OW19132   4.019   4.932   2.015
 6078SOL    HW119133   4.047   4.933   2.111
 6078SOL    HW219134   4.053   4.848   1.971
 6079SOL     OW19135   3.097   3.355   6.657
 6079SOL    HW119136   3.036   3.379   6.733
 6079SOL    HW219137   3.047   3.358   6.571
 6080SOL     OW19138   0.630   1.385   1.897
 6080SOL    HW119139   0.585   1.325   1.832
 6080SOL    HW219140   0.618   1.349   1.990
 6081SOL     OW19141   6.170   3.711   4.869
 6081SOL    HW119142   6.198   3.804   4.892
 6081SOL    HW219143   6.075   3.697   4.896
 6082SOL     OW19144   3.853   1.593   3.588
 6082SOL    HW119145   3.788   1.528   3.549
 6082SOL    HW219146   3.877   1.563   3.681
 6083SOL     OW19147   1.098   5.752   6.183
 6083SOL    HW119148   1.039   5.684   6.139
 6083SOL    HW219149   1.041   5.827   6.219
 6084SOL     OW19150   6.980   5.629   3.958
 6084SOL    HW119151   6.905   5.613   3.893
 6084SOL    HW219152   6.968   5.571   4.038
 6085SOL     OW19153   0.172   4.384   0.348
 6085SOL    HW119154   0.107   4.367   0.423
 6085SOL    HW219155   0.200   4.296   0.308
 6086SOL     OW19156   3.488   1.418   5.448
 6086SOL    HW119157   3.534   1.505   5.433
 6086SOL    HW219158   3.389   1.432   5.447
 6087SOL     OW19159   5.225   6.851   0.162
 6087SOL    HW119160   5.307   6.881   0.210
 6087SOL    HW219161   5.222   6.751   0.162
 6088SOL     OW19162   6.755   6.126   4.798
 6088SOL    HW119163   6.817   6.051   4.823
 6088SOL    HW219164   6.695   6.097   4.724
 6089SOL     OW19165   0.258   3.740   1.544
 6089SOL    HW119166   0.245   3.674   1.471
 6089SOL    HW219167   0.197   3.818   1.530
 6090SOL     OW19168   1.503   6.356   6.029
 6090SOL    HW119169   1.488   6.410   5.946
 6090SOL    HW219170   1.485   6.260   6.010
 6091SOL     OW19171   0.973   1.394   2.388
 6091SOL    HW119172   0.880   1.424   2.371
 6091SOL    HW219173   0.972   1.312   2.444
 6092SOL     OW19174   2.503   0.498   3.158
 6092SOL    HW119175   2.573   0.438   3.196
 6092SOL    HW219176   2.420   0.446   3.140
 6093SOL     OW19177   1.288   2.650   2.717
 6093SOL    HW119178   1.386   2.666   2.727
 6093SOL    HW219179   1.238   2.734   2.740
 6094SOL     OW19180   3.291   1.391   0.936
 6094SOL    HW119181   3.335   1.304   0.960
 6094SOL    HW219182   3.207   1.373   0.887
 6095SOL     OW19183   4.818   2.385   0.130
 6095SOL    HW119184   4.910   2.347   0.138
 6095SOL    HW219185   4.815   2.450   0.054
 6096SOL     OW19186   5.681   0.392   4.619
 6096SOL    HW119187   5.622   0.398   4.538
 6096SOL    HW219188   5.776   0.395   4.590
 6097SOL     OW19189   1.421   0.350   2.178
 6097SOL    HW119190   1.497   0.322   2.237
 6097SOL    HW219191   1.394   0.272   2.120
 6098SOL     OW19192   1.140   2.406   5.638
 6098SOL    HW119193   1.082   2.331   5.604
 6098SOL    HW219194   1.082   2.485   5.657
 6099SOL     OW19195   6.016   5.649   6.645
 6099SOL    HW119196   6.090   5.626   6.583
 6099SOL    HW219197   5.956   5.570   6.657
 6100SOL     OW19198   5.609   2.960   6.606
 6100SOL    HW119199   5.670   2.914   6.671
 6100SOL    HW219200   5.663   3.011   6.539
 6101SOL     OW19201   6.318   1.520   5.664
 6101SOL    HW119202   6.385   1.552   5.596
 6101SOL    HW219203   6.233   1.497   5.618
 6102SOL     OW19204   4.132   0.730   4.019
 6102SOL    HW119205   4.034   0.717   4.030
 6102SOL    HW219206   4.155   0.730   3.921
 6103SOL     OW19207   6.923   1.346   3.774
 6103SOL    HW119208   7.014   1.382   3.760
 6103SOL    HW219209   6.929   1.258   3.822
 6104SOL     OW19210   6.494   2.003   6.091
 6104SOL    HW119211   6.449   1.996   6.003
 6104SOL    HW219212   6.548   1.921   6.109
 6105SOL     OW19213   3.002   6.830   5.701
 6105SOL    HW119214   2.919   6.855   5.751
 6105SOL    HW219215   3.075   6.895   5.723
 6106SOL     OW19216   1.429   5.053   5.834
 6106SOL    HW119217   1.510   5.103   5.864
 6106SOL    HW219218   1.440   5.027   5.738
 6107SOL     OW19219   2.663   5.430   4.405
 6107SOL    HW119220   2.717   5.501   4.451
 6107SOL    HW219221   2.568   5.438   4.433
 6108SOL     OW19222   0.994   2.265   3.440
 6108SOL    HW119223   1.053   2.237   3.515
 6108SOL    HW219224   1.049   2.296   3.363
 6109SOL     OW19225   5.326   3.056   6.892
 6109SOL    HW119226   5.392   3.106   6.836
 6109SOL    HW219227   5.371   2.977   6.934
 6110SOL     OW19228   3.427   2.969   6.885
 6110SOL    HW119229   3.502   2.962   6.818
 6110SOL    HW219230   3.340   2.963   6.837
 6111SOL     OW19231   1.892   4.963   2.466
 6111SOL    HW119232   1.846   4.886   2.423
 6111SOL    HW219233   1.989   4.961   2.443
 6112SOL     OW19234   3.103   1.556   3.075
 6112SOL    HW119235   3.155   1.494   3.134
 6112SOL    HW219236   3.022   1.508   3.041
 6113SOL     OW19237   0.357   0.955   6.368
 6113SOL    HW119238   0.399   1.045   6.357
 6113SOL    HW219239   0.410   0.888   6.315
 6114SOL     OW19240   5.388   4.413   0.940
 6114SOL    HW119241   5.291   4.394   0.954
 6114SOL    HW219242   5.428   4.342   0.883
 6115SOL     OW19243   5.347   5.965   2.598
 6115SOL    HW119244   5.320   5.923   2.685
 6115SOL    HW219245   5.429   6.019   2.612
 6116SOL     OW19246   2.683   1.292   1.497
 6116SOL    HW119247   2.702   1.371   1.438
 6116SOL    HW219248   2.752   1.287   1.569
 6117SOL     OW19249   0.026   0.581   5.402
 6117SOL    HW119250   0.011   0.489   5.437
 6117SOL    HW219251   0.026   0.580   5.302
 6118SOL     OW19252   7.011   1.460   2.003
 6118SOL    HW119253   6.964   1.466   2.091
 6118SOL    HW219254   0.074   1.416   2.016
 6119SOL     OW19255   0.090   3.926   4.050
 6119SOL    HW119256   0.160   3.901   3.984
 6119SOL    HW219257   0.070   4.024   4.042
 6120SOL     OW19258   3.396   6.996   3.351
 6120SOL    HW119259   3.443   6.954   3.429
 6120SOL    HW219260   3.423   6.949   3.267
 6121SOL     OW19261   6.888   2.479   3.955
 6121SOL    HW119262   6.877   2.574   3.927
 6121SOL    HW219263   6.985   2.454   3.953
 6122SOL     OW19264   3.046   6.507   2.015
 6122SOL    HW119265   3.025   6.495   1.918
 6122SOL    HW219266   2.986   6.449   2.070
 6123SOL     OW19267   6.655   0.484   0.735
 6123SOL    HW119268   6.750   0.498   0.765
 6123SOL    HW219269   6.655   0.445   0.643
 6124SOL     OW19270   3.437   0.314   5.404
 6124SOL    HW119271   3.475   0.393   5.453
 6124SOL    HW219272   3.340   0.303   5.430
 6125SOL     OW19273   2.360   6.063   0.905
 6125SOL    HW119274   2.442   6.022   0.942
 6125SOL    HW219275   2.360   6.054   0.805
 6126SOL     OW19276   5.789   6.291   4.230
 6126SOL    HW119277   5.849   6.216   4.259
 6126SOL    HW219278   5.701   6.282   4.277
 6127SOL     OW19279   2.099   6.849   1.784
 6127SOL    HW119280   2.099   6.940   1.826
 6127SOL    HW219281   2.171   6.844   1.715
 6128SOL     OW19282   6.778   3.151   0.441
 6128SOL    HW119283   6.765   3.228   0.502
 6128SOL    HW219284   6.876   3.134   0.430
 6129SOL     OW19285   6.173   4.498   3.544
 6129SOL    HW119286   6.192   4.589   3.506
 6129SOL    HW219287   6.112   4.449   3.482
 6130SOL     OW19288   6.421   2.305   4.195
 6130SOL    HW119289   6.485   2.332   4.124
 6130SOL    HW219290   6.336   2.357   4.185
 6131SOL     OW19291   6.942   1.447   5.718
 6131SOL    HW119292   6.982   1.522   5.665
 6131SOL    HW219293   6.973   1.360   5.681
 6132SOL     OW19294   4.569   0.713   0.793
 6132SOL    HW119295   4.545   0.777   0.720
 6132SOL    HW219296   4.618   0.762   0.865
 6133SOL     OW19297   0.928   2.337   2.585
 6133SOL    HW119298   0.846   2.293   2.622
 6133SOL    HW219299   0.985   2.268   2.541
 6134SOL     OW19300   4.053   3.625   6.771
 6134SOL    HW119301   4.033   3.534   6.809
 6134SOL    HW219302   4.014   3.631   6.679
 6135SOL     OW19303   6.578   6.554   2.535
 6135SOL    HW119304   6.539   6.594   2.452
 6135SOL    HW219305   6.611   6.626   2.596
 6136SOL     OW19306   0.654   1.912   2.510
 6136SOL    HW119307   0.708   1.928   2.592
 6136SOL    HW219308   0.657   1.992   2.451
 6137SOL     OW19309   4.094   0.890   5.347
 6137SOL    HW119310   4.181   0.890   5.396
 6137SOL    HW219311   4.105   0.843   5.259
 6138SOL     OW19312   3.483   6.616   2.659
 6138SOL    HW119313   3.486   6.517   2.652
 6138SOL    HW219314   3.508   6.657   2.571
 6139SOL     OW19315   2.109   3.262   4.403
 6139SOL    HW119316   2.123   3.360   4.413
 6139SOL    HW219317   2.117   3.236   4.307
 6140SOL     OW19318   0.922   5.875   1.314
 6140SOL    HW119319   0.930   5.842   1.408
 6140SOL    HW219320   1.009   5.917   1.287
 6141SOL     OW19321   5.574   5.863   5.287
 6141SOL    HW119322   5.529   5.921   5.220
 6141SOL    HW219323   5.660   5.827   5.249
 6142SOL     OW19324   0.103   5.060   0.759
 6142SOL    HW119325   0.062   4.980   0.717
 6142SOL    HW219326   0.150   5.034   0.843
 6143SOL     OW19327   6.103   5.296   6.661
 6143SOL    HW119328   6.105   5.354   6.743
 6143SOL    HW219329   6.197   5.279   6.630
 6144SOL     OW19330   6.769   4.763   2.288
 6144SOL    HW119331   6.812   4.730   2.204
 6144SOL    HW219332   6.669   4.758   2.278
 6145SOL     OW19333   4.476   6.318   3.637
 6145SOL    HW119334   4.448   6.250   3.705
 6145SOL    HW219335   4.575   6.315   3.625
 6146SOL     OW19336   4.271   1.235   3.269
 6146SOL    HW119337   4.288   1.139   3.293
 6146SOL    HW219338   4.264   1.289   3.352
 6147SOL     OW19339   1.817   3.941   3.602
 6147SOL    HW119340   1.841   3.964   3.696
 6147SOL    HW219341   1.811   3.841   3.592
 6148SOL     OW19342   6.970   0.344   5.145
 6148SOL    HW119343   6.989   0.260   5.095
 6148SOL    HW219344   6.899   0.327   5.214
 6149SOL     OW19345   3.751   4.975   3.222
 6149SOL    HW119346   3.822   4.998   3.156
 6149SOL    HW219347   3.666   4.954   3.174
 6150SOL     OW19348   4.156   5.032   6.645
 6150SOL    HW119349   4.122   4.969   6.715
 6150SOL    HW219350   4.223   5.094   6.687
 6151SOL     OW19351   6.664   4.043   4.465
 6151SOL    HW119352   6.638   4.007   4.375
 6151SOL    HW219353   6.597   4.112   4.493
 6152SOL     OW19354   5.468   4.440   5.292
 6152SOL    HW119355   5.402   4.386   5.345
 6152SOL    HW219356   5.486   4.394   5.205
 6153SOL     OW19357   4.757   3.864   1.521
 6153SOL    HW119358   4.683   3.801   1.544
 6153SOL    HW219359   4.719   3.944   1.474
 6154SOL     OW19360   5.051   1.416   2.018
 6154SOL    HW119361   5.051   1.326   1.974
 6154SOL    HW219362   4.985   1.475   1.971
 6155SOL     OW19363   1.760   2.644   3.890
 6155SOL    HW119364   1.696   2.721   3.890
 6155SOL    HW219365   1.756   2.598   3.802
 6156SOL     OW19366   4.507   5.309   2.409
 6156SOL    HW119367   4.526   5.307   2.310
 6156SOL    HW219368   4.581   5.263   2.458
 6157SOL     OW19369   1.451   1.655   4.214
 6157SOL    HW119370   1.374   1.611   4.261
 6157SOL    HW219371   1.502   1.712   4.279
 6158SOL     OW19372   4.864   0.764   6.677
 6158SOL    HW119373   4.802   0.772   6.600
 6158SOL    HW219374   4.906   0.853   6.696
 6159SOL     OW19375   4.507   1.719   0.524
 6159SOL    HW119376   4.534   1.732   0.429
 6159SOL    HW219377   4.408   1.712   0.530
 6160SOL     OW19378   5.604   5.846   0.818
 6160SOL    HW119379   5.631   5.922   0.758
 6160SOL    HW219380   5.564   5.773   0.763
 6161SOL     OW19381   5.831   1.797   6.182
 6161SOL    HW119382   5.747   1.807   6.130
 6161SOL    HW219383   5.814   1.742   6.264
 6162SOL     OW19384   0.913   5.363   4.572
 6162SOL    HW119385   0.904   5.264   4.558
 6162SOL    HW219386   0.822   5.405   4.570
 6163SOL     OW19387   5.700   5.670   1.545
 6163SOL    HW119388   5.713   5.657   1.643
 6163SOL    HW219389   5.743   5.594   1.496
 6164SOL     OW19390   2.067   3.312   1.552
 6164SOL    HW119391   2.141   3.259   1.510
 6164SOL    HW219392   2.035   3.265   1.635
 6165SOL     OW19393   3.316   6.878   6.839
 6165SOL    HW119394   3.358   6.963   6.868
 6165SOL    HW219395   3.387   6.811   6.818
 6166SOL     OW19396   3.849   0.669   5.055
 6166SOL    HW119397   3.841   0.712   5.144
 6166SOL    HW219398   3.813   0.730   4.984
 6167SOL     OW19399   6.927   4.484   2.088
 6167SOL    HW119400   6.999   4.502   2.154
 6167SOL    HW219401   6.961   4.421   2.018
 6168SOL     OW19402   0.146   3.825   0.728
 6168SOL    HW119403   0.115   3.761   0.798
 6168SOL    HW219404   0.186   3.906   0.773
 6169SOL     OW19405   0.984   3.212   2.226
 6169SOL    HW119406   0.906   3.275   2.227
 6169SOL    HW219407   0.963   3.134   2.167
 6170SOL     OW19408   0.897   3.124   5.072
 6170SOL    HW119409   0.980   3.076   5.043
 6170SOL    HW219410   0.889   3.120   5.171
 6171SOL     OW19411   0.696   1.717   0.453
 6171SOL    HW119412   0.742   1.806   0.453
 6171SOL    HW219413   0.762   1.646   0.479
 6172SOL     OW19414   1.512   2.673   2.355
 6172SOL    HW119415   1.515   2.574   2.365
 6172SOL    HW219416   1.591   2.704   2.302
 6173SOL     OW19417   6.321   5.592   3.149
 6173SOL    HW119418   6.372   5.676   3.166
 6173SOL    HW219419   6.327   5.533   3.229
 6174SOL     OW19420   4.348   5.078   3.604
 6174SOL    HW119421   4.273   5.059   3.541
 6174SOL    HW219422   4.371   5.175   3.602
 6175SOL     OW19423   3.592   0.889   4.422
 6175SOL    HW119424   3.676   0.872   4.474
 6175SOL    HW219425   3.611   0.951   4.346
 6176SOL     OW19426   4.330   3.591   5.280
 6176SOL    HW119427   4.414   3.601   5.226
 6176SOL    HW219428   4.340   3.515   5.344
 6177SOL     OW19429   4.959   1.819   1.779
 6177SOL    HW119430   5.035   1.831   1.714
 6177SOL    HW219431   4.882   1.877   1.752
 6178SOL     OW19432   4.847   3.854   1.990
 6178SOL    HW119433   4.870   3.763   1.954
 6178SOL    HW219434   4.797   3.905   1.919
 6179SOL     OW19435   6.711   4.562   1.538
 6179SOL    HW119436   6.706   4.522   1.446
 6179SOL    HW219437   6.785   4.518   1.589
 6180SOL     OW19438   3.476   4.628   0.372
 6180SOL    HW119439   3.521   4.695   0.431
 6180SOL    HW219440   3.459   4.669   0.282
 6181SOL     OW19441   4.671   6.437   6.097
 6181SOL    HW119442   4.739   6.410   6.030
 6181SOL    HW219443   4.680   6.380   6.179
 6182SOL     OW19444   4.623   2.128   6.674
 6182SOL    HW119445   4.555   2.124   6.601
 6182SOL    HW219446   4.712   2.150   6.634
 6183SOL     OW19447   1.859   2.183   1.705
 6183SOL    HW119448   1.814   2.193   1.616
 6183SOL    HW219449   1.956   2.161   1.691
 6184SOL     OW19450   3.097   0.283   6.098
 6184SOL    HW119451   3.196   0.289   6.090
 6184SOL    HW219452   3.071   0.187   6.106
 6185SOL     OW19453   2.472   4.190   5.818
 6185SOL    HW119454   2.482   4.200   5.719
 6185SOL    HW219455   2.386   4.233   5.847
 6186SOL     OW19456   6.831   1.160   1.650
 6186SOL    HW119457   6.834   1.225   1.574
 6186SOL    HW219458   6.881   1.198   1.728
 6187SOL     OW19459   4.577   2.814   5.141
 6187SOL    HW119460   4.561   2.736   5.081
 6187SOL    HW219461   4.675   2.825   5.158
 6188SOL     OW19462   1.669   1.793   5.464
 6188SOL    HW119463   1.734   1.719   5.481
 6188SOL    HW219464   1.706   1.879   5.496
 6189SOL     OW19465   3.843   5.751   2.626
 6189SOL    HW119466   3.892   5.735   2.540
 6189SOL    HW219467   3.903   5.729   2.703
 6190SOL     OW19468   6.410   2.871   5.425
 6190SOL    HW119469   6.498   2.897   5.465
 6190SOL    HW219470   6.336   2.898   5.487
 6191SOL     OW19471   2.512   2.830   5.631
 6191SOL    HW119472   2.573   2.823   5.551
 6191SOL    HW219473   2.441   2.898   5.612
 6192SOL     OW19474   2.242   2.292   6.279
 6192SOL    HW119475   2.299   2.219   6.240
 6192SOL    HW219476   2.251   2.375   6.224
 6193SOL     OW19477   4.731   5.880   0.721
 6193SOL    HW119478   4.783   5.935   0.656
 6193SOL    HW219479   4.769   5.788   0.725
 6194SOL     OW19480   6.388   0.555   6.373
 6194SOL    HW119481   6.488   0.558   6.370
 6194SOL    HW219482   6.353   0.641   6.411
 6195SOL     OW19483   5.791   6.536   5.001
 6195SOL    HW119484   5.853   6.509   4.928
 6195SOL    HW219485   5.747   6.455   5.039
 6196SOL     OW19486   4.674   4.773   2.916
 6196SOL    HW119487   4.680   4.673   2.908
 6196SOL    HW219488   4.589   4.805   2.874
 6197SOL     OW19489   2.394   4.955   2.759
 6197SOL    HW119490   2.396   4.880   2.692
 6197SOL    HW219491   2.394   5.043   2.711
 6198SOL     OW19492   5.354   6.267   6.995
 6198SOL    HW119493   5.429   6.204   6.977
 6198SOL    HW219494   5.270   6.215   7.011
 6199SOL     OW19495   0.352   0.714   0.317
 6199SOL    HW119496   0.390   0.685   0.229
 6199SOL    HW219497   0.406   0.790   0.353
 6200SOL     OW19498   0.741   1.313   2.878
 6200SOL    HW119499   0.838   1.304   2.901
 6200SOL    HW219500   0.687   1.254   2.938
 6201SOL     OW19501   0.643   4.035   4.192
 6201SOL    HW119502   0.712   3.971   4.226
 6201SOL    HW219503   0.639   4.029   4.092
 6202SOL     OW19504   5.944   1.651   3.074
 6202SOL    HW119505   5.987   1.740   3.062
 6202SOL    HW219506   5.845   1.661   3.070
 6203SOL     OW19507   6.351   5.363   2.144
 6203SOL    HW119508   6.317   5.400   2.058
 6203SOL    HW219509   6.439   5.318   2.129
 6204SOL     OW19510   1.039   6.220   5.074
 6204SOL    HW119511   1.105   6.292   5.094
 6204SOL    HW219512   1.052   6.144   5.137
 6205SOL     OW19513   5.199   4.639   1.909
 6205SOL    HW119514   5.185   4.576   1.832
 6205SOL    HW219515   5.111   4.661   1.950
 6206SOL     OW19516   4.935   2.367   3.407
 6206SOL    HW119517   4.903   2.422   3.483
 6206SOL    HW219518   5.016   2.315   3.435
 6207SOL     OW19519   1.600   6.152   4.761
 6207SOL    HW119520   1.681   6.178   4.813
 6207SOL    HW219521   1.531   6.114   4.823
 6208SOL     OW19522   3.253   2.110   5.693
 6208SOL    HW119523   3.204   2.190   5.658
 6208SOL    HW219524   3.325   2.085   5.628
 6209SOL     OW19525   3.549   4.495   0.924
 6209SOL    HW119526   3.607   4.531   0.851
 6209SOL    HW219527   3.453   4.497   0.894
 6210SOL     OW19528   5.389   3.604   2.690
 6210SOL    HW119529   5.428   3.667   2.757
 6210SOL    HW219530   5.383   3.513   2.729
 6211SOL     OW19531   4.196   5.979   5.942
 6211SOL    HW119532   4.248   5.899   5.970
 6211SOL    HW219533   4.100   5.955   5.930
 6212SOL     OW19534   2.587   4.539   4.256
 6212SOL    HW119535   2.605   4.441   4.266
 6212SOL    HW219536   2.585   4.564   4.159
 6213SOL     OW19537   4.896   6.566   0.665
 6213SOL    HW119538   4.961   6.614   0.606
 6213SOL    HW219539   4.939   6.485   0.704
 6214SOL     OW19540   5.212   5.678   6.096
 6214SOL    HW119541   5.270   5.757   6.074
 6214SOL    HW219542   5.117   5.701   6.077
 6215SOL     OW19543   4.644   3.113   6.430
 6215SOL    HW119544   4.549   3.107   6.397
 6215SOL    HW219545   4.686   3.023   6.425
 6216SOL     OW19546   6.252   2.873   3.377
 6216SOL    HW119547   6.256   2.882   3.477
 6216SOL    HW219548   6.313   2.801   3.347
 6217SOL     OW19549   0.766   4.861   2.096
 6217SOL    HW119550   0.669   4.845   2.078
 6217SOL    HW219551   0.807   4.779   2.136
 6218SOL     OW19552   4.271   6.509   0.347
 6218SOL    HW119553   4.303   6.449   0.273
 6218SOL    HW219554   4.288   6.604   0.322
 6219SOL     OW19555   1.707   0.753   5.112
 6219SOL    HW119556   1.792   0.716   5.149
 6219SOL    HW219557   1.684   0.705   5.028
 6220SOL     OW19558   3.244   1.197   0.186
 6220SOL    HW119559   3.225   1.116   0.242
 6220SOL    HW219560   3.188   1.194   0.103
 6221SOL     OW19561   6.288   6.590   6.805
 6221SOL    HW119562   6.216   6.615   6.869
 6221SOL    HW219563   6.346   6.520   6.847
 6222SOL     OW19564   5.915   0.701   2.383
 6222SOL    HW119565   5.866   0.744   2.307
 6222SOL    HW219566   5.858   0.704   2.465
 6223SOL     OW19567   0.647   4.947   3.841
 6223SOL    HW119568   0.651   4.863   3.894
 6223SOL    HW219569   0.739   4.985   3.832
 6224SOL     OW19570   4.354   0.853   6.181
 6224SOL    HW119571   4.405   0.937   6.198
 6224SOL    HW219572   4.415   0.784   6.142
 6225SOL     OW19573   3.939   1.327   6.326
 6225SOL    HW119574   3.966   1.396   6.259
 6225SOL    HW219575   4.021   1.289   6.370
 6226SOL     OW19576   1.371   1.385   4.056
 6226SOL    HW119577   1.277   1.399   4.087
 6226SOL    HW219578   1.432   1.377   4.135
 6227SOL     OW19579   2.984   4.392   5.329
 6227SOL    HW119580   2.928   4.447   5.267
 6227SOL    HW219581   3.030   4.320   5.277
 6228SOL     OW19582   1.313   2.223   4.026
 6228SOL    HW119583   1.303   2.220   4.126
 6228SOL    HW219584   1.365   2.143   3.996
 6229SOL     OW19585   7.021   3.015   5.110
 6229SOL    HW119586   6.952   2.991   5.041
 6229SOL    HW219587   0.044   3.098   5.081
 6230SOL     OW19588   0.963   1.597   3.212
 6230SOL    HW119589   0.917   1.637   3.133
 6230SOL    HW219590   0.935   1.644   3.295
 6231SOL     OW19591   5.331   5.004   0.285
 6231SOL    HW119592   5.341   5.104   0.288
 6231SOL    HW219593   5.249   4.981   0.233
 6232SOL     OW19594   5.977   0.820   0.821
 6232SOL    HW119595   5.952   0.782   0.732
 6232SOL    HW219596   6.002   0.917   0.809
 6233SOL     OW19597   0.267   3.311   1.841
 6233SOL    HW119598   0.245   3.344   1.749
 6233SOL    HW219599   0.363   3.285   1.845
 6234SOL     OW19600   0.206   0.455   5.157
 6234SOL    HW119601   0.118   0.422   5.192
 6234SOL    HW219602   0.199   0.466   5.058
 6235SOL     OW19603   7.014   0.484   2.147
 6235SOL    HW119604   0.009   0.390   2.121
 6235SOL    HW219605   0.068   0.525   2.192
 6236SOL     OW19606   7.013   4.324   0.541
 6236SOL    HW119607   7.020   4.226   0.558
 6236SOL    HW219608   6.937   4.362   0.594
 6237SOL     OW19609   3.614   0.010   0.485
 6237SOL    HW119610   3.635   6.967   0.414
 6237SOL    HW219611   3.520   7.024   0.515
 6238SOL     OW19612   3.545   6.873   3.571
 6238SOL    HW119613   3.621   6.877   3.635
 6238SOL    HW219614   3.489   6.792   3.589
 6239SOL     OW19615   3.438   6.736   1.741
 6239SOL    HW119616   3.353   6.765   1.696
 6239SOL    HW219617   3.417   6.667   1.810
 6240SOL     OW19618   3.147   4.102   4.900
 6240SOL    HW119619   3.234   4.109   4.851
 6240SOL    HW219620   3.126   4.191   4.942
 6241SOL     OW19621   3.766   0.309   4.027
 6241SOL    HW119622   3.862   0.321   4.049
 6241SOL    HW219623   3.756   0.296   3.928
 6242SOL     OW19624   2.315   2.060   3.137
 6242SOL    HW119625   2.260   2.141   3.157
 6242SOL    HW219626   2.331   2.009   3.222
 6243SOL     OW19627   6.498   0.753   5.541
 6243SOL    HW119628   6.590   0.715   5.534
 6243SOL    HW219629   6.472   0.793   5.453
 6244SOL     OW19630   5.355   4.067   2.470
 6244SOL    HW119631   5.429   4.098   2.411
 6244SOL    HW219632   5.394   4.032   2.556
 6245SOL     OW19633   1.114   5.249   1.945
 6245SOL    HW119634   1.091   5.157   1.914
 6245SOL    HW219635   1.070   5.266   2.033
 6246SOL     OW19636   1.194   6.869   4.332
 6246SOL    HW119637   1.211   6.772   4.315
 6246SOL    HW219638   1.135   6.906   4.259
 6247SOL     OW19639   1.215   5.223   3.436
 6247SOL    HW119640   1.304   5.185   3.464
 6247SOL    HW219641   1.183   5.174   3.355
 6248SOL     OW19642   3.727   3.395   6.817
 6248SOL    HW119643   3.683   3.361   6.733
 6248SOL    HW219644   3.822   3.363   6.819
 6249SOL     OW19645   0.038   2.648   1.504
 6249SOL    HW119646   7.005   2.710   1.556
 6249SOL    HW219647   0.125   2.692   1.484
 6250SOL     OW19648   0.233   6.886   0.519
 6250SOL    HW119649   0.136   6.894   0.496
 6250SOL    HW219650   0.271   6.976   0.539
 6251SOL     OW19651   3.698   6.108   4.636
 6251SOL    HW119652   3.708   6.130   4.539
 6251SOL    HW219653   3.696   6.009   4.649
 6252SOL     OW19654   2.534   5.094   0.105
 6252SOL    HW119655   2.445   5.063   0.073
 6252SOL    HW219656   2.533   5.193   0.117
 6253SOL     OW19657   2.584   4.893   4.513
 6253SOL    HW119658   2.529   4.825   4.464
 6253SOL    HW219659   2.581   4.980   4.466
 6254SOL     OW19660   1.122   5.972   0.865
 6254SOL    HW119661   1.086   5.975   0.772
 6254SOL    HW219662   1.048   5.950   0.929
 6255SOL     OW19663   1.825   2.783   1.179
 6255SOL    HW119664   1.883   2.723   1.236
 6255SOL    HW219665   1.746   2.812   1.232
 6256SOL     OW19666   4.489   5.596   2.415
 6256SOL    HW119667   4.449   5.646   2.491
 6256SOL    HW219668   4.487   5.498   2.433
 6257SOL     OW19669   4.229   3.443   0.499
 6257SOL    HW119670   4.230   3.355   0.450
 6257SOL    HW219671   4.307   3.498   0.469
 6258SOL     OW19672   3.899   6.936   5.580
 6258SOL    HW119673   3.827   6.874   5.611
 6258SOL    HW219674   3.908   6.929   5.481
 6259SOL     OW19675   1.095   1.555   5.763
 6259SOL    HW119676   1.116   1.515   5.852
 6259SOL    HW219677   1.129   1.649   5.760
 6260SOL     OW19678   1.711   0.671   0.655
 6260SOL    HW119679   1.755   0.589   0.693
 6260SOL    HW219680   1.754   0.752   0.694
 6261SOL     OW19681   5.114   0.191   1.680
 6261SOL    HW119682   5.189   0.255   1.689
 6261SOL    HW219683   5.052   0.221   1.608
 6262SOL     OW19684   0.012   6.242   2.756
 6262SOL    HW119685   0.100   6.198   2.773
 6262SOL    HW219686   7.019   6.244   2.658
 6263SOL     OW19687   6.994   6.875   4.712
 6263SOL    HW119688   6.919   6.905   4.771
 6263SOL    HW219689   6.958   6.821   4.637
 6264SOL     OW19690   1.164   6.810   1.088
 6264SOL    HW119691   1.258   6.806   1.125
 6264SOL    HW219692   1.167   6.794   0.990
 6265SOL     OW19693   3.972   2.607   0.872
 6265SOL    HW119694   3.941   2.669   0.799
 6265SOL    HW219695   3.893   2.558   0.909
 6266SOL     OW19696   3.445   6.463   3.116
 6266SOL    HW119697   3.448   6.526   3.038
 6266SOL    HW219698   3.516   6.393   3.105
 6267SOL     OW19699   1.038   6.686   4.863
 6267SOL    HW119700   1.032   6.748   4.785
 6267SOL    HW219701   0.947   6.651   4.886
 6268SOL     OW19702   3.634   6.939   1.988
 6268SOL    HW119703   3.711   6.992   2.023
 6268SOL    HW219704   3.667   6.871   1.923
 6269SOL     OW19705   5.939   6.007   1.396
 6269SOL    HW119706   5.855   6.055   1.424
 6269SOL    HW219707   5.997   5.993   1.476
 6270SOL     OW19708   0.601   6.737   7.002
 6270SOL    HW119709   0.683   6.703   0.022
 6270SOL    HW219710   0.524   6.675   7.020
 6271SOL     OW19711   5.623   2.416   6.662
 6271SOL    HW119712   5.541   2.384   6.709
 6271SOL    HW219713   5.612   2.408   6.563
 6272SOL     OW19714   6.704   0.434   6.805
 6272SOL    HW119715   6.641   0.362   6.777
 6272SOL    HW219716   6.797   0.409   6.780
 6273SOL     OW19717   0.522   6.179   3.091
 6273SOL    HW119718   0.450   6.243   3.119
 6273SOL    HW219719   0.604   6.230   3.066
 6274SOL     OW19720   3.047   6.766   4.362
 6274SOL    HW119721   2.951   6.742   4.376
 6274SOL    HW219722   3.067   6.853   4.408
 6275SOL     OW19723   2.639   5.942   0.377
 6275SOL    HW119724   2.715   6.007   0.373
 6275SOL    HW219725   2.673   5.851   0.352
 6276SOL     OW19726   3.791   5.830   3.646
 6276SOL    HW119727   3.770   5.759   3.713
 6276SOL    HW219728   3.890   5.838   3.635
 6277SOL     OW19729   4.763   1.990   1.429
 6277SOL    HW119730   4.826   2.064   1.452
 6277SOL    HW219731   4.777   1.913   1.490
 6278SOL     OW19732   3.530   0.528   5.533
 6278SOL    HW119733   3.455   0.595   5.531
 6278SOL    HW219734   3.584   0.540   5.616
 6279SOL     OW19735   3.385   5.677   0.504
 6279SOL    HW119736   3.338   5.606   0.556
 6279SOL    HW219737   3.411   5.641   0.414
 6280SOL     OW19738   6.867   1.680   0.103
 6280SOL    HW119739   6.875   1.581   0.113
 6280SOL    HW219740   6.840   1.702   0.009
 6281SOL     OW19741   6.002   4.300   4.439
 6281SOL    HW119742   5.935   4.274   4.509
 6281SOL    HW219743   6.033   4.394   4.455
 6282SOL     OW19744   6.657   3.563   4.855
 6282SOL    HW119745   6.665   3.623   4.935
 6282SOL    HW219746   6.564   3.569   4.818
 6283SOL     OW19747   0.784   5.468   4.929
 6283SOL    HW119748   0.800   5.532   4.853
 6283SOL    HW219749   0.717   5.508   4.991
 6284SOL     OW19750   0.689   4.746   6.679
 6284SOL    HW119751   0.667   4.844   6.685
 6284SOL    HW219752   0.606   4.695   6.656
 6285SOL     OW19753   2.081   3.724   3.611
 6285SOL    HW119754   1.987   3.713   3.578
 6285SOL    HW219755   2.128   3.636   3.606
 6286SOL     OW19756   6.916   3.649   5.153
 6286SOL    HW119757   6.828   3.684   5.120
 6286SOL    HW219758   6.952   3.582   5.087
 6287SOL     OW19759   4.313   4.302   5.613
 6287SOL    HW119760   4.409   4.273   5.616
 6287SOL    HW219761   4.267   4.271   5.697
 6288SOL     OW19762   4.248   3.667   0.259
 6288SOL    HW119763   4.203   3.734   0.319
 6288SOL    HW219764   4.214   3.576   0.279
 6289SOL     OW19765   2.473   4.134   6.777
 6289SOL    HW119766   2.521   4.102   6.694
 6289SOL    HW219767   2.399   4.071   6.798
 6290SOL     OW19768   6.383   5.295   6.639
 6290SOL    HW119769   6.365   5.353   6.719
 6290SOL    HW219770   6.426   5.350   6.568
 6291SOL     OW19771   3.452   3.323   3.064
 6291SOL    HW119772   3.457   3.321   3.164
 6291SOL    HW219773   3.544   3.318   3.026
 6292SOL     OW19774   1.712   2.370   4.673
 6292SOL    HW119775   1.720   2.429   4.593
 6292SOL    HW219776   1.802   2.352   4.712
 6293SOL     OW19777   4.714   1.644   0.727
 6293SOL    HW119778   4.681   1.608   0.815
 6293SOL    HW219779   4.640   1.641   0.660
 6294SOL     OW19780   3.420   0.660   3.685
 6294SOL    HW119781   3.512   0.640   3.716
 6294SOL    HW219782   3.393   0.592   3.616
 6295SOL     OW19783   5.152   5.113   4.866
 6295SOL    HW119784   5.159   5.022   4.825
 6295SOL    HW219785   5.120   5.178   4.798
 6296SOL     OW19786   1.061   3.895   5.887
 6296SOL    HW119787   1.118   3.928   5.812
 6296SOL    HW219788   0.968   3.929   5.876
 6297SOL     OW19789   6.053   0.333   5.122
 6297SOL    HW119790   6.075   0.241   5.093
 6297SOL    HW219791   6.013   0.331   5.214
 6298SOL     OW19792   5.986   4.448   6.729
 6298SOL    HW119793   6.015   4.511   6.802
 6298SOL    HW219794   5.993   4.354   6.762
 6299SOL     OW19795   5.535   2.497   2.391
 6299SOL    HW119796   5.473   2.575   2.396
 6299SOL    HW219797   5.482   2.413   2.403
 6300SOL     OW19798   4.450   1.097   6.199
 6300SOL    HW119799   4.373   1.142   6.246
 6300SOL    HW219800   4.527   1.089   6.262
 6301SOL     OW19801   3.055   6.885   6.684
 6301SOL    HW119802   3.128   6.890   6.752
 6301SOL    HW219803   2.977   6.835   6.721
 6302SOL     OW19804   1.964   1.774   5.566
 6302SOL    HW119805   2.052   1.727   5.555
 6302SOL    HW219806   1.896   1.710   5.602
 6303SOL     OW19807   1.102   6.817   5.728
 6303SOL    HW119808   1.075   6.906   5.691
 6303SOL    HW219809   1.064   6.744   5.671
 6304SOL     OW19810   4.064   1.683   3.391
 6304SOL    HW119811   3.999   1.656   3.321
 6304SOL    HW219812   4.018   1.690   3.479
 6305SOL     OW19813   6.387   5.971   6.376
 6305SOL    HW119814   6.325   6.046   6.353
 6305SOL    HW219815   6.357   5.928   6.461
 6306SOL     OW19816   0.435   3.813   3.586
 6306SOL    HW119817   0.415   3.826   3.684
 6306SOL    HW219818   0.398   3.725   3.557
 6307SOL     OW19819   4.138   3.679   3.961
 6307SOL    HW119820   4.123   3.726   4.048
 6307SOL    HW219821   4.092   3.590   3.963
 6308SOL     OW19822   0.281   2.174   5.514
 6308SOL    HW119823   0.195   2.218   5.491
 6308SOL    HW219824   0.275   2.076   5.495
 6309SOL     OW19825   0.361   6.641   4.106
 6309SOL    HW119826   0.356   6.572   4.034
 6309SOL    HW219827   0.434   6.619   4.170
 6310SOL     OW19828   1.483   6.955   3.194
 6310SOL    HW119829   1.396   6.972   3.149
 6310SOL    HW219830   1.522   6.869   3.162
 6311SOL     OW19831   5.117   0.899   6.779
 6311SOL    HW119832   5.131   0.873   6.683
 6311SOL    HW219833   5.066   0.984   6.784
 6312SOL     OW19834   2.537   6.930   6.417
 6312SOL    HW119835   2.538   6.906   6.514
 6312SOL    HW219836   2.519   6.849   6.362
 6313SOL     OW19837   5.615   6.632   3.557
 6313SOL    HW119838   5.622   6.602   3.461
 6313SOL    HW219839   5.567   6.720   3.560
 6314SOL     OW19840   3.326   6.794   1.337
 6314SOL    HW119841   3.253   6.807   1.404
 6314SOL    HW219842   3.400   6.859   1.356
 6315SOL     OW19843   2.079   2.721   4.640
 6315SOL    HW119844   2.148   2.649   4.649
 6315SOL    HW219845   2.124   2.807   4.617
 6316SOL     OW19846   4.875   1.965   5.872
 6316SOL    HW119847   4.921   1.877   5.862
 6316SOL    HW219848   4.937   2.029   5.917
 6317SOL     OW19849   5.333   4.506   2.706
 6317SOL    HW119850   5.305   4.599   2.680
 6317SOL    HW219851   5.254   4.446   2.703
 6318SOL     OW19852   6.202   0.246   6.912
 6318SOL    HW119853   6.201   0.177   6.984
 6318SOL    HW219854   6.294   0.253   6.874
 6319SOL     OW19855   5.831   2.601   4.978
 6319SOL    HW119856   5.925   2.616   5.006
 6319SOL    HW219857   5.826   2.520   4.919
 6320SOL     OW19858   6.773   0.489   3.675
 6320SOL    HW119859   6.828   0.430   3.616
 6320SOL    HW219860   6.832   0.559   3.716
 6321SOL     OW19861   5.241   3.133   0.644
 6321SOL    HW119862   5.305   3.057   0.639
 6321SOL    HW219863   5.183   3.122   0.725
 6322SOL     OW19864   2.672   1.963   0.622
 6322SOL    HW119865   2.710   1.971   0.530
 6322SOL    HW219866   2.603   2.035   0.636
 6323SOL     OW19867   2.418   3.471   0.996
 6323SOL    HW119868   2.396   3.387   0.947
 6323SOL    HW219869   2.334   3.522   1.016
 6324SOL     OW19870   4.387   1.383   1.217
 6324SOL    HW119871   4.375   1.360   1.120
 6324SOL    HW219872   4.341   1.469   1.237
 6325SOL     OW19873   1.997   2.742   2.391
 6325SOL    HW119874   1.999   2.660   2.333
 6325SOL    HW219875   2.055   2.728   2.471
 6326SOL     OW19876   4.693   4.734   5.559
 6326SOL    HW119877   4.714   4.826   5.592
 6326SOL    HW219878   4.596   4.714   5.575
 6327SOL     OW19879   0.479   1.653   3.598
 6327SOL    HW119880   0.388   1.643   3.558
 6327SOL    HW219881   0.471   1.696   3.688
 6328SOL     OW19882   5.302   4.212   6.372
 6328SOL    HW119883   5.229   4.188   6.436
 6328SOL    HW219884   5.388   4.224   6.422
 6329SOL     OW19885   1.235   3.022   4.888
 6329SOL    HW119886   1.206   2.957   4.817
 6329SOL    HW219887   1.307   2.981   4.943
 6330SOL     OW19888   5.764   0.852   3.339
 6330SOL    HW119889   5.692   0.878   3.275
 6330SOL    HW219890   5.736   0.876   3.432
 6331SOL     OW19891   6.570   3.108   4.791
 6331SOL    HW119892   6.476   3.136   4.772
 6331SOL    HW219893   6.621   3.185   4.830
 6332SOL     OW19894   1.690   1.615   1.637
 6332SOL    HW119895   1.784   1.591   1.611
 6332SOL    HW219896   1.676   1.713   1.622
 6333SOL     OW19897   4.735   6.904   0.201
 6333SOL    HW119898   4.700   6.997   0.213
 6333SOL    HW219899   4.828   6.909   0.163
 6334SOL     OW19900   2.499   1.609   1.908
 6334SOL    HW119901   2.435   1.676   1.947
 6334SOL    HW219902   2.576   1.657   1.866
 6335SOL     OW19903   5.296   1.094   0.953
 6335SOL    HW119904   5.371   1.144   0.910
 6335SOL    HW219905   5.297   1.111   1.052
 6336SOL     OW19906   6.886   5.058   6.578
 6336SOL    HW119907   6.857   5.067   6.482
 6336SOL    HW219908   6.915   4.964   6.595
 6337SOL     OW19909   4.300   5.334   4.970
 6337SOL    HW119910   4.279   5.246   4.927
 6337SOL    HW219911   4.385   5.370   4.932
 6338SOL     OW19912   3.121   1.860   4.479
 6338SOL    HW119913   3.205   1.898   4.518
 6338SOL    HW219914   3.111   1.891   4.384
 6339SOL     OW19915   1.036   3.408   2.519
 6339SOL    HW119916   0.970   3.359   2.462
 6339SOL    HW219917   1.109   3.345   2.546
 6340SOL     OW19918   2.501   3.990   1.629
 6340SOL    HW119919   2.419   4.048   1.629
 6340SOL    HW219920   2.507   3.941   1.543
 6341SOL     OW19921   0.716   3.373   3.454
 6341SOL    HW119922   0.754   3.412   3.370
 6341SOL    HW219923   0.619   3.353   3.441
 6342SOL     OW19924   2.928   0.980   1.521
 6342SOL    HW119925   2.922   1.077   1.543
 6342SOL    HW219926   3.022   0.957   1.493
 6343SOL     OW19927   3.230   6.636   0.056
 6343SOL    HW119928   3.166   6.607   7.010
 6343SOL    HW219929   3.185   6.629   0.146
 6344SOL     OW19930   6.098   2.555   3.830
 6344SOL    HW119931   6.129   2.589   3.741
 6344SOL    HW219932   6.040   2.623   3.874
 6345SOL     OW19933   4.923   3.245   1.613
 6345SOL    HW119934   5.003   3.213   1.664
 6345SOL    HW219935   4.840   3.222   1.662
 6346SOL     OW19936   6.967   4.252   5.400
 6346SOL    HW119937   0.031   4.295   5.395
 6346SOL    HW219938   6.935   4.230   5.307
 6347SOL     OW19939   2.631   2.269   2.127
 6347SOL    HW119940   2.592   2.221   2.049
 6347SOL    HW219941   2.723   2.302   2.102
 6348SOL     OW19942   0.426   1.809   5.823
 6348SOL    HW119943   0.520   1.833   5.847
 6348SOL    HW219944   0.419   1.798   5.724
 6349SOL     OW19945   1.484   0.335   6.973
 6349SOL    HW119946   1.521   0.428   6.966
 6349SOL    HW219947   1.433   0.313   6.889
 6350SOL     OW19948   0.884   5.152   2.679
 6350SOL    HW119949   0.910   5.130   2.773
 6350SOL    HW219950   0.786   5.168   2.674
 6351SOL     OW19951   6.056   4.544   3.803
 6351SOL    HW119952   6.090   4.509   3.715
 6351SOL    HW219953   6.047   4.469   3.868
 6352SOL     OW19954   2.663   1.194   3.746
 6352SOL    HW119955   2.664   1.292   3.723
 6352SOL    HW219956   2.732   1.147   3.693
 6353SOL     OW19957   2.177   5.049   7.009
 6353SOL    HW119958   2.126   4.972   0.020
 6353SOL    HW219959   2.256   5.015   6.958
 6354SOL     OW19960   4.734   5.456   2.719
 6354SOL    HW119961   4.773   5.381   2.772
 6354SOL    HW219962   4.635   5.448   2.716
 6355SOL     OW19963   3.194   5.538   0.670
 6355SOL    HW119964   3.126   5.563   0.740
 6355SOL    HW219965   3.148   5.510   0.587
 6356SOL     OW19966   5.087   4.933   0.200
 6356SOL    HW119967   5.091   4.836   0.225
 6356SOL    HW219968   5.027   4.944   0.121
 6357SOL     OW19969   5.889   2.562   1.260
 6357SOL    HW119970   5.910   2.486   1.198
 6357SOL    HW219971   5.826   2.531   1.331
 6358SOL     OW19972   0.958   1.774   6.902
 6358SOL    HW119973   0.862   1.771   6.872
 6358SOL    HW219974   0.982   1.867   6.927
 6359SOL     OW19975   6.266   6.949   0.620
 6359SOL    HW119976   6.262   6.888   0.541
 6359SOL    HW219977   6.361   6.961   0.649
 6360SOL     OW19978   0.116   2.882   3.863
 6360SOL    HW119979   0.183   2.918   3.798
 6360SOL    HW219980   0.129   2.925   3.952
 6361SOL     OW19981   0.511   0.364   0.368
 6361SOL    HW119982   0.552   0.335   0.282
 6361SOL    HW219983   0.411   0.369   0.357
 6362SOL     OW19984   1.314   6.250   6.437
 6362SOL    HW119985   1.396   6.253   6.380
 6362SOL    HW219986   1.235   6.275   6.382
 6363SOL     OW19987   2.556   5.274   3.489
 6363SOL    HW119988   2.613   5.356   3.495
 6363SOL    HW219989   2.585   5.209   3.559
 6364SOL     OW19990   2.189   2.554   5.039
 6364SOL    HW119991   2.237   2.605   4.969
 6364SOL    HW219992   2.206   2.456   5.028
 6365SOL     OW19993   6.258   5.378   5.015
 6365SOL    HW119994   6.274   5.459   4.959
 6365SOL    HW219995   6.225   5.304   4.957
 6366SOL     OW19996   6.346   6.643   4.655
 6366SOL    HW119997   6.408   6.683   4.722
 6366SOL    HW219998   6.338   6.704   4.576
 6367SOL     OW19999   2.888   1.926   2.656
 6367SOL    HW120000   2.966   1.876   2.619
 6367SOL    HW220001   2.814   1.926   2.589
 6368SOL     OW20002   4.680   4.423   4.172
 6368SOL    HW120003   4.773   4.389   4.182
 6368SOL    HW220004   4.634   4.423   4.261
 6369SOL     OW20005   2.141   6.150   5.695
 6369SOL    HW120006   2.055   6.101   5.684
 6369SOL    HW220007   2.181   6.128   5.785
 6370SOL     OW20008   5.031   3.856   3.181
 6370SOL    HW120009   5.121   3.843   3.138
 6370SOL    HW220010   4.985   3.768   3.189
 6371SOL     OW20011   5.588   3.494   1.876
 6371SOL    HW120012   5.609   3.474   1.781
 6371SOL    HW220013   5.539   3.581   1.883
 6372SOL     OW20014   0.529   1.085   2.950
 6372SOL    HW120015   0.518   0.988   2.925
 6372SOL    HW220016   0.567   1.092   3.042
 6373SOL     OW20017   5.641   4.171   1.543
 6373SOL    HW120018   5.665   4.154   1.447
 6373SOL    HW220019   5.592   4.091   1.579
 6374SOL     OW20020   4.484   3.253   0.172
 6374SOL    HW120021   4.539   3.323   0.218
 6374SOL    HW220022   4.414   3.219   0.235
 6375SOL     OW20023   0.951   2.647   2.051
 6375SOL    HW120024   0.989   2.610   1.966
 6375SOL    HW220025   1.011   2.622   2.127
 6376SOL     OW20026   4.406   1.270   5.819
 6376SOL    HW120027   4.435   1.361   5.790
 6376SOL    HW220028   4.377   1.272   5.915
 6377SOL     OW20029   6.855   0.633   6.024
 6377SOL    HW120030   6.885   0.560   6.084
 6377SOL    HW220031   6.927   0.702   6.015
 6378SOL     OW20032   5.049   5.955   3.028
 6378SOL    HW120033   4.992   5.875   3.012
 6378SOL    HW220034   5.045   6.015   2.947
 6379SOL     OW20035   1.465   4.905   5.596
 6379SOL    HW120036   1.518   4.898   5.512
 6379SOL    HW220037   1.367   4.899   5.575
 6380SOL     OW20038   0.949   2.901   4.659
 6380SOL    HW120039   0.962   2.867   4.752
 6380SOL    HW220040   0.863   2.867   4.622
 6381SOL     OW20041   3.953   2.739   0.612
 6381SOL    HW120042   3.937   2.681   0.532
 6381SOL    HW220043   3.907   2.826   0.599
 6382SOL     OW20044   2.833   1.842   1.555
 6382SOL    HW120045   2.880   1.930   1.566
 6382SOL    HW220046   2.765   1.849   1.482
 6383SOL     OW20047   1.803   2.830   2.607
 6383SOL    HW120048   1.768   2.919   2.576
 6383SOL    HW220049   1.845   2.783   2.529
 6384SOL     OW20050   5.922   2.320   2.373
 6384SOL    HW120051   5.964   2.276   2.293
 6384SOL    HW220052   5.860   2.393   2.343
 6385SOL     OW20053   6.890   3.825   0.970
 6385SOL    HW120054   6.940   3.830   1.057
 6385SOL    HW220055   6.847   3.914   0.952
 6386SOL     OW20056   2.196   3.875   0.250
 6386SOL    HW120057   2.268   3.935   0.282
 6386SOL    HW220058   2.115   3.929   0.226
 6387SOL     OW20059   6.202   1.292   0.471
 6387SOL    HW120060   6.104   1.281   0.486
 6387SOL    HW220061   6.252   1.254   0.549
 6388SOL     OW20062   6.448   4.875   2.810
 6388SOL    HW120063   6.488   4.845   2.723
 6388SOL    HW220064   6.505   4.841   2.886
 6389SOL     OW20065   1.494   6.716   0.309
 6389SOL    HW120066   1.535   6.799   0.271
 6389SOL    HW220067   1.404   6.701   0.267
 6390SOL     OW20068   6.678   0.538   0.301
 6390SOL    HW120069   6.579   0.541   0.289
 6390SOL    HW220070   6.717   0.628   0.282
 6391SOL     OW20071   1.198   1.281   5.816
 6391SOL    HW120072   1.154   1.312   5.732
 6391SOL    HW220073   1.297   1.274   5.802
 6392SOL     OW20074   3.501   5.792   3.777
 6392SOL    HW120075   3.576   5.834   3.726
 6392SOL    HW220076   3.517   5.806   3.875
 6393SOL     OW20077   5.320   6.516   1.996
 6393SOL    HW120078   5.276   6.568   2.069
 6393SOL    HW220079   5.316   6.569   1.911
 6394SOL     OW20080   1.036   4.600   1.087
 6394SOL    HW120081   0.987   4.684   1.061
 6394SOL    HW220082   0.973   4.540   1.137
 6395SOL     OW20083   0.081   3.893   2.651
 6395SOL    HW120084   0.064   3.882   2.749
 6395SOL    HW220085   0.128   3.812   2.616
 6396SOL     OW20086   6.855   3.406   6.343
 6396SOL    HW120087   6.853   3.498   6.305
 6396SOL    HW220088   6.935   3.395   6.402
 6397SOL     OW20089   6.447   1.341   2.723
 6397SOL    HW120090   6.396   1.266   2.764
 6397SOL    HW220091   6.383   1.413   2.694
 6398SOL     OW20092   1.760   6.426   1.178
 6398SOL    HW120093   1.812   6.390   1.100
 6398SOL    HW220094   1.712   6.351   1.223
 6399SOL     OW20095   1.884   0.072   6.793
 6399SOL    HW120096   1.869   7.019   6.853
 6399SOL    HW220097   1.908   0.039   6.702
 6400SOL     OW20098   1.719   5.847   2.969
 6400SOL    HW120099   1.708   5.877   3.064
 6400SOL    HW220100   1.643   5.787   2.944
 6401SOL     OW20101   4.457   4.557   3.079
 6401SOL    HW120102   4.526   4.533   3.010
 6401SOL    HW220103   4.497   4.618   3.147
 6402SOL     OW20104   1.369   3.417   3.214
 6402SOL    HW120105   1.392   3.319   3.217
 6402SOL    HW220106   1.396   3.460   3.299
 6403SOL     OW20107   5.578   6.065   5.057
 6403SOL    HW120108   5.631   5.988   5.021
 6403SOL    HW220109   5.641   6.138   5.086
 6404SOL     OW20110   3.672   1.065   2.642
 6404SOL    HW120111   3.751   1.016   2.679
 6404SOL    HW220112   3.681   1.074   2.543
 6405SOL     OW20113   4.925   1.591   3.809
 6405SOL    HW120114   4.935   1.690   3.816
 6405SOL    HW220115   5.012   1.547   3.832
 6406SOL     OW20116   1.235   2.726   2.409
 6406SOL    HW120117   1.332   2.742   2.388
 6406SOL    HW220118   1.223   2.718   2.508
 6407SOL     OW20119   1.877   6.354   3.304
 6407SOL    HW120120   1.868   6.425   3.375
 6407SOL    HW220121   1.916   6.272   3.344
 6408SOL     OW20122   6.825   0.657   1.491
 6408SOL    HW120123   6.844   0.756   1.491
 6408SOL    HW220124   6.756   0.637   1.422
 6409SOL     OW20125   6.201   4.925   4.029
 6409SOL    HW120126   6.116   4.876   4.012
 6409SOL    HW220127   6.183   5.005   4.087
 6410SOL     OW20128   2.569   1.439   5.877
 6410SOL    HW120129   2.632   1.493   5.821
 6410SOL    HW220130   2.590   1.342   5.866
 6411SOL     OW20131   0.210   3.067   1.528
 6411SOL    HW120132   0.226   3.163   1.505
 6411SOL    HW220133   0.128   3.034   1.480
 6412SOL     OW20134   3.296   0.993   6.795
 6412SOL    HW120135   3.249   1.076   6.822
 6412SOL    HW220136   3.229   0.921   6.776
 6413SOL     OW20137   4.223   5.013   4.329
 6413SOL    HW120138   4.195   4.954   4.406
 6413SOL    HW220139   4.177   4.982   4.246
 6414SOL     OW20140   0.640   6.584   6.616
 6414SOL    HW120141   0.546   6.569   6.585
 6414SOL    HW220142   0.642   6.585   6.716
 6415SOL     OW20143   1.325   3.479   2.680
 6415SOL    HW120144   1.288   3.396   2.640
 6415SOL    HW220145   1.362   3.458   2.771
 6416SOL     OW20146   2.677   0.139   6.600
 6416SOL    HW120147   2.740   0.073   6.560
 6416SOL    HW220148   2.583   0.104   6.594
 6417SOL     OW20149   5.094   2.330   1.111
 6417SOL    HW120150   5.113   2.350   1.207
 6417SOL    HW220151   4.995   2.321   1.097
 6418SOL     OW20152   4.950   4.574   2.070
 6418SOL    HW120153   4.890   4.516   2.015
 6418SOL    HW220154   4.996   4.519   2.140
 6419SOL     OW20155   0.653   6.680   5.906
 6419SOL    HW120156   0.736   6.725   5.939
 6419SOL    HW220157   0.673   6.634   5.820
 6420SOL     OW20158   1.442   2.470   3.701
 6420SOL    HW120159   1.426   2.536   3.774
 6420SOL    HW220160   1.394   2.385   3.722
 6421SOL     OW20161   5.714   0.359   1.286
 6421SOL    HW120162   5.667   0.284   1.239
 6421SOL    HW220163   5.675   0.371   1.377
 6422SOL     OW20164   7.001   2.046   5.545
 6422SOL    HW120165   0.065   2.027   5.503
 6422SOL    HW220166   6.967   1.964   5.589
 6423SOL     OW20167   3.333   5.878   4.384
 6423SOL    HW120168   3.325   5.894   4.482
 6423SOL    HW220169   3.428   5.893   4.355
 6424SOL     OW20170   0.527   3.310   4.815
 6424SOL    HW120171   0.469   3.321   4.896
 6424SOL    HW220172   0.592   3.236   4.830
 6425SOL     OW20173   6.943   5.368   2.834
 6425SOL    HW120174   7.010   5.295   2.823
 6425SOL    HW220175   6.947   5.430   2.756
 6426SOL     OW20176   5.102   5.097   4.263
 6426SOL    HW120177   5.172   5.094   4.334
 6426SOL    HW220178   5.058   5.187   4.263
 6427SOL     OW20179   3.076   3.987   3.020
 6427SOL    HW120180   3.076   3.913   2.952
 6427SOL    HW220181   2.990   3.985   3.072
 6428SOL     OW20182   5.160   2.363   0.604
 6428SOL    HW120183   5.174   2.385   0.701
 6428SOL    HW220184   5.247   2.338   0.562
 6429SOL     OW20185   1.479   0.644   5.217
 6429SOL    HW120186   1.562   0.675   5.172
 6429SOL    HW220187   1.422   0.595   5.151
 6430SOL     OW20188   6.961   0.626   5.756
 6430SOL    HW120189   0.015   0.679   5.785
 6430SOL    HW220190   6.887   0.638   5.822
 6431SOL     OW20191   4.829   5.018   3.257
 6431SOL    HW120192   4.880   4.974   3.183
 6431SOL    HW220193   4.868   5.109   3.274
 6432SOL     OW20194   3.498   3.916   6.277
 6432SOL    HW120195   3.558   3.857   6.331
 6432SOL    HW220196   3.475   3.998   6.329
 6433SOL     OW20197   2.854   5.515   6.991
 6433SOL    HW120198   2.761   5.518   6.954
 6433SOL    HW220199   2.912   5.578   6.939
 6434SOL     OW20200   2.866   6.578   6.174
 6434SOL    HW120201   2.838   6.483   6.188
 6434SOL    HW220202   2.787   6.632   6.146
 6435SOL     OW20203   5.919   7.025   0.639
 6435SOL    HW120204   5.999   0.058   0.626
 6435SOL    HW220205   5.838   0.057   0.656
 6436SOL     OW20206   0.673   3.140   3.647
 6436SOL    HW120207   0.705   3.226   3.608
 6436SOL    HW220208   0.730   3.115   3.725
 6437SOL     OW20209   0.497   1.780   5.180
 6437SOL    HW120210   0.400   1.804   5.172
 6437SOL    HW220211   0.508   1.711   5.251
 6438SOL     OW20212   1.161   5.481   6.336
 6438SOL    HW120213   1.136   5.502   6.431
 6438SOL    HW220214   1.155   5.564   6.281
 6439SOL     OW20215   6.508   0.922   3.468
 6439SOL    HW120216   6.538   1.010   3.430
 6439SOL    HW220217   6.581   0.855   3.459
 6440SOL     OW20218   2.194   0.802   6.685
 6440SOL    HW120219   2.287   0.772   6.703
 6440SOL    HW220220   2.181   0.895   6.720
 6441SOL     OW20221   6.984   0.963   3.148
 6441SOL    HW120222   0.055   0.989   3.154
 6441SOL    HW220223   6.936   1.027   3.088
 6442SOL     OW20224   2.440   2.043   4.928
 6442SOL    HW120225   2.351   2.083   4.907
 6442SOL    HW220226   2.511   2.114   4.922
 6443SOL     OW20227   4.070   1.953   6.582
 6443SOL    HW120228   4.147   1.924   6.638
 6443SOL    HW220229   4.049   1.882   6.515
 6444SOL     OW20230   0.367   2.408   5.153
 6444SOL    HW120231   0.429   2.371   5.222
 6444SOL    HW220232   0.278   2.426   5.194
 6445SOL     OW20233   3.515   3.780   3.115
 6445SOL    HW120234   3.517   3.872   3.076
 6445SOL    HW220235   3.589   3.725   3.076
 6446SOL     OW20236   1.435   1.727   6.588
 6446SOL    HW120237   1.393   1.707   6.499
 6446SOL    HW220238   1.437   1.826   6.602
 6447SOL     OW20239   0.104   3.943   1.489
 6447SOL    HW120240   0.021   3.939   1.545
 6447SOL    HW220241   0.153   4.028   1.509
 6448SOL     OW20242   5.059   5.362   1.507
 6448SOL    HW120243   5.018   5.310   1.432
 6448SOL    HW220244   5.018   5.453   1.511
 6449SOL     OW20245   2.134   5.684   1.250
 6449SOL    HW120246   2.074   5.718   1.177
 6449SOL    HW220247   2.227   5.718   1.235
 6450SOL     OW20248   0.452   4.281   0.769
 6450SOL    HW120249   0.512   4.202   0.783
 6450SOL    HW220250   0.405   4.302   0.854
 6451SOL     OW20251   3.564   1.708   6.763
 6451SOL    HW120252   3.594   1.658   6.844
 6451SOL    HW220253   3.504   1.650   6.708
 6452SOL     OW20254   5.205   3.476   2.488
 6452SOL    HW120255   5.106   3.472   2.498
 6452SOL    HW220256   5.243   3.540   2.554
 6453SOL     OW20257   3.734   7.018   0.712
 6453SOL    HW120258   3.697   7.010   0.620
 6453SOL    HW220259   3.660   7.015   0.779
 6454SOL     OW20260   0.160   1.749   2.520
 6454SOL    HW120261   0.211   1.703   2.593
 6454SOL    HW220262   0.193   1.717   2.431
 6455SOL     OW20263   6.461   4.275   2.997
 6455SOL    HW120264   6.506   4.190   3.026
 6455SOL    HW220265   6.463   4.340   3.073
 6456SOL     OW20266   0.756   0.556   2.644
 6456SOL    HW120267   0.699   0.623   2.597
 6456SOL    HW220268   0.713   0.466   2.639
 6457SOL     OW20269   4.782   0.157   1.956
 6457SOL    HW120270   4.748   0.172   1.863
 6457SOL    HW220271   4.854   0.088   1.955
 6458SOL     OW20272   1.206   5.079   3.958
 6458SOL    HW120273   1.190   5.172   3.990
 6458SOL    HW220274   1.157   5.014   4.017
 6459SOL     OW20275   6.412   2.536   2.905
 6459SOL    HW120276   6.429   2.634   2.899
 6459SOL    HW220277   6.495   2.490   2.937
 6460SOL     OW20278   6.518   5.494   5.420
 6460SOL    HW120279   6.524   5.505   5.519
 6460SOL    HW220280   6.521   5.584   5.376
 6461SOL     OW20281   3.735   4.308   0.199
 6461SOL    HW120282   3.748   4.406   0.212
 6461SOL    HW220283   3.661   4.293   0.134
 6462SOL     OW20284   1.679   3.707   4.443
 6462SOL    HW120285   1.633   3.775   4.386
 6462SOL    HW220286   1.671   3.733   4.540
 6463SOL     OW20287   5.690   0.185   0.677
 6463SOL    HW120288   5.603   0.190   0.628
 6463SOL    HW220289   5.719   0.277   0.702
 6464SOL     OW20290   1.056   6.047   4.870
 6464SOL    HW120291   1.106   5.969   4.907
 6464SOL    HW220292   1.041   6.115   4.942
 6465SOL     OW20293   5.737   2.463   1.989
 6465SOL    HW120294   5.686   2.507   1.915
 6465SOL    HW220295   5.835   2.482   1.979
 6466SOL     OW20296   6.759   2.932   6.497
 6466SOL    HW120297   6.811   2.996   6.553
 6466SOL    HW220298   6.774   2.839   6.530
 6467SOL     OW20299   3.713   1.122   1.299
 6467SOL    HW120300   3.615   1.104   1.293
 6467SOL    HW220301   3.746   1.154   1.210
 6468SOL     OW20302   3.829   6.265   0.950
 6468SOL    HW120303   3.876   6.340   0.997
 6468SOL    HW220304   3.730   6.273   0.965
 6469SOL     OW20305   2.975   2.106   4.346
 6469SOL    HW120306   3.054   2.122   4.285
 6469SOL    HW220307   2.913   2.041   4.303
 6470SOL     OW20308   5.978   2.157   0.609
 6470SOL    HW120309   6.046   2.093   0.646
 6470SOL    HW220310   5.979   2.152   0.510
 6471SOL     OW20311   0.542   6.812   4.593
 6471SOL    HW120312   0.626   6.758   4.595
 6471SOL    HW220313   0.469   6.760   4.549
 6472SOL     OW20314   6.717   6.299   2.592
 6472SOL    HW120315   6.664   6.375   2.556
 6472SOL    HW220316   6.810   6.303   2.555
 6473SOL     OW20317   1.740   1.467   4.402
 6473SOL    HW120318   1.832   1.507   4.401
 6473SOL    HW220319   1.701   1.476   4.494
 6474SOL     OW20320   3.988   5.032   5.512
 6474SOL    HW120321   3.900   5.023   5.465
 6474SOL    HW220322   3.975   5.023   5.610
 6475SOL     OW20323   5.613   5.055   3.388
 6475SOL    HW120324   5.598   4.994   3.465
 6475SOL    HW220325   5.637   5.146   3.422
 6476SOL     OW20326   3.405   2.297   6.572
 6476SOL    HW120327   3.470   2.285   6.497
 6476SOL    HW220328   3.329   2.353   6.543
 6477SOL     OW20329   6.564   5.351   0.754
 6477SOL    HW120330   6.523   5.296   0.680
 6477SOL    HW220331   6.504   5.428   0.776
 6478SOL     OW20332   2.794   5.976   1.357
 6478SOL    HW120333   2.889   5.948   1.368
 6478SOL    HW220334   2.740   5.943   1.434
 6479SOL     OW20335   2.924   5.245   4.462
 6479SOL    HW120336   2.844   5.272   4.516
 6479SOL    HW220337   3.005   5.295   4.494
 6480SOL     OW20338   2.205   1.540   0.244
 6480SOL    HW120339   2.128   1.513   0.186
 6480SOL    HW220340   2.209   1.640   0.249
 6481SOL     OW20341   3.359   2.578   1.707
 6481SOL    HW120342   3.271   2.619   1.685
 6481SOL    HW220343   3.416   2.645   1.753
 6482SOL     OW20344   6.807   2.646   5.687
 6482SOL    HW120345   6.874   2.687   5.626
 6482SOL    HW220346   6.852   2.579   5.747
 6483SOL     OW20347   1.245   5.814   4.305
 6483SOL    HW120348   1.177   5.837   4.375
 6483SOL    HW220349   1.235   5.719   4.278
 6484SOL     OW20350   2.934   1.610   2.579
 6484SOL    HW120351   2.961   1.514   2.582
 6484SOL    HW220352   3.016   1.668   2.582
 6485SOL     OW20353   2.078   6.178   4.758
 6485SOL    HW120354   1.985   6.200   4.786
 6485SOL    HW220355   2.143   6.225   4.819
 6486SOL     OW20356   0.915   4.679   2.828
 6486SOL    HW120357   0.862   4.613   2.775
 6486SOL    HW220358   0.893   4.669   2.925
 6487SOL     OW20359   0.902   5.546   4.317
 6487SOL    HW120360   0.904   5.550   4.417
 6487SOL    HW220361   0.987   5.503   4.284
 6488SOL     OW20362   4.680   5.874   5.158
 6488SOL    HW120363   4.743   5.798   5.144
 6488SOL    HW220364   4.590   5.850   5.123
 6489SOL     OW20365   3.279   2.698   5.957
 6489SOL    HW120366   3.327   2.616   5.991
 6489SOL    HW220367   3.283   2.699   5.857
 6490SOL     OW20368   2.477   1.407   6.521
 6490SOL    HW120369   2.491   1.492   6.471
 6490SOL    HW220370   2.520   1.413   6.612
 6491SOL     OW20371   2.065   0.294   1.415
 6491SOL    HW120372   2.151   0.254   1.384
 6491SOL    HW220373   2.008   0.223   1.457
 6492SOL     OW20374   3.895   4.008   4.372
 6492SOL    HW120375   3.862   4.033   4.281
 6492SOL    HW220376   3.839   4.053   4.442
 6493SOL     OW20377   1.388   4.603   6.303
 6493SOL    HW120378   1.408   4.542   6.226
 6493SOL    HW220379   1.470   4.655   6.327
 6494SOL     OW20380   5.852   6.298   2.851
 6494SOL    HW120381   5.768   6.327   2.804
 6494SOL    HW220382   5.843   6.316   2.949
 6495SOL     OW20383   6.598   6.797   4.891
 6495SOL    HW120384   6.620   6.857   4.814
 6495SOL    HW220385   6.676   6.792   4.952
 6496SOL     OW20386   5.013   6.610   1.529
 6496SOL    HW120387   4.967   6.688   1.571
 6496SOL    HW220388   4.961   6.580   1.449
 6497SOL     OW20389   1.077   1.615   1.069
 6497SOL    HW120390   1.159   1.671   1.084
 6497SOL    HW220391   0.997   1.675   1.062
 6498SOL     OW20392   0.844   4.223   4.201
 6498SOL    HW120393   0.771   4.158   4.179
 6498SOL    HW220394   0.928   4.173   4.222
 6499SOL     OW20395   5.471   3.867   4.340
 6499SOL    HW120396   5.463   3.876   4.439
 6499SOL    HW220397   5.565   3.843   4.317
 6500SOL     OW20398   0.625   3.697   2.360
 6500SOL    HW120399   0.580   3.669   2.276
 6500SOL    HW220400   0.705   3.753   2.339
 6501SOL     OW20401   0.276   1.605   1.028
 6501SOL    HW120402   0.304   1.693   1.067
 6501SOL    HW220403   0.324   1.590   0.942
 6502SOL     OW20404   6.465   3.497   1.436
 6502SOL    HW120405   6.489   3.454   1.349
 6502SOL    HW220406   6.390   3.561   1.422
 6503SOL     OW20407   6.639   2.101   5.367
 6503SOL    HW120408   6.585   2.084   5.284
 6503SOL    HW220409   6.735   2.079   5.349
 6504SOL     OW20410   4.872   6.798   6.742
 6504SOL    HW120411   4.855   6.741   6.661
 6504SOL    HW220412   4.889   6.738   6.820
 6505SOL     OW20413   5.466   6.813   0.322
 6505SOL    HW120414   5.541   6.847   0.379
 6505SOL    HW220415   5.503   6.767   0.241
 6506SOL     OW20416   0.052   3.412   3.620
 6506SOL    HW120417   7.013   3.363   3.562
 6506SOL    HW220418   0.121   3.348   3.655
 6507SOL     OW20419   3.108   5.673   6.393
 6507SOL    HW120420   3.155   5.586   6.380
 6507SOL    HW220421   3.016   5.668   6.355
 6508SOL     OW20422   1.688   6.453   2.563
 6508SOL    HW120423   1.646   6.532   2.607
 6508SOL    HW220424   1.644   6.436   2.475
 6509SOL     OW20425   4.293   1.420   5.351
 6509SOL    HW120426   4.313   1.510   5.312
 6509SOL    HW220427   4.346   1.408   5.435
 6510SOL     OW20428   4.465   6.099   6.372
 6510SOL    HW120429   4.394   6.098   6.302
 6510SOL    HW220430   4.524   6.179   6.359
 6511SOL     OW20431   3.957   0.759   5.761
 6511SOL    HW120432   3.872   0.767   5.813
 6511SOL    HW220433   3.952   0.681   5.699
 6512SOL     OW20434   3.253   6.899   2.394
 6512SOL    HW120435   3.204   6.881   2.480
 6512SOL    HW220436   3.208   6.850   2.319
 6513SOL     OW20437   2.584   5.955   4.293
 6513SOL    HW120438   2.588   6.053   4.279
 6513SOL    HW220439   2.617   5.908   4.211
 6514SOL     OW20440   5.727   0.532   5.132
 6514SOL    HW120441   5.630   0.525   5.155
 6514SOL    HW220442   5.744   0.494   5.041
 6515SOL     OW20443   1.928   4.470   2.376
 6515SOL    HW120444   1.954   4.411   2.300
 6515SOL    HW220445   2.001   4.537   2.393
 6516SOL     OW20446   6.808   3.076   1.866
 6516SOL    HW120447   6.855   3.156   1.904
 6516SOL    HW220448   6.759   3.104   1.783
 6517SOL     OW20449   0.235   2.239   0.717
 6517SOL    HW120450   0.329   2.262   0.742
 6517SOL    HW220451   0.183   2.217   0.799
 6518SOL     OW20452   6.831   0.640   2.063
 6518SOL    HW120453   6.906   0.578   2.083
 6518SOL    HW220454   6.830   0.662   1.965
 6519SOL     OW20455   0.485   0.612   3.051
 6519SOL    HW120456   0.537   0.533   3.018
 6519SOL    HW220457   0.485   0.684   2.981
 6520SOL     OW20458   0.203   5.802   6.643
 6520SOL    HW120459   0.232   5.870   6.577
 6520SOL    HW220460   0.276   5.735   6.656
 6521SOL     OW20461   1.445   2.915   2.936
 6521SOL    HW120462   1.508   2.986   2.968
 6521SOL    HW220463   1.374   2.900   3.005
 6522SOL     OW20464   2.660   4.537   5.670
 6522SOL    HW120465   2.691   4.594   5.594
 6522SOL    HW220466   2.732   4.472   5.694
 6523SOL     OW20467   4.969   6.973   0.087
 6523SOL    HW120468   5.066   6.958   0.103
 6523SOL    HW220469   4.954   0.044   0.062
 6524SOL     OW20470   3.094   2.632   1.697
 6524SOL    HW120471   3.056   2.578   1.771
 6524SOL    HW220472   3.052   2.724   1.698
 6525SOL     OW20473   2.169   5.400   3.163
 6525SOL    HW120474   2.207   5.483   3.203
 6525SOL    HW220475   2.226   5.322   3.187
 6526SOL     OW20476   0.563   6.760   1.187
 6526SOL    HW120477   0.493   6.795   1.249
 6526SOL    HW220478   0.520   6.731   1.102
 6527SOL     OW20479   0.231   2.054   0.142
 6527SOL    HW120480   0.212   1.995   0.220
 6527SOL    HW220481   0.199   2.147   0.161
 6528SOL     OW20482   6.728   1.622   6.388
 6528SOL    HW120483   6.734   1.722   6.392
 6528SOL    HW220484   6.635   1.593   6.410
 6529SOL     OW20485   0.474   0.821   2.874
 6529SOL    HW120486   0.377   0.826   2.850
 6529SOL    HW220487   0.526   0.880   2.814
 6530SOL     OW20488   0.412   2.076   1.557
 6530SOL    HW120489   0.471   2.155   1.575
 6530SOL    HW220490   0.388   2.032   1.644
 6531SOL     OW20491   4.010   3.426   5.574
 6531SOL    HW120492   4.087   3.488   5.555
 6531SOL    HW220493   3.962   3.405   5.490
 6532SOL     OW20494   1.755   1.489   0.499
 6532SOL    HW120495   1.810   1.407   0.483
 6532SOL    HW220496   1.741   1.502   0.597
 6533SOL     OW20497   4.218   5.732   0.184
 6533SOL    HW120498   4.165   5.805   0.227
 6533SOL    HW220499   4.216   5.743   0.085
 6534SOL     OW20500   5.200   4.850   1.659
 6534SOL    HW120501   5.215   4.761   1.617
 6534SOL    HW220502   5.279   4.875   1.714
 6535SOL     OW20503   5.821   4.252   4.632
 6535SOL    HW120504   5.771   4.224   4.550
 6535SOL    HW220505   5.777   4.213   4.713
 6536SOL     OW20506   0.159   2.184   5.206
 6536SOL    HW120507   0.117   2.260   5.156
 6536SOL    HW220508   0.251   2.167   5.169
 6537SOL     OW20509   6.925   4.999   4.522
 6537SOL    HW120510   6.909   5.059   4.600
 6537SOL    HW220511   6.910   4.904   4.549
 6538SOL     OW20512   1.822   3.788   5.651
 6538SOL    HW120513   1.829   3.696   5.691
 6538SOL    HW220514   1.871   3.853   5.710
 6539SOL     OW20515   5.221   0.582   6.920
 6539SOL    HW120516   5.198   0.546   6.829
 6539SOL    HW220517   5.146   0.639   6.953
 6540SOL     OW20518   1.837   2.863   6.195
 6540SOL    HW120519   1.895   2.916   6.258
 6540SOL    HW220520   1.741   2.876   6.221
 6541SOL     OW20521   4.960   2.392   5.710
 6541SOL    HW120522   4.916   2.325   5.771
 6541SOL    HW220523   5.059   2.380   5.713
 6542SOL     OW20524   1.044   3.469   4.526
 6542SOL    HW120525   0.992   3.552   4.508
 6542SOL    HW220526   1.142   3.491   4.532
 6543SOL     OW20527   3.496   2.499   5.343
 6543SOL    HW120528   3.594   2.494   5.360
 6543SOL    HW220529   3.462   2.407   5.323
 6544SOL     OW20530   0.380   6.501   2.368
 6544SOL    HW120531   0.310   6.528   2.301
 6544SOL    HW220532   0.335   6.480   2.455
 6545SOL     OW20533   4.263   6.847   0.668
 6545SOL    HW120534   4.200   6.837   0.745
 6545SOL    HW220535   4.349   6.802   0.688
 6546SOL     OW20536   4.273   4.567   7.006
 6546SOL    HW120537   4.173   4.564   7.011
 6546SOL    HW220538   4.303   4.663   6.998
 6547SOL     OW20539   4.378   0.398   5.870
 6547SOL    HW120540   4.351   0.325   5.933
 6547SOL    HW220541   4.329   0.386   5.784
 6548SOL     OW20542   1.033   3.035   6.532
 6548SOL    HW120543   1.122   3.074   6.509
 6548SOL    HW220544   0.971   3.046   6.454
 6549SOL     OW20545   4.369   0.422   1.845
 6549SOL    HW120546   4.378   0.406   1.943
 6549SOL    HW220547   4.352   0.336   1.798
 6550SOL     OW20548   6.731   0.053   3.857
 6550SOL    HW120549   6.708   0.103   3.941
 6550SOL    HW220550   6.706   6.982   3.868
 6551SOL     OW20551   2.788   3.526   1.589
 6551SOL    HW120552   2.734   3.581   1.652
 6551SOL    HW220553   2.885   3.544   1.603
 6552SOL     OW20554   2.060   0.160   0.495
 6552SOL    HW120555   2.134   0.105   0.533
 6552SOL    HW220556   2.088   0.195   0.405
 6553SOL     OW20557   1.103   1.561   2.779
 6553SOL    HW120558   1.146   1.628   2.839
 6553SOL    HW220559   1.173   1.517   2.722
 6554SOL     OW20560   2.538   1.066   5.430
 6554SOL    HW120561   2.584   0.997   5.486
 6554SOL    HW220562   2.441   1.070   5.455
 6555SOL     OW20563   5.970   2.110   4.091
 6555SOL    HW120564   6.068   2.122   4.111
 6555SOL    HW220565   5.932   2.042   4.154
 6556SOL     OW20566   6.165   3.310   2.345
 6556SOL    HW120567   6.069   3.285   2.345
 6556SOL    HW220568   6.174   3.409   2.335
 6557SOL     OW20569   2.073   0.364   2.333
 6557SOL    HW120570   2.105   0.454   2.303
 6557SOL    HW220571   2.042   0.369   2.428
 6558SOL     OW20572   5.798   5.565   0.238
 6558SOL    HW120573   5.859   5.486   0.249
 6558SOL    HW220574   5.746   5.555   0.153
 6559SOL     OW20575   6.814   3.663   6.206
 6559SOL    HW120576   6.853   3.738   6.152
 6559SOL    HW220577   6.720   3.645   6.175
 6560SOL     OW20578   3.898   4.766   0.852
 6560SOL    HW120579   3.894   4.824   0.770
 6560SOL    HW220580   3.819   4.705   0.853
 6561SOL     OW20581   4.434   4.739   0.907
 6561SOL    HW120582   4.352   4.782   0.944
 6561SOL    HW220583   4.428   4.640   0.918
 6562SOL     OW20584   5.325   2.543   1.216
 6562SOL    HW120585   5.374   2.488   1.283
 6562SOL    HW220586   5.337   2.640   1.236
 6563SOL     OW20587   4.976   0.522   5.974
 6563SOL    HW120588   5.058   0.465   5.982
 6563SOL    HW220589   4.898   0.465   5.946
 6564SOL     OW20590   6.195   3.453   1.972
 6564SOL    HW120591   6.129   3.399   1.920
 6564SOL    HW220592   6.246   3.513   1.910
 6565SOL     OW20593   6.508   6.388   3.034
 6565SOL    HW120594   6.517   6.461   3.101
 6565SOL    HW220595   6.581   6.395   2.966
 6566SOL     OW20596   3.347   5.403   1.910
 6566SOL    HW120597   3.285   5.481   1.912
 6566SOL    HW220598   3.381   5.389   1.817
 6567SOL     OW20599   4.295   0.792   1.532
 6567SOL    HW120600   4.381   0.800   1.483
 6567SOL    HW220601   4.309   0.743   1.618
 6568SOL     OW20602   4.042   1.939   2.755
 6568SOL    HW120603   4.107   1.932   2.832
 6568SOL    HW220604   3.982   2.017   2.769
 6569SOL     OW20605   1.031   3.441   6.240
 6569SOL    HW120606   1.034   3.408   6.334
 6569SOL    HW220607   1.122   3.433   6.199
 6570SOL     OW20608   4.165   1.114   2.665
 6570SOL    HW120609   4.178   1.062   2.581
 6570SOL    HW220610   4.078   1.163   2.660
 6571SOL     OW20611   3.012   4.821   2.627
 6571SOL    HW120612   2.999   4.841   2.530
 6571SOL    HW220613   2.925   4.792   2.667
 6572SOL     OW20614   0.583   3.735   4.387
 6572SOL    HW120615   0.500   3.786   4.365
 6572SOL    HW220616   0.663   3.794   4.374
 6573SOL     OW20617   1.167   1.483   3.321
 6573SOL    HW120618   1.187   1.398   3.273
 6573SOL    HW220619   1.099   1.535   3.269
 6574SOL     OW20620   2.480   6.490   3.668
 6574SOL    HW120621   2.452   6.573   3.620
 6574SOL    HW220622   2.414   6.470   3.740
 6575SOL     OW20623   0.601   6.509   3.008
 6575SOL    HW120624   0.656   6.432   3.041
 6575SOL    HW220625   0.640   6.594   3.040
 6576SOL     OW20626   3.085   5.375   0.490
 6576SOL    HW120627   3.003   5.334   0.450
 6576SOL    HW220628   3.166   5.328   0.455
 6577SOL     OW20629   1.928   2.060   3.739
 6577SOL    HW120630   1.905   2.021   3.650
 6577SOL    HW220631   1.954   2.156   3.728
 6578SOL     OW20632   0.686   5.846   1.830
 6578SOL    HW120633   0.779   5.882   1.821
 6578SOL    HW220634   0.651   5.823   1.739
 6579SOL     OW20635   0.079   2.105   3.942
 6579SOL    HW120636   0.124   2.025   3.982
 6579SOL    HW220637   0.058   2.171   4.014
 6580SOL     OW20638   1.131   1.235   0.806
 6580SOL    HW120639   1.178   1.302   0.864
 6580SOL    HW220640   1.173   1.145   0.818
 6581SOL     OW20641   1.567   1.156   0.549
 6581SOL    HW120642   1.495   1.088   0.550
 6581SOL    HW220643   1.656   1.111   0.551
 6582SOL     OW20644   6.342   0.438   2.997
 6582SOL    HW120645   6.395   0.523   2.992
 6582SOL    HW220646   6.404   0.361   3.012
 6583SOL     OW20647   5.178   6.331   5.318
 6583SOL    HW120648   5.178   6.424   5.356
 6583SOL    HW220649   5.270   6.293   5.324
 6584SOL     OW20650   3.434   2.636   0.673
 6584SOL    HW120651   3.350   2.667   0.629
 6584SOL    HW220652   3.417   2.619   0.770
 6585SOL     OW20653   0.078   6.547   0.082
 6585SOL    HW120654   0.015   6.625   0.079
 6585SOL    HW220655   0.039   6.471   0.028
 6586SOL     OW20656   6.546   1.735   6.146
 6586SOL    HW120657   6.506   1.682   6.071
 6586SOL    HW220658   6.475   1.757   6.213
 6587SOL     OW20659   1.253   4.816   6.479
 6587SOL    HW120660   1.299   4.736   6.440
 6587SOL    HW220661   1.164   4.827   6.436
 6588SOL     OW20662   0.548   3.430   0.930
 6588SOL    HW120663   0.456   3.409   0.895
 6588SOL    HW220664   0.613   3.364   0.892
 6589SOL     OW20665   5.153   1.191   2.367
 6589SOL    HW120666   5.195   1.122   2.427
 6589SOL    HW220667   5.058   1.166   2.350
 6590SOL     OW20668   0.322   0.306   5.342
 6590SOL    HW120669   0.300   0.341   5.432
 6590SOL    HW220670   0.270   0.356   5.272
 6591SOL     OW20671   5.142   5.938   3.718
 6591SOL    HW120672   5.056   5.980   3.690
 6591SOL    HW220673   5.127   5.840   3.734
 6592SOL     OW20674   5.314   0.530   3.107
 6592SOL    HW120675   5.253   0.604   3.136
 6592SOL    HW220676   5.408   0.554   3.129
 6593SOL     OW20677   2.989   2.166   2.208
 6593SOL    HW120678   3.069   2.146   2.152
 6593SOL    HW220679   2.933   2.236   2.163
 6594SOL     OW20680   3.786   1.542   5.995
 6594SOL    HW120681   3.833   1.456   5.974
 6594SOL    HW220682   3.847   1.602   6.045
 6595SOL     OW20683   1.220   2.823   5.091
 6595SOL    HW120684   1.232   2.732   5.130
 6595SOL    HW220685   1.303   2.877   5.106
 6596SOL     OW20686   3.804   6.543   3.465
 6596SOL    HW120687   3.889   6.565   3.511
 6596SOL    HW220688   3.736   6.513   3.532
 6597SOL     OW20689   1.622   5.307   1.862
 6597SOL    HW120690   1.633   5.269   1.770
 6597SOL    HW220691   1.643   5.236   1.930
 6598SOL     OW20692   1.819   4.087   3.821
 6598SOL    HW120693   1.896   4.150   3.827
 6598SOL    HW220694   1.736   4.138   3.797
 6599SOL     OW20695   4.852   6.222   0.161
 6599SOL    HW120696   4.802   6.135   0.165
 6599SOL    HW220697   4.932   6.211   0.102
 6600SOL     OW20698   3.938   6.743   4.401
 6600SOL    HW120699   3.983   6.827   4.371
 6600SOL    HW220700   3.882   6.763   4.482
 6601SOL     OW20701   0.657   2.309   3.308
 6601SOL    HW120702   0.739   2.350   3.349
 6601SOL    HW220703   0.684   2.240   3.241
 6602SOL     OW20704   2.250   0.031   1.088
 6602SOL    HW120705   2.265   6.986   1.158
 6602SOL    HW220706   2.275   7.020   0.999
 6603SOL     OW20707   0.876   3.160   3.871
 6603SOL    HW120708   0.937   3.188   3.797
 6603SOL    HW220709   0.923   3.174   3.959
 6604SOL     OW20710   1.718   0.265   1.298
 6604SOL    HW120711   1.707   0.264   1.198
 6604SOL    HW220712   1.689   0.354   1.333
 6605SOL     OW20713   5.765   5.863   2.121
 6605SOL    HW120714   5.787   5.954   2.156
 6605SOL    HW220715   5.809   5.850   2.032
 6606SOL     OW20716   6.941   4.594   2.769
 6606SOL    HW120717   6.935   4.559   2.863
 6606SOL    HW220718   6.853   4.635   2.744
 6607SOL     OW20719   6.553   5.434   3.711
 6607SOL    HW120720   6.546   5.483   3.624
 6607SOL    HW220721   6.528   5.338   3.697
 6608SOL     OW20722   6.830   0.228   0.947
 6608SOL    HW120723   6.749   0.280   0.922
 6608SOL    HW220724   6.875   0.193   0.864
 6609SOL     OW20725   5.042   1.523   6.057
 6609SOL    HW120726   5.014   1.597   6.118
 6609SOL    HW220727   5.042   1.436   6.108
 6610SOL     OW20728   2.764   6.151   0.127
 6610SOL    HW120729   2.680   6.097   0.119
 6610SOL    HW220730   2.770   6.215   0.051
 6611SOL     OW20731   5.201   2.955   3.360
 6611SOL    HW120732   5.177   3.051   3.349
 6611SOL    HW220733   5.222   2.915   3.271
 6612SOL     OW20734   6.550   2.273   6.169
 6612SOL    HW120735   6.500   2.349   6.130
 6612SOL    HW220736   6.519   2.187   6.128
 6613SOL     OW20737   5.707   0.284   6.057
 6613SOL    HW120738   5.800   0.291   6.093
 6613SOL    HW220739   5.690   0.360   5.993
 6614SOL     OW20740   4.908   6.977   0.768
 6614SOL    HW120741   4.898   7.012   0.675
 6614SOL    HW220742   4.842   6.903   0.783
 6615SOL     OW20743   2.218   5.411   0.537
 6615SOL    HW120744   2.217   5.344   0.463
 6615SOL    HW220745   2.221   5.503   0.499
 6616SOL     OW20746   4.621   0.135   6.100
 6616SOL    HW120747   4.716   0.105   6.113
 6616SOL    HW220748   4.567   0.058   6.066
 6617SOL     OW20749   4.186   6.174   3.249
 6617SOL    HW120750   4.275   6.190   3.291
 6617SOL    HW220751   4.177   6.232   3.168
 6618SOL     OW20752   0.940   1.333   3.104
 6618SOL    HW120753   1.037   1.320   3.084
 6618SOL    HW220754   0.929   1.411   3.165
 6619SOL     OW20755   4.538   0.008   3.665
 6619SOL    HW120756   4.561   0.061   3.583
 6619SOL    HW220757   4.614   0.011   3.729
 6620SOL     OW20758   2.124   3.547   4.055
 6620SOL    HW120759   2.106   3.516   4.149
 6620SOL    HW220760   2.172   3.475   4.005
 6621SOL     OW20761   3.829   2.770   5.176
 6621SOL    HW120762   3.827   2.700   5.104
 6621SOL    HW220763   3.835   2.860   5.134
 6622SOL     OW20764   6.267   5.936   1.992
 6622SOL    HW120765   6.271   5.838   2.008
 6622SOL    HW220766   6.360   5.974   1.992
 6623SOL     OW20767   3.652   4.196   5.062
 6623SOL    HW120768   3.584   4.152   5.121
 6623SOL    HW220769   3.687   4.278   5.107
 6624SOL     OW20770   0.996   3.649   5.569
 6624SOL    HW120771   0.958   3.558   5.582
 6624SOL    HW220772   1.092   3.649   5.598
 6625SOL     OW20773   5.650   2.029   5.135
 6625SOL    HW120774   5.567   2.083   5.145
 6625SOL    HW220775   5.626   1.932   5.127
 6626SOL     OW20776   3.072   6.546   5.660
 6626SOL    HW120777   3.038   6.640   5.659
 6626SOL    HW220778   3.125   6.531   5.744
 6627SOL     OW20779   1.778   6.359   4.178
 6627SOL    HW120780   1.815   6.395   4.264
 6627SOL    HW220781   1.706   6.293   4.197
 6628SOL     OW20782   5.012   4.819   3.810
 6628SOL    HW120783   5.064   4.809   3.725
 6628SOL    HW220784   5.064   4.876   3.874
 6629SOL     OW20785   4.120   5.450   6.487
 6629SOL    HW120786   4.194   5.498   6.533
 6629SOL    HW220787   4.107   5.360   6.529
 6630SOL     OW20788   3.380   1.306   1.852
 6630SOL    HW120789   3.300   1.307   1.912
 6630SOL    HW220790   3.427   1.394   1.857
 6631SOL     OW20791   2.085   5.517   4.141
 6631SOL    HW120792   2.066   5.591   4.206
 6631SOL    HW220793   2.101   5.555   4.050
 6632SOL     OW20794   1.528   1.153   0.856
 6632SOL    HW120795   1.547   1.151   0.954
 6632SOL    HW220796   1.437   1.193   0.841
 6633SOL     OW20797   2.851   4.942   6.152
 6633SOL    HW120798   2.848   4.957   6.251
 6633SOL    HW220799   2.898   5.019   6.108
 6634SOL     OW20800   4.818   1.870   4.917
 6634SOL    HW120801   4.902   1.924   4.920
 6634SOL    HW220802   4.841   1.773   4.905
 6635SOL     OW20803   4.822   3.975   3.016
 6635SOL    HW120804   4.906   3.949   3.065
 6635SOL    HW220805   4.819   3.928   2.928
 6636SOL     OW20806   3.348   1.796   1.342
 6636SOL    HW120807   3.442   1.794   1.308
 6636SOL    HW220808   3.287   1.752   1.276
 6637SOL     OW20809   2.784   0.399   6.548
 6637SOL    HW120810   2.763   0.308   6.582
 6637SOL    HW220811   2.883   0.410   6.541
 6638SOL     OW20812   3.309   3.676   2.933
 6638SOL    HW120813   3.376   3.688   3.006
 6638SOL    HW220814   3.314   3.582   2.898
 6639SOL     OW20815   3.482   3.610   6.542
 6639SOL    HW120816   3.571   3.628   6.584
 6639SOL    HW220817   3.481   3.649   6.450
 6640SOL     OW20818   6.748   2.591   5.126
 6640SOL    HW120819   6.712   2.501   5.150
 6640SOL    HW220820   6.806   2.582   5.044
 6641SOL     OW20821   3.854   1.676   0.184
 6641SOL    HW120822   3.943   1.716   0.206
 6641SOL    HW220823   3.837   1.598   0.244
 6642SOL     OW20824   2.148   5.099   6.131
 6642SOL    HW120825   2.101   5.087   6.218
 6642SOL    HW220826   2.191   5.013   6.105
 6643SOL     OW20827   6.636   6.866   0.648
 6643SOL    HW120828   6.639   6.805   0.727
 6643SOL    HW220829   6.614   6.814   0.565
 6644SOL     OW20830   1.696   5.815   3.462
 6644SOL    HW120831   1.741   5.744   3.408
 6644SOL    HW220832   1.765   5.871   3.508
 6645SOL     OW20833   6.132   3.126   0.404
 6645SOL    HW120834   6.103   3.036   0.373
 6645SOL    HW220835   6.098   3.142   0.497
 6646SOL     OW20836   4.757   0.944   5.847
 6646SOL    HW120837   4.732   0.865   5.791
 6646SOL    HW220838   4.830   0.918   5.910
 6647SOL     OW20839   4.400   6.528   1.159
 6647SOL    HW120840   4.341   6.601   1.123
 6647SOL    HW220841   4.420   6.546   1.255
 6648SOL     OW20842   3.123   6.003   4.622
 6648SOL    HW120843   3.065   6.027   4.700
 6648SOL    HW220844   3.217   5.993   4.652
 6649SOL     OW20845   5.849   3.027   6.452
 6649SOL    HW120846   5.881   3.002   6.544
 6649SOL    HW220847   5.928   3.045   6.394
 6650SOL     OW20848   3.895   1.426   4.874
 6650SOL    HW120849   3.827   1.462   4.810
 6650SOL    HW220850   3.910   1.329   4.855
 6651SOL     OW20851   1.733   2.002   6.673
 6651SOL    HW120852   1.637   1.984   6.654
 6651SOL    HW220853   1.768   2.071   6.609
 6652SOL     OW20854   0.597   4.704   6.993
 6652SOL    HW120855   0.696   4.715   6.990
 6652SOL    HW220856   0.570   4.626   6.936
 6653SOL     OW20857   5.037   2.968   0.959
 6653SOL    HW120858   4.939   2.973   0.977
 6653SOL    HW220859   5.087   3.013   1.033
 6654SOL     OW20860   0.259   5.266   2.562
 6654SOL    HW120861   0.270   5.349   2.507
 6654SOL    HW220862   0.312   5.275   2.646
 6655SOL     OW20863   0.039   5.986   2.135
 6655SOL    HW120864   0.012   5.998   2.231
 6655SOL    HW220865   0.117   5.924   2.130
 6656SOL     OW20866   5.242   2.114   3.260
 6656SOL    HW120867   5.196   2.077   3.179
 6656SOL    HW220868   5.328   2.156   3.233
 6657SOL     OW20869   5.964   2.987   4.534
 6657SOL    HW120870   5.973   3.033   4.445
 6657SOL    HW220871   6.055   2.965   4.569
 6658SOL     OW20872   6.318   0.208   5.741
 6658SOL    HW120873   6.233   0.216   5.793
 6658SOL    HW220874   6.306   0.142   5.666
 6659SOL     OW20875   1.120   3.891   1.828
 6659SOL    HW120876   1.139   3.989   1.830
 6659SOL    HW220877   1.159   3.852   1.745
 6660SOL     OW20878   1.984   5.321   1.704
 6660SOL    HW120879   2.030   5.235   1.727
 6660SOL    HW220880   1.891   5.302   1.674
 6661SOL     OW20881   2.825   0.700   4.836
 6661SOL    HW120882   2.900   0.747   4.882
 6661SOL    HW220883   2.771   0.766   4.783
 6662SOL     OW20884   2.064   0.865   0.672
 6662SOL    HW120885   2.095   0.808   0.596
 6662SOL    HW220886   1.994   0.816   0.724
 6663SOL     OW20887   0.532   6.735   4.865
 6663SOL    HW120888   0.500   6.720   4.771
 6663SOL    HW220889   0.610   6.675   4.883
 6664SOL     OW20890   2.253   0.590   0.795
 6664SOL    HW120891   2.248   0.579   0.894
 6664SOL    HW220892   2.223   0.506   0.750
 6665SOL     OW20893   1.621   6.613   5.612
 6665SOL    HW120894   1.616   6.705   5.651
 6665SOL    HW220895   1.659   6.617   5.520
 6666SOL     OW20896   6.264   5.402   5.294
 6666SOL    HW120897   6.271   5.409   5.194
 6666SOL    HW220898   6.340   5.453   5.336
 6667SOL     OW20899   6.582   6.493   5.945
 6667SOL    HW120900   6.655   6.534   5.891
 6667SOL    HW220901   6.521   6.564   5.978
 6668SOL     OW20902   6.674   5.978   1.117
 6668SOL    HW120903   6.744   5.933   1.061
 6668SOL    HW220904   6.714   6.058   1.163
 6669SOL     OW20905   3.894   2.242   1.416
 6669SOL    HW120906   3.827   2.252   1.489
 6669SOL    HW220907   3.847   2.228   1.329
 6670SOL     OW20908   3.598   0.870   6.431
 6670SOL    HW120909   3.521   0.915   6.477
 6670SOL    HW220910   3.609   0.777   6.468
 6671SOL     OW20911   5.706   6.482   7.010
 6671SOL    HW120912   5.651   6.416   0.035
 6671SOL    HW220913   5.729   6.445   6.920
 6672SOL     OW20914   1.271   2.672   0.294
 6672SOL    HW120915   1.353   2.711   0.251
 6672SOL    HW220916   1.245   2.589   0.245
 6673SOL     OW20917   4.803   4.234   3.530
 6673SOL    HW120918   4.717   4.229   3.580
 6673SOL    HW220919   4.787   4.213   3.434
 6674SOL     OW20920   0.190   3.362   6.775
 6674SOL    HW120921   0.250   3.288   6.805
 6674SOL    HW220922   0.216   3.447   6.821
 6675SOL     OW20923   5.986   2.458   0.353
 6675SOL    HW120924   6.048   2.433   0.428
 6675SOL    HW220925   6.040   2.484   0.273
 6676SOL     OW20926   0.688   3.314   2.999
 6676SOL    HW120927   0.767   3.254   2.984
 6676SOL    HW220928   0.698   3.397   2.944
 6677SOL     OW20929   0.555   1.094   6.879
 6677SOL    HW120930   0.473   1.112   6.933
 6677SOL    HW220931   0.614   1.030   6.927
 6678SOL     OW20932   2.467   4.630   0.906
 6678SOL    HW120933   2.448   4.707   0.845
 6678SOL    HW220934   2.444   4.655   1.000
 6679SOL     OW20935   3.669   1.101   3.834
 6679SOL    HW120936   3.736   1.156   3.784
 6679SOL    HW220937   3.710   1.012   3.856
 6680SOL     OW20938   4.466   6.449   6.621
 6680SOL    HW120939   4.371   6.418   6.633
 6680SOL    HW220940   4.525   6.400   6.684
 6681SOL     OW20941   4.894   5.457   1.043
 6681SOL    HW120942   4.912   5.423   1.136
 6681SOL    HW220943   4.809   5.510   1.044
 6682SOL     OW20944   2.456   4.690   0.027
 6682SOL    HW120945   2.554   4.675   0.042
 6682SOL    HW220946   2.415   4.607   7.015
 6683SOL     OW20947   5.966   3.137   6.005
 6683SOL    HW120948   5.998   3.188   5.926
 6683SOL    HW220949   5.883   3.086   5.981
 6684SOL     OW20950   3.761   6.509   2.342
 6684SOL    HW120951   3.700   6.583   2.371
 6684SOL    HW220952   3.823   6.543   2.271
 6685SOL     OW20953   5.064   2.429   6.124
 6685SOL    HW120954   5.159   2.398   6.115
 6685SOL    HW220955   5.020   2.380   6.200
 6686SOL     OW20956   5.936   5.892   3.966
 6686SOL    HW120957   5.937   5.889   4.066
 6686SOL    HW220958   5.894   5.977   3.936
 6687SOL     OW20959   0.699   2.718   1.955
 6687SOL    HW120960   0.648   2.772   2.022
 6687SOL    HW220961   0.783   2.683   1.998
 6688SOL     OW20962   4.109   4.502   0.536
 6688SOL    HW120963   4.096   4.600   0.548
 6688SOL    HW220964   4.184   4.486   0.472
 6689SOL     OW20965   4.219   3.418   5.961
 6689SOL    HW120966   4.259   3.498   5.917
 6689SOL    HW220967   4.292   3.364   6.004
 6690SOL     OW20968   1.222   6.615   0.226
 6690SOL    HW120969   1.137   6.658   0.256
 6690SOL    HW220970   1.203   6.554   0.149
 6691SOL     OW20971   2.115   0.135   2.226
 6691SOL    HW120972   2.105   0.231   2.255
 6691SOL    HW220973   2.112   0.076   2.306
 6692SOL     OW20974   4.212   4.052   1.710
 6692SOL    HW120975   4.284   4.108   1.751
 6692SOL    HW220976   4.227   3.956   1.733
 6693SOL     OW20977   4.304   1.918   4.776
 6693SOL    HW120978   4.281   1.996   4.718
 6693SOL    HW220979   4.382   1.941   4.833
 6694SOL     OW20980   4.486   6.540   1.437
 6694SOL    HW120981   4.433   6.579   1.512
 6694SOL    HW220982   4.524   6.452   1.465
 6695SOL     OW20983   2.761   2.123   6.917
 6695SOL    HW120984   2.855   2.097   6.940
 6695SOL    HW220985   2.697   2.057   6.956
 6696SOL     OW20986   3.829   2.916   3.523
 6696SOL    HW120987   3.742   2.870   3.539
 6696SOL    HW220988   3.869   2.943   3.610
 6697SOL     OW20989   4.755   2.345   3.183
 6697SOL    HW120990   4.802   2.350   3.272
 6697SOL    HW220991   4.657   2.333   3.198
 6698SOL     OW20992   3.533   3.298   0.961
 6698SOL    HW120993   3.494   3.301   1.054
 6698SOL    HW220994   3.479   3.357   0.901
 6699SOL     OW20995   2.228   7.001   5.381
 6699SOL    HW120996   2.162   0.015   5.317
 6699SOL    HW220997   2.179   6.953   5.454
 6700SOL     OW20998   6.455   1.405   1.076
 6700SOL    HW120999   6.535   1.453   1.041
 6700SOL    HW221000   6.376   1.466   1.073
 6701SOL     OW21001   5.629   6.034   1.652
 6701SOL    HW121002   5.547   6.061   1.701
 6701SOL    HW221003   5.706   6.030   1.715
 6702SOL     OW21004   1.863   2.448   2.046
 6702SOL    HW121005   1.933   2.505   2.087
 6702SOL    HW221006   1.780   2.502   2.031
 6703SOL     OW21007   0.954   1.140   0.429
 6703SOL    HW121008   0.924   1.139   0.333
 6703SOL    HW221009   1.041   1.091   0.436
 6704SOL     OW21010   3.960   2.197   4.389
 6704SOL    HW121011   4.057   2.220   4.378
 6704SOL    HW221012   3.940   2.180   4.486
 6705SOL     OW21013   5.959   2.704   0.689
 6705SOL    HW121014   5.923   2.792   0.722
 6705SOL    HW221015   5.970   2.641   0.766
 6706SOL     OW21016   1.846   5.979   0.462
 6706SOL    HW121017   1.878   5.980   0.557
 6706SOL    HW221018   1.849   5.885   0.427
 6707SOL     OW21019   5.323   6.636   3.308
 6707SOL    HW121020   5.246   6.640   3.372
 6707SOL    HW221021   5.401   6.592   3.352
 6708SOL     OW21022   5.660   5.332   1.249
 6708SOL    HW121023   5.689   5.378   1.333
 6708SOL    HW221024   5.724   5.260   1.227
 6709SOL     OW21025   0.291   5.548   3.235
 6709SOL    HW121026   0.195   5.573   3.224
 6709SOL    HW221027   0.312   5.535   3.332
 6710SOL     OW21028   4.442   0.917   0.417
 6710SOL    HW121029   4.349   0.884   0.431
 6710SOL    HW221030   4.444   0.983   0.342
 6711SOL     OW21031   5.005   6.572   6.010
 6711SOL    HW121032   5.071   6.646   5.995
 6711SOL    HW221033   4.956   6.553   5.926
 6712SOL     OW21034   6.024   3.101   1.313
 6712SOL    HW121035   6.117   3.064   1.317
 6712SOL    HW221036   5.976   3.081   1.398
 6713SOL     OW21037   1.197   0.794   3.059
 6713SOL    HW121038   1.174   0.710   3.009
 6713SOL    HW221039   1.116   0.829   3.105
 6714SOL     OW21040   5.936   1.645   0.607
 6714SOL    HW121041   5.854   1.587   0.608
 6714SOL    HW221042   5.940   1.698   0.691
 6715SOL     OW21043   1.486   0.014   1.265
 6715SOL    HW121044   1.543   0.094   1.277
 6715SOL    HW221045   1.538   6.957   1.288
 6716SOL     OW21046   0.163   5.770   2.385
 6716SOL    HW121047   0.157   5.864   2.418
 6716SOL    HW221048   0.204   5.769   2.294
 6717SOL     OW21049   1.974   2.249   6.256
 6717SOL    HW121050   1.969   2.279   6.160
 6717SOL    HW221051   2.069   2.252   6.286
 6718SOL     OW21052   4.425   0.360   1.096
 6718SOL    HW121053   4.373   0.298   1.037
 6718SOL    HW221054   4.505   0.312   1.133
 6719SOL     OW21055   2.287   6.923   0.167
 6719SOL    HW121056   2.321   6.945   0.076
 6719SOL    HW221057   2.191   6.950   0.173
 6720SOL     OW21058   2.309   1.020   4.464
 6720SOL    HW121059   2.383   0.983   4.408
 6720SOL    HW221060   2.252   1.080   4.407
 6721SOL     OW21061   6.877   6.687   0.661
 6721SOL    HW121062   6.873   6.762   0.727
 6721SOL    HW221063   6.913   6.605   0.706
 6722SOL     OW21064   7.014   2.845   6.849
 6722SOL    HW121065   0.052   2.880   6.781
 6722SOL    HW221066   6.928   2.896   6.845
 6723SOL     OW21067   1.430   6.847   5.453
 6723SOL    HW121068   1.461   6.866   5.546
 6723SOL    HW221069   1.496   6.883   5.387
 6724SOL     OW21070   2.223   2.613   6.219
 6724SOL    HW121071   2.156   2.643   6.151
 6724SOL    HW221072   2.176   2.588   6.304
 6725SOL     OW21073   6.816   2.212   2.213
 6725SOL    HW121074   6.753   2.210   2.135
 6725SOL    HW221075   6.787   2.284   2.277
 6726SOL     OW21076   0.375   2.152   3.839
 6726SOL    HW121077   0.449   2.095   3.874
 6726SOL    HW221078   0.340   2.114   3.753
 6727SOL     OW21079   0.240   4.569   6.028
 6727SOL    HW121080   0.270   4.638   5.961
 6727SOL    HW221081   0.294   4.578   6.112
 6728SOL     OW21082   4.087   1.683   2.791
 6728SOL    HW121083   4.010   1.626   2.762
 6728SOL    HW221084   4.085   1.770   2.741
 6729SOL     OW21085   0.073   1.516   0.808
 6729SOL    HW121086   0.120   1.427   0.814
 6729SOL    HW221087   0.105   1.575   0.882
 6730SOL     OW21088   1.830   0.137   0.869
 6730SOL    HW121089   1.889   0.141   0.949
 6730SOL    HW221090   1.883   0.109   0.789
 6731SOL     OW21091   1.147   0.107   0.829
 6731SOL    HW121092   1.101   0.028   0.790
 6731SOL    HW221093   1.223   0.076   0.887
 6732SOL     OW21094   5.233   4.642   4.668
 6732SOL    HW121095   5.321   4.594   4.670
 6732SOL    HW221096   5.205   4.665   4.761
 6733SOL     OW21097   3.875   5.735   6.082
 6733SOL    HW121098   3.796   5.674   6.071
 6733SOL    HW221099   3.932   5.731   6.000
 6734SOL     OW21100   5.482   2.136   6.099
 6734SOL    HW121101   5.502   2.126   6.196
 6734SOL    HW221102   5.517   2.056   6.049
 6735SOL     OW21103   5.904   3.418   4.048
 6735SOL    HW121104   5.962   3.366   3.985
 6735SOL    HW221105   5.949   3.504   4.071
 6736SOL     OW21106   3.322   3.850   6.084
 6736SOL    HW121107   3.237   3.827   6.131
 6736SOL    HW221108   3.393   3.868   6.151
 6737SOL     OW21109   1.667   3.157   1.190
 6737SOL    HW121110   1.639   3.213   1.268
 6737SOL    HW221111   1.595   3.091   1.168
 6738SOL     OW21112   1.571   5.668   4.309
 6738SOL    HW121113   1.516   5.746   4.341
 6738SOL    HW221114   1.642   5.701   4.247
 6739SOL     OW21115   5.928   5.953   4.228
 6739SOL    HW121116   5.974   6.026   4.278
 6739SOL    HW221117   5.859   5.911   4.287
 6740SOL     OW21118   6.244   0.525   5.668
 6740SOL    HW121119   6.341   0.529   5.645
 6740SOL    HW221120   6.196   0.600   5.623
 6741SOL     OW21121   3.473   2.099   5.518
 6741SOL    HW121122   3.474   2.148   5.431
 6741SOL    HW221123   3.524   2.014   5.510
 6742SOL     OW21124   5.274   5.672   3.390
 6742SOL    HW121125   5.326   5.708   3.468
 6742SOL    HW221126   5.240   5.747   3.335
 6743SOL     OW21127   3.797   3.804   6.258
 6743SOL    HW121128   3.754   3.807   6.348
 6743SOL    HW221129   3.807   3.710   6.228
 6744SOL     OW21130   0.386   6.592   5.337
 6744SOL    HW121131   0.365   6.636   5.250
 6744SOL    HW221132   0.478   6.551   5.332
 6745SOL     OW21133   6.592   6.032   3.773
 6745SOL    HW121134   6.646   6.045   3.691
 6745SOL    HW221135   6.495   6.047   3.753
 6746SOL     OW21136   1.031   0.266   3.673
 6746SOL    HW121137   1.111   0.209   3.654
 6746SOL    HW221138   1.053   0.331   3.745
 6747SOL     OW21139   6.043   0.246   0.374
 6747SOL    HW121140   6.070   0.218   0.466
 6747SOL    HW221141   6.065   0.343   0.361
 6748SOL     OW21142   3.422   1.759   3.161
 6748SOL    HW121143   3.508   1.805   3.140
 6748SOL    HW221144   3.356   1.774   3.087
 6749SOL     OW21145   4.373   4.464   0.895
 6749SOL    HW121146   4.384   4.394   0.966
 6749SOL    HW221147   4.277   4.469   0.869
 6750SOL     OW21148   2.844   1.829   4.501
 6750SOL    HW121149   2.809   1.903   4.558
 6750SOL    HW221150   2.941   1.842   4.483
 6751SOL     OW21151   4.634   0.669   3.525
 6751SOL    HW121152   4.619   0.672   3.426
 6751SOL    HW221153   4.633   0.762   3.561
 6752SOL     OW21154   1.980   0.128   2.589
 6752SOL    HW121155   2.023   0.219   2.585
 6752SOL    HW221156   1.899   0.133   2.648
 6753SOL     OW21157   3.710   1.484   6.510
 6753SOL    HW121158   3.773   1.536   6.568
 6753SOL    HW221159   3.632   1.454   6.565
 6754SOL     OW21160   6.780   1.287   0.893
 6754SOL    HW121161   6.840   1.216   0.857
 6754SOL    HW221162   6.767   1.273   0.991
 6755SOL     OW21163   4.290   3.870   1.084
 6755SOL    HW121164   4.271   3.941   1.152
 6755SOL    HW221165   4.345   3.798   1.125
 6756SOL     OW21166   3.735   6.727   5.610
 6756SOL    HW121167   3.676   6.659   5.567
 6756SOL    HW221168   3.814   6.681   5.652
 6757SOL     OW21169   3.597   2.475   0.547
 6757SOL    HW121170   3.675   2.442   0.601
 6757SOL    HW221171   3.543   2.538   0.602
 6758SOL     OW21172   6.435   2.868   1.838
 6758SOL    HW121173   6.429   2.888   1.740
 6758SOL    HW221174   6.376   2.932   1.888
 6759SOL     OW21175   0.693   3.135   2.551
 6759SOL    HW121176   0.665   3.229   2.534
 6759SOL    HW221177   0.629   3.073   2.506
 6760SOL     OW21178   6.422   3.766   2.483
 6760SOL    HW121179   6.459   3.790   2.573
 6760SOL    HW221180   6.347   3.701   2.494
 6761SOL     OW21181   6.299   2.869   4.809
 6761SOL    HW121182   6.242   2.869   4.727
 6761SOL    HW221183   6.380   2.813   4.793
 6762SOL     OW21184   0.397   5.227   4.165
 6762SOL    HW121185   0.401   5.145   4.106
 6762SOL    HW221186   0.302   5.250   4.183
 6763SOL     OW21187   5.568   5.359   3.933
 6763SOL    HW121188   5.634   5.290   3.961
 6763SOL    HW221189   5.478   5.336   3.970
 6764SOL     OW21190   2.802   5.373   1.662
 6764SOL    HW121191   2.756   5.445   1.610
 6764SOL    HW221192   2.839   5.412   1.747
 6765SOL     OW21193   5.732   5.014   2.965
 6765SOL    HW121194   5.673   5.085   3.004
 6765SOL    HW221195   5.746   5.032   2.868
 6766SOL     OW21196   5.446   6.495   5.651
 6766SOL    HW121197   5.537   6.511   5.688
 6766SOL    HW221198   5.422   6.398   5.660
 6767SOL     OW21199   3.103   0.506   1.185
 6767SOL    HW121200   3.095   0.606   1.186
 6767SOL    HW221201   3.132   0.474   1.275
 6768SOL     OW21202   1.870   0.497   5.512
 6768SOL    HW121203   1.771   0.503   5.498
 6768SOL    HW221204   1.917   0.549   5.441
 6769SOL     OW21205   3.237   1.857   0.615
 6769SOL    HW121206   3.160   1.808   0.655
 6769SOL    HW221207   3.256   1.940   0.668
 6770SOL     OW21208   6.994   1.088   2.212
 6770SOL    HW121209   6.994   1.051   2.119
 6770SOL    HW221210   7.009   1.014   2.277
 6771SOL     OW21211   4.996   2.576   3.258
 6771SOL    HW121212   4.959   2.492   3.299
 6771SOL    HW221213   4.954   2.655   3.301
 6772SOL     OW21214   3.786   2.130   3.200
 6772SOL    HW121215   3.783   2.143   3.299
 6772SOL    HW221216   3.722   2.192   3.155
 6773SOL     OW21217   6.624   5.131   2.287
 6773SOL    HW121218   6.583   5.177   2.365
 6773SOL    HW221219   6.707   5.083   2.316
 6774SOL     OW21220   0.527   2.175   5.716
 6774SOL    HW121221   0.469   2.227   5.653
 6774SOL    HW221222   0.547   2.086   5.677
 6775SOL     OW21223   2.513   2.796   1.774
 6775SOL    HW121224   2.610   2.809   1.753
 6775SOL    HW221225   2.462   2.879   1.752
 6776SOL     OW21226   4.362   5.010   0.327
 6776SOL    HW121227   4.441   5.029   0.385
 6776SOL    HW221228   4.279   5.007   0.383
 6777SOL     OW21229   4.409   4.376   6.901
 6777SOL    HW121230   4.362   4.462   6.923
 6777SOL    HW221231   4.472   4.392   6.825
 6778SOL     OW21232   6.090   4.796   2.171
 6778SOL    HW121233   6.146   4.857   2.114
 6778SOL    HW221234   6.104   4.701   2.141
 6779SOL     OW21235   6.363   5.717   6.786
 6779SOL    HW121236   6.457   5.750   6.779
 6779SOL    HW221237   6.361   5.632   6.839
 6780SOL     OW21238   1.304   2.895   2.053
 6780SOL    HW121239   1.387   2.912   2.106
 6780SOL    HW221240   1.306   2.952   1.971
 6781SOL     OW21241   6.526   0.606   4.631
 6781SOL    HW121242   6.551   0.514   4.663
 6781SOL    HW221243   6.446   0.639   4.682
 6782SOL     OW21244   6.948   0.329   3.478
 6782SOL    HW121245   6.989   0.243   3.447
 6782SOL    HW221246   7.015   0.403   3.472
 6783SOL     OW21247   6.023   1.557   6.050
 6783SOL    HW121248   5.973   1.471   6.042
 6783SOL    HW221249   5.984   1.624   5.987
 6784SOL     OW21250   2.426   3.886   0.856
 6784SOL    HW121251   2.418   3.985   0.869
 6784SOL    HW221252   2.521   3.863   0.833
 6785SOL     OW21253   5.465   5.280   3.682
 6785SOL    HW121254   5.502   5.286   3.775
 6785SOL    HW221255   5.500   5.357   3.628
 6786SOL     OW21256   1.920   2.126   6.936
 6786SOL    HW121257   1.925   2.155   0.006
 6786SOL    HW221258   1.945   2.029   6.929
 6787SOL     OW21259   2.034   2.558   1.578
 6787SOL    HW121260   1.978   2.537   1.659
 6787SOL    HW221261   2.080   2.645   1.592
 6788SOL     OW21262   2.217   3.860   1.425
 6788SOL    HW121263   2.266   3.835   1.342
 6788SOL    HW221264   2.201   3.778   1.480
 6789SOL     OW21265   6.721   5.362   3.338
 6789SOL    HW121266   6.694   5.444   3.388
 6789SOL    HW221267   6.640   5.319   3.297
 6790SOL     OW21268   0.767   3.724   1.432
 6790SOL    HW121269   0.835   3.681   1.492
 6790SOL    HW221270   0.752   3.819   1.460
 6791SOL     OW21271   3.987   2.521   1.390
 6791SOL    HW121272   4.067   2.551   1.442
 6791SOL    HW221273   3.943   2.445   1.438
 6792SOL     OW21274   6.449   6.138   5.385
 6792SOL    HW121275   6.501   6.223   5.387
 6792SOL    HW221276   6.511   6.061   5.397
 6793SOL     OW21277   1.316   1.915   0.880
 6793SOL    HW121278   1.233   1.964   0.855
 6793SOL    HW221279   1.333   1.926   0.978
 6794SOL     OW21280   4.993   1.734   6.213
 6794SOL    HW121281   5.078   1.780   6.188
 6794SOL    HW221282   4.915   1.795   6.197
 6795SOL     OW21283   2.337   6.793   1.212
 6795SOL    HW121284   2.412   6.783   1.147
 6795SOL    HW221285   2.258   6.741   1.180
 6796SOL     OW21286   6.119   0.921   1.914
 6796SOL    HW121287   6.078   0.831   1.930
 6796SOL    HW221288   6.219   0.914   1.922
 6797SOL     OW21289   5.390   2.711   1.631
 6797SOL    HW121290   5.368   2.657   1.712
 6797SOL    HW221291   5.307   2.757   1.598
 6798SOL     OW21292   4.659   0.120   2.238
 6798SOL    HW121293   4.654   0.159   2.146
 6798SOL    HW221294   4.611   0.181   2.302
 6799SOL     OW21295   6.190   6.535   1.329
 6799SOL    HW121296   6.181   6.627   1.291
 6799SOL    HW221297   6.181   6.467   1.256
 6800SOL     OW21298   1.960   4.052   1.441
 6800SOL    HW121299   1.970   4.149   1.420
 6800SOL    HW221300   2.029   4.000   1.390
 6801SOL     OW21301   0.624   0.379   2.948
 6801SOL    HW121302   0.631   0.344   2.854
 6801SOL    HW221303   0.709   0.426   2.972
 6802SOL     OW21304   3.391   5.453   0.844
 6802SOL    HW121305   3.362   5.367   0.887
 6802SOL    HW221306   3.317   5.487   0.785
 6803SOL     OW21307   5.270   3.125   6.255
 6803SOL    HW121308   5.216   3.201   6.291
 6803SOL    HW221309   5.360   3.159   6.228
 6804SOL     OW21310   3.650   5.169   3.739
 6804SOL    HW121311   3.683   5.077   3.717
 6804SOL    HW221312   3.554   5.177   3.712
 6805SOL     OW21313   6.623   4.880   6.688
 6805SOL    HW121314   6.582   4.788   6.691
 6805SOL    HW221315   6.689   4.889   6.762
 6806SOL     OW21316   5.938   0.523   4.277
 6806SOL    HW121317   5.892   0.574   4.204
 6806SOL    HW221318   5.939   0.578   4.360
 6807SOL     OW21319   3.386   3.069   0.115
 6807SOL    HW121320   3.449   3.044   0.188
 6807SOL    HW221321   3.426   3.045   0.026
 6808SOL     OW21322   0.085   1.897   4.793
 6808SOL    HW121323   7.018   1.859   4.788
 6808SOL    HW221324   0.081   1.989   4.831
 6809SOL     OW21325   1.429   3.045   1.268
 6809SOL    HW121326   1.445   3.096   1.353
 6809SOL    HW221327   1.331   3.028   1.258
 6810SOL     OW21328   1.856   0.225   2.119
 6810SOL    HW121329   1.901   0.301   2.071
 6810SOL    HW221330   1.920   0.186   2.185
 6811SOL     OW21331   5.558   3.802   0.601
 6811SOL    HW121332   5.620   3.818   0.524
 6811SOL    HW221333   5.517   3.711   0.593
 6812SOL     OW21334   3.184   3.460   3.147
 6812SOL    HW121335   3.113   3.397   3.179
 6812SOL    HW221336   3.272   3.414   3.146
 6813SOL     OW21337   5.167   2.374   2.881
 6813SOL    HW121338   5.161   2.277   2.856
 6813SOL    HW221339   5.248   2.414   2.840
 6814SOL     OW21340   3.407   1.827   5.955
 6814SOL    HW121341   3.488   1.784   5.915
 6814SOL    HW221342   3.413   1.927   5.945
 6815SOL     OW21343   3.192   6.772   1.596
 6815SOL    HW121344   3.185   6.683   1.552
 6815SOL    HW221345   3.101   6.802   1.625
 6816SOL     OW21346   0.657   0.093   6.847
 6816SOL    HW121347   0.620   0.173   6.800
 6816SOL    HW221348   0.585   0.024   6.858
 6817SOL     OW21349   1.520   2.464   3.455
 6817SOL    HW121350   1.490   2.478   3.549
 6817SOL    HW221351   1.565   2.375   3.447
 6818SOL     OW21352   3.056   5.158   1.896
 6818SOL    HW121353   3.007   5.088   1.844
 6818SOL    HW221354   3.043   5.247   1.853
 6819SOL     OW21355   4.946   0.845   4.594
 6819SOL    HW121356   4.916   0.935   4.628
 6819SOL    HW221357   4.939   0.779   4.669
 6820SOL     OW21358   1.904   5.892   2.770
 6820SOL    HW121359   1.819   5.892   2.823
 6820SOL    HW221360   1.882   5.886   2.673
 6821SOL     OW21361   3.240   1.019   4.332
 6821SOL    HW121362   3.326   1.006   4.283
 6821SOL    HW221363   3.221   1.116   4.341
 6822SOL     OW21364   5.784   2.562   6.838
 6822SOL    HW121365   5.762   2.517   6.924
 6822SOL    HW221366   5.769   2.498   6.762
 6823SOL     OW21367   4.015   3.127   4.554
 6823SOL    HW121368   3.982   3.185   4.479
 6823SOL    HW221369   4.099   3.166   4.591
 6824SOL     OW21370   0.670   2.743   6.711
 6824SOL    HW121371   0.589   2.728   6.655
 6824SOL    HW221372   0.647   2.730   6.808
 6825SOL     OW21373   5.052   6.952   2.223
 6825SOL    HW121374   5.063   0.007   2.165
 6825SOL    HW221375   4.981   6.970   2.291
 6826SOL     OW21376   2.226   4.215   2.549
 6826SOL    HW121377   2.214   4.121   2.516
 6826SOL    HW221378   2.171   4.229   2.631
 6827SOL     OW21379   4.646   5.442   6.227
 6827SOL    HW121380   4.714   5.446   6.153
 6827SOL    HW221381   4.579   5.372   6.206
 6828SOL     OW21382   2.856   2.354   1.560
 6828SOL    HW121383   2.796   2.281   1.594
 6828SOL    HW221384   2.839   2.438   1.611
 6829SOL     OW21385   4.430   6.454   4.223
 6829SOL    HW121386   4.419   6.367   4.271
 6829SOL    HW221387   4.490   6.514   4.275
 6830SOL     OW21388   4.950   1.190   4.001
 6830SOL    HW121389   4.918   1.214   3.909
 6830SOL    HW221390   4.992   1.270   4.043
 6831SOL     OW21391   1.388   0.728   6.664
 6831SOL    HW121392   1.395   0.815   6.613
 6831SOL    HW221393   1.474   0.679   6.657
 6832SOL     OW21394   2.170   4.220   1.251
 6832SOL    HW121395   2.091   4.268   1.289
 6832SOL    HW221396   2.247   4.226   1.315
 6833SOL     OW21397   4.060   4.001   6.458
 6833SOL    HW121398   4.007   3.971   6.378
 6833SOL    HW221399   4.155   4.014   6.432
 6834SOL     OW21400   5.052   6.324   0.767
 6834SOL    HW121401   5.138   6.332   0.818
 6834SOL    HW221402   5.052   6.238   0.715
 6835SOL     OW21403   3.524   0.326   4.146
 6835SOL    HW121404   3.615   0.332   4.104
 6835SOL    HW221405   3.522   0.383   4.228
 6836SOL     OW21406   2.685   5.674   0.279
 6836SOL    HW121407   2.774   5.682   0.235
 6836SOL    HW221408   2.670   5.580   0.309
 6837SOL     OW21409   1.039   1.760   2.497
 6837SOL    HW121410   1.015   1.856   2.510
 6837SOL    HW221411   1.138   1.749   2.509
 6838SOL     OW21412   3.014   6.452   0.396
 6838SOL    HW121413   3.002   6.515   0.473
 6838SOL    HW221414   2.928   6.405   0.378
 6839SOL     OW21415   5.378   0.862   0.052
 6839SOL    HW121416   5.424   0.843   0.138
 6839SOL    HW221417   5.405   0.794   7.009
 6840SOL     OW21418   3.112   1.274   4.998
 6840SOL    HW121419   3.201   1.239   4.967
 6840SOL    HW221420   3.071   1.207   5.060
 6841SOL     OW21421   4.862   4.100   6.362
 6841SOL    HW121422   4.946   4.128   6.409
 6841SOL    HW221423   4.880   4.086   6.265
 6842SOL     OW21424   3.014   4.111   1.444
 6842SOL    HW121425   2.972   4.137   1.357
 6842SOL    HW221426   3.114   4.112   1.434
 6843SOL     OW21427   6.067   6.718   0.619
 6843SOL    HW121428   6.036   6.763   0.703
 6843SOL    HW221429   6.018   6.756   0.540
 6844SOL     OW21430   5.633   0.861   4.637
 6844SOL    HW121431   5.539   0.894   4.651
 6844SOL    HW221432   5.639   0.765   4.663
 6845SOL     OW21433   6.024   3.712   3.199
 6845SOL    HW121434   5.976   3.636   3.154
 6845SOL    HW221435   6.054   3.777   3.130
 6846SOL     OW21436   3.721   3.305   0.684
 6846SOL    HW121437   3.669   3.360   0.750
 6846SOL    HW221438   3.785   3.363   0.636
 6847SOL     OW21439   6.948   3.455   4.959
 6847SOL    HW121440   6.873   3.405   5.004
 6847SOL    HW221441   6.914   3.494   4.873
 6848SOL     OW21442   5.464   4.635   3.461
 6848SOL    HW121443   5.382   4.581   3.480
 6848SOL    HW221444   5.502   4.609   3.372
 6849SOL     OW21445   4.587   3.773   5.350
 6849SOL    HW121446   4.581   3.694   5.288
 6849SOL    HW221447   4.677   3.816   5.340
 6850SOL     OW21448   5.232   2.932   2.880
 6850SOL    HW121449   5.308   2.870   2.899
 6850SOL    HW221450   5.260   2.998   2.810
 6851SOL     OW21451   0.264   2.291   3.039
 6851SOL    HW121452   0.304   2.295   3.131
 6851SOL    HW221453   0.204   2.212   3.032
 6852SOL     OW21454   2.760   4.482   1.280
 6852SOL    HW121455   2.694   4.472   1.355
 6852SOL    HW221456   2.754   4.575   1.244
 6853SOL     OW21457   5.785   4.393   6.510
 6853SOL    HW121458   5.833   4.433   6.589
 6853SOL    HW221459   5.772   4.463   6.440
 6854SOL     OW21460   5.095   0.687   5.478
 6854SOL    HW121461   5.027   0.707   5.548
 6854SOL    HW221462   5.169   0.632   5.517
 6855SOL     OW21463   4.383   5.876   3.760
 6855SOL    HW121464   4.336   5.803   3.711
 6855SOL    HW221465   4.433   5.837   3.837
 6856SOL     OW21466   0.318   2.252   4.834
 6856SOL    HW121467   0.271   2.286   4.753
 6856SOL    HW221468   0.395   2.311   4.856
 6857SOL     OW21469   1.500   2.749   6.661
 6857SOL    HW121470   1.535   2.842   6.649
 6857SOL    HW221471   1.565   2.695   6.714
 6858SOL     OW21472   4.098   4.297   1.580
 6858SOL    HW121473   4.178   4.353   1.604
 6858SOL    HW221474   4.124   4.200   1.580
 6859SOL     OW21475   1.084   1.487   1.351
 6859SOL    HW121476   0.997   1.512   1.394
 6859SOL    HW221477   1.090   1.533   1.262
 6860SOL     OW21478   7.009   4.738   1.283
 6860SOL    HW121479   6.975   4.669   1.348
 6860SOL    HW221480   0.082   4.727   1.272
 6861SOL     OW21481   4.885   3.773   6.705
 6861SOL    HW121482   4.804   3.761   6.647
 6861SOL    HW221483   4.895   3.695   6.766
 6862SOL     OW21484   0.569   5.886   5.495
 6862SOL    HW121485   0.553   5.878   5.397
 6862SOL    HW221486   0.620   5.969   5.514
 6863SOL     OW21487   6.278   6.769   5.906
 6863SOL    HW121488   6.265   6.699   5.836
 6863SOL    HW221489   6.348   6.834   5.876
 6864SOL     OW21490   2.751   4.615   5.423
 6864SOL    HW121491   2.760   4.580   5.330
 6864SOL    HW221492   2.842   4.636   5.459
 6865SOL     OW21493   0.393   6.644   4.431
 6865SOL    HW121494   0.463   6.627   4.362
 6865SOL    HW221495   0.309   6.674   4.386
 6866SOL     OW21496   5.673   5.349   2.833
 6866SOL    HW121497   5.764   5.377   2.865
 6866SOL    HW221498   5.679   5.255   2.798
 6867SOL     OW21499   2.042   3.557   1.776
 6867SOL    HW121500   2.114   3.549   1.845
 6867SOL    HW221501   2.012   3.465   1.749
 6868SOL     OW21502   1.962   6.644   6.006
 6868SOL    HW121503   2.016   6.712   6.056
 6868SOL    HW221504   1.895   6.689   5.948
 6869SOL     OW21505   5.203   0.916   5.872
 6869SOL    HW121506   5.159   0.926   5.962
 6869SOL    HW221507   5.146   0.857   5.814
 6870SOL     OW21508   0.384   4.525   0.986
 6870SOL    HW121509   0.478   4.558   0.973
 6870SOL    HW221510   0.337   4.584   1.052
 6871SOL     OW21511   5.869   4.219   3.144
 6871SOL    HW121512   5.797   4.164   3.186
 6871SOL    HW221513   5.827   4.295   3.094
 6872SOL     OW21514   0.549   2.626   1.653
 6872SOL    HW121515   0.460   2.625   1.698
 6872SOL    HW221516   0.611   2.563   1.699
 6873SOL     OW21517   0.555   3.200   4.215
 6873SOL    HW121518   0.529   3.286   4.258
 6873SOL    HW221519   0.603   3.218   4.128
 6874SOL     OW21520   6.576   4.858   3.478
 6874SOL    HW121521   6.553   4.955   3.466
 6874SOL    HW221522   6.673   4.844   3.458
 6875SOL     OW21523   2.397   1.789   2.531
 6875SOL    HW121524   2.415   1.741   2.445
 6875SOL    HW221525   2.402   1.888   2.516
 6876SOL     OW21526   4.037   0.014   3.568
 6876SOL    HW121527   4.095   6.983   3.508
 6876SOL    HW221528   4.075   0.012   3.660
 6877SOL     OW21529   3.146   4.477   1.392
 6877SOL    HW121530   3.232   4.511   1.353
 6877SOL    HW221531   3.166   4.412   1.465
 6878SOL     OW21532   3.044   1.781   4.088
 6878SOL    HW121533   3.063   1.823   4.000
 6878SOL    HW221534   3.127   1.736   4.123
 6879SOL     OW21535   2.307   2.723   0.499
 6879SOL    HW121536   2.301   2.809   0.549
 6879SOL    HW221537   2.240   2.722   0.426
 6880SOL     OW21538   0.899   6.125   5.842
 6880SOL    HW121539   0.927   6.162   5.931
 6880SOL    HW221540   0.804   6.094   5.847
 6881SOL     OW21541   1.205   3.715   1.567
 6881SOL    HW121542   1.145   3.685   1.493
 6881SOL    HW221543   1.234   3.636   1.621
 6882SOL     OW21544   2.583   0.509   0.340
 6882SOL    HW121545   2.584   0.601   0.380
 6882SOL    HW221546   2.643   0.505   0.260
 6883SOL     OW21547   4.958   1.587   0.256
 6883SOL    HW121548   4.875   1.531   0.253
 6883SOL    HW221549   4.960   1.639   0.341
 6884SOL     OW21550   0.833   4.216   2.912
 6884SOL    HW121551   0.898   4.187   2.982
 6884SOL    HW221552   0.865   4.186   2.822
 6885SOL     OW21553   4.441   4.917   3.135
 6885SOL    HW121554   4.387   4.835   3.117
 6885SOL    HW221555   4.530   4.890   3.173
 6886SOL     OW21556   0.031   1.302   4.711
 6886SOL    HW121557   0.066   1.286   4.803
 6886SOL    HW221558   0.082   1.245   4.646
 6887SOL     OW21559   4.380   5.510   6.597
 6887SOL    HW121560   4.405   5.581   6.663
 6887SOL    HW221561   4.394   5.545   6.504
 6888SOL     OW21562   5.087   5.133   6.806
 6888SOL    HW121563   5.077   5.182   6.720
 6888SOL    HW221564   5.085   5.035   6.790
 6889SOL     OW21565   1.561   2.874   6.303
 6889SOL    HW121566   1.520   2.846   6.216
 6889SOL    HW221567   1.527   2.964   6.328
 6890SOL     OW21568   4.327   6.317   1.966
 6890SOL    HW121569   4.399   6.254   1.996
 6890SOL    HW221570   4.319   6.392   2.032
 6891SOL     OW21571   1.771   3.698   1.246
 6891SOL    HW121572   1.700   3.708   1.175
 6891SOL    HW221573   1.733   3.722   1.335
 6892SOL     OW21574   3.724   1.559   4.240
 6892SOL    HW121575   3.738   1.582   4.336
 6892SOL    HW221576   3.786   1.613   4.183
 6893SOL     OW21577   4.894   4.013   6.837
 6893SOL    HW121578   4.911   3.939   6.772
 6893SOL    HW221579   4.898   4.101   6.789
 6894SOL     OW21580   5.920   4.596   1.463
 6894SOL    HW121581   5.967   4.519   1.419
 6894SOL    HW221582   5.855   4.636   1.398
 6895SOL     OW21583   2.078   5.221   1.414
 6895SOL    HW121584   2.098   5.241   1.510
 6895SOL    HW221585   1.986   5.184   1.405
 6896SOL     OW21586   3.169   1.867   3.593
 6896SOL    HW121587   3.226   1.824   3.522
 6896SOL    HW221588   3.207   1.956   3.618
 6897SOL     OW21589   4.993   3.437   5.083
 6897SOL    HW121590   4.923   3.506   5.063
 6897SOL    HW221591   4.978   3.399   5.174
 6898SOL     OW21592   3.927   1.490   1.686
 6898SOL    HW121593   3.874   1.570   1.660
 6898SOL    HW221594   3.874   1.407   1.669
 6899SOL     OW21595   4.742   5.991   2.224
 6899SOL    HW121596   4.660   6.044   2.244
 6899SOL    HW221597   4.722   5.893   2.231
 6900SOL     OW21598   6.864   5.210   4.682
 6900SOL    HW121599   6.934   5.281   4.690
 6900SOL    HW221600   6.775   5.253   4.667
 6901SOL     OW21601   6.041   6.724   6.447
 6901SOL    HW121602   6.082   6.813   6.467
 6901SOL    HW221603   5.976   6.734   6.371
 6902SOL     OW21604   6.437   5.590   6.171
 6902SOL    HW121605   6.488   5.673   6.195
 6902SOL    HW221606   6.362   5.613   6.110
 6903SOL     OW21607   3.442   4.885   5.354
 6903SOL    HW121608   3.432   4.927   5.445
 6903SOL    HW221609   3.351   4.874   5.312
 6904SOL     OW21610   5.976   0.295   6.141
 6904SOL    HW121611   6.006   0.207   6.176
 6904SOL    HW221612   6.039   0.367   6.171
 6905SOL     OW21613   5.236   5.696   6.641
 6905SOL    HW121614   5.210   5.710   6.546
 6905SOL    HW221615   5.250   5.784   6.686
 6906SOL     OW21616   3.951   1.523   3.842
 6906SOL    HW121617   4.047   1.519   3.872
 6906SOL    HW221618   3.904   1.440   3.871
 6907SOL     OW21619   5.916   2.265   1.131
 6907SOL    HW121620   5.832   2.291   1.082
 6907SOL    HW221621   5.895   2.192   1.195
 6908SOL     OW21622   2.054   5.548   6.238
 6908SOL    HW121623   2.069   5.522   6.143
 6908SOL    HW221624   2.048   5.648   6.245
 6909SOL     OW21625   5.119   3.945   0.334
 6909SOL    HW121626   5.194   3.934   0.399
 6909SOL    HW221627   5.095   4.041   0.327
 6910SOL     OW21628   1.188   3.477   2.981
 6910SOL    HW121629   1.221   3.530   3.060
 6910SOL    HW221630   1.240   3.503   2.900
 6911SOL     OW21631   4.224   0.047   4.137
 6911SOL    HW121632   4.299   7.006   4.136
 6911SOL    HW221633   4.256   0.133   4.098
 6912SOL     OW21634   3.082   3.121   6.234
 6912SOL    HW121635   3.023   3.048   6.268
 6912SOL    HW221636   3.051   3.148   6.142
 6913SOL     OW21637   5.344   6.186   4.766
 6913SOL    HW121638   5.308   6.095   4.787
 6913SOL    HW221639   5.350   6.239   4.851
 6914SOL     OW21640   5.752   4.682   4.081
 6914SOL    HW121641   5.715   4.710   3.992
 6914SOL    HW221642   5.702   4.601   4.113
 6915SOL     OW21643   0.170   2.428   1.851
 6915SOL    HW121644   0.106   2.435   1.927
 6915SOL    HW221645   0.198   2.519   1.822
 6916SOL     OW21646   5.569   1.140   0.903
 6916SOL    HW121647   5.617   1.058   0.934
 6916SOL    HW221648   5.545   1.129   0.806
 6917SOL     OW21649   4.092   6.841   1.252
 6917SOL    HW121650   3.995   6.853   1.270
 6917SOL    HW221651   4.122   6.753   1.287
 6918SOL     OW21652   0.133   2.368   3.845
 6918SOL    HW121653   0.215   2.366   3.788
 6918SOL    HW221654   0.117   2.277   3.883
 6919SOL     OW21655   5.873   5.359   4.263
 6919SOL    HW121656   5.927   5.341   4.346
 6919SOL    HW221657   5.871   5.458   4.247
 6920SOL     OW21658   4.798   6.343   5.043
 6920SOL    HW121659   4.819   6.435   5.077
 6920SOL    HW221660   4.874   6.282   5.065
 6921SOL     OW21661   4.648   6.499   3.283
 6921SOL    HW121662   4.669   6.563   3.357
 6921SOL    HW221663   4.550   6.477   3.285
 6922SOL     OW21664   1.712   6.138   5.868
 6922SOL    HW121665   1.619   6.114   5.839
 6922SOL    HW221666   1.729   6.235   5.848
 6923SOL     OW21667   4.994   5.687   2.362
 6923SOL    HW121668   4.954   5.688   2.454
 6923SOL    HW221669   5.092   5.671   2.368
 6924SOL     OW21670   2.276   4.364   0.134
 6924SOL    HW121671   2.212   4.298   0.094
 6924SOL    HW221672   2.353   4.378   0.071
 6925SOL     OW21673   5.201   5.551   4.590
 6925SOL    HW121674   5.296   5.580   4.587
 6925SOL    HW221675   5.169   5.530   4.498
 6926SOL     OW21676   2.803   2.241   0.448
 6926SOL    HW121677   2.803   2.267   0.545
 6926SOL    HW221678   2.894   2.259   0.409
 6927SOL     OW21679   3.772   2.238   5.659
 6927SOL    HW121680   3.860   2.275   5.688
 6927SOL    HW221681   3.698   2.292   5.699
 6928SOL     OW21682   5.717   5.534   0.997
 6928SOL    HW121683   5.689   5.469   1.067
 6928SOL    HW221684   5.733   5.623   1.040
 6929SOL     OW21685   4.992   6.006   2.329
 6929SOL    HW121686   5.015   5.910   2.345
 6929SOL    HW221687   4.895   6.015   2.309
 6930SOL     OW21688   1.322   0.791   1.722
 6930SOL    HW121689   1.261   0.831   1.790
 6930SOL    HW221690   1.406   0.845   1.716
 6931SOL     OW21691   1.656   1.541   2.416
 6931SOL    HW121692   1.745   1.526   2.458
 6931SOL    HW221693   1.664   1.610   2.345
 6932SOL     OW21694   4.565   6.816   0.410
 6932SOL    HW121695   4.503   6.894   0.408
 6932SOL    HW221696   4.645   6.837   0.354
 6933SOL     OW21697   3.541   6.542   5.510
 6933SOL    HW121698   3.460   6.598   5.526
 6933SOL    HW221699   3.514   6.458   5.461
 6934SOL     OW21700   4.823   3.219   6.027
 6934SOL    HW121701   4.863   3.273   5.953
 6934SOL    HW221702   4.810   3.125   5.997
 6935SOL     OW21703   4.555   6.028   2.511
 6935SOL    HW121704   4.494   6.102   2.538
 6935SOL    HW221705   4.533   5.998   2.418
 6936SOL     OW21706   6.507   3.287   3.916
 6936SOL    HW121707   6.528   3.207   3.972
 6936SOL    HW221708   6.582   3.353   3.923
 6937SOL     OW21709   6.211   6.350   1.136
 6937SOL    HW121710   6.147   6.276   1.153
 6937SOL    HW221711   6.294   6.314   1.093
 6938SOL     OW21712   0.036   2.525   4.242
 6938SOL    HW121713   0.132   2.555   4.246
 6938SOL    HW221714   7.004   2.600   4.211
 6939SOL     OW21715   0.089   5.069   2.555
 6939SOL    HW121716   0.154   5.143   2.538
 6939SOL    HW221717   0.124   4.984   2.516
 6940SOL     OW21718   3.953   0.628   0.204
 6940SOL    HW121719   4.053   0.631   0.201
 6940SOL    HW221720   3.923   0.533   0.206
 6941SOL     OW21721   3.459   3.897   1.990
 6941SOL    HW121722   3.482   3.806   1.956
 6941SOL    HW221723   3.531   3.961   1.965
 6942SOL     OW21724   5.808   6.641   2.452
 6942SOL    HW121725   5.894   6.644   2.503
 6942SOL    HW221726   5.815   6.574   2.378
 6943SOL     OW21727   3.792   5.612   0.991
 6943SOL    HW121728   3.790   5.681   1.064
 6943SOL    HW221729   3.738   5.643   0.914
 6944SOL     OW21730   1.045   5.306   5.932
 6944SOL    HW121731   1.027   5.303   6.030
 6944SOL    HW221732   1.091   5.221   5.904
 6945SOL     OW21733   6.961   1.816   1.181
 6945SOL    HW121734   6.953   1.862   1.092
 6945SOL    HW221735   0.007   1.860   1.235
 6946SOL     OW21736   4.197   6.948   1.495
 6946SOL    HW121737   4.136   6.951   1.574
 6946SOL    HW221738   4.153   6.896   1.421
 6947SOL     OW21739   3.726   5.210   6.468
 6947SOL    HW121740   3.754   5.285   6.527
 6947SOL    HW221741   3.782   5.209   6.385
 6948SOL     OW21742   1.094   6.276   0.858
 6948SOL    HW121743   1.113   6.186   0.898
 6948SOL    HW221744   1.128   6.347   0.920
 6949SOL     OW21745   2.778   0.666   3.434
 6949SOL    HW121746   2.846   0.660   3.508
 6949SOL    HW221747   2.704   0.602   3.453
 6950SOL     OW21748   1.225   0.754   4.814
 6950SOL    HW121749   1.248   0.772   4.910
 6950SOL    HW221750   1.130   0.724   4.809
 6951SOL     OW21751   0.838   5.597   6.316
 6951SOL    HW121752   0.783   5.679   6.297
 6951SOL    HW221753   0.794   5.545   6.389
 6952SOL     OW21754   1.168   5.167   3.170
 6952SOL    HW121755   1.133   5.073   3.171
 6952SOL    HW221756   1.253   5.170   3.117
 6953SOL     OW21757   5.279   6.367   0.886
 6953SOL    HW121758   5.316   6.394   0.797
 6953SOL    HW221759   5.354   6.341   0.947
 6954SOL     OW21760   0.912   4.503   1.629
 6954SOL    HW121761   0.828   4.495   1.684
 6954SOL    HW221762   0.906   4.584   1.571
 6955SOL     OW21763   4.851   0.701   2.430
 6955SOL    HW121764   4.852   0.601   2.430
 6955SOL    HW221765   4.932   0.735   2.476
 6956SOL     OW21766   4.651   5.936   3.277
 6956SOL    HW121767   4.594   5.907   3.200
 6956SOL    HW221768   4.594   5.948   3.358
 6957SOL     OW21769   6.274   5.772   0.150
 6957SOL    HW121770   6.263   5.871   0.144
 6957SOL    HW221771   6.192   5.727   0.115
 6958SOL     OW21772   4.157   3.462   4.867
 6958SOL    HW121773   4.132   3.425   4.957
 6958SOL    HW221774   4.254   3.449   4.851
 6959SOL     OW21775   1.635   3.739   3.390
 6959SOL    HW121776   1.728   3.704   3.379
 6959SOL    HW221777   1.636   3.839   3.388
 6960SOL     OW21778   1.616   4.134   0.650
 6960SOL    HW121779   1.528   4.162   0.687
 6960SOL    HW221780   1.605   4.104   0.555
 6961SOL     OW21781   6.350   1.004   4.946
 6961SOL    HW121782   6.300   0.958   4.873
 6961SOL    HW221783   6.447   1.007   4.924
 6962SOL     OW21784   4.292   5.626   0.852
 6962SOL    HW121785   4.328   5.590   0.938
 6962SOL    HW221786   4.365   5.674   0.803
 6963SOL     OW21787   5.271   5.528   1.102
 6963SOL    HW121788   5.300   5.466   1.175
 6963SOL    HW221789   5.318   5.615   1.112
 6964SOL     OW21790   3.817   0.895   6.170
 6964SOL    HW121791   3.799   0.813   6.225
 6964SOL    HW221792   3.911   0.892   6.136
 6965SOL     OW21793   1.869   1.527   6.614
 6965SOL    HW121794   1.791   1.569   6.660
 6965SOL    HW221795   1.840   1.445   6.567
 6966SOL     OW21796   0.189   0.901   2.958
 6966SOL    HW121797   0.230   0.926   3.046
 6966SOL    HW221798   0.097   0.866   2.974
 6967SOL     OW21799   3.427   0.974   5.521
 6967SOL    HW121800   3.415   0.900   5.454
 6967SOL    HW221801   3.513   1.021   5.503
 6968SOL     OW21802   2.946   1.398   3.622
 6968SOL    HW121803   2.861   1.432   3.663
 6968SOL    HW221804   2.954   1.433   3.529
 6969SOL     OW21805   3.317   2.236   1.463
 6969SOL    HW121806   3.227   2.270   1.433
 6969SOL    HW221807   3.330   2.257   1.559
 6970SOL     OW21808   4.069   3.823   5.593
 6970SOL    HW121809   4.091   3.917   5.566
 6970SOL    HW221810   3.976   3.821   5.631
 6971SOL     OW21811   6.168   4.544   1.142
 6971SOL    HW121812   6.175   4.639   1.110
 6971SOL    HW221813   6.100   4.496   1.087
 6972SOL     OW21814   5.149   4.290   2.909
 6972SOL    HW121815   5.143   4.332   2.819
 6972SOL    HW221816   5.098   4.345   2.975
 6973SOL     OW21817   0.875   2.521   3.399
 6973SOL    HW121818   0.841   2.573   3.477
 6973SOL    HW221819   0.933   2.446   3.432
 6974SOL     OW21820   3.062   3.984   2.652
 6974SOL    HW121821   2.972   4.025   2.640
 6974SOL    HW221822   3.123   4.015   2.579
 6975SOL     OW21823   1.338   6.912   4.580
 6975SOL    HW121824   1.391   6.834   4.614
 6975SOL    HW221825   1.287   6.885   4.499
 6976SOL     OW21826   6.396   4.736   5.946
 6976SOL    HW121827   6.485   4.756   5.905
 6976SOL    HW221828   6.369   4.642   5.922
 6977SOL     OW21829   3.786   3.487   0.974
 6977SOL    HW121830   3.699   3.516   0.935
 6977SOL    HW221831   3.774   3.399   1.020
 6978SOL     OW21832   5.186   2.490   1.786
 6978SOL    HW121833   5.131   2.574   1.787
 6978SOL    HW221834   5.192   2.453   1.878
 6979SOL     OW21835   1.001   3.899   1.323
 6979SOL    HW121836   1.018   3.915   1.420
 6979SOL    HW221837   0.997   3.801   1.305
 6980SOL     OW21838   1.895   1.023   3.543
 6980SOL    HW121839   1.864   1.117   3.549
 6980SOL    HW221840   1.976   1.010   3.601
 6981SOL     OW21841   3.704   3.373   5.891
 6981SOL    HW121842   3.760   3.453   5.868
 6981SOL    HW221843   3.611   3.387   5.857
 6982SOL     OW21844   1.016   1.031   4.547
 6982SOL    HW121845   0.973   1.088   4.476
 6982SOL    HW221846   1.089   0.976   4.505
 6983SOL     OW21847   4.480   1.689   4.889
 6983SOL    HW121848   4.385   1.658   4.887
 6983SOL    HW221849   4.487   1.779   4.845
 6984SOL     OW21850   2.407   1.583   2.971
 6984SOL    HW121851   2.401   1.643   2.891
 6984SOL    HW221852   2.364   1.629   3.049
 6985SOL     OW21853   6.074   5.073   0.937
 6985SOL    HW121854   6.140   5.005   0.905
 6985SOL    HW221855   6.090   5.093   1.033
 6986SOL     OW21856   3.161   0.255   6.848
 6986SOL    HW121857   3.063   0.252   6.829
 6986SOL    HW221858   3.193   0.349   6.844
 6987SOL     OW21859   6.711   1.155   6.491
 6987SOL    HW121860   6.773   1.120   6.420
 6987SOL    HW221861   6.620   1.170   6.452
 6988SOL     OW21862   1.308   0.166   6.121
 6988SOL    HW121863   1.212   0.192   6.112
 6988SOL    HW221864   1.316   0.087   6.182
 6989SOL     OW21865   0.444   4.743   2.973
 6989SOL    HW121866   0.414   4.805   2.901
 6989SOL    HW221867   0.517   4.684   2.938
 6990SOL     OW21868   4.486   3.231   1.031
 6990SOL    HW121869   4.440   3.319   1.015
 6990SOL    HW221870   4.419   3.164   1.061
 6991SOL     OW21871   4.739   4.107   3.307
 6991SOL    HW121872   4.696   4.172   3.244
 6991SOL    HW221873   4.717   4.013   3.278
 6992SOL     OW21874   5.889   6.820   6.851
 6992SOL    HW121875   5.925   6.895   6.794
 6992SOL    HW221876   5.790   6.829   6.860
 6993SOL     OW21877   5.844   0.480   2.100
 6993SOL    HW121878   5.828   0.456   2.195
 6993SOL    HW221879   5.820   0.576   2.085
 6994SOL     OW21880   0.974   2.052   4.141
 6994SOL    HW121881   1.065   2.023   4.171
 6994SOL    HW221882   0.983   2.119   4.068
 6995SOL     OW21883   0.515   3.746   6.829
 6995SOL    HW121884   0.540   3.665   6.775
 6995SOL    HW221885   0.456   3.805   6.774
 6996SOL     OW21886   1.828   0.549   0.280
 6996SOL    HW121887   1.898   0.522   0.214
 6996SOL    HW221888   1.860   0.530   0.373
 6997SOL     OW21889   0.578   4.798   5.004
 6997SOL    HW121890   0.531   4.710   5.004
 6997SOL    HW221891   0.515   4.869   4.971
 6998SOL     OW21892   1.739   1.796   1.338
 6998SOL    HW121893   1.804   1.728   1.372
 6998SOL    HW221894   1.690   1.837   1.415
 6999SOL     OW21895   1.652   2.655   5.963
 6999SOL    HW121896   1.553   2.646   5.961
 6999SOL    HW221897   1.682   2.674   6.057
 7000SOL     OW21898   6.034   0.191   2.589
 7000SOL    HW121899   5.975   0.151   2.660
 7000SOL    HW221900   5.979   0.213   2.509
 7001SOL     OW21901   0.921   2.568   5.234
 7001SOL    HW121902   0.862   2.500   5.191
 7001SOL    HW221903   1.017   2.544   5.219
 7002SOL     OW21904   2.027   5.237   4.136
 7002SOL    HW121905   2.037   5.335   4.158
 7002SOL    HW221906   1.940   5.222   4.089
 7003SOL     OW21907   4.639   6.077   1.454
 7003SOL    HW121908   4.625   6.012   1.379
 7003SOL    HW221909   4.680   6.161   1.417
 7004SOL     OW21910   0.378   6.017   1.153
 7004SOL    HW121911   0.399   6.053   1.244
 7004SOL    HW221912   0.304   6.072   1.113
 7005SOL     OW21913   1.269   0.976   0.842
 7005SOL    HW121914   1.187   0.925   0.815
 7005SOL    HW221915   1.346   0.913   0.850
 7006SOL     OW21916   5.668   5.767   3.770
 7006SOL    HW121917   5.605   5.844   3.786
 7006SOL    HW221918   5.759   5.802   3.750
 7007SOL     OW21919   4.098   0.531   4.693
 7007SOL    HW121920   4.085   0.439   4.730
 7007SOL    HW221921   4.162   0.581   4.751
 7008SOL     OW21922   0.191   4.185   4.724
 7008SOL    HW121923   0.205   4.099   4.676
 7008SOL    HW221924   0.191   4.260   4.658
 7009SOL     OW21925   3.954   6.467   2.590
 7009SOL    HW121926   3.863   6.485   2.553
 7009SOL    HW221927   3.955   6.377   2.633
 7010SOL     OW21928   5.213   4.111   3.684
 7010SOL    HW121929   5.303   4.069   3.692
 7010SOL    HW221930   5.157   4.056   3.622
 7011SOL     OW21931   3.692   6.916   0.182
 7011SOL    HW121932   3.676   7.010   0.150
 7011SOL    HW221933   3.634   6.853   0.130
 7012SOL     OW21934   0.844   1.803   1.059
 7012SOL    HW121935   0.762   1.798   1.002
 7012SOL    HW221936   0.820   1.839   1.149
 7013SOL     OW21937   1.131   6.903   6.548
 7013SOL    HW121938   1.152   6.895   6.646
 7013SOL    HW221939   1.134   6.812   6.506
 7014SOL     OW21940   5.708   3.245   0.244
 7014SOL    HW121941   5.669   3.155   0.232
 7014SOL    HW221942   5.808   3.239   0.239
 7015SOL     OW21943   5.845   4.199   1.758
 7015SOL    HW121944   5.811   4.243   1.842
 7015SOL    HW221945   5.769   4.157   1.709
 7016SOL     OW21946   4.348   4.801   1.319
 7016SOL    HW121947   4.316   4.894   1.339
 7016SOL    HW221948   4.312   4.738   1.387
 7017SOL     OW21949   3.106   5.126   3.025
 7017SOL    HW121950   3.028   5.067   3.002
 7017SOL    HW221951   3.177   5.114   2.955
 7018SOL     OW21952   5.130   3.831   4.552
 7018SOL    HW121953   5.225   3.823   4.582
 7018SOL    HW221954   5.110   3.759   4.486
 7019SOL     OW21955   4.051   4.182   0.615
 7019SOL    HW121956   4.143   4.156   0.643
 7019SOL    HW221957   4.006   4.231   0.690
 7020SOL     OW21958   6.829   4.060   5.750
 7020SOL    HW121959   6.789   4.069   5.841
 7020SOL    HW221960   6.928   4.046   5.758
 7021SOL     OW21961   1.843   2.971   4.136
 7021SOL    HW121962   1.775   3.042   4.154
 7021SOL    HW221963   1.904   2.962   4.215
 7022SOL     OW21964   4.965   0.191   7.016
 7022SOL    HW121965   4.878   0.238   0.005
 7022SOL    HW221966   5.041   0.251   0.015
 7023SOL     OW21967   0.576   3.060   1.615
 7023SOL    HW121968   0.535   3.075   1.525
 7023SOL    HW221969   0.648   2.991   1.608
 7024SOL     OW21970   3.430   3.355   4.370
 7024SOL    HW121971   3.349   3.411   4.385
 7024SOL    HW221972   3.412   3.286   4.300
 7025SOL     OW21973   3.922   0.634   1.444
 7025SOL    HW121974   4.015   0.626   1.409
 7025SOL    HW221975   3.876   0.711   1.399
 7026SOL     OW21976   3.529   2.087   2.135
 7026SOL    HW121977   3.595   2.162   2.138
 7026SOL    HW221978   3.542   2.034   2.051
 7027SOL     OW21979   2.431   5.640   4.065
 7027SOL    HW121980   2.502   5.705   4.039
 7027SOL    HW221981   2.355   5.645   4.000
 7028SOL     OW21982   3.837   0.862   3.836
 7028SOL    HW121983   3.921   0.837   3.788
 7028SOL    HW221984   3.820   0.796   3.909
 7029SOL     OW21985   4.514   3.603   5.574
 7029SOL    HW121986   4.450   3.629   5.646
 7029SOL    HW221987   4.536   3.683   5.519
 7030SOL     OW21988   0.342   1.231   4.464
 7030SOL    HW121989   0.331   1.177   4.548
 7030SOL    HW221990   0.371   1.324   4.488
 7031SOL     OW21991   3.887   6.044   6.952
 7031SOL    HW121992   3.948   6.067   6.875
 7031SOL    HW221993   3.814   5.984   6.920
 7032SOL     OW21994   4.242   1.462   3.447
 7032SOL    HW121995   4.175   1.536   3.433
 7032SOL    HW221996   4.319   1.475   3.385
 7033SOL     OW21997   1.115   2.956   3.322
 7033SOL    HW121998   1.160   2.902   3.251
 7033SOL    HW221999   1.170   2.953   3.406
 7034SOL     OW22000   6.890   1.752   2.726
 7034SOL    HW122001   6.830   1.671   2.726
 7034SOL    HW222002   6.985   1.722   2.723
 7035SOL     OW22003   1.792   0.281   0.454
 7035SOL    HW122004   1.878   0.296   0.503
 7035SOL    HW222005   1.716   0.313   0.511
 7036SOL     OW22006   6.932   1.528   2.260
 7036SOL    HW122007   6.989   1.467   2.316
 7036SOL    HW222008   6.922   1.616   2.306
 7037SOL     OW22009   0.850   1.104   6.391
 7037SOL    HW122010   0.837   1.203   6.386
 7037SOL    HW222011   0.945   1.085   6.416
 7038SOL     OW22012   2.546   4.615   4.886
 7038SOL    HW122013   2.643   4.614   4.912
 7038SOL    HW222014   2.526   4.700   4.837
 7039SOL     OW22015   0.341   6.010   3.200
 7039SOL    HW122016   0.327   5.921   3.156
 7039SOL    HW222017   0.408   6.063   3.147
 7040SOL     OW22018   4.655   2.525   5.809
 7040SOL    HW122019   4.588   2.597   5.827
 7040SOL    HW222020   4.733   2.536   5.871
 7041SOL     OW22021   0.094   1.564   2.936
 7041SOL    HW122022   0.114   1.661   2.924
 7041SOL    HW222023   0.098   1.541   3.033
 7042SOL     OW22024   4.172   5.891   4.382
 7042SOL    HW122025   4.192   5.915   4.287
 7042SOL    HW222026   4.256   5.891   4.435
 7043SOL     OW22027   2.740   5.152   3.240
 7043SOL    HW122028   2.720   5.239   3.285
 7043SOL    HW222029   2.831   5.157   3.199
 7044SOL     OW22030   5.301   5.963   5.602
 7044SOL    HW122031   5.305   6.025   5.524
 7044SOL    HW222032   5.206   5.933   5.616
 7045SOL     OW22033   5.125   5.820   2.076
 7045SOL    HW122034   5.124   5.769   2.162
 7045SOL    HW222035   5.130   5.756   2.000
 7046SOL     OW22036   3.330   1.502   3.573
 7046SOL    HW122037   3.281   1.544   3.650
 7046SOL    HW222038   3.394   1.433   3.609
 7047SOL     OW22039   6.825   0.727   1.811
 7047SOL    HW122040   6.783   0.648   1.766
 7047SOL    HW222041   6.920   0.736   1.782
 7048SOL     OW22042   5.906   6.233   4.678
 7048SOL    HW122043   5.872   6.307   4.619
 7048SOL    HW222044   5.828   6.182   4.715
 7049SOL     OW22045   3.645   1.706   1.649
 7049SOL    HW122046   3.710   1.737   1.719
 7049SOL    HW222047   3.670   1.747   1.561
 7050SOL     OW22048   3.858   3.948   1.160
 7050SOL    HW122049   3.921   3.951   1.239
 7050SOL    HW222050   3.777   3.895   1.184
 7051SOL     OW22051   6.960   6.478   1.357
 7051SOL    HW122052   6.921   6.412   1.292
 7051SOL    HW222053   6.983   6.562   1.309
 7052SOL     OW22054   6.116   0.791   4.355
 7052SOL    HW122055   6.033   0.842   4.381
 7052SOL    HW222056   6.172   0.847   4.295
 7053SOL     OW22057   1.515   3.858   4.273
 7053SOL    HW122058   1.422   3.892   4.260
 7053SOL    HW222059   1.578   3.907   4.213
 7054SOL     OW22060   0.392   6.842   1.404
 7054SOL    HW122061   0.417   6.921   1.460
 7054SOL    HW222062   0.335   6.780   1.457
 7055SOL     OW22063   2.741   0.584   0.140
 7055SOL    HW122064   2.782   0.596   0.050
 7055SOL    HW222065   2.801   0.622   0.210
 7056SOL     OW22066   6.838   5.528   1.461
 7056SOL    HW122067   6.931   5.532   1.424
 7056SOL    HW222068   6.783   5.602   1.421
 7057SOL     OW22069   3.053   5.352   3.816
 7057SOL    HW122070   3.062   5.273   3.877
 7057SOL    HW222071   3.132   5.356   3.755
 7058SOL     OW22072   5.267   2.083   6.383
 7058SOL    HW122073   5.267   2.010   6.313
 7058SOL    HW222074   5.358   2.125   6.387
 7059SOL     OW22075   1.443   1.082   4.140
 7059SOL    HW122076   1.498   1.163   4.157
 7059SOL    HW222077   1.374   1.101   4.070
 7060SOL     OW22078   3.799   6.821   1.419
 7060SOL    HW122079   3.751   6.848   1.502
 7060SOL    HW222080   3.763   6.732   1.388
 7061SOL     OW22081   0.034   3.023   3.073
 7061SOL    HW122082   0.121   3.072   3.065
 7061SOL    HW222083   0.047   2.928   3.043
 7062SOL     OW22084   3.722   1.928   5.241
 7062SOL    HW122085   3.775   1.985   5.305
 7062SOL    HW222086   3.717   1.835   5.277
 7063SOL     OW22087   1.318   0.466   1.304
 7063SOL    HW122088   1.265   0.401   1.251
 7063SOL    HW222089   1.415   0.451   1.288
 7064SOL     OW22090   4.354   1.900   6.381
 7064SOL    HW122091   4.273   1.920   6.325
 7064SOL    HW222092   4.385   1.984   6.426
 7065SOL     OW22093   3.286   3.976   5.138
 7065SOL    HW122094   3.255   3.892   5.183
 7065SOL    HW222095   3.258   3.974   5.042
 7066SOL     OW22096   4.514   6.520   5.759
 7066SOL    HW122097   4.471   6.469   5.834
 7066SOL    HW222098   4.451   6.525   5.682
 7067SOL     OW22099   1.390   3.821   5.898
 7067SOL    HW122100   1.471   3.826   5.840
 7067SOL    HW222101   1.329   3.749   5.864
 7068SOL     OW22102   5.694   4.144   4.375
 7068SOL    HW122103   5.725   4.195   4.294
 7068SOL    HW222104   5.740   4.055   4.378
 7069SOL     OW22105   5.307   1.780   5.401
 7069SOL    HW122106   5.357   1.716   5.342
 7069SOL    HW222107   5.218   1.799   5.361
 7070SOL     OW22108   0.913   6.224   4.335
 7070SOL    HW122109   0.862   6.183   4.259
 7070SOL    HW222110   0.928   6.156   4.406
 7071SOL     OW22111   4.428   5.908   6.568
 7071SOL    HW122112   4.380   5.973   6.627
 7071SOL    HW222113   4.447   5.952   6.479
 7072SOL     OW22114   2.411   4.771   0.302
 7072SOL    HW122115   2.393   4.749   0.206
 7072SOL    HW222116   2.482   4.842   0.308
 7073SOL     OW22117   3.265   0.366   3.084
 7073SOL    HW122118   3.222   0.295   3.029
 7073SOL    HW222119   3.335   0.412   3.031
 7074SOL     OW22120   6.418   3.360   3.136
 7074SOL    HW122121   6.518   3.363   3.129
 7074SOL    HW222122   6.385   3.275   3.095
 7075SOL     OW22123   2.640   5.126   4.361
 7075SOL    HW122124   2.700   5.192   4.316
 7075SOL    HW222125   2.552   5.168   4.380
 7076SOL     OW22126   5.691   2.385   0.487
 7076SOL    HW122127   5.738   2.372   0.574
 7076SOL    HW222128   5.736   2.457   0.435
 7077SOL     OW22129   2.255   4.213   3.446
 7077SOL    HW122130   2.305   4.275   3.385
 7077SOL    HW222131   2.304   4.126   3.452
 7078SOL     OW22132   5.994   6.495   0.985
 7078SOL    HW122133   5.923   6.492   1.054
 7078SOL    HW222134   6.080   6.463   1.024
 7079SOL     OW22135   1.123   6.503   3.720
 7079SOL    HW122136   1.024   6.493   3.705
 7079SOL    HW222137   1.151   6.595   3.691
 7080SOL     OW22138   3.882   2.142   4.126
 7080SOL    HW122139   3.905   2.171   4.219
 7080SOL    HW222140   3.795   2.092   4.128
 7081SOL     OW22141   0.851   5.698   0.541
 7081SOL    HW122142   0.869   5.784   0.495
 7081SOL    HW222143   0.852   5.712   0.640
 7082SOL     OW22144   6.842   4.386   0.288
 7082SOL    HW122145   6.895   4.350   0.365
 7082SOL    HW222146   6.808   4.311   0.232
 7083SOL     OW22147   0.314   1.452   2.329
 7083SOL    HW122148   0.316   1.546   2.295
 7083SOL    HW222149   0.317   1.452   2.429
 7084SOL     OW22150   0.488   5.549   5.362
 7084SOL    HW122151   0.400   5.596   5.362
 7084SOL    HW222152   0.529   5.555   5.453
 7085SOL     OW22153   6.598   2.257   2.582
 7085SOL    HW122154   6.527   2.327   2.577
 7085SOL    HW222155   6.661   2.280   2.656
 7086SOL     OW22156   5.532   0.971   6.500
 7086SOL    HW122157   5.488   0.907   6.563
 7086SOL    HW222158   5.617   0.930   6.467
 7087SOL     OW22159   5.400   3.948   2.165
 7087SOL    HW122160   5.307   3.912   2.158
 7087SOL    HW222161   5.454   3.890   2.227
 7088SOL     OW22162   4.998   2.385   5.367
 7088SOL    HW122163   5.063   2.311   5.383
 7088SOL    HW222164   4.919   2.373   5.428
 7089SOL     OW22165   2.378   4.401   3.291
 7089SOL    HW122166   2.421   4.478   3.339
 7089SOL    HW222167   2.385   4.415   3.192
 7090SOL     OW22168   2.496   1.859   0.347
 7090SOL    HW122169   2.521   1.762   0.340
 7090SOL    HW222170   2.518   1.906   0.261
 7091SOL     OW22171   0.823   0.824   1.608
 7091SOL    HW122172   0.901   0.844   1.549
 7091SOL    HW222173   0.745   0.882   1.581
 7092SOL     OW22174   4.029   3.022   5.698
 7092SOL    HW122175   4.089   2.952   5.660
 7092SOL    HW222176   4.080   3.108   5.706
 7093SOL     OW22177   3.393   3.573   1.700
 7093SOL    HW122178   3.354   3.579   1.792
 7093SOL    HW222179   3.493   3.574   1.707
 7094SOL     OW22180   1.441   0.164   5.730
 7094SOL    HW122181   1.390   0.083   5.758
 7094SOL    HW222182   1.480   0.209   5.810
 7095SOL     OW22183   3.544   4.691   6.083
 7095SOL    HW122184   3.597   4.691   5.998
 7095SOL    HW222185   3.582   4.759   6.145
 7096SOL     OW22186   6.253   0.685   2.054
 7096SOL    HW122187   6.295   0.679   1.963
 7096SOL    HW222188   6.324   0.702   2.122
 7097SOL     OW22189   5.096   0.839   1.703
 7097SOL    HW122190   5.184   0.829   1.750
 7097SOL    HW222191   5.043   0.755   1.711
 7098SOL     OW22192   1.439   5.758   5.581
 7098SOL    HW122193   1.502   5.754   5.503
 7098SOL    HW222194   1.384   5.842   5.576
 7099SOL     OW22195   3.662   1.904   4.592
 7099SOL    HW122196   3.753   1.875   4.565
 7099SOL    HW222197   3.636   1.987   4.542
 7100SOL     OW22198   6.346   2.947   0.342
 7100SOL    HW122199   6.324   2.859   0.299
 7100SOL    HW222200   6.277   3.014   0.316
 7101SOL     OW22201   2.652   0.838   5.509
 7101SOL    HW122202   2.655   0.816   5.607
 7101SOL    HW222203   2.737   0.809   5.466
 7102SOL     OW22204   5.992   0.237   1.612
 7102SOL    HW122205   6.058   0.214   1.683
 7102SOL    HW222206   5.917   0.171   1.613
 7103SOL     OW22207   5.399   5.278   1.663
 7103SOL    HW122208   5.421   5.338   1.740
 7103SOL    HW222209   5.377   5.333   1.583
 7104SOL     OW22210   5.822   3.506   2.367
 7104SOL    HW122211   5.858   3.548   2.450
 7104SOL    HW222212   5.868   3.545   2.287
 7105SOL     OW22213   3.652   3.775   4.516
 7105SOL    HW122214   3.698   3.801   4.601
 7105SOL    HW222215   3.720   3.750   4.447
 7106SOL     OW22216   3.452   3.012   1.380
 7106SOL    HW122217   3.401   2.979   1.301
 7106SOL    HW222218   3.469   3.110   1.370
 7107SOL     OW22219   3.885   0.793   0.885
 7107SOL    HW122220   3.844   0.713   0.930
 7107SOL    HW222221   3.816   0.837   0.827
 7108SOL     OW22222   2.546   6.146   2.513
 7108SOL    HW122223   2.532   6.126   2.610
 7108SOL    HW222224   2.634   6.108   2.483
 7109SOL     OW22225   1.711   1.284   6.847
 7109SOL    HW122226   1.683   1.194   6.881
 7109SOL    HW222227   1.790   1.316   6.899
 7110SOL     OW22228   3.229   5.803   4.136
 7110SOL    HW122229   3.298   5.868   4.102
 7110SOL    HW222230   3.236   5.798   4.236
 7111SOL     OW22231   1.770   1.867   4.014
 7111SOL    HW122232   1.793   1.955   3.973
 7111SOL    HW222233   1.755   1.800   3.942
 7112SOL     OW22234   1.870   4.500   4.288
 7112SOL    HW122235   1.886   4.545   4.376
 7112SOL    HW222236   1.784   4.534   4.249
 7113SOL     OW22237   3.379   4.240   5.242
 7113SOL    HW122238   3.318   4.172   5.201
 7113SOL    HW222239   3.411   4.206   5.331
 7114SOL     OW22240   4.891   5.314   1.314
 7114SOL    HW122241   4.806   5.313   1.366
 7114SOL    HW222242   4.896   5.231   1.257
 7115SOL     OW22243   5.327   3.731   6.644
 7115SOL    HW122244   5.315   3.714   6.742
 7115SOL    HW222245   5.416   3.774   6.628
 7116SOL     OW22246   5.433   4.163   3.109
 7116SOL    HW122247   5.366   4.132   3.177
 7116SOL    HW222248   5.417   4.259   3.088
 7117SOL     OW22249   0.166   0.204   4.451
 7117SOL    HW122250   0.263   0.220   4.432
 7117SOL    HW222251   0.157   0.149   4.534
 7118SOL     OW22252   3.956   4.120   5.491
 7118SOL    HW122253   3.991   4.055   5.424
 7118SOL    HW222254   3.972   4.213   5.459
 7119SOL     OW22255   5.054   1.078   4.887
 7119SOL    HW122256   5.077   1.097   4.792
 7119SOL    HW222257   5.081   0.984   4.910
 7120SOL     OW22258   4.462   1.890   2.015
 7120SOL    HW122259   4.466   1.820   1.944
 7120SOL    HW222260   4.555   1.912   2.044
 7121SOL     OW22261   0.302   6.470   2.909
 7121SOL    HW122262   0.387   6.512   2.940
 7121SOL    HW222263   0.313   6.438   2.815
 7122SOL     OW22264   1.625   0.461   5.642
 7122SOL    HW122265   1.589   0.550   5.672
 7122SOL    HW222266   1.700   0.434   5.703
 7123SOL     OW22267   0.193   5.098   3.878
 7123SOL    HW122268   0.120   5.031   3.868
 7123SOL    HW222269   0.262   5.083   3.807
 7124SOL     OW22270   0.795   2.252   1.440
 7124SOL    HW122271   0.827   2.182   1.504
 7124SOL    HW222272   0.864   2.267   1.370
 7125SOL     OW22273   1.510   1.312   1.754
 7125SOL    HW122274   1.427   1.266   1.786
 7125SOL    HW222275   1.523   1.292   1.657
 7126SOL     OW22276   4.324   5.838   0.517
 7126SOL    HW122277   4.376   5.910   0.470
 7126SOL    HW222278   4.232   5.870   0.536
 7127SOL     OW22279   2.545   6.124   5.526
 7127SOL    HW122280   2.642   6.107   5.540
 7127SOL    HW222281   2.506   6.053   5.468
 7128SOL     OW22282   3.957   3.672   6.523
 7128SOL    HW122283   4.032   3.670   6.457
 7128SOL    HW222284   3.889   3.740   6.493
 7129SOL     OW22285   1.518   1.256   1.469
 7129SOL    HW122286   1.599   1.243   1.412
 7129SOL    HW222287   1.436   1.250   1.412
 7130SOL     OW22288   3.794   6.135   4.330
 7130SOL    HW122289   3.871   6.157   4.390
 7130SOL    HW222290   3.796   6.196   4.251
 7131SOL     OW22291   3.445   1.064   1.337
 7131SOL    HW122292   3.412   1.088   1.429
 7131SOL    HW222293   3.456   0.965   1.330
 7132SOL     OW22294   5.409   4.292   0.148
 7132SOL    HW122295   5.481   4.361   0.155
 7132SOL    HW222296   5.427   4.234   0.068
 7133SOL     OW22297   4.292   4.667   4.190
 7133SOL    HW122298   4.201   4.702   4.168
 7133SOL    HW222299   4.356   4.743   4.198
 7134SOL     OW22300   4.975   6.714   2.020
 7134SOL    HW122301   5.062   6.713   2.069
 7134SOL    HW222302   4.909   6.769   2.071
 7135SOL     OW22303   2.063   3.346   2.761
 7135SOL    HW122304   2.091   3.440   2.740
 7135SOL    HW222305   2.051   3.337   2.860
 7136SOL     OW22306   3.078   1.574   1.325
 7136SOL    HW122307   3.037   1.623   1.248
 7136SOL    HW222308   3.071   1.631   1.407
 7137SOL     OW22309   2.958   1.977   0.485
 7137SOL    HW122310   2.942   2.003   0.389
 7137SOL    HW222311   2.967   1.878   0.491
 7138SOL     OW22312   1.972   1.233   0.953
 7138SOL    HW122313   1.995   1.245   0.857
 7138SOL    HW222314   1.943   1.138   0.969
 7139SOL     OW22315   5.733   4.531   1.936
 7139SOL    HW122316   5.781   4.569   1.857
 7139SOL    HW222317   5.723   4.601   2.006
 7140SOL     OW22318   6.117   4.197   0.969
 7140SOL    HW122319   6.102   4.257   0.890
 7140SOL    HW222320   6.038   4.138   0.982
 7141SOL     OW22321   4.661   6.996   1.049
 7141SOL    HW122322   4.650   6.998   1.148
 7141SOL    HW222323   4.701   6.908   1.022
 7142SOL     OW22324   3.087   0.315   3.951
 7142SOL    HW122325   3.091   0.346   3.857
 7142SOL    HW222326   3.174   0.273   3.977
 7143SOL     OW22327   1.845   4.039   7.006
 7143SOL    HW122328   1.771   3.980   6.974
 7143SOL    HW222329   1.810   4.131   7.022
 7144SOL     OW22330   0.426   0.904   3.380
 7144SOL    HW122331   0.473   0.984   3.343
 7144SOL    HW222332   0.376   0.929   3.463
 7145SOL     OW22333   4.050   0.807   6.902
 7145SOL    HW122334   4.018   0.885   6.850
 7145SOL    HW222335   3.994   0.797   6.985
 7146SOL     OW22336   1.635   1.750   6.002
 7146SOL    HW122337   1.559   1.771   6.064
 7146SOL    HW222338   1.666   1.834   5.958
 7147SOL     OW22339   6.110   6.026   3.086
 7147SOL    HW122340   6.183   6.087   3.055
 7147SOL    HW222341   6.048   6.007   3.010
 7148SOL     OW22342   6.103   5.929   1.632
 7148SOL    HW122343   6.156   6.012   1.645
 7148SOL    HW222344   6.029   5.926   1.700
 7149SOL     OW22345   0.574   5.216   3.747
 7149SOL    HW122346   0.503   5.193   3.681
 7149SOL    HW222347   0.612   5.132   3.786
 7150SOL     OW22348   3.528   3.037   0.347
 7150SOL    HW122349   3.493   3.119   0.393
 7150SOL    HW222350   3.544   2.965   0.415
 7151SOL     OW22351   3.360   6.498   0.996
 7151SOL    HW122352   3.269   6.524   1.028
 7151SOL    HW222353   3.408   6.580   0.964
 7152SOL     OW22354   6.288   1.103   6.610
 7152SOL    HW122355   6.249   1.058   6.691
 7152SOL    HW222356   6.224   1.096   6.534
 7153SOL     OW22357   3.954   5.326   2.280
 7153SOL    HW122358   3.886   5.299   2.212
 7153SOL    HW222359   3.943   5.270   2.362
 7154SOL     OW22360   3.871   0.377   3.153
 7154SOL    HW122361   3.907   0.369   3.060
 7154SOL    HW222362   3.814   0.298   3.173
 7155SOL     OW22363   2.994   2.992   1.052
 7155SOL    HW122364   2.946   3.040   0.979
 7155SOL    HW222365   3.072   3.047   1.083
 7156SOL     OW22366   4.937   3.486   2.518
 7156SOL    HW122367   4.912   3.575   2.554
 7156SOL    HW222368   4.907   3.479   2.422
 7157SOL     OW22369   6.782   4.138   1.490
 7157SOL    HW122370   6.773   4.066   1.559
 7157SOL    HW222371   6.785   4.227   1.535
 7158SOL     OW22372   6.419   6.956   3.621
 7158SOL    HW122373   6.473   0.015   3.624
 7158SOL    HW222374   6.463   6.887   3.680
 7159SOL     OW22375   0.583   4.599   4.344
 7159SOL    HW122376   0.656   4.532   4.362
 7159SOL    HW222377   0.518   4.598   4.420
 7160SOL     OW22378   6.308   6.440   2.528
 7160SOL    HW122379   6.274   6.398   2.444
 7160SOL    HW222380   6.407   6.453   2.522
 7161SOL     OW22381   4.034   3.873   2.819
 7161SOL    HW122382   3.986   3.888   2.906
 7161SOL    HW222383   4.082   3.956   2.793
 7162SOL     OW22384   0.195   5.032   0.025
 7162SOL    HW122385   0.270   4.966   0.017
 7162SOL    HW222386   0.164   5.037   0.120
 7163SOL     OW22387   2.335   0.539   2.582
 7163SOL    HW122388   2.347   0.564   2.678
 7163SOL    HW222389   2.408   0.581   2.527
 7164SOL     OW22390   1.737   0.535   4.945
 7164SOL    HW122391   1.725   0.495   4.854
 7164SOL    HW222392   1.795   0.475   5.000
 7165SOL     OW22393   6.048   5.678   2.013
 7165SOL    HW122394   6.002   5.606   2.065
 7165SOL    HW222395   6.127   5.712   2.065
 7166SOL     OW22396   5.940   0.840   6.821
 7166SOL    HW122397   5.844   0.856   6.800
 7166SOL    HW222398   5.985   0.797   6.743
 7167SOL     OW22399   5.200   2.579   5.292
 7167SOL    HW122400   5.258   2.601   5.370
 7167SOL    HW222401   5.126   2.518   5.321
 7168SOL     OW22402   2.921   1.912   2.297
 7168SOL    HW122403   2.928   2.008   2.269
 7168SOL    HW222404   3.012   1.870   2.298
 7169SOL     OW22405   0.545   4.353   4.880
 7169SOL    HW122406   0.639   4.369   4.911
 7169SOL    HW222407   0.544   4.340   4.781
 7170SOL     OW22408   4.085   6.411   2.315
 7170SOL    HW122409   4.064   6.414   2.413
 7170SOL    HW222410   4.001   6.398   2.263
 7171SOL     OW22411   6.187   3.907   1.021
 7171SOL    HW122412   6.116   3.898   0.951
 7171SOL    HW222413   6.248   3.983   0.997
 7172SOL     OW22414   1.822   1.571   5.280
 7172SOL    HW122415   1.782   1.543   5.193
 7172SOL    HW222416   1.798   1.504   5.351
 7173SOL     OW22417   6.472   5.384   0.101
 7173SOL    HW122418   6.564   5.370   0.065
 7173SOL    HW222419   6.475   5.379   0.201
 7174SOL     OW22420   6.541   4.726   0.713
 7174SOL    HW122421   6.554   4.628   0.729
 7174SOL    HW222422   6.621   4.762   0.666
 7175SOL     OW22423   6.567   3.847   5.350
 7175SOL    HW122424   6.567   3.923   5.415
 7175SOL    HW222425   6.490   3.786   5.371
 7176SOL     OW22426   0.583   1.219   4.293
 7176SOL    HW122427   0.489   1.209   4.325
 7176SOL    HW222428   0.583   1.261   4.202
 7177SOL     OW22429   1.608   5.230   5.430
 7177SOL    HW122430   1.613   5.316   5.481
 7177SOL    HW222431   1.700   5.194   5.416
 7178SOL     OW22432   1.235   1.168   6.261
 7178SOL    HW122433   1.188   1.124   6.338
 7178SOL    HW222434   1.240   1.266   6.277
 7179SOL     OW22435   1.516   4.161   4.668
 7179SOL    HW122436   1.582   4.104   4.718
 7179SOL    HW222437   1.564   4.223   4.607
 7180SOL     OW22438   2.490   4.074   1.200
 7180SOL    HW122439   2.579   4.091   1.157
 7180SOL    HW222440   2.419   4.122   1.148
 7181SOL     OW22441   2.144   1.408   6.131
 7181SOL    HW122442   2.228   1.438   6.086
 7181SOL    HW222443   2.086   1.360   6.065
 7182SOL     OW22444   0.671   3.783   3.402
 7182SOL    HW122445   0.589   3.786   3.460
 7182SOL    HW222446   0.667   3.702   3.344
 7183SOL     OW22447   2.273   5.853   2.057
 7183SOL    HW122448   2.190   5.880   2.105
 7183SOL    HW222449   2.267   5.883   1.961
 7184SOL     OW22450   5.859   1.123   3.961
 7184SOL    HW122451   5.951   1.158   3.975
 7184SOL    HW222452   5.794   1.199   3.956
 7185SOL     OW22453   5.377   0.871   5.604
 7185SOL    HW122454   5.373   0.860   5.703
 7185SOL    HW222455   5.337   0.959   5.579
 7186SOL     OW22456   0.213   1.000   1.255
 7186SOL    HW122457   0.213   0.965   1.161
 7186SOL    HW222458   0.281   1.073   1.263
 7187SOL     OW22459   2.960   3.488   5.307
 7187SOL    HW122460   2.983   3.495   5.209
 7187SOL    HW222461   2.862   3.501   5.319
 7188SOL     OW22462   4.609   4.673   6.937
 7188SOL    HW122463   4.625   4.772   6.945
 7188SOL    HW222464   4.603   4.633   0.004
 7189SOL     OW22465   6.191   3.207   5.278
 7189SOL    HW122466   6.203   3.134   5.210
 7189SOL    HW222467   6.116   3.266   5.250
 7190SOL     OW22468   6.120   6.447   1.590
 7190SOL    HW122469   6.041   6.389   1.568
 7190SOL    HW222470   6.147   6.499   1.509
 7191SOL     OW22471   0.114   4.209   3.387
 7191SOL    HW122472   0.147   4.296   3.423
 7191SOL    HW222473   0.141   4.201   3.291
 7192SOL     OW22474   1.106   4.586   6.241
 7192SOL    HW122475   1.035   4.657   6.240
 7192SOL    HW222476   1.194   4.628   6.263
 7193SOL     OW22477   2.742   1.707   2.782
 7193SOL    HW122478   2.784   1.653   2.710
 7193SOL    HW222479   2.785   1.798   2.784
 7194SOL     OW22480   2.479   2.432   0.207
 7194SOL    HW122481   2.515   2.403   0.118
 7194SOL    HW222482   2.550   2.485   0.255
 7195SOL     OW22483   6.179   4.218   6.579
 7195SOL    HW122484   6.122   4.280   6.525
 7195SOL    HW222485   6.188   4.131   6.530
 7196SOL     OW22486   3.150   4.016   1.903
 7196SOL    HW122487   3.110   4.107   1.891
 7196SOL    HW222488   3.247   4.024   1.927
 7197SOL     OW22489   1.174   3.975   5.630
 7197SOL    HW122490   1.153   3.890   5.581
 7197SOL    HW222491   1.150   4.053   5.573
 7198SOL     OW22492   0.130   0.756   6.874
 7198SOL    HW122493   0.059   0.757   6.803
 7198SOL    HW222494   0.220   0.766   6.831
 7199SOL     OW22495   0.943   0.358   2.529
 7199SOL    HW122496   0.891   0.430   2.576
 7199SOL    HW222497   0.926   0.364   2.431
 7200SOL     OW22498   1.514   3.321   0.740
 7200SOL    HW122499   1.459   3.258   0.795
 7200SOL    HW222500   1.611   3.300   0.752
 7201SOL     OW22501   6.990   5.603   4.242
 7201SOL    HW122502   6.979   5.515   4.288
 7201SOL    HW222503   6.904   5.653   4.247
 7202SOL     OW22504   5.246   0.064   5.920
 7202SOL    HW122505   5.284   0.050   6.011
 7202SOL    HW222506   5.319   0.093   5.858
 7203SOL     OW22507   0.892   1.097   1.916
 7203SOL    HW122508   0.954   1.153   1.861
 7203SOL    HW222509   0.908   1.116   2.013
 7204SOL     OW22510   6.460   1.215   6.432
 7204SOL    HW122511   6.423   1.191   6.521
 7204SOL    HW222512   6.471   1.314   6.426
 7205SOL     OW22513   1.328   3.565   4.583
 7205SOL    HW122514   1.319   3.606   4.674
 7205SOL    HW222515   1.404   3.500   4.583
 7206SOL     OW22516   1.491   1.546   1.475
 7206SOL    HW122517   1.562   1.580   1.537
 7206SOL    HW222518   1.475   1.449   1.492
 7207SOL     OW22519   2.683   1.462   3.673
 7207SOL    HW122520   2.667   1.536   3.608
 7207SOL    HW222521   2.662   1.494   3.766
 7208SOL     OW22522   4.895   0.241   4.433
 7208SOL    HW122523   4.987   0.212   4.408
 7208SOL    HW222524   4.833   0.162   4.431
 7209SOL     OW22525   2.138   3.049   2.325
 7209SOL    HW122526   2.096   2.995   2.398
 7209SOL    HW222527   2.201   2.991   2.273
 7210SOL     OW22528   3.571   2.052   4.108
 7210SOL    HW122529   3.532   2.093   4.026
 7210SOL    HW222530   3.521   2.083   4.189
 7211SOL     OW22531   2.871   6.129   5.275
 7211SOL    HW122532   2.925   6.205   5.311
 7211SOL    HW222533   2.839   6.152   5.183
 7212SOL     OW22534   7.003   6.747   6.257
 7212SOL    HW122535   7.024   6.810   6.182
 7212SOL    HW222536   7.002   6.653   6.224
 7213SOL     OW22537   3.660   6.263   6.239
 7213SOL    HW122538   3.672   6.315   6.324
 7213SOL    HW222539   3.706   6.310   6.164
 7214SOL     OW22540   6.894   1.100   5.861
 7214SOL    HW122541   6.836   1.020   5.843
 7214SOL    HW222542   6.863   1.145   5.945
 7215SOL     OW22543   6.074   2.395   4.328
 7215SOL    HW122544   6.130   2.392   4.245
 7215SOL    HW222545   6.030   2.485   4.335
 7216SOL     OW22546   3.272   5.903   2.074
 7216SOL    HW122547   3.254   5.995   2.109
 7216SOL    HW222548   3.289   5.908   1.976
 7217SOL     OW22549   1.578   3.372   3.426
 7217SOL    HW122550   1.661   3.357   3.480
 7217SOL    HW222551   1.530   3.452   3.461
 7218SOL     OW22552   6.920   3.104   4.139
 7218SOL    HW122553   6.921   3.174   4.211
 7218SOL    HW222554   6.912   3.014   4.180
 7219SOL     OW22555   2.931   6.780   1.989
 7219SOL    HW122556   2.932   6.701   2.051
 7219SOL    HW222557   2.878   6.757   1.908
 7220SOL     OW22558   6.440   4.735   3.692
 7220SOL    HW122559   6.390   4.811   3.735
 7220SOL    HW222560   6.492   4.769   3.614
 7221SOL     OW22561   3.393   5.900   4.666
 7221SOL    HW122562   3.398   5.816   4.719
 7221SOL    HW222563   3.483   5.944   4.665
 7222SOL     OW22564   5.863   0.071   3.326
 7222SOL    HW122565   5.815   0.126   3.257
 7222SOL    HW222566   5.846   6.999   3.309
 7223SOL     OW22567   2.975   1.174   0.923
 7223SOL    HW122568   2.922   1.255   0.898
 7223SOL    HW222569   2.929   1.092   0.889
 7224SOL     OW22570   4.775   2.663   4.778
 7224SOL    HW122571   4.804   2.570   4.801
 7224SOL    HW222572   4.844   2.706   4.720
 7225SOL     OW22573   1.876   6.745   0.784
 7225SOL    HW122574   1.964   6.734   0.738
 7225SOL    HW222575   1.890   6.787   0.873
 7226SOL     OW22576   6.281   0.392   1.590
 7226SOL    HW122577   6.191   0.422   1.558
 7226SOL    HW222578   6.270   0.338   1.674
 7227SOL     OW22579   3.170   1.665   1.806
 7227SOL    HW122580   3.127   1.675   1.716
 7227SOL    HW222581   3.123   1.725   1.872
 7228SOL     OW22582   1.420   1.485   3.419
 7228SOL    HW122583   1.449   1.435   3.500
 7228SOL    HW222584   1.320   1.491   3.418
 7229SOL     OW22585   0.543   0.017   4.426
 7229SOL    HW122586   0.507   0.100   4.469
 7229SOL    HW222587   0.567   6.976   4.497
 7230SOL     OW22588   3.136   5.734   3.552
 7230SOL    HW122589   3.174   5.715   3.643
 7230SOL    HW222590   3.082   5.655   3.522
 7231SOL     OW22591   4.621   0.701   0.258
 7231SOL    HW122592   4.712   0.744   0.262
 7231SOL    HW222593   4.552   0.766   0.290
 7232SOL     OW22594   4.960   6.529   2.527
 7232SOL    HW122595   4.992   6.531   2.622
 7232SOL    HW222596   5.038   6.518   2.465
 7233SOL     OW22597   0.891   1.437   5.207
 7233SOL    HW122598   0.902   1.337   5.206
 7233SOL    HW222599   0.977   1.479   5.239
 7234SOL     OW22600   5.676   3.469   2.663
 7234SOL    HW122601   5.621   3.441   2.742
 7234SOL    HW222602   5.727   3.391   2.628
 7235SOL     OW22603   6.376   4.245   2.033
 7235SOL    HW122604   6.280   4.271   2.025
 7235SOL    HW222605   6.430   4.324   2.062
 7236SOL     OW22606   2.554   2.525   2.910
 7236SOL    HW122607   2.523   2.519   2.815
 7236SOL    HW222608   2.636   2.468   2.921
 7237SOL     OW22609   3.620   0.003   6.370
 7237SOL    HW122610   3.534   0.053   6.368
 7237SOL    HW222611   3.677   0.036   6.446
 7238SOL     OW22612   4.594   2.375   6.224
 7238SOL    HW122613   4.658   2.393   6.298
 7238SOL    HW222614   4.589   2.455   6.164
 7239SOL     OW22615   1.275   3.028   1.758
 7239SOL    HW122616   1.179   3.002   1.758
 7239SOL    HW222617   1.330   2.955   1.716
 7240SOL     OW22618   6.734   1.396   6.604
 7240SOL    HW122619   6.756   1.303   6.577
 7240SOL    HW222620   6.784   1.461   6.547
 7241SOL     OW22621   2.576   0.279   0.501
 7241SOL    HW122622   2.579   0.348   0.428
 7241SOL    HW222623   2.511   0.207   0.476
 7242SOL     OW22624   6.877   5.262   6.134
 7242SOL    HW122625   6.806   5.195   6.156
 7242SOL    HW222626   6.845   5.354   6.157
 7243SOL     OW22627   6.982   4.700   6.274
 7243SOL    HW122628   6.908   4.722   6.337
 7243SOL    HW222629   6.957   4.728   6.182
 7244SOL     OW22630   0.678   0.121   1.261
 7244SOL    HW122631   0.671   0.202   1.320
 7244SOL    HW222632   0.647   0.040   1.311
 7245SOL     OW22633   1.054   2.821   5.305
 7245SOL    HW122634   1.105   2.840   5.221
 7245SOL    HW222635   1.011   2.731   5.299
 7246SOL     OW22636   1.541   0.065   3.752
 7246SOL    HW122637   1.607   0.090   3.823
 7246SOL    HW222638   1.515   0.146   3.700
 7247SOL     OW22639   2.851   1.725   5.649
 7247SOL    HW122640   2.893   1.801   5.699
 7247SOL    HW222641   2.894   1.716   5.560
 7248SOL     OW22642   3.281   0.751   2.616
 7248SOL    HW122643   3.378   0.763   2.638
 7248SOL    HW222644   3.231   0.731   2.700
 7249SOL     OW22645   5.118   5.202   1.718
 7249SOL    HW122646   5.208   5.229   1.751
 7249SOL    HW222647   5.084   5.269   1.652
 7250SOL     OW22648   5.095   5.342   5.954
 7250SOL    HW122649   5.085   5.248   5.922
 7250SOL    HW222650   5.190   5.370   5.945
 7251SOL     OW22651   1.020   6.843   4.625
 7251SOL    HW122652   1.053   6.933   4.654
 7251SOL    HW222653   1.077   6.810   4.549
 7252SOL     OW22654   3.185   3.623   1.881
 7252SOL    HW122655   3.148   3.629   1.788
 7252SOL    HW222656   3.126   3.675   1.944
 7253SOL     OW22657   2.212   5.840   6.616
 7253SOL    HW122658   2.184   5.911   6.681
 7253SOL    HW222659   2.195   5.872   6.523
 7254SOL     OW22660   5.459   5.075   4.659
 7254SOL    HW122661   5.461   4.986   4.706
 7254SOL    HW222662   5.459   5.148   4.727
 7255SOL     OW22663   4.638   3.664   0.040
 7255SOL    HW122664   4.577   3.672   6.986
 7255SOL    HW222665   4.712   3.731   0.032
 7256SOL     OW22666   3.026   5.857   5.596
 7256SOL    HW122667   3.041   5.856   5.498
 7256SOL    HW222668   3.048   5.767   5.634
 7257SOL     OW22669   0.234   2.058   3.643
 7257SOL    HW122670   0.134   2.056   3.644
 7257SOL    HW222671   0.267   2.022   3.556
 7258SOL     OW22672   4.957   2.224   3.037
 7258SOL    HW122673   4.893   2.283   3.086
 7258SOL    HW222674   4.984   2.268   2.951
 7259SOL     OW22675   1.773   3.329   2.164
 7259SOL    HW122676   1.787   3.410   2.222
 7259SOL    HW222677   1.679   3.297   2.173
 7260SOL     OW22678   5.802   1.485   1.915
 7260SOL    HW122679   5.807   1.539   1.999
 7260SOL    HW222680   5.859   1.528   1.845
 7261SOL     OW22681   1.010   4.957   1.697
 7261SOL    HW122682   1.088   4.904   1.730
 7261SOL    HW222683   0.936   4.953   1.764
 7262SOL     OW22684   5.291   2.126   6.662
 7262SOL    HW122685   5.217   2.068   6.695
 7262SOL    HW222686   5.280   2.140   6.563
 7263SOL     OW22687   0.539   6.337   6.811
 7263SOL    HW122688   0.513   6.386   6.728
 7263SOL    HW222689   0.458   6.316   6.865
 7264SOL     OW22690   5.334   1.450   0.895
 7264SOL    HW122691   5.352   1.548   0.889
 7264SOL    HW222692   5.381   1.412   0.974
 7265SOL     OW22693   5.591   4.790   5.923
 7265SOL    HW122694   5.496   4.802   5.893
 7265SOL    HW222695   5.653   4.811   5.847
 7266SOL     OW22696   5.511   1.140   3.395
 7266SOL    HW122697   5.432   1.168   3.341
 7266SOL    HW222698   5.544   1.218   3.449
 7267SOL     OW22699   6.441   6.378   5.115
 7267SOL    HW122700   6.481   6.291   5.085
 7267SOL    HW222701   6.366   6.403   5.055
 7268SOL     OW22702   0.110   6.028   4.782
 7268SOL    HW122703   0.028   5.991   4.828
 7268SOL    HW222704   0.170   6.069   4.850
 7269SOL     OW22705   2.004   6.442   5.689
 7269SOL    HW122706   2.036   6.349   5.705
 7269SOL    HW222707   2.072   6.507   5.724
 7270SOL     OW22708   0.569   2.931   4.769
 7270SOL    HW122709   0.632   3.005   4.793
 7270SOL    HW222710   0.544   2.939   4.672
 7271SOL     OW22711   1.426   5.046   4.163
 7271SOL    HW122712   1.359   5.053   4.089
 7271SOL    HW222713   1.403   5.113   4.234
 7272SOL     OW22714   6.227   5.897   2.411
 7272SOL    HW122715   6.236   5.986   2.456
 7272SOL    HW222716   6.154   5.844   2.454
 7273SOL     OW22717   6.247   3.966   0.755
 7273SOL    HW122718   6.286   3.948   0.664
 7273SOL    HW222719   6.163   4.019   0.745
 7274SOL     OW22720   0.597   4.997   6.763
 7274SOL    HW122721   0.523   5.030   6.705
 7274SOL    HW222722   0.559   4.968   6.851
 7275SOL     OW22723   6.832   5.479   3.091
 7275SOL    HW122724   6.841   5.429   3.005
 7275SOL    HW222725   6.819   5.415   3.166
 7276SOL     OW22726   4.592   0.908   3.664
 7276SOL    HW122727   4.646   0.990   3.648
 7276SOL    HW222728   4.610   0.873   3.756
 7277SOL     OW22729   4.741   0.474   4.451
 7277SOL    HW122730   4.783   0.530   4.523
 7277SOL    HW222731   4.787   0.386   4.447
 7278SOL     OW22732   3.955   3.053   1.121
 7278SOL    HW122733   3.907   3.060   1.208
 7278SOL    HW222734   3.991   2.960   1.109
 7279SOL     OW22735   4.085   5.026   6.377
 7279SOL    HW122736   4.128   5.047   6.465
 7279SOL    HW222737   4.101   4.929   6.355
 7280SOL     OW22738   0.098   1.565   3.828
 7280SOL    HW122739   0.155   1.582   3.908
 7280SOL    HW222740   0.152   1.581   3.745
 7281SOL     OW22741   2.565   1.595   6.300
 7281SOL    HW122742   2.612   1.524   6.247
 7281SOL    HW222743   2.559   1.678   6.245
 7282SOL     OW22744   5.408   5.469   3.233
 7282SOL    HW122745   5.493   5.424   3.257
 7282SOL    HW222746   5.370   5.515   3.313
 7283SOL     OW22747   4.395   1.553   2.681
 7283SOL    HW122748   4.359   1.462   2.661
 7283SOL    HW222749   4.438   1.552   2.772
 7284SOL     OW22750   0.597   3.026   6.304
 7284SOL    HW122751   0.558   3.079   6.229
 7284SOL    HW222752   0.572   2.930   6.293
 7285SOL     OW22753   5.132   3.167   2.482
 7285SOL    HW122754   5.131   3.266   2.465
 7285SOL    HW222755   5.096   3.120   2.401
 7286SOL     OW22756   2.897   0.772   0.298
 7286SOL    HW122757   2.872   0.860   0.259
 7286SOL    HW222758   2.878   0.772   0.396
 7287SOL     OW22759   6.918   2.461   5.859
 7287SOL    HW122760   7.011   2.489   5.884
 7287SOL    HW222761   6.869   2.433   5.941
 7288SOL     OW22762   3.040   0.540   0.340
 7288SOL    HW122763   3.102   0.535   0.261
 7288SOL    HW222764   3.001   0.632   0.346
 7289SOL     OW22765   4.949   2.732   4.593
 7289SOL    HW122766   4.923   2.661   4.527
 7289SOL    HW222767   5.012   2.797   4.549
 7290SOL     OW22768   3.760   0.176   5.761
 7290SOL    HW122769   3.841   0.230   5.736
 7290SOL    HW222770   3.731   0.123   5.682
 7291SOL     OW22771   1.871   6.845   1.056
 7291SOL    HW122772   1.794   6.789   1.087
 7291SOL    HW222773   1.877   6.928   1.110
 7292SOL     OW22774   3.691   0.802   3.171
 7292SOL    HW122775   3.774   0.841   3.132
 7292SOL    HW222776   3.674   0.843   3.260
 7293SOL     OW22777   1.155   1.993   4.973
 7293SOL    HW122778   1.193   1.943   4.895
 7293SOL    HW222779   1.126   2.084   4.942
 7294SOL     OW22780   2.732   4.684   7.012
 7294SOL    HW122781   2.827   4.672   0.015
 7294SOL    HW222782   2.710   4.619   6.939
 7295SOL     OW22783   1.057   2.680   0.883
 7295SOL    HW122784   0.978   2.643   0.934
 7295SOL    HW222785   1.040   2.776   0.863
 7296SOL     OW22786   3.105   5.486   1.623
 7296SOL    HW122787   3.060   5.512   1.708
 7296SOL    HW222788   3.070   5.397   1.593
 7297SOL     OW22789   3.539   6.302   1.585
 7297SOL    HW122790   3.506   6.331   1.495
 7297SOL    HW222791   3.626   6.253   1.574
 7298SOL     OW22792   4.996   4.594   5.198
 7298SOL    HW122793   5.011   4.521   5.131
 7298SOL    HW222794   4.953   4.557   5.280
 7299SOL     OW22795   0.879   1.502   0.483
 7299SOL    HW122796   0.905   1.534   0.574
 7299SOL    HW222797   0.961   1.489   0.428
 7300SOL     OW22798   6.487   5.818   3.161
 7300SOL    HW122799   6.453   5.869   3.240
 7300SOL    HW222800   6.507   5.882   3.087
 7301SOL     OW22801   5.726   1.016   5.023
 7301SOL    HW122802   5.646   1.046   4.970
 7301SOL    HW222803   5.769   1.095   5.066
 7302SOL     OW22804   0.662   1.979   5.558
 7302SOL    HW122805   0.741   1.922   5.580
 7302SOL    HW222806   0.692   2.073   5.544
 7303SOL     OW22807   3.735   0.668   0.472
 7303SOL    HW122808   3.695   0.588   0.427
 7303SOL    HW222809   3.669   0.706   0.537
 7304SOL     OW22810   4.542   4.810   1.140
 7304SOL    HW122811   4.451   4.817   1.182
 7304SOL    HW222812   4.533   4.817   1.040
 7305SOL     OW22813   4.839   1.138   0.387
 7305SOL    HW122814   4.786   1.090   0.318
 7305SOL    HW222815   4.821   1.099   0.478
 7306SOL     OW22816   4.903   2.225   1.581
 7306SOL    HW122817   4.877   2.148   1.638
 7306SOL    HW222818   4.871   2.310   1.622
 7307SOL     OW22819   2.423   6.851   2.121
 7307SOL    HW122820   2.520   6.841   2.143
 7307SOL    HW222821   2.393   6.944   2.144
 7308SOL     OW22822   6.815   3.185   5.968
 7308SOL    HW122823   6.765   3.160   5.885
 7308SOL    HW222824   6.909   3.211   5.944
 7309SOL     OW22825   4.798   5.660   1.302
 7309SOL    HW122826   4.894   5.674   1.279
 7309SOL    HW222827   4.789   5.578   1.359
 7310SOL     OW22828   2.243   4.086   1.616
 7310SOL    HW122829   2.207   4.020   1.682
 7310SOL    HW222830   2.217   4.059   1.524
 7311SOL     OW22831   2.981   2.081   1.562
 7311SOL    HW122832   3.016   2.136   1.637
 7311SOL    HW222833   2.944   2.140   1.490
 7312SOL     OW22834   0.772   3.257   4.473
 7312SOL    HW122835   0.716   3.322   4.422
 7312SOL    HW222836   0.806   3.300   4.556
 7313SOL     OW22837   2.492   1.253   6.296
 7313SOL    HW122838   2.450   1.296   6.376
 7313SOL    HW222839   2.570   1.308   6.265
 7314SOL     OW22840   6.802   5.511   6.205
 7314SOL    HW122841   6.743   5.592   6.203
 7314SOL    HW222842   6.841   5.501   6.297
 7315SOL     OW22843   6.411   0.411   2.507
 7315SOL    HW122844   6.347   0.450   2.573
 7315SOL    HW222845   6.498   0.460   2.512
 7316SOL     OW22846   2.937   3.657   6.388
 7316SOL    HW122847   3.001   3.637   6.314
 7316SOL    HW222848   2.855   3.600   6.378
 7317SOL     OW22849   5.203   1.467   2.698
 7317SOL    HW122850   5.237   1.494   2.788
 7317SOL    HW222851   5.269   1.494   2.628
 7318SOL     OW22852   1.611   0.719   1.539
 7318SOL    HW122853   1.552   0.791   1.574
 7318SOL    HW222854   1.691   0.759   1.494
 7319SOL     OW22855   0.017   4.269   6.458
 7319SOL    HW122856   0.003   4.170   6.456
 7319SOL    HW222857   0.073   4.294   6.537
 7320SOL     OW22858   6.221   3.592   2.424
 7320SOL    HW122859   6.126   3.588   2.453
 7320SOL    HW222860   6.229   3.654   2.345
 7321SOL     OW22861   2.513   0.591   5.712
 7321SOL    HW122862   2.510   0.684   5.749
 7321SOL    HW222863   2.608   0.560   5.709
 7322SOL     OW22864   6.805   2.732   3.189
 7322SOL    HW122865   6.812   2.790   3.108
 7322SOL    HW222866   6.769   2.785   3.265
 7323SOL     OW22867   1.959   1.965   2.160
 7323SOL    HW122868   1.890   1.931   2.096
 7323SOL    HW222869   1.921   2.041   2.213
 7324SOL     OW22870   4.599   6.456   2.256
 7324SOL    HW122871   4.679   6.415   2.299
 7324SOL    HW222872   4.583   6.547   2.295
 7325SOL     OW22873   3.427   6.824   0.338
 7325SOL    HW122874   3.376   6.854   0.257
 7325SOL    HW222875   3.377   6.851   0.420
 7326SOL     OW22876   2.968   5.870   5.314
 7326SOL    HW122877   2.929   5.956   5.282
 7326SOL    HW222878   2.913   5.793   5.280
 7327SOL     OW22879   5.803   1.694   6.430
 7327SOL    HW122880   5.794   1.595   6.437
 7327SOL    HW222881   5.804   1.734   6.522
 7328SOL     OW22882   3.785   0.779   6.720
 7328SOL    HW122883   3.704   0.836   6.728
 7328SOL    HW222884   3.866   0.834   6.740
 7329SOL     OW22885   6.021   3.748   1.288
 7329SOL    HW122886   5.969   3.709   1.212
 7329SOL    HW222887   6.024   3.848   1.278
 7330SOL     OW22888   2.509   1.965   6.873
 7330SOL    HW122889   2.425   1.914   6.853
 7330SOL    HW222890   2.564   1.971   6.789
 7331SOL     OW22891   5.264   6.988   2.006
 7331SOL    HW122892   5.312   0.050   2.013
 7331SOL    HW222893   5.316   6.918   2.055
 7332SOL     OW22894   2.123   6.355   0.335
 7332SOL    HW122895   2.151   6.402   0.251
 7332SOL    HW222896   2.193   6.368   0.405
 7333SOL     OW22897   0.631   2.394   2.477
 7333SOL    HW122898   0.685   2.471   2.512
 7333SOL    HW222899   0.658   2.375   2.382
 7334SOL     OW22900   2.854   5.740   5.918
 7334SOL    HW122901   2.852   5.840   5.922
 7334SOL    HW222902   2.942   5.710   5.881
 7335SOL     OW22903   1.863   2.507   3.288
 7335SOL    HW122904   1.796   2.464   3.348
 7335SOL    HW222905   1.888   2.444   3.215
 7336SOL     OW22906   1.469   6.826   2.788
 7336SOL    HW122907   1.499   6.789   2.701
 7336SOL    HW222908   1.532   6.898   2.817
 7337SOL     OW22909   6.997   3.208   1.995
 7337SOL    HW122910   0.067   3.220   1.968
 7337SOL    HW222911   6.991   3.198   2.094
 7338SOL     OW22912   6.473   2.276   1.401
 7338SOL    HW122913   6.573   2.279   1.403
 7338SOL    HW222914   6.442   2.192   1.356
 7339SOL     OW22915   5.867   6.772   3.870
 7339SOL    HW122916   5.919   6.751   3.953
 7339SOL    HW222917   5.773   6.794   3.893
 7340SOL     OW22918   2.569   1.054   0.827
 7340SOL    HW122919   2.509   0.977   0.806
 7340SOL    HW222920   2.583   1.060   0.926
 7341SOL     OW22921   6.923   3.143   6.609
 7341SOL    HW122922   6.852   3.184   6.665
 7341SOL    HW222923   6.997   3.209   6.596
 7342SOL     OW22924   0.355   1.814   1.190
 7342SOL    HW122925   0.307   1.898   1.165
 7342SOL    HW222926   0.424   1.833   1.259
 7343SOL     OW22927   5.747   3.846   0.396
 7343SOL    HW122928   5.689   3.851   0.314
 7343SOL    HW222929   5.828   3.791   0.376
 7344SOL     OW22930   0.874   1.314   6.775
 7344SOL    HW122931   0.774   1.310   6.767
 7344SOL    HW222932   0.911   1.222   6.767
 7345SOL     OW22933   4.459   4.393   6.002
 7345SOL    HW122934   4.501   4.386   5.912
 7345SOL    HW222935   4.361   4.371   5.996
 7346SOL     OW22936   3.998   5.917   2.097
 7346SOL    HW122937   4.069   5.980   2.068
 7346SOL    HW222938   3.931   5.907   2.024
 7347SOL     OW22939   1.028   1.652   0.693
 7347SOL    HW122940   1.018   1.606   0.782
 7347SOL    HW222941   1.118   1.695   0.688
 7348SOL     OW22942   1.216   4.215   3.603
 7348SOL    HW122943   1.139   4.250   3.550
 7348SOL    HW222944   1.302   4.244   3.560
 7349SOL     OW22945   4.527   0.838   1.388
 7349SOL    HW122946   4.531   0.870   1.293
 7349SOL    HW222947   4.619   0.831   1.425
 7350SOL     OW22948   2.822   2.162   5.634
 7350SOL    HW122949   2.888   2.092   5.604
 7350SOL    HW222950   2.785   2.210   5.554
 7351SOL     OW22951   5.642   5.438   4.588
 7351SOL    HW122952   5.642   5.381   4.506
 7351SOL    HW222953   5.581   5.516   4.575
 7352SOL     OW22954   2.129   1.987   2.945
 7352SOL    HW122955   2.182   1.998   3.029
 7352SOL    HW222956   2.146   1.896   2.907
 7353SOL     OW22957   0.214   0.590   6.137
 7353SOL    HW122958   0.175   0.516   6.080
 7353SOL    HW222959   0.201   0.567   6.233
 7354SOL     OW22960   0.969   2.048   4.555
 7354SOL    HW122961   0.883   2.033   4.505
 7354SOL    HW222962   0.975   1.981   4.629
 7355SOL     OW22963   1.500   0.798   0.850
 7355SOL    HW122964   1.510   0.703   0.823
 7355SOL    HW222965   1.558   0.856   0.793
 7356SOL     OW22966   4.044   3.351   6.381
 7356SOL    HW122967   4.039   3.252   6.374
 7356SOL    HW222968   4.036   3.392   6.290
 7357SOL     OW22969   3.133   6.188   1.927
 7357SOL    HW122970   3.088   6.155   1.844
 7357SOL    HW222971   3.219   6.232   1.903
 7358SOL     OW22972   6.528   3.007   2.450
 7358SOL    HW122973   6.431   3.013   2.472
 7358SOL    HW222974   6.556   2.911   2.449
 7359SOL     OW22975   4.320   2.050   5.497
 7359SOL    HW122976   4.410   2.050   5.453
 7359SOL    HW222977   4.309   1.966   5.550
 7360SOL     OW22978   3.089   3.070   5.452
 7360SOL    HW122979   3.000   3.116   5.459
 7360SOL    HW222980   3.156   3.135   5.416
 7361SOL     OW22981   5.086   0.739   2.862
 7361SOL    HW122982   5.117   0.770   2.952
 7361SOL    HW222983   5.091   0.639   2.857
 7362SOL     OW22984   1.223   5.990   6.516
 7362SOL    HW122985   1.259   6.082   6.534
 7362SOL    HW222986   1.239   5.932   6.595
 7363SOL     OW22987   4.267   1.652   1.299
 7363SOL    HW122988   4.315   1.738   1.317
 7363SOL    HW222989   4.211   1.661   1.216
 7364SOL     OW22990   4.184   0.786   2.179
 7364SOL    HW122991   4.202   0.739   2.093
 7364SOL    HW222992   4.229   0.876   2.177
 7365SOL     OW22993   0.590   6.128   1.626
 7365SOL    HW122994   0.543   6.148   1.712
 7365SOL    HW222995   0.685   6.157   1.632
 7366SOL     OW22996   2.265   6.735   5.793
 7366SOL    HW122997   2.298   6.687   5.712
 7366SOL    HW222998   2.262   6.672   5.871
 7367SOL     OW22999   4.505   2.940   0.887
 7367SOL    HW123000   4.415   2.917   0.925
 7367SOL    HW223001   4.537   3.026   0.927
 7368SOL     OW23002   3.832   2.975   2.602
 7368SOL    HW123003   3.789   2.927   2.526
 7368SOL    HW223004   3.887   3.051   2.566
 7369SOL     OW23005   2.968   2.291   1.179
 7369SOL    HW123006   2.997   2.195   1.171
 7369SOL    HW223007   2.987   2.338   1.093
 7370SOL     OW23008   1.766   1.549   5.586
 7370SOL    HW123009   1.672   1.514   5.597
 7370SOL    HW223010   1.812   1.548   5.674
 7371SOL     OW23011   2.453   6.747   3.557
 7371SOL    HW123012   2.510   6.762   3.476
 7371SOL    HW223013   2.359   6.725   3.528
 7372SOL     OW23014   4.231   6.901   4.459
 7372SOL    HW123015   4.187   6.969   4.399
 7372SOL    HW223016   4.162   6.838   4.493
 7373SOL     OW23017   6.173   1.566   4.280
 7373SOL    HW123018   6.184   1.478   4.326
 7373SOL    HW223019   6.134   1.633   4.344
 7374SOL     OW23020   2.740   2.015   5.166
 7374SOL    HW123021   2.666   2.005   5.233
 7374SOL    HW223022   2.799   2.091   5.192
 7375SOL     OW23023   2.136   2.618   2.593
 7375SOL    HW123024   2.144   2.650   2.688
 7375SOL    HW223025   2.054   2.563   2.583
 7376SOL     OW23026   1.731   1.550   1.078
 7376SOL    HW123027   1.648   1.530   1.129
 7376SOL    HW223028   1.735   1.493   0.996
 7377SOL     OW23029   5.111   5.012   0.637
 7377SOL    HW123030   5.194   4.961   0.616
 7377SOL    HW223031   5.041   4.992   0.568
 7378SOL     OW23032   1.129   0.263   4.998
 7378SOL    HW123033   1.090   0.174   5.022
 7378SOL    HW223034   1.060   0.319   4.952
 7379SOL     OW23035   3.843   1.569   2.398
 7379SOL    HW123036   3.744   1.564   2.392
 7379SOL    HW223037   3.870   1.576   2.495
 7380SOL     OW23038   0.363   4.678   3.971
 7380SOL    HW123039   0.414   4.747   4.024
 7380SOL    HW223040   0.406   4.589   3.984
 7381SOL     OW23041   4.222   3.199   0.379
 7381SOL    HW123042   4.140   3.234   0.332
 7381SOL    HW223043   4.213   3.101   0.394
 7382SOL     OW23044   6.861   1.145   4.836
 7382SOL    HW123045   6.870   1.233   4.789
 7382SOL    HW223046   6.934   1.084   4.806
 7383SOL     OW23047   2.928   6.166   1.227
 7383SOL    HW123048   2.848   6.142   1.283
 7383SOL    HW223049   2.919   6.124   1.137
 7384SOL     OW23050   0.027   6.461   2.918
 7384SOL    HW123051   0.126   6.475   2.927
 7384SOL    HW223052   0.009   6.367   2.888
 7385SOL     OW23053   2.884   5.514   2.353
 7385SOL    HW123054   2.800   5.490   2.402
 7385SOL    HW223055   2.962   5.508   2.415
 7386SOL     OW23056   6.835   2.714   6.640
 7386SOL    HW123057   6.788   2.626   6.638
 7386SOL    HW223058   6.884   2.724   6.726
 7387SOL     OW23059   6.803   5.216   5.622
 7387SOL    HW123060   6.735   5.234   5.551
 7387SOL    HW223061   6.843   5.303   5.652
 7388SOL     OW23062   1.023   4.739   2.403
 7388SOL    HW123063   0.996   4.776   2.492
 7388SOL    HW223064   1.080   4.806   2.355
 7389SOL     OW23065   6.417   4.010   6.296
 7389SOL    HW123066   6.334   4.034   6.246
 7389SOL    HW223067   6.426   3.910   6.300
 7390SOL     OW23068   2.184   2.096   2.044
 7390SOL    HW123069   2.214   2.165   2.111
 7390SOL    HW223070   2.088   2.073   2.060
 7391SOL     OW23071   3.794   3.391   3.164
 7391SOL    HW123072   3.746   3.409   3.250
 7391SOL    HW223073   3.885   3.433   3.167
 7392SOL     OW23074   2.996   6.114   6.665
 7392SOL    HW123075   2.988   6.082   6.760
 7392SOL    HW223076   2.988   6.214   6.663
 7393SOL     OW23077   5.923   4.636   3.085
 7393SOL    HW123078   6.004   4.581   3.066
 7393SOL    HW223079   5.933   4.679   3.175
 7394SOL     OW23080   1.501   2.955   5.266
 7394SOL    HW123081   1.511   2.925   5.171
 7394SOL    HW223082   1.478   2.876   5.323
 7395SOL     OW23083   1.921   3.734   1.020
 7395SOL    HW123084   1.883   3.818   0.982
 7395SOL    HW223085   1.884   3.718   1.112
 7396SOL     OW23086   2.117   6.686   1.080
 7396SOL    HW123087   2.154   6.690   0.987
 7396SOL    HW223088   2.028   6.731   1.081
 7397SOL     OW23089   4.807   5.389   4.580
 7397SOL    HW123090   4.773   5.394   4.674
 7397SOL    HW223091   4.765   5.311   4.534
 7398SOL     OW23092   1.070   4.905   3.048
 7398SOL    HW123093   1.029   4.881   3.136
 7398SOL    HW223094   1.124   4.828   3.015
 7399SOL     OW23095   0.562   2.715   4.095
 7399SOL    HW123096   0.617   2.654   4.152
 7399SOL    HW223097   0.542   2.799   4.144
 7400SOL     OW23098   4.179   2.573   6.048
 7400SOL    HW123099   4.231   2.507   5.994
 7400SOL    HW223100   4.219   2.664   6.039
 7401SOL     OW23101   1.126   3.241   3.320
 7401SOL    HW123102   1.223   3.217   3.317
 7401SOL    HW223103   1.070   3.158   3.314
 7402SOL     OW23104   3.275   4.162   6.071
 7402SOL    HW123105   3.228   4.088   6.023
 7402SOL    HW223106   3.267   4.148   6.169
 7403SOL     OW23107   1.371   4.084   2.205
 7403SOL    HW123108   1.352   4.126   2.294
 7403SOL    HW223109   1.286   4.071   2.155
 7404SOL     OW23110   2.723   4.801   1.833
 7404SOL    HW123111   2.661   4.857   1.887
 7404SOL    HW223112   2.741   4.715   1.882
 7405SOL     OW23113   3.848   5.027   4.287
 7405SOL    HW123114   3.823   5.092   4.359
 7405SOL    HW223115   3.810   5.059   4.200
 7406SOL     OW23116   0.871   1.625   4.368
 7406SOL    HW123117   0.946   1.628   4.435
 7406SOL    HW223118   0.869   1.711   4.317
 7407SOL     OW23119   1.235   6.682   5.113
 7407SOL    HW123120   1.333   6.695   5.100
 7407SOL    HW223121   1.193   6.657   5.026
 7408SOL     OW23122   3.936   3.988   5.831
 7408SOL    HW123123   3.951   3.892   5.854
 7408SOL    HW223124   3.838   4.007   5.827
 7409SOL     OW23125   5.618   3.462   0.033
 7409SOL    HW123126   5.600   3.378   0.085
 7409SOL    HW223127   5.671   3.525   0.090
 7410SOL     OW23128   0.761   0.700   0.072
 7410SOL    HW123129   0.767   0.758   7.016
 7410SOL    HW223130   0.793   0.608   0.049
 7411SOL     OW23131   2.250   1.114   7.007
 7411SOL    HW123132   2.159   1.107   0.021
 7411SOL    HW223133   2.314   1.147   0.051
 7412SOL     OW23134   4.443   6.986   1.276
 7412SOL    HW123135   4.408   6.957   1.187
 7412SOL    HW223136   4.366   7.012   1.335
 7413SOL     OW23137   4.258   4.962   3.831
 7413SOL    HW123138   4.293   5.019   3.757
 7413SOL    HW223139   4.159   4.974   3.838
 7414SOL     OW23140   1.982   0.907   3.299
 7414SOL    HW123141   1.966   0.971   3.374
 7414SOL    HW223142   2.008   0.957   3.217
 7415SOL     OW23143   1.993   4.361   5.002
 7415SOL    HW123144   2.044   4.415   5.069
 7415SOL    HW223145   2.055   4.330   4.930
 7416SOL     OW23146   2.288   0.324   2.039
 7416SOL    HW123147   2.241   0.406   2.070
 7416SOL    HW223148   2.310   0.266   2.118
 7417SOL     OW23149   2.153   2.075   1.688
 7417SOL    HW123150   2.173   2.080   1.590
 7417SOL    HW223151   2.207   2.145   1.736
 7418SOL     OW23152   1.576   5.422   6.738
 7418SOL    HW123153   1.676   5.422   6.734
 7418SOL    HW223154   1.541   5.509   6.704
 7419SOL     OW23155   6.850   3.854   4.071
 7419SOL    HW123156   6.948   3.874   4.073
 7419SOL    HW223157   6.812   3.886   3.984
 7420SOL     OW23158   0.063   6.441   1.054
 7420SOL    HW123159   0.132   6.505   1.086
 7420SOL    HW223160   0.028   6.470   0.965
 7421SOL     OW23161   4.191   3.583   0.907
 7421SOL    HW123162   4.228   3.676   0.913
 7421SOL    HW223163   4.161   3.554   0.998
 7422SOL     OW23164   0.377   4.558   2.050
 7422SOL    HW123165   0.363   4.501   1.969
 7422SOL    HW223166   0.343   4.510   2.131
 7423SOL     OW23167   6.326   2.114   5.587
 7423SOL    HW123168   6.387   2.035   5.586
 7423SOL    HW223169   6.274   2.115   5.672
 7424SOL     OW23170   6.681   1.621   5.675
 7424SOL    HW123171   6.631   1.641   5.591
 7424SOL    HW223172   6.750   1.551   5.657
 7425SOL     OW23173   5.079   6.922   0.374
 7425SOL    HW123174   5.113   6.878   0.291
 7425SOL    HW223175   5.143   6.994   0.402
 7426SOL     OW23176   3.232   1.483   5.495
 7426SOL    HW123177   3.228   1.507   5.591
 7426SOL    HW223178   3.141   1.490   5.455
 7427SOL     OW23179   4.731   0.855   4.404
 7427SOL    HW123180   4.823   0.869   4.439
 7427SOL    HW223181   4.670   0.925   4.441
 7428SOL     OW23182   4.151   0.237   5.421
 7428SOL    HW123183   4.139   0.172   5.346
 7428SOL    HW223184   4.146   0.189   5.508
 7429SOL     OW23185   0.403   6.344   3.636
 7429SOL    HW123186   0.372   6.250   3.652
 7429SOL    HW223187   0.503   6.347   3.636
 7430SOL     OW23188   0.257   3.488   1.124
 7430SOL    HW123189   0.263   3.392   1.097
 7430SOL    HW223190   0.289   3.546   1.049
 7431SOL     OW23191   0.850   2.304   3.069
 7431SOL    HW123192   0.761   2.341   3.043
 7431SOL    HW223193   0.908   2.296   2.987
 7432SOL     OW23194   1.929   0.381   3.266
 7432SOL    HW123195   1.980   0.368   3.181
 7432SOL    HW223196   1.848   0.436   3.247
 7433SOL     OW23197   3.984   6.291   6.411
 7433SOL    HW123198   3.999   6.266   6.316
 7433SOL    HW223199   3.907   6.354   6.418
 7434SOL     OW23200   4.949   5.120   5.650
 7434SOL    HW123201   4.976   5.087   5.741
 7434SOL    HW223202   5.025   5.172   5.610
 7435SOL     OW23203   4.825   6.629   1.334
 7435SOL    HW123204   4.745   6.618   1.276
 7435SOL    HW223205   4.846   6.726   1.345
 7436SOL     OW23206   4.688   4.226   6.031
 7436SOL    HW123207   4.609   4.282   6.009
 7436SOL    HW223208   4.758   4.282   6.076
 7437SOL     OW23209   3.138   5.802   0.445
 7437SOL    HW123210   3.216   5.756   0.488
 7437SOL    HW223211   3.135   5.780   0.348
 7438SOL     OW23212   0.970   0.141   0.203
 7438SOL    HW123213   0.891   0.113   0.257
 7438SOL    HW223214   0.948   0.134   0.106
 7439SOL     OW23215   1.807   6.414   6.066
 7439SOL    HW123216   1.757   6.385   5.985
 7439SOL    HW223217   1.869   6.489   6.043
 7440SOL     OW23218   6.855   2.774   3.853
 7440SOL    HW123219   6.814   2.752   3.765
 7440SOL    HW223220   6.947   2.810   3.839
 7441SOL     OW23221   5.696   0.163   5.073
 7441SOL    HW123222   5.739   0.236   5.021
 7441SOL    HW223223   5.599   0.182   5.083
 7442SOL     OW23224   6.229   1.472   0.255
 7442SOL    HW123225   6.212   1.416   0.337
 7442SOL    HW223226   6.176   1.557   0.261
 7443SOL     OW23227   5.850   5.447   1.793
 7443SOL    HW123228   5.802   5.362   1.816
 7443SOL    HW223229   5.790   5.525   1.813
 7444SOL     OW23230   5.542   1.633   0.327
 7444SOL    HW123231   5.542   1.624   0.227
 7444SOL    HW223232   5.450   1.618   0.362
 7445SOL     OW23233   3.217   0.886   1.071
 7445SOL    HW123234   3.180   0.977   1.090
 7445SOL    HW223235   3.313   0.895   1.044
 7446SOL     OW23236   5.349   2.456   0.288
 7446SOL    HW123237   5.380   2.404   0.368
 7446SOL    HW223238   5.321   2.547   0.317
 7447SOL     OW23239   6.568   5.040   6.975
 7447SOL    HW123240   6.642   4.984   6.938
 7447SOL    HW223241   6.482   4.990   6.968
 7448SOL     OW23242   6.103   6.872   4.816
 7448SOL    HW123243   6.117   6.893   4.719
 7448SOL    HW223244   6.191   6.852   4.859
 7449SOL     OW23245   0.773   5.227   1.109
 7449SOL    HW123246   0.699   5.294   1.111
 7449SOL    HW223247   0.771   5.178   1.022
 7450SOL     OW23248   5.628   2.779   4.929
 7450SOL    HW123249   5.700   2.715   4.955
 7450SOL    HW223250   5.591   2.753   4.840
 7451SOL     OW23251   6.292   6.281   2.275
 7451SOL    HW123252   6.233   6.210   2.315
 7451SOL    HW223253   6.245   6.323   2.197
 7452SOL     OW23254   5.511   5.874   4.504
 7452SOL    HW123255   5.431   5.901   4.450
 7452SOL    HW223256   5.586   5.851   4.442
 7453SOL     OW23257   4.722   4.984   4.668
 7453SOL    HW123258   4.815   5.016   4.649
 7453SOL    HW223259   4.717   4.885   4.652
 7454SOL     OW23260   2.523   2.084   1.298
 7454SOL    HW123261   2.589   2.158   1.307
 7454SOL    HW223262   2.518   2.055   1.202
 7455SOL     OW23263   6.842   2.728   2.271
 7455SOL    HW123264   6.883   2.766   2.354
 7455SOL    HW223265   6.847   2.795   2.197
 7456SOL     OW23266   1.840   1.252   4.729
 7456SOL    HW123267   1.910   1.258   4.800
 7456SOL    HW223268   1.883   1.225   4.643
 7457SOL     OW23269   3.096   0.398   4.777
 7457SOL    HW123270   3.157   0.378   4.700
 7457SOL    HW223271   3.004   0.416   4.742
 7458SOL     OW23272   1.948   0.495   5.947
 7458SOL    HW123273   2.009   0.459   6.017
 7458SOL    HW223274   1.913   0.584   5.976
 7459SOL     OW23275   5.871   1.369   2.600
 7459SOL    HW123276   5.909   1.302   2.537
 7459SOL    HW223277   5.943   1.432   2.630
 7460SOL     OW23278   0.821   5.630   0.269
 7460SOL    HW123279   0.889   5.567   0.233
 7460SOL    HW223280   0.821   5.626   0.369
 7461SOL     OW23281   6.350   6.795   6.303
 7461SOL    HW123282   6.352   6.788   6.403
 7461SOL    HW223283   6.396   6.716   6.263
 7462SOL     OW23284   1.901   4.564   1.997
 7462SOL    HW123285   1.830   4.519   1.943
 7462SOL    HW223286   1.989   4.519   1.979
 7463SOL     OW23287   3.008   4.175   7.014
 7463SOL    HW123288   2.982   4.167   6.918
 7463SOL    HW223289   2.926   4.178   0.046
 7464SOL     OW23290   5.572   6.806   5.441
 7464SOL    HW123291   5.628   6.880   5.482
 7464SOL    HW223292   5.625   6.721   5.441
 7465SOL     OW23293   2.435   4.794   6.681
 7465SOL    HW123294   2.390   4.714   6.720
 7465SOL    HW223295   2.534   4.780   6.683
 7466SOL     OW23296   6.747   0.642   5.537
 7466SOL    HW123297   6.810   0.610   5.608
 7466SOL    HW223298   6.799   0.672   5.457
 7467SOL     OW23299   0.414   2.492   5.972
 7467SOL    HW123300   0.512   2.479   5.957
 7467SOL    HW223301   0.363   2.415   5.934
 7468SOL     OW23302   5.338   3.154   4.355
 7468SOL    HW123303   5.321   3.182   4.261
 7468SOL    HW223304   5.282   3.208   4.417
 7469SOL     OW23305   0.095   1.077   6.919
 7469SOL    HW123306   0.170   1.123   6.966
 7469SOL    HW223307   0.114   0.979   6.915
 7470SOL     OW23308   5.459   4.001   3.653
 7470SOL    HW123309   5.543   4.030   3.698
 7470SOL    HW223310   5.460   3.901   3.641
 7471SOL     OW23311   5.283   6.505   6.180
 7471SOL    HW123312   5.229   6.577   6.223
 7471SOL    HW223313   5.224   6.427   6.161
 7472SOL     OW23314   6.745   0.889   5.749
 7472SOL    HW123315   6.772   0.906   5.654
 7472SOL    HW223316   6.649   0.861   5.752
 7473SOL     OW23317   5.176   5.507   3.989
 7473SOL    HW123318   5.254   5.570   3.990
 7473SOL    HW223319   5.118   5.524   4.069
 7474SOL     OW23320   6.417   1.778   6.501
 7474SOL    HW123321   6.381   1.786   6.594
 7474SOL    HW223322   6.427   1.869   6.461
 7475SOL     OW23323   4.323   2.391   1.997
 7475SOL    HW123324   4.322   2.449   1.915
 7475SOL    HW223325   4.253   2.320   1.988
 7476SOL     OW23326   2.541   1.382   2.600
 7476SOL    HW123327   2.494   1.297   2.627
 7476SOL    HW223328   2.494   1.460   2.641
 7477SOL     OW23329   0.089   2.427   4.655
 7477SOL    HW123330   0.086   2.526   4.642
 7477SOL    HW223331   0.154   2.387   4.591
 7478SOL     OW23332   6.218   3.755   5.209
 7478SOL    HW123333   6.148   3.696   5.249
 7478SOL    HW223334   6.177   3.843   5.186
 7479SOL     OW23335   5.000   2.711   2.009
 7479SOL    HW123336   4.986   2.619   2.045
 7479SOL    HW223337   4.934   2.774   2.051
 7480SOL     OW23338   1.730   4.657   2.518
 7480SOL    HW123339   1.644   4.611   2.540
 7480SOL    HW223340   1.805   4.591   2.520
 7481SOL     OW23341   6.178   4.808   0.508
 7481SOL    HW123342   6.183   4.748   0.428
 7481SOL    HW223343   6.106   4.876   0.494
 7482SOL     OW23344   4.750   2.444   2.492
 7482SOL    HW123345   4.785   2.432   2.585
 7482SOL    HW223346   4.811   2.505   2.442
 7483SOL     OW23347   5.224   3.226   4.700
 7483SOL    HW123348   5.151   3.216   4.768
 7483SOL    HW223349   5.189   3.277   4.621
 7484SOL     OW23350   1.944   5.968   4.459
 7484SOL    HW123351   2.014   6.039   4.465
 7484SOL    HW223352   1.977   5.885   4.503
 7485SOL     OW23353   2.610   0.353   4.695
 7485SOL    HW123354   2.616   0.282   4.766
 7485SOL    HW223355   2.557   0.431   4.730
 7486SOL     OW23356   1.086   6.096   6.848
 7486SOL    HW123357   1.044   6.008   6.826
 7486SOL    HW223358   1.168   6.108   6.792
 7487SOL     OW23359   2.959   0.604   3.637
 7487SOL    HW123360   2.987   0.508   3.633
 7487SOL    HW223361   3.037   0.663   3.618
 7488SOL     OW23362   1.800   5.891   4.702
 7488SOL    HW123363   1.876   5.919   4.644
 7488SOL    HW223364   1.716   5.883   4.647
 7489SOL     OW23365   6.350   3.032   6.819
 7489SOL    HW123366   6.365   2.936   6.796
 7489SOL    HW223367   6.267   3.065   6.774
 7490SOL     OW23368   1.554   0.295   3.580
 7490SOL    HW123369   1.622   0.360   3.614
 7490SOL    HW223370   1.598   0.228   3.520
 7491SOL     OW23371   4.320   2.923   6.663
 7491SOL    HW123372   4.307   2.825   6.646
 7491SOL    HW223373   4.410   2.938   6.702
 7492SOL     OW23374   2.201   0.884   3.989
 7492SOL    HW123375   2.206   0.810   4.056
 7492SOL    HW223376   2.248   0.856   3.905
 7493SOL     OW23377   6.430   2.471   6.023
 7493SOL    HW123378   6.450   2.414   5.944
 7493SOL    HW223379   6.503   2.539   6.034
 7494SOL     OW23380   6.031   1.896   3.655
 7494SOL    HW123381   6.001   1.814   3.607
 7494SOL    HW223382   6.068   1.871   3.744
 7495SOL     OW23383   1.064   3.239   6.023
 7495SOL    HW123384   1.003   3.173   5.981
 7495SOL    HW223385   1.015   3.288   6.096
 7496SOL     OW23386   5.862   3.928   4.365
 7496SOL    HW123387   5.810   3.872   4.300
 7496SOL    HW223388   5.960   3.917   4.348
 7497SOL     OW23389   1.574   4.936   1.244
 7497SOL    HW123390   1.568   4.893   1.334
 7497SOL    HW223391   1.484   4.974   1.220
 7498SOL     OW23392   3.005   0.927   4.259
 7498SOL    HW123393   3.099   0.954   4.280
 7498SOL    HW223394   2.951   1.008   4.237
 7499SOL     OW23395   4.049   2.198   3.384
 7499SOL    HW123396   3.983   2.232   3.316
 7499SOL    HW223397   4.106   2.274   3.414
 7500SOL     OW23398   3.272   5.763   2.980
 7500SOL    HW123399   3.268   5.838   2.913
 7500SOL    HW223400   3.263   5.800   3.072
 7501SOL     OW23401   5.210   4.514   3.781
 7501SOL    HW123402   5.138   4.571   3.742
 7501SOL    HW223403   5.289   4.570   3.803
 7502SOL     OW23404   2.827   0.042   4.403
 7502SOL    HW123405   2.734   0.079   4.409
 7502SOL    HW223406   2.829   6.992   4.338
 7503SOL     OW23407   2.917   6.369   1.450
 7503SOL    HW123408   2.964   6.281   1.462
 7503SOL    HW223409   2.861   6.366   1.368
 7504SOL     OW23410   0.278   6.298   3.121
 7504SOL    HW123411   0.267   6.344   3.033
 7504SOL    HW223412   0.330   6.356   3.183
 7505SOL     OW23413   1.378   2.475   6.249
 7505SOL    HW123414   1.382   2.397   6.187
 7505SOL    HW223415   1.407   2.448   6.340
 7506SOL     OW23416   4.907   2.578   4.092
 7506SOL    HW123417   4.818   2.601   4.132
 7506SOL    HW223418   4.894   2.547   3.998
 7507SOL     OW23419   5.854   2.382   2.977
 7507SOL    HW123420   5.935   2.410   2.926
 7507SOL    HW223421   5.841   2.283   2.968
 7508SOL     OW23422   2.448   5.090   0.628
 7508SOL    HW123423   2.355   5.056   0.644
 7508SOL    HW223424   2.468   5.088   0.530
 7509SOL     OW23425   6.241   3.379   0.430
 7509SOL    HW123426   6.205   3.298   0.383
 7509SOL    HW223427   6.302   3.350   0.504
 7510SOL     OW23428   4.112   3.730   4.923
 7510SOL    HW123429   4.147   3.791   4.852
 7510SOL    HW223430   4.122   3.635   4.893
 7511SOL     OW23431   2.692   6.107   3.001
 7511SOL    HW123432   2.674   6.131   3.097
 7511SOL    HW223433   2.790   6.116   2.983
 7512SOL     OW23434   2.764   1.176   6.953
 7512SOL    HW123435   2.687   1.163   7.016
 7512SOL    HW223436   2.736   1.148   6.861
 7513SOL     OW23437   1.427   1.365   2.443
 7513SOL    HW123438   1.461   1.271   2.435
 7513SOL    HW223439   1.504   1.429   2.441
 7514SOL     OW23440   2.265   4.815   2.982
 7514SOL    HW123441   2.193   4.747   2.973
 7514SOL    HW223442   2.309   4.828   2.893
 7515SOL     OW23443   6.850   4.968   4.804
 7515SOL    HW123444   6.853   5.061   4.768
 7515SOL    HW223445   6.768   4.957   4.860
 7516SOL     OW23446   0.767   5.099   5.923
 7516SOL    HW123447   0.865   5.114   5.912
 7516SOL    HW223448   0.716   5.174   5.882
 7517SOL     OW23449   0.732   2.157   0.205
 7517SOL    HW123450   0.755   2.254   0.194
 7517SOL    HW223451   0.645   2.138   0.160
 7518SOL     OW23452   5.170   3.551   3.829
 7518SOL    HW123453   5.083   3.501   3.825
 7518SOL    HW223454   5.151   3.648   3.848
 7519SOL     OW23455   6.611   6.716   4.565
 7519SOL    HW123456   6.658   6.642   4.614
 7519SOL    HW223457   6.645   6.804   4.598
 7520SOL     OW23458   2.091   0.417   2.601
 7520SOL    HW123459   2.176   0.468   2.600
 7520SOL    HW223460   2.015   0.477   2.628
 7521SOL     OW23461   5.860   2.808   4.673
 7521SOL    HW123462   5.826   2.838   4.763
 7521SOL    HW223463   5.900   2.887   4.626
 7522SOL     OW23464   1.294   0.463   5.693
 7522SOL    HW123465   1.384   0.485   5.730
 7522SOL    HW223466   1.232   0.440   5.768
 7523SOL     OW23467   5.146   0.886   6.477
 7523SOL    HW123468   5.071   0.949   6.457
 7523SOL    HW223469   5.223   0.904   6.415
 7524SOL     OW23470   0.261   3.043   4.822
 7524SOL    HW123471   0.305   3.065   4.909
 7524SOL    HW223472   0.331   3.021   4.754
 7525SOL     OW23473   4.355   6.986   0.004
 7525SOL    HW123474   4.361   6.996   6.930
 7525SOL    HW223475   4.438   7.023   0.046
 7526SOL     OW23476   2.855   3.144   1.708
 7526SOL    HW123477   2.901   3.160   1.795
 7526SOL    HW223478   2.779   3.208   1.697
 7527SOL     OW23479   3.264   5.652   3.788
 7527SOL    HW123480   3.354   5.694   3.784
 7527SOL    HW223481   3.273   5.553   3.777
 7528SOL     OW23482   6.108   2.269   6.858
 7528SOL    HW123483   6.164   2.308   6.784
 7528SOL    HW223484   6.014   2.256   6.826
 7529SOL     OW23485   5.451   1.944   4.642
 7529SOL    HW123486   5.535   1.996   4.621
 7529SOL    HW223487   5.418   1.900   4.559
 7530SOL     OW23488   5.963   2.803   2.030
 7530SOL    HW123489   5.982   2.711   1.996
 7530SOL    HW223490   5.986   2.808   2.127
 7531SOL     OW23491   5.403   3.464   3.947
 7531SOL    HW123492   5.344   3.529   3.899
 7531SOL    HW223493   5.499   3.487   3.930
 7532SOL     OW23494   4.425   6.146   0.463
 7532SOL    HW123495   4.520   6.131   0.490
 7532SOL    HW223496   4.370   6.165   0.544
 7533SOL     OW23497   3.666   2.008   1.878
 7533SOL    HW123498   3.686   2.090   1.932
 7533SOL    HW223499   3.605   2.032   1.803
 7534SOL     OW23500   5.040   5.825   4.627
 7534SOL    HW123501   4.998   5.735   4.616
 7534SOL    HW223502   5.120   5.831   4.567
 7535SOL     OW23503   1.775   6.645   4.992
 7535SOL    HW123504   1.849   6.588   5.029
 7535SOL    HW223505   1.717   6.590   4.932
 7536SOL     OW23506   4.685   5.682   3.826
 7536SOL    HW123507   4.683   5.746   3.903
 7536SOL    HW223508   4.727   5.728   3.747
 7537SOL     OW23509   2.022   4.608   2.667
 7537SOL    HW123510   2.054   4.574   2.579
 7537SOL    HW223511   2.007   4.707   2.662
 7538SOL     OW23512   2.130   2.851   1.625
 7538SOL    HW123513   2.117   2.917   1.551
 7538SOL    HW223514   2.220   2.807   1.616
 7539SOL     OW23515   1.445   4.352   3.482
 7539SOL    HW123516   1.544   4.334   3.479
 7539SOL    HW223517   1.424   4.406   3.563
 7540SOL     OW23518   4.367   6.618   4.564
 7540SOL    HW123519   4.351   6.542   4.627
 7540SOL    HW223520   4.298   6.689   4.579
 7541SOL     OW23521   0.676   4.257   6.288
 7541SOL    HW123522   0.612   4.292   6.357
 7541SOL    HW223523   0.760   4.227   6.333
 7542SOL     OW23524   6.502   6.135   0.195
 7542SOL    HW123525   6.561   6.215   0.198
 7542SOL    HW223526   6.539   6.068   0.131
 7543SOL     OW23527   3.498   1.275   5.193
 7543SOL    HW123528   3.489   1.319   5.282
 7543SOL    HW223529   3.433   1.199   5.186
 7544SOL     OW23530   6.909   2.741   4.157
 7544SOL    HW123531   6.911   2.775   4.063
 7544SOL    HW223532   6.859   2.804   4.215
 7545SOL     OW23533   0.786   6.490   6.194
 7545SOL    HW123534   0.694   6.529   6.196
 7545SOL    HW223535   0.834   6.513   6.279
 7546SOL     OW23536   4.618   2.336   1.678
 7546SOL    HW123537   4.659   2.290   1.599
 7546SOL    HW223538   4.522   2.310   1.685
 7547SOL     OW23539   5.173   0.907   1.161
 7547SOL    HW123540   5.228   0.888   1.243
 7547SOL    HW223541   5.160   1.005   1.151
 7548SOL     OW23542   4.768   2.405   6.457
 7548SOL    HW123543   4.823   2.488   6.460
 7548SOL    HW223544   4.829   2.325   6.456
 7549SOL     OW23545   3.650   3.264   6.146
 7549SOL    HW123546   3.574   3.327   6.164
 7549SOL    HW223547   3.680   3.275   6.051
 7550SOL     OW23548   1.886   4.725   3.297
 7550SOL    HW123549   1.841   4.759   3.380
 7550SOL    HW223550   1.978   4.693   3.319
 7551SOL     OW23551   5.810   3.139   5.363
 7551SOL    HW123552   5.833   3.071   5.294
 7551SOL    HW223553   5.793   3.094   5.451
 7552SOL     OW23554   1.702   6.093   4.325
 7552SOL    HW123555   1.762   6.016   4.348
 7552SOL    HW223556   1.615   6.084   4.373
 7553SOL     OW23557   4.892   6.691   5.776
 7553SOL    HW123558   4.833   6.633   5.720
 7553SOL    HW223559   4.892   6.784   5.739
 7554SOL     OW23560   4.982   0.680   6.949
 7554SOL    HW123561   4.990   0.744   6.874
 7554SOL    HW223562   4.923   0.603   6.922
 7555SOL     OW23563   3.208   5.726   6.669
 7555SOL    HW123564   3.173   5.713   6.576
 7555SOL    HW223565   3.306   5.705   6.671
 7556SOL     OW23566   2.443   1.597   0.060
 7556SOL    HW123567   2.502   1.675   0.081
 7556SOL    HW223568   2.387   1.574   0.139
 7557SOL     OW23569   4.839   0.657   6.217
 7557SOL    HW123570   4.887   0.598   6.153
 7557SOL    HW223571   4.870   0.637   6.310
 7558SOL     OW23572   2.131   3.162   4.129
 7558SOL    HW123573   2.151   3.234   4.063
 7558SOL    HW223574   2.106   3.078   4.080
 7559SOL     OW23575   3.978   2.374   5.745
 7559SOL    HW123576   4.045   2.430   5.696
 7559SOL    HW223577   4.018   2.343   5.831
 7560SOL     OW23578   5.918   0.040   0.243
 7560SOL    HW123579   5.959   0.110   0.301
 7560SOL    HW223580   5.936   6.975   0.281
 7561SOL     OW23581   6.314   2.700   5.772
 7561SOL    HW123582   6.318   2.796   5.746
 7561SOL    HW223583   6.379   2.648   5.716
 7562SOL     OW23584   0.876   4.787   5.485
 7562SOL    HW123585   0.952   4.797   5.420
 7562SOL    HW223586   0.791   4.779   5.434
 7563SOL     OW23587   2.533   6.061   1.814
 7563SOL    HW123588   2.443   6.029   1.844
 7563SOL    HW223589   2.599   5.986   1.820
 7564SOL     OW23590   3.786   0.155   4.299
 7564SOL    HW123591   3.728   0.198   4.368
 7564SOL    HW223592   3.733   0.137   4.217
 7565SOL     OW23593   5.489   3.687   5.776
 7565SOL    HW123594   5.435   3.772   5.779
 7565SOL    HW223595   5.577   3.702   5.821
 7566SOL     OW23596   5.590   5.269   2.121
 7566SOL    HW123597   5.680   5.237   2.152
 7566SOL    HW223598   5.523   5.255   2.193
 7567SOL     OW23599   1.083   1.111   6.038
 7567SOL    HW123600   1.127   1.121   6.127
 7567SOL    HW223601   1.121   1.177   5.974
 7568SOL     OW23602   5.352   4.884   2.265
 7568SOL    HW123603   5.357   4.841   2.175
 7568SOL    HW223604   5.436   4.864   2.316
 7569SOL     OW23605   3.598   4.474   6.280
 7569SOL    HW123606   3.565   4.513   6.194
 7569SOL    HW223607   3.653   4.392   6.261
 7570SOL     OW23608   6.053   3.639   4.113
 7570SOL    HW123609   6.068   3.733   4.085
 7570SOL    HW223610   6.139   3.588   4.109
 7571SOL     OW23611   4.912   3.611   3.236
 7571SOL    HW123612   4.903   3.540   3.166
 7571SOL    HW223613   4.917   3.569   3.326
 7572SOL     OW23614   5.293   0.891   3.216
 7572SOL    HW123615   5.203   0.868   3.253
 7572SOL    HW223616   5.298   0.864   3.120
 7573SOL     OW23617   6.111   0.367   5.843
 7573SOL    HW123618   6.169   0.413   5.776
 7573SOL    HW223619   6.123   0.410   5.933
 7574SOL     OW23620   5.680   1.213   4.310
 7574SOL    HW123621   5.777   1.216   4.333
 7574SOL    HW223622   5.668   1.238   4.214
 7575SOL     OW23623   5.956   6.802   0.314
 7575SOL    HW123624   5.889   6.735   0.285
 7575SOL    HW223625   6.047   6.762   0.314
 7576SOL     OW23626   5.101   2.420   0.165
 7576SOL    HW123627   5.049   2.462   0.240
 7576SOL    HW223628   5.199   2.423   0.186
 7577SOL     OW23629   0.598   6.146   0.221
 7577SOL    HW123630   0.626   6.090   0.143
 7577SOL    HW223631   0.673   6.151   0.287
 7578SOL     OW23632   1.750   5.221   2.578
 7578SOL    HW123633   1.833   5.276   2.563
 7578SOL    HW223634   1.672   5.282   2.590
 7579SOL     OW23635   0.075   1.417   1.438
 7579SOL    HW123636   0.101   1.343   1.500
 7579SOL    HW223637   0.046   1.497   1.490
 7580SOL     OW23638   0.952   4.329   3.218
 7580SOL    HW123639   0.874   4.381   3.184
 7580SOL    HW223640   1.001   4.289   3.140
 7581SOL     OW23641   0.487   1.560   1.273
 7581SOL    HW123642   0.433   1.636   1.307
 7581SOL    HW223643   0.515   1.578   1.179
 7582SOL     OW23644   4.010   1.746   4.323
 7582SOL    HW123645   4.006   1.647   4.319
 7582SOL    HW223646   4.007   1.783   4.230
 7583SOL     OW23647   5.375   3.158   2.198
 7583SOL    HW123648   5.448   3.148   2.265
 7583SOL    HW223649   5.412   3.202   2.116
 7584SOL     OW23650   1.572   0.309   2.895
 7584SOL    HW123651   1.663   0.290   2.858
 7584SOL    HW223652   1.539   0.396   2.857
 7585SOL     OW23653   1.353   2.173   6.162
 7585SOL    HW123654   1.443   2.199   6.199
 7585SOL    HW223655   1.295   2.141   6.236
 7586SOL     OW23656   1.614   6.736   3.083
 7586SOL    HW123657   1.644   6.657   3.137
 7586SOL    HW223658   1.666   6.738   2.997
 7587SOL     OW23659   2.883   1.576   6.788
 7587SOL    HW123660   2.980   1.593   6.772
 7587SOL    HW223661   2.829   1.623   6.718
 7588SOL     OW23662   1.878   2.353   3.893
 7588SOL    HW123663   1.972   2.325   3.909
 7588SOL    HW223664   1.861   2.442   3.936
 7589SOL     OW23665   6.833   0.731   2.672
 7589SOL    HW123666   6.901   0.658   2.678
 7589SOL    HW223667   6.811   0.764   2.764
 7590SOL     OW23668   5.532   1.157   0.249
 7590SOL    HW123669   5.545   1.175   0.152
 7590SOL    HW223670   5.499   1.064   0.263
 7591SOL     OW23671   5.483   4.103   6.766
 7591SOL    HW123672   5.517   4.010   6.752
 7591SOL    HW223673   5.385   4.101   6.783
 7592SOL     OW23674   6.157   5.162   4.797
 7592SOL    HW123675   6.254   5.142   4.791
 7592SOL    HW223676   6.113   5.100   4.861
 7593SOL     OW23677   6.710   3.366   6.875
 7593SOL    HW123678   6.677   3.274   6.853
 7593SOL    HW223679   6.637   3.417   6.921
 7594SOL     OW23680   1.019   4.872   1.328
 7594SOL    HW123681   1.106   4.891   1.374
 7594SOL    HW223682   0.959   4.821   1.390
 7595SOL     OW23683   6.297   3.017   6.317
 7595SOL    HW123684   6.303   2.978   6.225
 7595SOL    HW223685   6.359   2.968   6.378
 7596SOL     OW23686   3.204   6.554   4.432
 7596SOL    HW123687   3.140   6.626   4.402
 7596SOL    HW223688   3.222   6.565   4.529
 7597SOL     OW23689   1.936   6.776   2.843
 7597SOL    HW123690   2.000   6.704   2.871
 7597SOL    HW223691   1.945   6.792   2.745
 7598SOL     OW23692   6.042   0.653   3.559
 7598SOL    HW123693   6.076   0.590   3.490
 7598SOL    HW223694   6.042   0.608   3.648
 7599SOL     OW23695   5.524   2.848   1.295
 7599SOL    HW123696   5.498   2.945   1.296
 7599SOL    HW223697   5.565   2.824   1.383
 7600SOL     OW23698   0.869   0.784   3.416
 7600SOL    HW123699   0.885   0.817   3.510
 7600SOL    HW223700   0.891   0.687   3.411
 7601SOL     OW23701   3.132   5.045   2.139
 7601SOL    HW123702   3.118   5.079   2.046
 7601SOL    HW223703   3.204   4.975   2.137
 7602SOL     OW23704   1.332   2.990   6.573
 7602SOL    HW123705   1.308   2.990   6.670
 7602SOL    HW223706   1.429   2.970   6.562
 7603SOL     OW23707   2.214   6.517   5.985
 7603SOL    HW123708   2.222   6.423   6.016
 7603SOL    HW223709   2.117   6.545   5.988
 7604SOL     OW23710   0.734   2.246   5.464
 7604SOL    HW123711   0.777   2.234   5.375
 7604SOL    HW223712   0.643   2.286   5.453
 7605SOL     OW23713   1.430   0.647   0.504
 7605SOL    HW123714   1.423   0.574   0.435
 7605SOL    HW223715   1.526   0.659   0.530
 7606SOL     OW23716   5.819   3.065   5.059
 7606SOL    HW123717   5.764   3.149   5.062
 7606SOL    HW223718   5.762   2.987   5.087
 7607SOL     OW23719   4.110   5.105   0.075
 7607SOL    HW123720   4.075   5.136   7.012
 7607SOL    HW223721   4.208   5.088   0.067
 7608SOL     OW23722   5.559   2.664   0.660
 7608SOL    HW123723   5.569   2.667   0.760
 7608SOL    HW223724   5.643   2.628   0.620
 7609SOL     OW23725   1.301   3.335   3.626
 7609SOL    HW123726   1.312   3.372   3.719
 7609SOL    HW223727   1.327   3.405   3.560
 7610SOL     OW23728   3.903   4.478   5.475
 7610SOL    HW123729   3.969   4.446   5.406
 7610SOL    HW223730   3.873   4.570   5.451
 7611SOL     OW23731   5.126   3.869   0.923
 7611SOL    HW123732   5.154   3.806   0.850
 7611SOL    HW223733   5.060   3.823   0.982
 7612SOL     OW23734   4.711   2.842   3.001
 7612SOL    HW123735   4.629   2.821   2.947
 7612SOL    HW223736   4.769   2.761   3.006
 7613SOL     OW23737   0.201   1.559   1.780
 7613SOL    HW123738   0.258   1.622   1.831
 7613SOL    HW223739   0.144   1.506   1.843
 7614SOL     OW23740   5.396   3.637   1.141
 7614SOL    HW123741   5.354   3.572   1.078
 7614SOL    HW223742   5.359   3.624   1.233
 7615SOL     OW23743   4.950   4.024   6.131
 7615SOL    HW123744   5.049   4.018   6.120
 7615SOL    HW223745   4.907   3.946   6.084
 7616SOL     OW23746   6.891   0.131   4.106
 7616SOL    HW123747   6.910   0.034   4.089
 7616SOL    HW223748   6.972   0.185   4.084
 7617SOL     OW23749   5.415   5.897   3.802
 7617SOL    HW123750   5.484   5.964   3.773
 7617SOL    HW223751   5.325   5.940   3.801
 7618SOL     OW23752   0.943   2.705   0.044
 7618SOL    HW123753   0.931   2.730   0.140
 7618SOL    HW223754   0.956   2.606   0.037
 7619SOL     OW23755   0.323   2.560   4.214
 7619SOL    HW123756   0.375   2.610   4.284
 7619SOL    HW223757   0.381   2.543   4.135
 7620SOL     OW23758   4.387   5.493   1.098
 7620SOL    HW123759   4.388   5.513   1.196
 7620SOL    HW223760   4.346   5.403   1.082
 7621SOL     OW23761   0.497   0.800   1.264
 7621SOL    HW123762   0.508   0.871   1.334
 7621SOL    HW223763   0.437   0.728   1.299
 7622SOL     OW23764   4.591   4.963   6.308
 7622SOL    HW123765   4.643   4.881   6.333
 7622SOL    HW223766   4.528   4.941   6.234
 7623SOL     OW23767   4.580   4.544   1.324
 7623SOL    HW123768   4.527   4.616   1.279
 7623SOL    HW223769   4.653   4.513   1.263
 7624SOL     OW23770   0.040   3.695   3.550
 7624SOL    HW123771   0.139   3.684   3.555
 7624SOL    HW223772   7.020   3.619   3.596
 7625SOL     OW23773   6.761   1.430   0.116
 7625SOL    HW123774   6.776   1.335   0.088
 7625SOL    HW223775   6.665   1.454   0.100
 7626SOL     OW23776   6.589   0.996   6.009
 7626SOL    HW123777   6.586   0.964   5.915
 7626SOL    HW223778   6.658   1.067   6.019
 7627SOL     OW23779   3.324   2.330   0.305
 7627SOL    HW123780   3.397   2.271   0.273
 7627SOL    HW223781   3.248   2.275   0.340
 7628SOL     OW23782   3.886   2.776   1.639
 7628SOL    HW123783   3.946   2.705   1.603
 7628SOL    HW223784   3.791   2.748   1.629
 7629SOL     OW23785   6.810   4.366   3.242
 7629SOL    HW123786   6.716   4.392   3.265
 7629SOL    HW223787   6.865   4.368   3.325
 7630SOL     OW23788   0.688   0.903   6.586
 7630SOL    HW123789   0.659   0.989   6.544
 7630SOL    HW223790   0.765   0.865   6.536
 7631SOL     OW23791   1.021   1.717   5.523
 7631SOL    HW123792   1.014   1.649   5.597
 7631SOL    HW223793   1.117   1.739   5.507
 7632SOL     OW23794   4.389   4.801   0.632
 7632SOL    HW123795   4.294   4.791   0.601
 7632SOL    HW223796   4.393   4.794   0.731
 7633SOL     OW23797   5.098   0.532   1.995
 7633SOL    HW123798   5.025   0.576   2.048
 7633SOL    HW223799   5.116   0.441   2.033
 7634SOL     OW23800   2.404   1.194   1.566
 7634SOL    HW123801   2.366   1.104   1.590
 7634SOL    HW223802   2.503   1.191   1.571
 7635SOL     OW23803   3.250   5.268   4.557
 7635SOL    HW123804   3.227   5.178   4.596
 7635SOL    HW223805   3.286   5.327   4.629
 7636SOL     OW23806   1.219   4.199   4.087
 7636SOL    HW123807   1.208   4.147   4.002
 7636SOL    HW223808   1.206   4.138   4.165
 7637SOL     OW23809   1.888   6.193   2.958
 7637SOL    HW123810   1.803   6.203   2.906
 7637SOL    HW223811   1.965   6.229   2.906
 7638SOL     OW23812   1.423   5.454   2.573
 7638SOL    HW123813   1.437   5.371   2.627
 7638SOL    HW223814   1.334   5.495   2.597
 7639SOL     OW23815   0.626   1.341   0.438
 7639SOL    HW123816   0.712   1.383   0.410
 7639SOL    HW223817   0.644   1.251   0.478
 7640SOL     OW23818   2.619   2.612   6.875
 7640SOL    HW123819   2.545   2.612   6.808
 7640SOL    HW223820   2.706   2.633   6.830
 7641SOL     OW23821   6.673   3.848   2.682
 7641SOL    HW123822   6.708   3.922   2.739
 7641SOL    HW223823   6.649   3.770   2.740
 7642SOL     OW23824   5.543   1.197   2.340
 7642SOL    HW123825   5.464   1.138   2.354
 7642SOL    HW223826   5.522   1.290   2.372
 7643SOL     OW23827   5.359   1.580   2.520
 7643SOL    HW123828   5.454   1.549   2.513
 7643SOL    HW223829   5.357   1.680   2.512
 7644SOL     OW23830   4.981   3.041   2.296
 7644SOL    HW123831   4.923   3.023   2.376
 7644SOL    HW223832   4.925   3.040   2.214
 7645SOL     OW23833   4.211   3.600   5.545
 7645SOL    HW123834   4.155   3.680   5.566
 7645SOL    HW223835   4.244   3.605   5.451
 7646SOL     OW23836   0.400   2.397   3.695
 7646SOL    HW123837   0.487   2.434   3.729
 7646SOL    HW223838   0.394   2.300   3.717
 7647SOL     OW23839   0.575   3.042   4.507
 7647SOL    HW123840   0.647   3.111   4.498
 7647SOL    HW223841   0.486   3.086   4.505
 7648SOL     OW23842   2.469   1.608   2.713
 7648SOL    HW123843   2.566   1.619   2.734
 7648SOL    HW223844   2.438   1.685   2.656
 7649SOL     OW23845   1.482   0.943   4.367
 7649SOL    HW123846   1.496   0.855   4.324
 7649SOL    HW223847   1.462   1.012   4.298
 7650SOL     OW23848   6.186   0.571   1.193
 7650SOL    HW123849   6.208   0.632   1.270
 7650SOL    HW223850   6.170   0.479   1.228
 7651SOL     OW23851   2.560   6.387   4.040
 7651SOL    HW123852   2.632   6.404   3.972
 7651SOL    HW223853   2.493   6.462   4.037
 7652SOL     OW23854   5.692   2.859   5.199
 7652SOL    HW123855   5.698   2.812   5.111
 7652SOL    HW223856   5.597   2.882   5.218
 7653SOL     OW23857   1.536   1.570   0.321
 7653SOL    HW123858   1.470   1.496   0.332
 7653SOL    HW223859   1.620   1.547   0.370
 7654SOL     OW23860   5.413   3.040   4.741
 7654SOL    HW123861   5.342   3.104   4.713
 7654SOL    HW223862   5.371   2.958   4.779
 7655SOL     OW23863   3.396   0.752   3.953
 7655SOL    HW123864   3.409   0.706   3.866
 7655SOL    HW223865   3.472   0.731   4.014
 7656SOL     OW23866   4.968   2.714   6.762
 7656SOL    HW123867   4.957   2.812   6.748
 7656SOL    HW223868   5.033   2.698   6.836
 7657SOL     OW23869   2.167   2.382   4.184
 7657SOL    HW123870   2.113   2.377   4.100
 7657SOL    HW223871   2.130   2.454   4.243
 7658SOL     OW23872   2.977   0.364   0.741
 7658SOL    HW123873   2.893   0.417   0.731
 7658SOL    HW223874   3.040   0.388   0.668
 7659SOL     OW23875   4.878   4.261   6.699
 7659SOL    HW123876   4.798   4.284   6.643
 7659SOL    HW223877   4.901   4.339   6.757
 7660SOL     OW23878   6.393   5.256   4.139
 7660SOL    HW123879   6.377   5.351   4.166
 7660SOL    HW223880   6.483   5.248   4.094
 7661SOL     OW23881   5.027   1.959   5.613
 7661SOL    HW123882   5.077   2.000   5.689
 7661SOL    HW223883   5.054   1.863   5.603
 7662SOL     OW23884   0.982   2.747   2.992
 7662SOL    HW123885   0.990   2.651   2.965
 7662SOL    HW223886   0.908   2.757   3.058
 7663SOL     OW23887   4.814   5.489   6.762
 7663SOL    HW123888   4.803   5.514   6.666
 7663SOL    HW223889   4.911   5.487   6.786
 7664SOL     OW23890   4.150   1.376   2.394
 7664SOL    HW123891   4.064   1.331   2.415
 7664SOL    HW223892   4.162   1.455   2.454
 7665SOL     OW23893   5.413   1.353   4.141
 7665SOL    HW123894   5.441   1.438   4.097
 7665SOL    HW223895   5.385   1.373   4.235
 7666SOL     OW23896   0.043   4.791   3.826
 7666SOL    HW123897   0.054   4.790   3.925
 7666SOL    HW223898   6.977   4.825   3.803
 7667SOL     OW23899   4.425   0.402   3.012
 7667SOL    HW123900   4.412   0.303   2.998
 7667SOL    HW223901   4.455   0.444   2.927
 7668SOL     OW23902   2.729   4.764   1.176
 7668SOL    HW123903   2.654   4.807   1.124
 7668SOL    HW223904   2.753   4.822   1.254
 7669SOL     OW23905   4.673   0.976   5.109
 7669SOL    HW123906   4.688   1.013   5.017
 7669SOL    HW223907   4.752   0.922   5.137
 7670SOL     OW23908   1.007   6.015   0.542
 7670SOL    HW123909   0.951   6.095   0.566
 7670SOL    HW223910   1.050   6.030   0.453
 7671SOL     OW23911   3.991   0.344   2.410
 7671SOL    HW123912   3.893   0.335   2.429
 7671SOL    HW223913   4.003   0.379   2.317
 7672SOL     OW23914   6.559   5.136   3.450
 7672SOL    HW123915   6.491   5.174   3.512
 7672SOL    HW223916   6.649   5.140   3.493
 7673SOL     OW23917   1.888   5.604   2.307
 7673SOL    HW123918   1.926   5.537   2.370
 7673SOL    HW223919   1.824   5.559   2.245
 7674SOL     OW23920   4.622   0.360   3.939
 7674SOL    HW123921   4.565   0.395   3.865
 7674SOL    HW223922   4.638   0.433   4.006
 7675SOL     OW23923   5.107   6.194   3.324
 7675SOL    HW123924   5.057   6.263   3.376
 7675SOL    HW223925   5.055   6.169   3.243
 7676SOL     OW23926   3.163   2.252   5.988
 7676SOL    HW123927   3.125   2.323   5.928
 7676SOL    HW223928   3.097   2.232   6.061
 7677SOL     OW23929   0.197   4.446   0.810
 7677SOL    HW123930   0.270   4.487   0.864
 7677SOL    HW223931   0.190   4.493   0.722
 7678SOL     OW23932   1.729   2.905   5.399
 7678SOL    HW123933   1.658   2.894   5.330
 7678SOL    HW223934   1.805   2.843   5.378
 7679SOL     OW23935   1.885   5.106   5.379
 7679SOL    HW123936   1.961   5.129   5.440
 7679SOL    HW223937   1.866   5.008   5.384
 7680SOL     OW23938   1.604   0.577   6.921
 7680SOL    HW123939   1.606   0.548   6.825
 7680SOL    HW223940   1.697   0.589   6.954
 7681SOL     OW23941   2.873   1.007   0.169
 7681SOL    HW123942   2.835   1.068   0.100
 7681SOL    HW223943   2.972   1.021   0.176
 7682SOL     OW23944   4.582   0.817   2.286
 7682SOL    HW123945   4.647   0.794   2.359
 7682SOL    HW223946   4.578   0.917   2.276
 7683SOL     OW23947   0.204   1.593   4.965
 7683SOL    HW123948   0.168   1.671   5.016
 7683SOL    HW223949   0.257   1.535   5.026
 7684SOL     OW23950   3.761   2.459   0.972
 7684SOL    HW123951   3.670   2.428   0.998
 7684SOL    HW223952   3.798   2.518   1.044
 7685SOL     OW23953   3.341   1.654   6.561
 7685SOL    HW123954   3.388   1.600   6.491
 7685SOL    HW223955   3.302   1.736   6.518
 7686SOL     OW23956   6.126   6.935   4.544
 7686SOL    HW123957   6.201   6.890   4.496
 7686SOL    HW223958   6.110   7.025   4.504
 7687SOL     OW23959   4.791   5.432   4.841
 7687SOL    HW123960   4.804   5.521   4.885
 7687SOL    HW223961   4.822   5.359   4.903
 7688SOL     OW23962   0.090   6.022   6.331
 7688SOL    HW123963   0.070   5.941   6.276
 7688SOL    HW223964   0.187   6.045   6.323
 7689SOL     OW23965   5.145   6.726   3.069
 7689SOL    HW123966   5.235   6.727   3.024
 7689SOL    HW223967   5.156   6.700   3.165
 7690SOL     OW23968   5.505   5.306   0.549
 7690SOL    HW123969   5.591   5.291   0.598
 7690SOL    HW223970   5.430   5.312   0.615
 7691SOL     OW23971   5.364   4.027   1.555
 7691SOL    HW123972   5.331   3.972   1.633
 7691SOL    HW223973   5.305   4.107   1.545
 7692SOL     OW23974   0.572   5.817   1.590
 7692SOL    HW123975   0.490   5.769   1.556
 7692SOL    HW223976   0.562   5.915   1.571
 7693SOL     OW23977   3.206   0.188   1.225
 7693SOL    HW123978   3.163   0.217   1.139
 7693SOL    HW223979   3.297   0.151   1.205
 7694SOL     OW23980   6.050   3.091   4.304
 7694SOL    HW123981   6.061   3.060   4.210
 7694SOL    HW223982   6.059   3.191   4.308
 7695SOL     OW23983   6.199   0.695   1.456
 7695SOL    HW123984   6.178   0.772   1.516
 7695SOL    HW223985   6.136   0.619   1.476
 7696SOL     OW23986   6.405   1.452   6.158
 7696SOL    HW123987   6.361   1.374   6.114
 7696SOL    HW223988   6.347   1.533   6.148
 7697SOL     OW23989   2.869   0.925   2.491
 7697SOL    HW123990   2.966   0.912   2.469
 7697SOL    HW223991   2.815   0.854   2.447
 7698SOL     OW23992   6.614   1.190   5.513
 7698SOL    HW123993   6.587   1.226   5.602
 7698SOL    HW223994   6.682   1.118   5.526
 7699SOL     OW23995   2.588   5.335   6.701
 7699SOL    HW123996   2.501   5.368   6.736
 7699SOL    HW223997   2.643   5.299   6.777
 7700SOL     OW23998   4.053   6.068   3.467
 7700SOL    HW123999   4.092   6.110   3.385
 7700SOL    HW224000   3.966   6.111   3.489
 7701SOL     OW24001   0.153   2.525   6.609
 7701SOL    HW124002   0.106   2.480   6.684
 7701SOL    HW224003   0.086   2.574   6.552
 7702SOL     OW24004   4.413   5.796   5.064
 7702SOL    HW124005   4.340   5.859   5.090
 7702SOL    HW224006   4.390   5.704   5.095
 7703SOL     OW24007   6.288   6.076   5.630
 7703SOL    HW124008   6.341   6.088   5.546
 7703SOL    HW224009   6.290   6.161   5.683
 7704SOL     OW24010   6.058   1.899   3.351
 7704SOL    HW124011   6.068   1.942   3.440
 7704SOL    HW224012   5.975   1.843   3.350
 7705SOL     OW24013   2.522   5.090   1.263
 7705SOL    HW124014   2.456   5.114   1.192
 7705SOL    HW224015   2.504   5.144   1.345
 7706SOL     OW24016   3.852   3.465   3.682
 7706SOL    HW124017   3.951   3.466   3.699
 7706SOL    HW224018   3.833   3.412   3.599
 7707SOL     OW24019   0.557   4.451   6.890
 7707SOL    HW124020   0.604   4.362   6.895
 7707SOL    HW224021   0.459   4.438   6.906
 7708SOL     OW24022   1.752   6.722   4.411
 7708SOL    HW124023   1.803   6.640   4.386
 7708SOL    HW224024   1.662   6.721   4.368
 7709SOL     OW24025   6.715   5.003   1.994
 7709SOL    HW124026   6.779   4.931   2.020
 7709SOL    HW224027   6.635   4.963   1.950
 7710SOL     OW24028   1.863   2.069   0.828
 7710SOL    HW124029   1.778   2.020   0.805
 7710SOL    HW224030   1.902   2.108   0.745
 7711SOL     OW24031   5.349   5.972   6.132
 7711SOL    HW124032   5.385   6.065   6.136
 7711SOL    HW224033   5.279   5.967   6.061
 7712SOL     OW24034   6.188   4.681   0.293
 7712SOL    HW124035   6.237   4.595   0.308
 7712SOL    HW224036   6.211   4.717   0.202
 7713SOL     OW24037   1.842   3.581   0.709
 7713SOL    HW124038   1.773   3.585   0.781
 7713SOL    HW224039   1.832   3.496   0.658
 7714SOL     OW24040   0.616   6.465   5.268
 7714SOL    HW124041   0.686   6.435   5.203
 7714SOL    HW224042   0.594   6.390   5.330
 7715SOL     OW24043   2.872   1.940   6.485
 7715SOL    HW124044   2.953   1.998   6.500
 7715SOL    HW224045   2.809   1.988   6.424
 7716SOL     OW24046   6.274   5.263   0.793
 7716SOL    HW124047   6.325   5.193   0.744
 7716SOL    HW224048   6.176   5.250   0.778
 7717SOL     OW24049   1.027   1.962   5.398
 7717SOL    HW124050   1.025   1.873   5.353
 7717SOL    HW224051   1.119   1.980   5.433
 7718SOL     OW24052   6.959   4.455   3.033
 7718SOL    HW124053   0.024   4.439   3.074
 7718SOL    HW224054   6.889   4.407   3.086
 7719SOL     OW24055   0.827   4.013   4.960
 7719SOL    HW124056   0.773   4.017   4.876
 7719SOL    HW224057   0.874   4.101   4.974
 7720SOL     OW24058   6.227   1.648   6.194
 7720SOL    HW124059   6.200   1.643   6.291
 7720SOL    HW224060   6.146   1.640   6.136
 7721SOL     OW24061   0.552   6.908   2.642
 7721SOL    HW124062   0.550   6.865   2.552
 7721SOL    HW224063   0.484   6.865   2.701
 7722SOL     OW24064   1.605   5.075   3.773
 7722SOL    HW124065   1.644   5.116   3.856
 7722SOL    HW224066   1.516   5.119   3.754
 7723SOL     OW24067   4.694   3.690   6.518
 7723SOL    HW124068   4.606   3.643   6.506
 7723SOL    HW224069   4.684   3.786   6.490
 7724SOL     OW24070   3.273   4.247   0.098
 7724SOL    HW124071   3.196   4.217   0.041
 7724SOL    HW224072   3.264   4.207   0.190
 7725SOL     OW24073   5.886   2.103   2.861
 7725SOL    HW124074   5.798   2.069   2.827
 7725SOL    HW224075   5.958   2.078   2.797
 7726SOL     OW24076   1.271   3.425   6.104
 7726SOL    HW124077   1.216   3.342   6.108
 7726SOL    HW224078   1.367   3.402   6.121
 7727SOL     OW24079   6.080   2.919   1.529
 7727SOL    HW124080   6.092   2.828   1.488
 7727SOL    HW224081   6.101   2.914   1.626
 7728SOL     OW24082   2.362   2.712   4.900
 7728SOL    HW124083   2.369   2.798   4.949
 7728SOL    HW224084   2.451   2.667   4.898
 7729SOL     OW24085   5.787   1.676   2.090
 7729SOL    HW124086   5.879   1.700   2.119
 7729SOL    HW224087   5.722   1.741   2.130
 7730SOL     OW24088   0.056   4.794   6.662
 7730SOL    HW124089   7.008   4.742   6.619
 7730SOL    HW224090   0.045   4.790   6.762
 7731SOL     OW24091   6.507   6.700   0.475
 7731SOL    HW124092   6.460   6.620   0.513
 7731SOL    HW224093   6.440   6.764   0.438
 7732SOL     OW24094   3.896   0.405   0.550
 7732SOL    HW124095   3.895   0.320   0.497
 7732SOL    HW224096   3.980   0.410   0.604
 7733SOL     OW24097   6.273   4.991   2.445
 7733SOL    HW124098   6.185   4.944   2.457
 7733SOL    HW224099   6.301   4.985   2.349
 7734SOL     OW24100   2.118   4.588   4.202
 7734SOL    HW124101   2.022   4.565   4.212
 7734SOL    HW224102   2.128   4.686   4.186
 7735SOL     OW24103   6.180   5.619   0.406
 7735SOL    HW124104   6.208   5.649   0.315
 7735SOL    HW224105   6.168   5.520   0.407
 7736SOL     OW24106   2.170   3.231   0.583
 7736SOL    HW124107   2.094   3.212   0.521
 7736SOL    HW224108   2.136   3.282   0.662
 7737SOL     OW24109   3.309   5.862   1.801
 7737SOL    HW124110   3.342   5.771   1.777
 7737SOL    HW224111   3.359   5.931   1.749
 7738SOL     OW24112   2.788   5.519   0.561
 7738SOL    HW124113   2.688   5.524   0.564
 7738SOL    HW224114   2.816   5.468   0.479
 7739SOL     OW24115   2.031   1.865   1.814
 7739SOL    HW124116   2.076   1.942   1.769
 7739SOL    HW224117   2.065   1.779   1.776
 7740SOL     OW24118   1.798   0.982   2.829
 7740SOL    HW124119   1.851   0.903   2.858
 7740SOL    HW224120   1.764   1.031   2.910
 7741SOL     OW24121   0.534   3.846   5.444
 7741SOL    HW124122   0.500   3.835   5.537
 7741SOL    HW224123   0.634   3.842   5.443
 7742SOL     OW24124   4.353   1.819   3.793
 7742SOL    HW124125   4.363   1.720   3.791
 7742SOL    HW224126   4.256   1.843   3.797
 7743SOL     OW24127   4.938   1.179   0.065
 7743SOL    HW124128   5.027   1.151   0.099
 7743SOL    HW224129   4.868   1.117   0.100
 7744SOL     OW24130   1.016   6.133   3.329
 7744SOL    HW124131   1.075   6.091   3.260
 7744SOL    HW224132   1.049   6.110   3.420
 7745SOL     OW24133   2.506   0.164   0.128
 7745SOL    HW124134   2.468   0.135   0.216
 7745SOL    HW224135   2.591   0.115   0.110
 7746SOL     OW24136   1.319   0.360   0.787
 7746SOL    HW124137   1.238   0.410   0.817
 7746SOL    HW224138   1.292   0.287   0.725
 7747SOL     OW24139   0.289   5.976   1.541
 7747SOL    HW124140   0.192   5.995   1.556
 7747SOL    HW224141   0.327   6.046   1.480
 7748SOL     OW24142   3.224   4.047   4.273
 7748SOL    HW124143   3.197   4.081   4.183
 7748SOL    HW224144   3.323   4.040   4.278
 7749SOL     OW24145   3.776   3.843   3.622
 7749SOL    HW124146   3.873   3.864   3.635
 7749SOL    HW224147   3.758   3.833   3.524
 7750SOL     OW24148   6.194   5.936   6.122
 7750SOL    HW124149   6.206   6.015   6.182
 7750SOL    HW224150   6.165   5.858   6.176
 7751SOL     OW24151   0.843   2.030   2.762
 7751SOL    HW124152   0.814   1.982   2.845
 7751SOL    HW224153   0.781   2.106   2.744
 7752SOL     OW24154   5.403   6.213   5.709
 7752SOL    HW124155   5.482   6.186   5.763
 7752SOL    HW224156   5.361   6.133   5.667
 7753SOL     OW24157   2.873   1.051   3.641
 7753SOL    HW124158   2.960   1.023   3.679
 7753SOL    HW224159   2.883   1.067   3.542
 7754SOL     OW24160   5.657   0.229   1.693
 7754SOL    HW124161   5.702   0.171   1.624
 7754SOL    HW224162   5.583   0.281   1.650
 7755SOL     OW24163   1.194   1.584   6.044
 7755SOL    HW124164   1.276   1.542   6.083
 7755SOL    HW224165   1.117   1.521   6.055
 7756SOL     OW24166   3.044   5.913   2.359
 7756SOL    HW124167   3.110   5.890   2.430
 7756SOL    HW224168   3.084   5.981   2.297
 7757SOL     OW24169   5.289   6.176   4.081
 7757SOL    HW124170   5.300   6.247   4.012
 7757SOL    HW224171   5.257   6.217   4.167
 7758SOL     OW24172   1.811   2.201   6.500
 7758SOL    HW124173   1.892   2.210   6.442
 7758SOL    HW224174   1.817   2.267   6.575
 7759SOL     OW24175   1.526   1.533   4.944
 7759SOL    HW124176   1.538   1.577   4.855
 7759SOL    HW224177   1.435   1.491   4.948
 7760SOL     OW24178   5.873   3.236   2.323
 7760SOL    HW124179   5.949   3.214   2.262
 7760SOL    HW224180   5.839   3.328   2.303
 7761SOL     OW24181   1.905   6.839   5.752
 7761SOL    HW124182   1.980   6.823   5.688
 7761SOL    HW224183   1.855   6.921   5.726
 7762SOL     OW24184   4.205   0.834   5.053
 7762SOL    HW124185   4.285   0.880   5.092
 7762SOL    HW224186   4.122   0.880   5.083
 7763SOL     OW24187   1.505   1.482   1.200
 7763SOL    HW124188   1.447   1.401   1.208
 7763SOL    HW224189   1.523   1.520   1.291
 7764SOL     OW24190   3.631   3.309   2.691
 7764SOL    HW124191   3.602   3.214   2.683
 7764SOL    HW224192   3.698   3.317   2.765
 7765SOL     OW24193   6.171   2.698   4.226
 7765SOL    HW124194   6.180   2.723   4.322
 7765SOL    HW224195   6.154   2.779   4.170
 7766SOL     OW24196   4.967   1.624   0.577
 7766SOL    HW124197   5.016   1.541   0.604
 7766SOL    HW224198   4.876   1.624   0.619
 7767SOL     OW24199   3.806   6.943   3.660
 7767SOL    HW124200   3.868   7.000   3.607
 7767SOL    HW224201   3.854   6.859   3.687
 7768SOL     OW24202   4.216   5.365   2.189
 7768SOL    HW124203   4.123   5.348   2.222
 7768SOL    HW224204   4.281   5.334   2.258
 7769SOL     OW24205   4.777   1.704   1.540
 7769SOL    HW124206   4.855   1.724   1.599
 7769SOL    HW224207   4.713   1.644   1.589
 7770SOL     OW24208   1.439   4.133   2.485
 7770SOL    HW124209   1.441   4.074   2.566
 7770SOL    HW224210   1.457   4.228   2.513
 7771SOL     OW24211   2.542   2.799   5.330
 7771SOL    HW124212   2.457   2.759   5.293
 7771SOL    HW224213   2.556   2.889   5.290
 7772SOL     OW24214   4.918   0.581   3.580
 7772SOL    HW124215   4.928   0.481   3.587
 7772SOL    HW224216   4.823   0.604   3.560
 7773SOL     OW24217   2.973   5.196   5.273
 7773SOL    HW124218   2.980   5.096   5.276
 7773SOL    HW224219   2.960   5.231   5.366
 7774SOL     OW24220   6.312   2.490   6.436
 7774SOL    HW124221   6.393   2.515   6.384
 7774SOL    HW224222   6.314   2.392   6.456
 7775SOL     OW24223   3.482   6.650   2.941
 7775SOL    HW124224   3.509   6.609   2.854
 7775SOL    HW224225   3.562   6.694   2.984
 7776SOL     OW24226   3.262   3.682   6.721
 7776SOL    HW124227   3.256   3.613   6.793
 7776SOL    HW224228   3.317   3.647   6.645
 7777SOL     OW24229   2.408   1.245   5.203
 7777SOL    HW124230   2.367   1.213   5.117
 7777SOL    HW224231   2.427   1.167   5.262
 7778SOL     OW24232   5.165   6.591   0.194
 7778SOL    HW124233   5.077   6.543   0.190
 7778SOL    HW224234   5.230   6.546   0.133
 7779SOL     OW24235   3.233   3.080   0.340
 7779SOL    HW124236   3.270   3.098   0.249
 7779SOL    HW224237   3.302   3.035   0.396
 7780SOL     OW24238   1.921   5.591   4.765
 7780SOL    HW124239   1.903   5.524   4.837
 7780SOL    HW224240   1.849   5.661   4.767
 7781SOL     OW24241   1.470   4.567   6.798
 7781SOL    HW124242   1.484   4.524   6.709
 7781SOL    HW224243   1.543   4.632   6.816
 7782SOL     OW24244   1.741   4.149   5.862
 7782SOL    HW124245   1.736   4.243   5.893
 7782SOL    HW224246   1.695   4.141   5.773
 7783SOL     OW24247   2.128   5.736   5.792
 7783SOL    HW124248   2.195   5.764   5.723
 7783SOL    HW224249   2.088   5.818   5.834
 7784SOL     OW24250   2.448   2.472   0.518
 7784SOL    HW124251   2.536   2.495   0.477
 7784SOL    HW224252   2.377   2.530   0.480
 7785SOL     OW24253   1.254   6.595   4.303
 7785SOL    HW124254   1.323   6.525   4.322
 7785SOL    HW224255   1.163   6.558   4.320
 7786SOL     OW24256   2.978   6.018   6.403
 7786SOL    HW124257   2.956   6.059   6.491
 7786SOL    HW224258   3.008   5.923   6.417
 7787SOL     OW24259   2.313   3.438   5.575
 7787SOL    HW124260   2.369   3.449   5.493
 7787SOL    HW224261   2.240   3.373   5.557
 7788SOL     OW24262   1.440   6.684   1.491
 7788SOL    HW124263   1.523   6.729   1.458
 7788SOL    HW224264   1.464   6.601   1.541
 7789SOL     OW24265   3.022   0.000   0.116
 7789SOL    HW124266   3.035   0.096   0.092
 7789SOL    HW224267   3.096   6.996   0.176
 7790SOL     OW24268   5.746   4.743   2.125
 7790SOL    HW124269   5.668   4.727   2.185
 7790SOL    HW224270   5.791   4.829   2.151
 7791SOL     OW24271   2.980   6.308   3.707
 7791SOL    HW124272   3.004   6.404   3.698
 7791SOL    HW224273   2.880   6.298   3.705
 7792SOL     OW24274   0.949   5.558   6.074
 7792SOL    HW124275   0.953   5.468   6.029
 7792SOL    HW224276   0.917   5.547   6.168
 7793SOL     OW24277   1.842   1.035   6.170
 7793SOL    HW124278   1.795   0.990   6.246
 7793SOL    HW224279   1.775   1.083   6.113
 7794SOL     OW24280   4.921   5.226   3.600
 7794SOL    HW124281   4.825   5.252   3.589
 7794SOL    HW224282   4.948   5.235   3.696
 7795SOL     OW24283   2.072   3.656   5.492
 7795SOL    HW124284   2.001   3.688   5.430
 7795SOL    HW224285   2.135   3.596   5.442
 7796SOL     OW24286   3.039   3.903   3.770
 7796SOL    HW124287   3.135   3.918   3.794
 7796SOL    HW224288   2.983   3.906   3.853
 7797SOL     OW24289   0.805   6.335   3.065
 7797SOL    HW124290   0.812   6.375   3.156
 7797SOL    HW224291   0.892   6.347   3.017
 7798SOL     OW24292   1.400   4.934   6.292
 7798SOL    HW124293   1.342   4.906   6.369
 7798SOL    HW224294   1.495   4.941   6.322
 7799SOL     OW24295   6.678   6.610   1.424
 7799SOL    HW124296   6.601   6.546   1.417
 7799SOL    HW224297   6.761   6.565   1.389
 7800SOL     OW24298   1.852   5.285   0.482
 7800SOL    HW124299   1.903   5.314   0.563
 7800SOL    HW224300   1.806   5.198   0.502
 7801SOL     OW24301   2.660   2.224   1.667
 7801SOL    HW124302   2.585   2.159   1.679
 7801SOL    HW224303   2.662   2.288   1.744
 7802SOL     OW24304   5.107   2.043   1.272
 7802SOL    HW124305   5.022   2.006   1.234
 7802SOL    HW224306   5.167   1.968   1.297
 7803SOL     OW24307   4.643   2.877   6.133
 7803SOL    HW124308   4.565   2.940   6.136
 7803SOL    HW224309   4.726   2.927   6.109
 7804SOL     OW24310   5.812   1.455   3.821
 7804SOL    HW124311   5.738   1.522   3.810
 7804SOL    HW224312   5.830   1.411   3.732
 7805SOL     OW24313   5.509   1.345   1.090
 7805SOL    HW124314   5.448   1.306   1.158
 7805SOL    HW224315   5.541   1.273   1.028
 7806SOL     OW24316   5.714   2.272   5.874
 7806SOL    HW124317   5.689   2.314   5.787
 7806SOL    HW224318   5.696   2.336   5.949
 7807SOL     OW24319   7.005   4.415   6.238
 7807SOL    HW124320   7.014   4.505   6.281
 7807SOL    HW224321   7.019   4.344   6.306
 7808SOL     OW24322   0.516   2.929   4.243
 7808SOL    HW124323   0.549   3.023   4.239
 7808SOL    HW224324   0.484   2.909   4.336
 7809SOL     OW24325   2.416   6.083   4.756
 7809SOL    HW124326   2.367   6.047   4.677
 7809SOL    HW224327   2.380   6.041   4.839
 7810SOL     OW24328   3.705   7.005   5.166
 7810SOL    HW124329   3.758   6.929   5.203
 7810SOL    HW224330   3.753   0.065   5.184
 7811SOL     OW24331   0.207   4.896   3.637
 7811SOL    HW124332   0.168   4.838   3.708
 7811SOL    HW224333   0.289   4.852   3.600
 7812SOL     OW24334   1.641   1.986   3.706
 7812SOL    HW124335   1.737   2.014   3.714
 7812SOL    HW224336   1.627   1.942   3.617
 7813SOL     OW24337   3.802   2.389   6.493
 7813SOL    HW124338   3.893   2.410   6.457
 7813SOL    HW224339   3.806   2.387   6.593
 7814SOL     OW24340   6.647   3.588   3.724
 7814SOL    HW124341   6.552   3.616   3.732
 7814SOL    HW224342   6.654   3.489   3.735
 7815SOL     OW24343   4.852   0.465   6.831
 7815SOL    HW124344   4.772   0.494   6.779
 7815SOL    HW224345   4.889   0.381   6.792
 7816SOL     OW24346   1.145   2.820   6.373
 7816SOL    HW124347   1.072   2.780   6.318
 7816SOL    HW224348   1.105   2.882   6.441
 7817SOL     OW24349   5.584   4.284   3.478
 7817SOL    HW124350   5.624   4.367   3.438
 7817SOL    HW224351   5.491   4.305   3.510
 7818SOL     OW24352   4.141   1.014   2.946
 7818SOL    HW124353   4.113   1.060   2.862
 7818SOL    HW224354   4.237   0.986   2.939
 7819SOL     OW24355   6.828   2.930   2.089
 7819SOL    HW124356   6.796   2.993   2.159
 7819SOL    HW224357   6.822   2.974   1.999
 7820SOL     OW24358   1.094   2.413   4.356
 7820SOL    HW124359   1.079   2.511   4.371
 7820SOL    HW224360   1.186   2.399   4.320
 7821SOL     OW24361   4.973   6.348   1.053
 7821SOL    HW124362   4.900   6.414   1.066
 7821SOL    HW224363   4.982   6.326   0.955
 7822SOL     OW24364   0.746   0.739   5.560
 7822SOL    HW124365   0.704   0.656   5.523
 7822SOL    HW224366   0.743   0.811   5.492
 7823SOL     OW24367   2.671   3.822   5.350
 7823SOL    HW124368   2.759   3.862   5.323
 7823SOL    HW224369   2.598   3.862   5.295
 7824SOL     OW24370   5.816   1.669   4.402
 7824SOL    HW124371   5.777   1.740   4.462
 7824SOL    HW224372   5.768   1.583   4.418
 7825SOL     OW24373   1.519   3.138   0.481
 7825SOL    HW124374   1.488   3.159   0.574
 7825SOL    HW224375   1.440   3.118   0.424
 7826SOL     OW24376   6.090   1.509   1.488
 7826SOL    HW124377   6.019   1.529   1.420
 7826SOL    HW224378   6.062   1.547   1.576
 7827SOL     OW24379   1.951   6.005   0.863
 7827SOL    HW124380   1.854   6.001   0.843
 7827SOL    HW224381   1.975   5.932   0.927
 7828SOL     OW24382   6.336   4.418   0.431
 7828SOL    HW124383   6.410   4.475   0.394
 7828SOL    HW224384   6.312   4.451   0.522
 7829SOL     OW24385   2.367   3.664   1.260
 7829SOL    HW124386   2.364   3.672   1.160
 7829SOL    HW224387   2.278   3.631   1.293
 7830SOL     OW24388   3.151   5.010   5.621
 7830SOL    HW124389   3.084   5.004   5.547
 7830SOL    HW224390   3.104   5.021   5.708
 7831SOL     OW24391   1.459   0.236   1.691
 7831SOL    HW124392   1.409   0.171   1.634
 7831SOL    HW224393   1.555   0.208   1.698
 7832SOL     OW24394   6.272   0.340   4.928
 7832SOL    HW124395   6.194   0.402   4.915
 7832SOL    HW224396   6.309   0.353   5.021
 7833SOL     OW24397   0.772   0.602   5.032
 7833SOL    HW124398   0.778   0.582   5.130
 7833SOL    HW224399   0.811   0.692   5.014
 7834SOL     OW24400   6.871   1.581   3.952
 7834SOL    HW124401   6.920   1.538   3.877
 7834SOL    HW224402   6.935   1.602   4.026
 7835SOL     OW24403   3.550   1.839   5.499
 7835SOL    HW124404   3.454   1.840   5.526
 7835SOL    HW224405   3.563   1.774   5.424
 7836SOL     OW24406   3.128   3.717   4.985
 7836SOL    HW124407   3.051   3.774   4.957
 7836SOL    HW224408   3.096   3.626   5.009
 7837SOL     OW24409   4.480   5.699   6.795
 7837SOL    HW124410   4.530   5.699   6.881
 7837SOL    HW224411   4.510   5.776   6.739
 7838SOL     OW24412   4.287   6.760   1.042
 7838SOL    HW124413   4.195   6.767   1.081
 7838SOL    HW224414   4.318   6.850   1.013
 7839SOL     OW24415   6.122   4.155   4.769
 7839SOL    HW124416   6.181   4.236   4.773
 7839SOL    HW224417   6.102   4.133   4.674
 7840SOL     OW24418   0.207   3.540   4.341
 7840SOL    HW124419   0.195   3.505   4.434
 7840SOL    HW224420   0.146   3.618   4.327
 7841SOL     OW24421   4.007   1.766   6.391
 7841SOL    HW124422   4.044   1.814   6.311
 7841SOL    HW224423   3.944   1.695   6.362
 7842SOL     OW24424   2.174   1.408   2.568
 7842SOL    HW124425   2.160   1.316   2.532
 7842SOL    HW224426   2.109   1.472   2.526
 7843SOL     OW24427   0.153   5.933   3.395
 7843SOL    HW124428   0.195   5.983   3.320
 7843SOL    HW224429   0.166   5.984   3.480
 7844SOL     OW24430   2.728   0.406   2.169
 7844SOL    HW124431   2.704   0.487   2.115
 7844SOL    HW224432   2.719   0.427   2.266
 7845SOL     OW24433   5.012   1.818   2.846
 7845SOL    HW124434   4.979   1.742   2.791
 7845SOL    HW224435   4.945   1.893   2.843
 7846SOL     OW24436   1.414   2.545   1.268
 7846SOL    HW124437   1.369   2.537   1.357
 7846SOL    HW224438   1.362   2.608   1.210
 7847SOL     OW24439   6.484   1.206   3.387
 7847SOL    HW124440   6.456   1.191   3.292
 7847SOL    HW224441   6.451   1.296   3.417
 7848SOL     OW24442   3.572   4.774   0.977
 7848SOL    HW124443   3.570   4.678   0.948
 7848SOL    HW224444   3.508   4.827   0.922
 7849SOL     OW24445   6.595   4.275   4.698
 7849SOL    HW124446   6.586   4.368   4.662
 7849SOL    HW224447   6.691   4.258   4.721
 7850SOL     OW24448   0.452   1.265   3.672
 7850SOL    HW124449   0.493   1.287   3.584
 7850SOL    HW224450   0.449   1.347   3.729
 7851SOL     OW24451   6.948   2.073   1.418
 7851SOL    HW124452   6.966   2.036   1.510
 7851SOL    HW224453   0.007   2.111   1.381
 7852SOL     OW24454   3.292   1.445   0.273
 7852SOL    HW124455   3.320   1.426   0.367
 7852SOL    HW224456   3.280   1.358   0.224
 7853SOL     OW24457   5.008   2.868   1.320
 7853SOL    HW124458   4.975   2.811   1.245
 7853SOL    HW224459   4.946   2.945   1.334
 7854SOL     OW24460   3.121   2.821   5.543
 7854SOL    HW124461   3.071   2.763   5.479
 7854SOL    HW224462   3.111   2.917   5.517
 7855SOL     OW24463   4.143   6.439   4.770
 7855SOL    HW124464   4.057   6.395   4.743
 7855SOL    HW224465   4.219   6.375   4.756
 7856SOL     OW24466   0.111   5.723   5.109
 7856SOL    HW124467   0.023   5.772   5.105
 7856SOL    HW224468   0.174   5.763   5.043
 7857SOL     OW24469   4.639   2.999   0.422
 7857SOL    HW124470   4.560   2.973   0.365
 7857SOL    HW224471   4.653   3.097   0.417
 7858SOL     OW24472   6.669   6.524   4.780
 7858SOL    HW124473   6.583   6.486   4.815
 7858SOL    HW224474   6.740   6.454   4.780
 7859SOL     OW24475   4.429   3.309   6.771
 7859SOL    HW124476   4.505   3.373   6.761
 7859SOL    HW224477   4.449   3.246   6.847
 7860SOL     OW24478   4.345   0.932   4.280
 7860SOL    HW124479   4.299   0.852   4.319
 7860SOL    HW224480   4.418   0.901   4.219
 7861SOL     OW24481   2.928   4.973   1.751
 7861SOL    HW124482   2.985   4.891   1.745
 7861SOL    HW224483   2.834   4.947   1.771
 7862SOL     OW24484   2.170   4.985   2.493
 7862SOL    HW124485   2.254   4.931   2.495
 7862SOL    HW224486   2.147   5.007   2.398
 7863SOL     OW24487   0.190   3.991   3.733
 7863SOL    HW124488   0.215   3.912   3.788
 7863SOL    HW224489   0.224   3.978   3.639
 7864SOL     OW24490   0.761   5.447   5.594
 7864SOL    HW124491   0.697   5.409   5.661
 7864SOL    HW224492   0.847   5.471   5.639
 7865SOL     OW24493   6.373   5.533   4.286
 7865SOL    HW124494   6.316   5.597   4.236
 7865SOL    HW224495   6.468   5.565   4.286
 7866SOL     OW24496   0.981   0.523   5.725
 7866SOL    HW124497   1.034   0.596   5.681
 7866SOL    HW224498   0.910   0.491   5.662
 7867SOL     OW24499   6.021   5.995   3.358
 7867SOL    HW124500   6.060   6.007   3.266
 7867SOL    HW224501   6.090   6.018   3.427
 7868SOL     OW24502   4.359   5.897   1.330
 7868SOL    HW124503   4.447   5.916   1.285
 7868SOL    HW224504   4.362   5.933   1.423
 7869SOL     OW24505   5.554   4.392   6.249
 7869SOL    HW124506   5.561   4.446   6.334
 7869SOL    HW224507   5.477   4.330   6.256
 7870SOL     OW24508   5.014   6.486   4.556
 7870SOL    HW124509   4.935   6.447   4.509
 7870SOL    HW224510   5.095   6.430   4.538
 7871SOL     OW24511   4.754   2.511   1.837
 7871SOL    HW124512   4.711   2.458   1.764
 7871SOL    HW224513   4.824   2.571   1.797
 7872SOL     OW24514   1.831   3.860   3.051
 7872SOL    HW124515   1.818   3.918   2.971
 7872SOL    HW224516   1.857   3.917   3.129
 7873SOL     OW24517   6.587   0.084   0.200
 7873SOL    HW124518   6.640   0.020   0.144
 7873SOL    HW224519   6.519   0.130   0.143
 7874SOL     OW24520   4.729   2.525   0.894
 7874SOL    HW124521   4.769   2.591   0.831
 7874SOL    HW224522   4.653   2.477   0.849
 7875SOL     OW24523   4.167   2.546   0.023
 7875SOL    HW124524   4.229   2.521   0.098
 7875SOL    HW224525   4.099   2.611   0.056
 7876SOL     OW24526   1.105   6.113   3.597
 7876SOL    HW124527   1.081   6.096   3.693
 7876SOL    HW224528   1.204   6.111   3.587
 7877SOL     OW24529   0.344   1.284   2.802
 7877SOL    HW124530   0.420   1.255   2.743
 7877SOL    HW224531   0.376   1.291   2.897
 7878SOL     OW24532   4.647   4.416   3.812
 7878SOL    HW124533   4.720   4.481   3.835
 7878SOL    HW224534   4.565   4.439   3.864
 7879SOL     OW24535   3.905   5.456   2.792
 7879SOL    HW124536   3.840   5.427   2.721
 7879SOL    HW224537   3.886   5.408   2.877
 7880SOL     OW24538   1.889   4.088   1.689
 7880SOL    HW124539   1.913   4.000   1.730
 7880SOL    HW224540   1.903   4.085   1.591
 7881SOL     OW24541   5.102   4.238   4.672
 7881SOL    HW124542   5.028   4.172   4.684
 7881SOL    HW224543   5.067   4.321   4.630
 7882SOL     OW24544   1.769   3.588   1.727
 7882SOL    HW124545   1.869   3.595   1.732
 7882SOL    HW224546   1.738   3.516   1.789
 7883SOL     OW24547   0.925   0.653   6.139
 7883SOL    HW124548   0.881   0.598   6.068
 7883SOL    HW224549   1.022   0.628   6.145
 7884SOL     OW24550   1.358   3.678   4.820
 7884SOL    HW124551   1.399   3.622   4.891
 7884SOL    HW224552   1.346   3.771   4.854
 7885SOL     OW24553   6.622   5.591   0.985
 7885SOL    HW124554   6.573   5.594   0.898
 7885SOL    HW224555   6.637   5.496   1.013
 7886SOL     OW24556   4.039   6.014   6.729
 7886SOL    HW124557   4.111   6.080   6.711
 7886SOL    HW224558   4.003   5.979   6.642
 7887SOL     OW24559   3.597   2.393   6.141
 7887SOL    HW124560   3.668   2.428   6.080
 7887SOL    HW224561   3.512   2.442   6.124
 7888SOL     OW24562   6.081   0.223   5.398
 7888SOL    HW124563   6.001   0.273   5.432
 7888SOL    HW224564   6.162   0.281   5.405
 7889SOL     OW24565   1.912   4.817   2.069
 7889SOL    HW124566   1.904   4.724   2.034
 7889SOL    HW224567   1.884   4.882   1.998
 7890SOL     OW24568   1.546   3.712   2.669
 7890SOL    HW124569   1.643   3.723   2.692
 7890SOL    HW224570   1.535   3.637   2.604
 7891SOL     OW24571   1.499   3.946   3.244
 7891SOL    HW124572   1.542   3.858   3.225
 7891SOL    HW224573   1.401   3.941   3.226
 7892SOL     OW24574   2.072   2.605   4.308
 7892SOL    HW124575   1.991   2.633   4.359
 7892SOL    HW224576   2.066   2.639   4.214
 7893SOL     OW24577   6.636   6.969   2.824
 7893SOL    HW124578   6.638   7.020   2.910
 7893SOL    HW224579   6.602   0.003   2.751
 7894SOL     OW24580   2.697   6.461   1.593
 7894SOL    HW124581   2.783   6.449   1.544
 7894SOL    HW224582   2.703   6.414   1.681
 7895SOL     OW24583   6.287   1.302   5.857
 7895SOL    HW124584   6.191   1.275   5.850
 7895SOL    HW224585   6.308   1.369   5.786
 7896SOL     OW24586   5.071   4.175   6.537
 7896SOL    HW124587   5.084   4.087   6.584
 7896SOL    HW224588   5.022   4.238   6.598
 7897SOL     OW24589   2.501   3.982   6.220
 7897SOL    HW124590   2.492   3.989   6.121
 7897SOL    HW224591   2.560   3.906   6.243
 7898SOL     OW24592   5.366   2.404   3.775
 7898SOL    HW124593   5.461   2.430   3.758
 7898SOL    HW224594   5.330   2.457   3.852
 7899SOL     OW24595   6.348   1.352   1.625
 7899SOL    HW124596   6.380   1.258   1.613
 7899SOL    HW224597   6.387   1.410   1.554
 7900SOL     OW24598   1.515   5.390   1.233
 7900SOL    HW124599   1.510   5.426   1.140
 7900SOL    HW224600   1.470   5.301   1.237
 7901SOL     OW24601   4.975   0.592   6.482
 7901SOL    HW124602   4.937   0.606   6.573
 7901SOL    HW224603   5.067   0.631   6.477
 7902SOL     OW24604   5.696   5.234   1.856
 7902SOL    HW124605   5.641   5.153   1.838
 7902SOL    HW224606   5.688   5.259   1.952
 7903SOL     OW24607   6.104   2.403   0.598
 7903SOL    HW124608   6.146   2.452   0.674
 7903SOL    HW224609   6.077   2.312   0.628
 7904SOL     OW24610   5.788   0.520   3.373
 7904SOL    HW124611   5.887   0.507   3.364
 7904SOL    HW224612   5.771   0.600   3.431
 7905SOL     OW24613   4.392   1.944   0.184
 7905SOL    HW124614   4.478   1.910   0.221
 7905SOL    HW224615   4.408   2.029   0.135
 7906SOL     OW24616   0.527   5.813   0.247
 7906SOL    HW124617   0.616   5.857   0.253
 7906SOL    HW224618   0.465   5.869   0.191
 7907SOL     OW24619   6.138   2.282   3.777
 7907SOL    HW124620   6.147   2.376   3.811
 7907SOL    HW224621   6.059   2.239   3.821
 7908SOL     OW24622   1.174   1.332   4.414
 7908SOL    HW124623   1.260   1.290   4.445
 7908SOL    HW224624   1.150   1.297   4.323
 7909SOL     OW24625   5.376   3.849   5.096
 7909SOL    HW124626   5.424   3.930   5.128
 7909SOL    HW224627   5.366   3.784   5.172
 7910SOL     OW24628   2.949   2.814   5.783
 7910SOL    HW124629   2.860   2.777   5.755
 7910SOL    HW224630   3.012   2.811   5.705
 7911SOL     OW24631   0.997   3.364   6.494
 7911SOL    HW124632   1.053   3.368   6.577
 7911SOL    HW224633   0.903   3.341   6.518
 7912SOL     OW24634   0.353   5.359   0.462
 7912SOL    HW124635   0.451   5.350   0.446
 7912SOL    HW224636   0.334   5.447   0.505
 7913SOL     OW24637   1.353   4.824   0.654
 7913SOL    HW124638   1.321   4.840   0.747
 7913SOL    HW224639   1.447   4.789   0.657
 7914SOL     OW24640   0.331   4.740   6.810
 7914SOL    HW124641   0.344   4.823   6.864
 7914SOL    HW224642   0.263   4.756   6.739
 7915SOL     OW24643   4.902   2.646   2.369
 7915SOL    HW124644   4.895   2.729   2.314
 7915SOL    HW224645   4.978   2.654   2.433
 7916SOL     OW24646   6.084   3.939   5.503
 7916SOL    HW124647   6.154   3.911   5.568
 7916SOL    HW224648   6.118   4.016   5.449
 7917SOL     OW24649   3.332   2.969   3.977
 7917SOL    HW124650   3.429   2.954   3.955
 7917SOL    HW224651   3.278   2.958   3.894
 7918SOL     OW24652   0.276   1.665   0.578
 7918SOL    HW124653   0.313   1.710   0.497
 7918SOL    HW224654   0.177   1.678   0.581
 7919SOL     OW24655   0.262   4.648   3.158
 7919SOL    HW124656   0.261   4.729   3.217
 7919SOL    HW224657   0.313   4.669   3.074
 7920SOL     OW24658   0.346   4.881   1.502
 7920SOL    HW124659   0.324   4.873   1.599
 7920SOL    HW224660   0.382   4.973   1.484
 7921SOL     OW24661   3.668   5.540   0.366
 7921SOL    HW124662   3.741   5.499   0.421
 7921SOL    HW224663   3.579   5.511   0.402
 7922SOL     OW24664   6.675   5.645   0.463
 7922SOL    HW124665   6.597   5.705   0.480
 7922SOL    HW224666   6.717   5.620   0.550
 7923SOL     OW24667   2.698   0.445   2.452
 7923SOL    HW124668   2.764   0.385   2.495
 7923SOL    HW224669   2.704   0.537   2.492
 7924SOL     OW24670   3.648   6.266   3.136
 7924SOL    HW124671   3.576   6.198   3.125
 7924SOL    HW224672   3.685   6.260   3.229
 7925SOL     OW24673   0.624   1.814   6.479
 7925SOL    HW124674   0.598   1.896   6.428
 7925SOL    HW224675   0.713   1.829   6.523
 7926SOL     OW24676   4.538   1.030   4.475
 7926SOL    HW124677   4.576   1.114   4.437
 7926SOL    HW224678   4.452   1.007   4.429
 7927SOL     OW24679   3.961   5.596   4.675
 7927SOL    HW124680   3.869   5.575   4.708
 7927SOL    HW224681   4.026   5.530   4.713
 7928SOL     OW24682   1.154   3.361   4.265
 7928SOL    HW124683   1.165   3.288   4.197
 7928SOL    HW224684   1.105   3.325   4.345
 7929SOL     OW24685   4.138   3.996   5.314
 7929SOL    HW124686   4.233   3.985   5.343
 7929SOL    HW224687   4.113   3.922   5.252
 7930SOL     OW24688   4.837   5.776   4.023
 7930SOL    HW124689   4.861   5.868   3.992
 7930SOL    HW224690   4.882   5.757   4.111
 7931SOL     OW24691   1.465   1.998   6.592
 7931SOL    HW124692   1.461   2.029   6.497
 7931SOL    HW224693   1.390   2.039   6.644
 7932SOL     OW24694   2.700   6.677   0.490
 7932SOL    HW124695   2.637   6.610   0.529
 7932SOL    HW224696   2.714   6.658   0.392
 7933SOL     OW24697   6.915   6.785   0.181
 7933SOL    HW124698   6.847   6.857   0.165
 7933SOL    HW224699   6.895   6.740   0.268
 7934SOL     OW24700   2.472   4.372   6.952
 7934SOL    HW124701   2.569   4.387   6.972
 7934SOL    HW224702   2.464   4.293   6.891
 7935SOL     OW24703   4.856   5.471   0.040
 7935SOL    HW124704   4.923   5.397   0.040
 7935SOL    HW224705   4.857   5.517   6.977
 7936SOL     OW24706   3.477   5.533   2.308
 7936SOL    HW124707   3.448   5.441   2.283
 7936SOL    HW224708   3.450   5.552   2.403
 7937SOL     OW24709   5.473   6.724   3.865
 7937SOL    HW124710   5.546   6.666   3.901
 7937SOL    HW224711   5.506   6.773   3.785
 7938SOL     OW24712   5.657   4.823   5.220
 7938SOL    HW124713   5.630   4.861   5.132
 7938SOL    HW224714   5.744   4.774   5.209
 7939SOL     OW24715   0.455   2.117   5.987
 7939SOL    HW124716   0.368   2.164   5.968
 7939SOL    HW224717   0.518   2.129   5.910
 7940SOL     OW24718   2.167   4.569   2.428
 7940SOL    HW124719   2.255   4.523   2.441
 7940SOL    HW224720   2.177   4.640   2.359
 7941SOL     OW24721   6.992   6.744   1.250
 7941SOL    HW124722   7.024   6.832   1.285
 7941SOL    HW224723   6.903   6.757   1.206
 7942SOL     OW24724   6.810   6.349   3.071
 7942SOL    HW124725   6.811   6.374   2.974
 7942SOL    HW224726   6.899   6.312   3.096
 7943SOL     OW24727   5.566   1.998   0.935
 7943SOL    HW124728   5.471   1.999   0.966
 7943SOL    HW224729   5.577   1.927   0.864
 7944SOL     OW24730   0.476   3.155   0.693
 7944SOL    HW124731   0.568   3.123   0.715
 7944SOL    HW224732   0.483   3.239   0.640
 7945SOL     OW24733   5.680   6.987   2.687
 7945SOL    HW124734   5.585   6.955   2.682
 7945SOL    HW224735   5.732   6.926   2.748
 7946SOL     OW24736   2.106   2.861   5.813
 7946SOL    HW124737   2.090   2.888   5.908
 7946SOL    HW224738   2.189   2.806   5.807
 7947SOL     OW24739   3.834   3.149   6.607
 7947SOL    HW124740   3.767   3.075   6.596
 7947SOL    HW224741   3.799   3.232   6.563
 7948SOL     OW24742   0.331   6.395   1.345
 7948SOL    HW124743   0.264   6.360   1.409
 7948SOL    HW224744   0.285   6.446   1.273
 7949SOL     OW24745   4.398   4.664   3.561
 7949SOL    HW124746   4.466   4.735   3.579
 7949SOL    HW224747   4.333   4.661   3.637
 7950SOL     OW24748   4.830   5.559   3.455
 7950SOL    HW124749   4.926   5.531   3.462
 7950SOL    HW224750   4.771   5.484   3.485
 7951SOL     OW24751   2.238   3.882   0.640
 7951SOL    HW124752   2.155   3.847   0.684
 7951SOL    HW224753   2.306   3.905   0.710
 7952SOL     OW24754   0.037   3.381   6.537
 7952SOL    HW124755   0.092   3.416   6.462
 7952SOL    HW224756   0.095   3.364   6.617
 7953SOL     OW24757   2.158   3.017   3.343
 7953SOL    HW124758   2.162   3.040   3.246
 7953SOL    HW224759   2.083   2.953   3.359
 7954SOL     OW24760   4.588   4.708   5.292
 7954SOL    HW124761   4.653   4.726   5.366
 7954SOL    HW224762   4.638   4.696   5.207
 7955SOL     OW24763   1.130   6.414   5.937
 7955SOL    HW124764   1.171   6.344   5.880
 7955SOL    HW224765   1.168   6.504   5.914
 7956SOL     OW24766   1.241   6.275   2.580
 7956SOL    HW124767   1.195   6.308   2.498
 7956SOL    HW224768   1.194   6.193   2.614
 7957SOL     OW24769   2.064   1.292   0.714
 7957SOL    HW124770   2.143   1.232   0.716
 7957SOL    HW224771   2.089   1.379   0.671
 7958SOL     OW24772   3.081   5.732   4.595
 7958SOL    HW124773   3.095   5.714   4.497
 7958SOL    HW224774   3.106   5.826   4.616
 7959SOL     OW24775   4.242   5.262   1.025
 7959SOL    HW124776   4.207   5.187   1.082
 7959SOL    HW224777   4.168   5.324   1.001
 7960SOL     OW24778   3.734   1.568   0.615
 7960SOL    HW124779   3.659   1.534   0.672
 7960SOL    HW224780   3.796   1.623   0.670
 7961SOL     OW24781   1.557   6.019   6.816
 7961SOL    HW124782   1.495   6.042   6.741
 7961SOL    HW224783   1.605   6.101   6.847
 7962SOL     OW24784   1.907   0.506   6.985
 7962SOL    HW124785   1.949   0.594   6.966
 7962SOL    HW224786   1.916   0.446   6.906
 7963SOL     OW24787   6.106   1.144   4.219
 7963SOL    HW124788   6.102   1.205   4.140
 7963SOL    HW224789   6.184   1.083   4.211
 7964SOL     OW24790   6.242   5.224   3.869
 7964SOL    HW124791   6.278   5.217   3.962
 7964SOL    HW224792   6.144   5.244   3.873
 7965SOL     OW24793   3.473   2.679   6.564
 7965SOL    HW124794   3.570   2.686   6.539
 7965SOL    HW224795   3.462   2.606   6.631
 7966SOL     OW24796   0.496   3.346   5.326
 7966SOL    HW124797   0.484   3.445   5.334
 7966SOL    HW224798   0.585   3.326   5.285
 7967SOL     OW24799   3.150   6.447   4.177
 7967SOL    HW124800   3.241   6.441   4.137
 7967SOL    HW224801   3.150   6.513   4.252
 7968SOL     OW24802   2.315   2.865   3.573
 7968SOL    HW124803   2.288   2.926   3.498
 7968SOL    HW224804   2.350   2.779   3.535
 7969SOL     OW24805   4.494   0.287   2.401
 7969SOL    HW124806   4.444   0.355   2.347
 7969SOL    HW224807   4.566   0.331   2.454
 7970SOL     OW24808   0.081   3.495   2.687
 7970SOL    HW124809   0.003   3.523   2.743
 7970SOL    HW224810   0.161   3.482   2.745
 7971SOL     OW24811   3.351   1.652   1.098
 7971SOL    HW124812   3.272   1.590   1.102
 7971SOL    HW224813   3.429   1.610   1.144
 7972SOL     OW24814   0.417   4.031   1.361
 7972SOL    HW124815   0.483   4.104   1.378
 7972SOL    HW224816   0.346   4.034   1.432
 7973SOL     OW24817   5.284   3.364   2.815
 7973SOL    HW124818   5.201   3.309   2.808
 7973SOL    HW224819   5.293   3.402   2.907
 7974SOL     OW24820   5.212   0.294   4.979
 7974SOL    HW124821   5.197   0.391   4.959
 7974SOL    HW224822   5.300   0.266   4.941
 7975SOL     OW24823   5.534   0.380   4.031
 7975SOL    HW124824   5.477   0.455   3.997
 7975SOL    HW224825   5.607   0.361   3.965
 7976SOL     OW24826   0.567   0.570   5.771
 7976SOL    HW124827   0.581   0.660   5.811
 7976SOL    HW224828   0.572   0.577   5.671
 7977SOL     OW24829   4.379   5.622   2.162
 7977SOL    HW124830   4.425   5.594   2.247
 7977SOL    HW224831   4.324   5.546   2.128
 7978SOL     OW24832   5.752   3.729   5.869
 7978SOL    HW124833   5.844   3.737   5.832
 7978SOL    HW224834   5.756   3.692   5.962
 7979SOL     OW24835   2.855   0.689   5.418
 7979SOL    HW124836   2.832   0.670   5.322
 7979SOL    HW224837   2.928   0.627   5.447
 7980SOL     OW24838   2.959   6.048   6.903
 7980SOL    HW124839   2.986   6.128   6.957
 7980SOL    HW224840   3.020   5.972   6.924
 7981SOL     OW24841   0.609   5.678   2.204
 7981SOL    HW124842   0.565   5.732   2.276
 7981SOL    HW224843   0.696   5.721   2.179
 7982SOL     OW24844   6.869   1.747   0.668
 7982SOL    HW124845   6.867   1.651   0.697
 7982SOL    HW224846   6.786   1.793   0.698
 7983SOL     OW24847   5.570   2.001   2.892
 7983SOL    HW124848   5.589   2.021   2.988
 7983SOL    HW224849   5.596   2.080   2.835
 7984SOL     OW24850   1.687   1.914   1.579
 7984SOL    HW124851   1.594   1.952   1.573
 7984SOL    HW224852   1.738   1.963   1.649
 7985SOL     OW24853   1.942   6.775   3.445
 7985SOL    HW124854   1.965   6.822   3.360
 7985SOL    HW224855   1.902   6.840   3.509
 7986SOL     OW24856   3.580   0.920   6.812
 7986SOL    HW124857   3.480   0.919   6.806
 7986SOL    HW224858   3.614   1.009   6.785
 7987SOL     OW24859   0.155   3.650   6.533
 7987SOL    HW124860   0.089   3.582   6.566
 7987SOL    HW224861   0.248   3.614   6.544
 7988SOL     OW24862   1.900   1.992   4.647
 7988SOL    HW124863   1.846   2.032   4.573
 7988SOL    HW224864   1.839   1.947   4.713
 7989SOL     OW24865   3.440   2.234   5.260
 7989SOL    HW124866   3.520   2.229   5.201
 7989SOL    HW224867   3.368   2.285   5.214
 7990SOL     OW24868   6.516   3.879   3.642
 7990SOL    HW124869   6.555   3.888   3.550
 7990SOL    HW224870   6.530   3.964   3.693
 7991SOL     OW24871   6.454   1.399   5.375
 7991SOL    HW124872   6.500   1.333   5.435
 7991SOL    HW224873   6.369   1.359   5.341
 7992SOL     OW24874   1.488   6.478   0.769
 7992SOL    HW124875   1.464   6.558   0.715
 7992SOL    HW224876   1.588   6.474   0.780
 7993SOL     OW24877   1.669   5.785   6.546
 7993SOL    HW124878   1.649   5.853   6.476
 7993SOL    HW224879   1.609   5.706   6.534
 7994SOL     OW24880   4.547   0.683   3.245
 7994SOL    HW124881   4.574   0.678   3.149
 7994SOL    HW224882   4.508   0.596   3.275
 7995SOL     OW24883   4.147   5.661   3.377
 7995SOL    HW124884   4.187   5.618   3.297
 7995SOL    HW224885   4.049   5.645   3.379
 7996SOL     OW24886   2.650   6.208   4.229
 7996SOL    HW124887   2.619   6.261   4.150
 7996SOL    HW224888   2.733   6.249   4.266
 7997SOL     OW24889   0.106   1.240   0.911
 7997SOL    HW124890   0.185   1.183   0.890
 7997SOL    HW224891   0.123   1.292   0.994
 7998SOL     OW24892   3.986   5.427   0.972
 7998SOL    HW124893   3.912   5.493   0.960
 7998SOL    HW224894   4.037   5.418   0.886
 7999SOL     OW24895   1.190   0.616   6.191
 7999SOL    HW124896   1.230   0.692   6.140
 7999SOL    HW224897   1.173   0.644   6.285
 8000SOL     OW24898   5.921   0.499   6.902
 8000SOL    HW124899   5.998   0.543   6.948
 8000SOL    HW224900   5.835   0.539   6.934
 8001SOL     OW24901   3.365   6.291   1.381
 8001SOL    HW124902   3.398   6.295   1.286
 8001SOL    HW224903   3.378   6.199   1.417
 8002SOL     OW24904   0.287   2.998   5.967
 8002SOL    HW124905   0.318   2.915   6.013
 8002SOL    HW224906   0.278   2.979   5.869
 8003SOL     OW24907   2.445   4.500   2.425
 8003SOL    HW124908   2.406   4.439   2.356
 8003SOL    HW224909   2.460   4.449   2.510
 8004SOL     OW24910   1.564   4.489   2.945
 8004SOL    HW124911   1.590   4.455   2.855
 8004SOL    HW224912   1.465   4.475   2.958
 8005SOL     OW24913   3.431   1.572   1.912
 8005SOL    HW124914   3.338   1.609   1.902
 8005SOL    HW224915   3.497   1.647   1.914
 8006SOL     OW24916   2.539   6.462   0.489
 8006SOL    HW124917   2.445   6.487   0.513
 8006SOL    HW224918   2.566   6.382   0.542
 8007SOL     OW24919   1.197   6.575   4.034
 8007SOL    HW124920   1.168   6.480   4.024
 8007SOL    HW224921   1.254   6.584   4.116
 8008SOL     OW24922   4.590   6.672   5.978
 8008SOL    HW124923   4.630   6.604   6.039
 8008SOL    HW224924   4.583   6.634   5.886
 8009SOL     OW24925   6.150   0.263   3.768
 8009SOL    HW124926   6.067   0.219   3.733
 8009SOL    HW224927   6.216   0.192   3.794
 8010SOL     OW24928   1.647   1.327   0.165
 8010SOL    HW124929   1.563   1.272   0.163
 8010SOL    HW224930   1.641   1.398   0.095
 8011SOL     OW24931   2.633   2.898   1.509
 8011SOL    HW124932   2.652   2.801   1.495
 8011SOL    HW224933   2.718   2.950   1.501
 8012SOL     OW24934   2.244   5.522   1.449
 8012SOL    HW124935   2.205   5.581   1.379
 8012SOL    HW224936   2.206   5.545   1.538
 8013SOL     OW24937   0.615   5.224   4.895
 8013SOL    HW124938   0.684   5.297   4.900
 8013SOL    HW224939   0.661   5.135   4.886
 8014SOL     OW24940   1.095   6.449   5.268
 8014SOL    HW124941   1.173   6.500   5.305
 8014SOL    HW224942   1.013   6.505   5.273
 8015SOL     OW24943   2.919   1.485   0.045
 8015SOL    HW124944   2.885   1.529   6.986
 8015SOL    HW224945   2.988   1.544   0.087
 8016SOL     OW24946   4.382   0.294   6.392
 8016SOL    HW124947   4.296   0.342   6.372
 8016SOL    HW224948   4.439   0.352   6.450
 8017SOL     OW24949   6.581   4.948   6.428
 8017SOL    HW124950   6.605   4.956   6.525
 8017SOL    HW224951   6.487   4.979   6.414
 8018SOL     OW24952   3.973   2.440   6.234
 8018SOL    HW124953   4.047   2.473   6.176
 8018SOL    HW224954   3.887   2.485   6.209
 8019SOL     OW24955   2.003   4.054   0.209
 8019SOL    HW124956   1.976   4.110   0.288
 8019SOL    HW224957   1.926   4.044   0.147
 8020SOL     OW24958   6.492   6.249   1.014
 8020SOL    HW124959   6.493   6.266   0.915
 8020SOL    HW224960   6.472   6.153   1.031
 8021SOL     OW24961   1.511   2.224   1.894
 8021SOL    HW124962   1.607   2.197   1.901
 8021SOL    HW224963   1.455   2.143   1.875
 8022SOL     OW24964   4.258   0.655   3.024
 8022SOL    HW124965   4.196   0.652   3.102
 8022SOL    HW224966   4.295   0.563   3.008
 8023SOL     OW24967   6.042   5.777   3.726
 8023SOL    HW124968   6.005   5.804   3.815
 8023SOL    HW224969   6.084   5.856   3.682
 8024SOL     OW24970   2.912   4.950   0.236
 8024SOL    HW124971   2.871   4.970   0.147
 8024SOL    HW224972   2.965   4.865   0.230
 8025SOL     OW24973   2.850   6.072   5.535
 8025SOL    HW124974   2.936   6.025   5.555
 8025SOL    HW224975   2.846   6.096   5.438
 8026SOL     OW24976   0.713   4.232   7.012
 8026SOL    HW124977   0.812   4.233   6.994
 8026SOL    HW224978   0.689   4.146   0.031
 8027SOL     OW24979   4.519   2.053   5.325
 8027SOL    HW124980   4.572   1.969   5.335
 8027SOL    HW224981   4.564   2.127   5.374
 8028SOL     OW24982   3.767   4.894   6.197
 8028SOL    HW124983   3.682   4.945   6.185
 8028SOL    HW224984   3.845   4.950   6.168
 8029SOL     OW24985   5.592   3.936   0.196
 8029SOL    HW124986   5.659   3.961   0.126
 8029SOL    HW224987   5.500   3.939   0.157
 8030SOL     OW24988   6.077   4.266   6.289
 8030SOL    HW124989   6.131   4.226   6.215
 8030SOL    HW224990   6.023   4.194   6.333
 8031SOL     OW24991   4.766   5.888   2.589
 8031SOL    HW124992   4.753   5.803   2.641
 8031SOL    HW224993   4.677   5.921   2.557
 8032SOL     OW24994   5.614   4.260   5.604
 8032SOL    HW124995   5.700   4.277   5.652
 8032SOL    HW224996   5.538   4.294   5.659
 8033SOL     OW24997   5.153   3.439   6.881
 8033SOL    HW124998   5.137   3.389   6.795
 8033SOL    HW224999   5.179   3.374   6.952
 8034SOL     OW25000   6.043   1.156   5.442
 8034SOL    HW125001   6.134   1.154   5.401
 8034SOL    HW225002   5.987   1.085   5.402
 8035SOL     OW25003   4.635   6.953   5.035
 8035SOL    HW125004   4.554   6.970   4.979
 8035SOL    HW225005   4.707   7.017   5.009
 8036SOL     OW25006   0.849   4.042   2.413
 8036SOL    HW125007   0.941   4.012   2.388
 8036SOL    HW225008   0.842   4.047   2.513
 8037SOL     OW25009   1.327   3.628   1.892
 8037SOL    HW125010   1.371   3.563   1.955
 8037SOL    HW225011   1.340   3.721   1.926
 8038SOL     OW25012   4.833   1.232   2.542
 8038SOL    HW125013   4.761   1.277   2.490
 8038SOL    HW225014   4.858   1.146   2.497
 8039SOL     OW25015   1.288   0.002   3.005
 8039SOL    HW125016   1.236   6.979   2.935
 8039SOL    HW225017   1.285   0.100   2.988
 8040SOL     OW25018   1.704   6.153   1.023
 8040SOL    HW125019   1.660   6.166   1.112
 8040SOL    HW225020   1.634   6.137   0.953
 8041SOL     OW25021   3.200   2.003   2.080
 8041SOL    HW125022   3.295   2.032   2.068
 8041SOL    HW225023   3.160   1.983   1.991
 8042SOL     OW25024   3.551   3.044   2.780
 8042SOL    HW125025   3.617   2.986   2.734
 8042SOL    HW225026   3.459   3.009   2.766
 8043SOL     OW25027   3.771   6.266   0.598
 8043SOL    HW125028   3.796   6.189   0.656
 8043SOL    HW225029   3.841   6.337   0.605
 8044SOL     OW25030   3.080   3.687   0.928
 8044SOL    HW125031   3.047   3.774   0.891
 8044SOL    HW225032   3.047   3.677   1.022
 8045SOL     OW25033   5.339   0.689   2.049
 8045SOL    HW125034   5.324   0.768   1.989
 8045SOL    HW225035   5.254   0.635   2.055
 8046SOL     OW25036   6.360   5.027   6.667
 8046SOL    HW125037   6.430   4.984   6.724
 8046SOL    HW225038   6.378   5.125   6.660
 8047SOL     OW25039   3.764   4.943   5.229
 8047SOL    HW125040   3.698   5.019   5.230
 8047SOL    HW225041   3.717   4.858   5.251
 8048SOL     OW25042   5.032   1.052   5.571
 8048SOL    HW125043   4.961   1.031   5.504
 8048SOL    HW225044   4.997   1.035   5.663
 8049SOL     OW25045   1.031   6.925   1.293
 8049SOL    HW125046   0.933   6.908   1.285
 8049SOL    HW225047   1.079   6.880   1.217
 8050SOL     OW25048   0.826   4.157   2.060
 8050SOL    HW125049   0.763   4.079   2.055
 8050SOL    HW225050   0.774   4.241   2.073
 8051SOL     OW25051   4.913   6.595   2.990
 8051SOL    HW125052   4.902   6.509   3.038
 8051SOL    HW225053   4.986   6.649   3.033
 8052SOL     OW25054   3.525   1.209   2.208
 8052SOL    HW125055   3.590   1.212   2.132
 8052SOL    HW225056   3.452   1.275   2.193
 8053SOL     OW25057   3.914   3.547   2.790
 8053SOL    HW125058   3.860   3.485   2.734
 8053SOL    HW225059   3.986   3.496   2.837
 8054SOL     OW25060   5.585   6.181   4.433
 8054SOL    HW125061   5.546   6.226   4.514
 8054SOL    HW225062   5.522   6.111   4.400
 8055SOL     OW25063   0.541   0.290   5.811
 8055SOL    HW125064   0.558   0.388   5.797
 8055SOL    HW225065   0.529   0.272   5.909
 8056SOL     OW25066   4.115   1.283   3.634
 8056SOL    HW125067   4.159   1.346   3.569
 8056SOL    HW225068   4.147   1.304   3.726
 8057SOL     OW25069   2.449   1.233   2.164
 8057SOL    HW125070   2.414   1.317   2.204
 8057SOL    HW225071   2.513   1.190   2.227
 8058SOL     OW25072   3.146   0.517   2.746
 8058SOL    HW125073   3.056   0.538   2.785
 8058SOL    HW225074   3.217   0.558   2.803
 8059SOL     OW25075   4.105   2.203   4.813
 8059SOL    HW125076   4.146   2.132   4.870
 8059SOL    HW225077   4.113   2.292   4.859
 8060SOL     OW25078   0.214   1.206   4.224
 8060SOL    HW125079   0.291   1.222   4.162
 8060SOL    HW225080   0.243   1.223   4.318
 8061SOL     OW25081   6.820   6.815   1.999
 8061SOL    HW125082   6.745   6.845   1.940
 8061SOL    HW225083   6.784   6.760   2.073
 8062SOL     OW25084   2.377   4.350   4.123
 8062SOL    HW125085   2.387   4.369   4.221
 8062SOL    HW225086   2.317   4.271   4.110
 8063SOL     OW25087   1.766   3.278   0.830
 8063SOL    HW125088   1.822   3.335   0.891
 8063SOL    HW225089   1.821   3.203   0.794
 8064SOL     OW25090   0.266   4.780   1.252
 8064SOL    HW125091   0.270   4.835   1.335
 8064SOL    HW225092   0.358   4.771   1.213
 8065SOL     OW25093   4.651   6.671   3.523
 8065SOL    HW125094   4.573   6.662   3.586
 8065SOL    HW225095   4.644   6.757   3.473
 8066SOL     OW25096   1.307   1.545   6.800
 8066SOL    HW125097   1.342   1.627   6.755
 8066SOL    HW225098   1.208   1.554   6.815
 8067SOL     OW25099   4.612   3.297   1.315
 8067SOL    HW125100   4.586   3.263   1.405
 8067SOL    HW225101   4.552   3.256   1.246
 8068SOL     OW25102   6.870   5.498   6.475
 8068SOL    HW125103   6.929   5.535   6.548
 8068SOL    HW225104   6.822   5.417   6.510
 8069SOL     OW25105   2.249   5.875   1.412
 8069SOL    HW125106   2.189   5.931   1.354
 8069SOL    HW225107   2.196   5.840   1.489
 8070SOL     OW25108   3.011   4.081   0.670
 8070SOL    HW125109   3.068   4.000   0.684
 8070SOL    HW225110   2.921   4.066   0.710
 8071SOL     OW25111   2.910   6.406   4.497
 8071SOL    HW125112   3.004   6.410   4.532
 8071SOL    HW225113   2.911   6.367   4.405
 8072SOL     OW25114   3.333   1.336   0.517
 8072SOL    HW125115   3.236   1.324   0.499
 8072SOL    HW225116   3.348   1.424   0.561
 8073SOL     OW25117   5.031   6.996   6.639
 8073SOL    HW125118   5.102   6.984   6.708
 8073SOL    HW225119   4.953   6.937   6.660
 8074SOL     OW25120   3.199   2.546   6.704
 8074SOL    HW125121   3.194   2.641   6.673
 8074SOL    HW225122   3.292   2.526   6.735
 8075SOL     OW25123   6.430   1.062   1.624
 8075SOL    HW125124   6.487   1.016   1.691
 8075SOL    HW225125   6.488   1.101   1.552
 8076SOL     OW25126   4.320   2.545   5.633
 8076SOL    HW125127   4.379   2.468   5.609
 8076SOL    HW225128   4.352   2.586   5.718
 8077SOL     OW25129   0.872   6.329   1.962
 8077SOL    HW125130   0.910   6.259   2.022
 8077SOL    HW225131   0.936   6.405   1.953
 8078SOL     OW25132   6.327   2.013   0.981
 8078SOL    HW125133   6.260   1.942   0.959
 8078SOL    HW225134   6.343   2.015   1.080
 8079SOL     OW25135   5.232   1.834   3.698
 8079SOL    HW125136   5.271   1.926   3.687
 8079SOL    HW225137   5.156   1.823   3.635
 8080SOL     OW25138   0.840   3.889   0.753
 8080SOL    HW125139   0.918   3.888   0.690
 8080SOL    HW225140   0.804   3.796   0.763
 8081SOL     OW25141   5.078   0.456   5.161
 8081SOL    HW125142   5.161   0.508   5.141
 8081SOL    HW225143   5.101   0.359   5.171
 8082SOL     OW25144   6.056   1.542   2.335
 8082SOL    HW125145   6.098   1.629   2.358
 8082SOL    HW225146   6.123   1.483   2.291
 8083SOL     OW25147   5.187   2.958   2.152
 8083SOL    HW125148   5.097   2.972   2.194
 8083SOL    HW225149   5.250   3.028   2.186
 8084SOL     OW25150   5.843   6.657   0.833
 8084SOL    HW125151   5.846   6.748   0.874
 8084SOL    HW225152   5.910   6.598   0.879
 8085SOL     OW25153   5.739   0.308   2.524
 8085SOL    HW125154   5.737   0.280   2.620
 8085SOL    HW225155   5.673   0.255   2.472
 8086SOL     OW25156   4.218   0.527   3.805
 8086SOL    HW125157   4.194   0.473   3.724
 8086SOL    HW225158   4.155   0.503   3.880
 8087SOL     OW25159   2.158   1.459   1.326
 8087SOL    HW125160   2.253   1.451   1.295
 8087SOL    HW225161   2.098   1.466   1.246
 8088SOL     OW25162   5.995   1.614   1.726
 8088SOL    HW125163   6.022   1.711   1.725
 8088SOL    HW225164   6.070   1.559   1.762
 8089SOL     OW25165   5.642   1.790   0.773
 8089SOL    HW125166   5.547   1.768   0.749
 8089SOL    HW225167   5.687   1.831   0.693
 8090SOL     OW25168   4.487   1.818   6.156
 8090SOL    HW125169   4.475   1.719   6.148
 8090SOL    HW225170   4.471   1.847   6.250
 8091SOL     OW25171   3.030   3.803   6.635
 8091SOL    HW125172   2.992   3.748   6.560
 8091SOL    HW225173   3.098   3.749   6.684
 8092SOL     OW25174   0.929   1.869   5.003
 8092SOL    HW125175   0.855   1.923   5.044
 8092SOL    HW225176   1.015   1.919   5.012
 8093SOL     OW25177   5.661   5.679   1.813
 8093SOL    HW125178   5.566   5.699   1.789
 8093SOL    HW225179   5.663   5.628   1.899
 8094SOL     OW25180   2.136   4.014   4.579
 8094SOL    HW125181   2.080   3.935   4.555
 8094SOL    HW225182   2.186   3.994   4.664
 8095SOL     OW25183   6.062   3.714   3.824
 8095SOL    HW125184   6.137   3.776   3.802
 8095SOL    HW225185   5.977   3.765   3.831
 8096SOL     OW25186   3.335   5.393   3.741
 8096SOL    HW125187   3.364   5.310   3.693
 8096SOL    HW225188   3.391   5.405   3.823
 8097SOL     OW25189   5.146   0.671   4.264
 8097SOL    HW125190   5.071   0.606   4.249
 8097SOL    HW225191   5.207   0.670   4.185
 8098SOL     OW25192   2.360   6.742   4.658
 8098SOL    HW125193   2.371   6.822   4.600
 8098SOL    HW225194   2.269   6.702   4.643
 8099SOL     OW25195   6.335   0.682   4.846
 8099SOL    HW125196   6.273   0.702   4.770
 8099SOL    HW225197   6.283   0.649   4.924
 8100SOL     OW25198   0.376   6.574   0.044
 8100SOL    HW125199   0.302   6.556   0.108
 8100SOL    HW225200   0.344   6.557   6.976
 8101SOL     OW25201   2.005   0.306   4.589
 8101SOL    HW125202   1.952   0.377   4.541
 8101SOL    HW225203   2.012   0.329   4.686
 8102SOL     OW25204   1.513   5.489   6.029
 8102SOL    HW125205   1.538   5.445   5.943
 8102SOL    HW225206   1.430   5.542   6.017
 8103SOL     OW25207   3.999   1.288   1.185
 8103SOL    HW125208   4.023   1.385   1.186
 8103SOL    HW225209   3.913   1.275   1.136
 8104SOL     OW25210   2.715   6.855   5.759
 8104SOL    HW125211   2.634   6.874   5.704
 8104SOL    HW225212   2.719   6.757   5.780
 8105SOL     OW25213   2.026   2.285   3.571
 8105SOL    HW125214   2.008   2.245   3.481
 8105SOL    HW225215   2.119   2.322   3.573
 8106SOL     OW25216   2.164   5.609   3.892
 8106SOL    HW125217   2.158   5.532   3.828
 8106SOL    HW225218   2.179   5.694   3.841
 8107SOL     OW25219   1.507   6.067   5.603
 8107SOL    HW125220   1.571   6.044   5.530
 8107SOL    HW225221   1.414   6.076   5.565
 8108SOL     OW25222   6.200   2.816   4.545
 8108SOL    HW125223   6.287   2.776   4.517
 8108SOL    HW225224   6.127   2.750   4.532
 8109SOL     OW25225   1.254   4.241   4.468
 8109SOL    HW125226   1.317   4.318   4.465
 8109SOL    HW225227   1.303   4.159   4.495
 8110SOL     OW25228   3.559   6.657   0.533
 8110SOL    HW125229   3.486   6.722   0.509
 8110SOL    HW225230   3.645   6.686   0.491
 8111SOL     OW25231   3.378   0.152   5.875
 8111SOL    HW125232   3.427   0.236   5.849
 8111SOL    HW225233   3.422   0.073   5.834
 8112SOL     OW25234   1.842   1.084   5.103
 8112SOL    HW125235   1.863   1.014   5.171
 8112SOL    HW225236   1.796   1.043   5.025
 8113SOL     OW25237   2.234   2.920   0.108
 8113SOL    HW125238   2.232   2.974   0.192
 8113SOL    HW225239   2.294   2.842   0.120
 8114SOL     OW25240   2.034   3.295   2.412
 8114SOL    HW125241   2.049   3.376   2.355
 8114SOL    HW225242   2.096   3.222   2.383
 8115SOL     OW25243   3.837   1.231   1.745
 8115SOL    HW125244   3.850   1.148   1.798
 8115SOL    HW225245   3.778   1.212   1.666
 8116SOL     OW25246   4.833   6.813   4.543
 8116SOL    HW125247   4.915   6.765   4.512
 8116SOL    HW225248   4.859   6.900   4.583
 8117SOL     OW25249   2.220   1.756   3.579
 8117SOL    HW125250   2.141   1.818   3.588
 8117SOL    HW225251   2.192   1.663   3.604
 8118SOL     OW25252   0.135   3.715   5.739
 8118SOL    HW125253   0.116   3.669   5.652
 8118SOL    HW225254   0.090   3.665   5.813
 8119SOL     OW25255   0.347   5.881   5.054
 8119SOL    HW125256   0.402   5.803   5.024
 8119SOL    HW225257   0.353   5.954   4.985
 8120SOL     OW25258   4.031   4.410   6.840
 8120SOL    HW125259   4.102   4.349   6.808
 8120SOL    HW225260   3.953   4.406   6.777
 8121SOL     OW25261   6.437   5.735   3.637
 8121SOL    HW125262   6.373   5.745   3.713
 8121SOL    HW225263   6.413   5.801   3.565
 8122SOL     OW25264   0.220   5.191   2.176
 8122SOL    HW125265   0.302   5.168   2.230
 8122SOL    HW225266   0.185   5.108   2.133
 8123SOL     OW25267   0.648   0.365   0.112
 8123SOL    HW125268   0.740   0.388   0.143
 8123SOL    HW225269   0.639   0.386   0.015
 8124SOL     OW25270   0.757   6.446   1.499
 8124SOL    HW125271   0.813   6.528   1.508
 8124SOL    HW225272   0.714   6.445   1.408
 8125SOL     OW25273   6.530   5.305   3.109
 8125SOL    HW125274   6.524   5.206   3.124
 8125SOL    HW225275   6.625   5.330   3.089
 8126SOL     OW25276   6.562   3.892   2.009
 8126SOL    HW125277   6.574   3.806   2.059
 8126SOL    HW225278   6.544   3.966   2.074
 8127SOL     OW25279   2.110   6.107   0.644
 8127SOL    HW125280   2.091   6.063   0.556
 8127SOL    HW225281   2.053   6.065   0.714
 8128SOL     OW25282   3.105   2.668   0.031
 8128SOL    HW125283   3.067   2.728   6.986
 8128SOL    HW225284   3.062   2.578   0.025
 8129SOL     OW25285   4.983   1.097   6.403
 8129SOL    HW125286   4.885   1.115   6.401
 8129SOL    HW225287   5.031   1.179   6.435
 8130SOL     OW25288   0.816   4.870   6.144
 8130SOL    HW125289   0.800   4.951   6.087
 8130SOL    HW225290   0.734   4.812   6.143
 8131SOL     OW25291   2.570   0.774   0.511
 8131SOL    HW125292   2.509   0.804   0.584
 8131SOL    HW225293   2.541   0.814   0.425
 8132SOL     OW25294   5.577   6.167   6.223
 8132SOL    HW125295   5.545   6.212   6.140
 8132SOL    HW225296   5.499   6.148   6.283
 8133SOL     OW25297   3.626   4.975   2.443
 8133SOL    HW125298   3.536   4.930   2.448
 8133SOL    HW225299   3.635   5.020   2.354
 8134SOL     OW25300   1.532   1.344   4.281
 8134SOL    HW125301   1.606   1.410   4.292
 8134SOL    HW225302   1.505   1.310   4.371
 8135SOL     OW25303   2.769   5.027   2.114
 8135SOL    HW125304   2.826   5.076   2.048
 8135SOL    HW225305   2.758   5.083   2.196
 8136SOL     OW25306   4.477   5.043   2.897
 8136SOL    HW125307   4.477   5.008   2.991
 8136SOL    HW225308   4.390   5.088   2.879
 8137SOL     OW25309   2.440   2.027   4.267
 8137SOL    HW125310   2.472   2.018   4.361
 8137SOL    HW225311   2.432   2.124   4.244
 8138SOL     OW25312   5.677   1.925   1.856
 8138SOL    HW125313   5.594   1.870   1.842
 8138SOL    HW225314   5.724   1.892   1.938
 8139SOL     OW25315   1.233   2.432   3.407
 8139SOL    HW125316   1.232   2.436   3.307
 8139SOL    HW225317   1.320   2.466   3.441
 8140SOL     OW25318   3.615   0.469   0.288
 8140SOL    HW125319   3.693   0.421   0.246
 8140SOL    HW225320   3.530   0.433   0.251
 8141SOL     OW25321   5.231   0.343   5.367
 8141SOL    HW125322   5.276   0.411   5.309
 8141SOL    HW225323   5.220   0.380   5.459
 8142SOL     OW25324   1.947   5.100   0.943
 8142SOL    HW125325   2.035   5.143   0.921
 8142SOL    HW225326   1.899   5.153   1.012
 8143SOL     OW25327   5.376   5.021   0.976
 8143SOL    HW125328   5.278   5.003   0.977
 8143SOL    HW225329   5.407   5.043   1.069
 8144SOL     OW25330   0.983   6.205   5.403
 8144SOL    HW125331   1.048   6.149   5.352
 8144SOL    HW225332   0.983   6.298   5.365
 8145SOL     OW25333   5.450   4.440   0.642
 8145SOL    HW125334   5.436   4.515   0.708
 8145SOL    HW225335   5.497   4.365   0.688
 8146SOL     OW25336   6.333   0.015   5.558
 8146SOL    HW125337   6.246   0.030   5.510
 8146SOL    HW225338   6.349   6.942   5.566
 8147SOL     OW25339   0.222   0.851   0.657
 8147SOL    HW125340   0.241   0.784   0.729
 8147SOL    HW225341   0.280   0.832   0.578
 8148SOL     OW25342   4.145   4.645   6.741
 8148SOL    HW125343   4.125   4.558   6.785
 8148SOL    HW225344   4.244   4.661   6.743
 8149SOL     OW25345   1.272   6.272   4.508
 8149SOL    HW125346   1.185   6.283   4.460
 8149SOL    HW225347   1.254   6.245   4.603
 8150SOL     OW25348   0.572   3.352   1.198
 8150SOL    HW125349   0.662   3.365   1.241
 8150SOL    HW225350   0.578   3.371   1.100
 8151SOL     OW25351   5.726   5.814   4.357
 8151SOL    HW125352   5.768   5.746   4.417
 8151SOL    HW225353   5.687   5.769   4.277
 8152SOL     OW25354   5.113   2.159   3.473
 8152SOL    HW125355   5.151   2.096   3.541
 8152SOL    HW225356   5.157   2.141   3.385
 8153SOL     OW25357   0.049   0.723   3.274
 8153SOL    HW125358   0.148   0.715   3.265
 8153SOL    HW225359   0.020   0.815   3.249
 8154SOL     OW25360   3.191   0.802   2.888
 8154SOL    HW125361   3.228   0.868   2.953
 8154SOL    HW225362   3.129   0.740   2.936
 8155SOL     OW25363   1.302   4.452   2.163
 8155SOL    HW125364   1.276   4.361   2.129
 8155SOL    HW225365   1.278   4.460   2.259
 8156SOL     OW25366   4.828   6.133   1.759
 8156SOL    HW125367   4.863   6.091   1.842
 8156SOL    HW225368   4.730   6.112   1.749
 8157SOL     OW25369   6.183   4.486   6.013
 8157SOL    HW125370   6.110   4.456   5.951
 8157SOL    HW225371   6.146   4.548   6.081
 8158SOL     OW25372   5.267   5.111   6.534
 8158SOL    HW125373   5.203   5.117   6.458
 8158SOL    HW225374   5.270   5.017   6.567
 8159SOL     OW25375   3.565   5.663   5.822
 8159SOL    HW125376   3.493   5.706   5.876
 8159SOL    HW225377   3.590   5.724   5.746
 8160SOL     OW25378   4.088   0.248   3.883
 8160SOL    HW125379   4.102   0.299   3.797
 8160SOL    HW225380   4.093   0.150   3.865
 8161SOL     OW25381   5.876   3.792   6.166
 8161SOL    HW125382   5.796   3.818   6.221
 8161SOL    HW225383   5.907   3.871   6.114
 8162SOL     OW25384   0.113   5.334   0.230
 8162SOL    HW125385   0.204   5.327   0.188
 8162SOL    HW225386   0.118   5.386   0.315
 8163SOL     OW25387   3.044   4.559   5.898
 8163SOL    HW125388   2.982   4.631   5.927
 8163SOL    HW225389   3.122   4.555   5.960
 8164SOL     OW25390   4.395   1.369   0.544
 8164SOL    HW125391   4.477   1.407   0.501
 8164SOL    HW225392   4.412   1.274   0.571
 8165SOL     OW25393   6.953   4.017   6.516
 8165SOL    HW125394   6.951   3.921   6.544
 8165SOL    HW225395   6.867   4.061   6.540
 8166SOL     OW25396   2.243   1.722   3.182
 8166SOL    HW125397   2.269   1.778   3.261
 8166SOL    HW225398   2.144   1.728   3.169
 8167SOL     OW25399   6.968   0.708   3.786
 8167SOL    HW125400   6.961   0.797   3.740
 8167SOL    HW225401   0.035   0.696   3.822
 8168SOL     OW25402   2.717   6.965   1.218
 8168SOL    HW125403   2.640   6.928   1.271
 8168SOL    HW225404   2.755   0.020   1.264
 8169SOL     OW25405   3.763   2.086   0.599
 8169SOL    HW125406   3.731   1.998   0.563
 8169SOL    HW225407   3.860   2.096   0.578
 8170SOL     OW25408   6.540   4.684   1.692
 8170SOL    HW125409   6.628   4.658   1.652
 8170SOL    HW225410   6.488   4.738   1.625
 8171SOL     OW25411   1.266   1.434   6.337
 8171SOL    HW125412   1.353   1.475   6.363
 8171SOL    HW225413   1.207   1.428   6.417
 8172SOL     OW25414   0.357   2.345   2.022
 8172SOL    HW125415   0.442   2.394   2.007
 8172SOL    HW225416   0.295   2.362   1.945
 8173SOL     OW25417   5.843   2.094   2.560
 8173SOL    HW125418   5.907   2.021   2.535
 8173SOL    HW225419   5.857   2.173   2.501
 8174SOL     OW25420   0.997   6.425   2.815
 8174SOL    HW125421   0.982   6.519   2.783
 8174SOL    HW225422   0.959   6.361   2.748
 8175SOL     OW25423   0.757   2.636   4.290
 8175SOL    HW125424   0.849   2.675   4.302
 8175SOL    HW225425   0.764   2.539   4.269
 8176SOL     OW25426   2.180   4.424   1.743
 8176SOL    HW125427   2.274   4.391   1.758
 8176SOL    HW225428   2.175   4.469   1.653
 8177SOL     OW25429   3.884   1.290   3.294
 8177SOL    HW125430   3.943   1.212   3.277
 8177SOL    HW225431   3.828   1.273   3.374
 8178SOL     OW25432   3.055   6.461   0.956
 8178SOL    HW125433   3.049   6.515   1.040
 8178SOL    HW225434   3.055   6.364   0.979
 8179SOL     OW25435   5.563   1.403   4.722
 8179SOL    HW125436   5.543   1.317   4.769
 8179SOL    HW225437   5.480   1.438   4.679
 8180SOL     OW25438   5.759   0.419   0.245
 8180SOL    HW125439   5.803   0.496   0.199
 8180SOL    HW225440   5.744   0.345   0.180
 8181SOL     OW25441   1.055   0.776   1.139
 8181SOL    HW125442   1.020   0.685   1.120
 8181SOL    HW225443   1.149   0.783   1.105
 8182SOL     OW25444   3.427   3.814   4.371
 8182SOL    HW125445   3.499   3.805   4.440
 8182SOL    HW225446   3.381   3.726   4.359
 8183SOL     OW25447   6.488   1.665   4.431
 8183SOL    HW125448   6.505   1.573   4.397
 8183SOL    HW225449   6.537   1.680   4.516
 8184SOL     OW25450   0.817   0.230   0.498
 8184SOL    HW125451   0.743   0.164   0.479
 8184SOL    HW225452   0.797   0.316   0.452
 8185SOL     OW25453   2.160   0.689   0.455
 8185SOL    HW125454   2.078   0.634   0.474
 8185SOL    HW225455   2.234   0.629   0.426
 8186SOL     OW25456   2.655   4.124   5.342
 8186SOL    HW125457   2.740   4.091   5.301
 8186SOL    HW225458   2.579   4.066   5.313
 8187SOL     OW25459   2.292   1.483   4.719
 8187SOL    HW125460   2.204   1.530   4.725
 8187SOL    HW225461   2.278   1.393   4.676
 8188SOL     OW25462   4.623   2.616   3.844
 8188SOL    HW125463   4.618   2.642   3.940
 8188SOL    HW225464   4.619   2.516   3.837
 8189SOL     OW25465   5.661   5.536   2.045
 8189SOL    HW125466   5.697   5.563   2.134
 8189SOL    HW225467   5.622   5.444   2.052
 8190SOL     OW25468   4.924   4.153   3.769
 8190SOL    HW125469   4.858   4.124   3.839
 8190SOL    HW225470   4.878   4.162   3.681
 8191SOL     OW25471   4.310   5.178   2.531
 8191SOL    HW125472   4.249   5.244   2.573
 8191SOL    HW225473   4.387   5.226   2.488
 8192SOL     OW25474   1.576   5.340   2.364
 8192SOL    HW125475   1.525   5.278   2.304
 8192SOL    HW225476   1.513   5.383   2.429
 8193SOL     OW25477   6.354   4.859   5.187
 8193SOL    HW125478   6.345   4.766   5.223
 8193SOL    HW225479   6.265   4.905   5.191
 8194SOL     OW25480   3.950   0.953   1.117
 8194SOL    HW125481   3.998   0.884   1.062
 8194SOL    HW225482   4.016   1.019   1.152
 8195SOL     OW25483   6.191   0.533   3.791
 8195SOL    HW125484   6.185   0.433   3.789
 8195SOL    HW225485   6.274   0.563   3.745
 8196SOL     OW25486   4.945   6.680   7.003
 8196SOL    HW125487   5.011   6.738   0.027
 8196SOL    HW225488   4.867   6.661   0.036
 8197SOL     OW25489   3.992   1.694   1.395
 8197SOL    HW125490   3.990   1.793   1.409
 8197SOL    HW225491   4.087   1.663   1.388
 8198SOL     OW25492   3.477   6.228   1.998
 8198SOL    HW125493   3.447   6.173   1.921
 8198SOL    HW225494   3.512   6.316   1.965
 8199SOL     OW25495   5.538   3.244   6.271
 8199SOL    HW125496   5.614   3.276   6.215
 8199SOL    HW225497   5.503   3.319   6.327
 8200SOL     OW25498   6.033   4.271   1.606
 8200SOL    HW125499   5.974   4.224   1.671
 8200SOL    HW225500   5.984   4.287   1.521
 8201SOL     OW25501   6.847   0.771   5.310
 8201SOL    HW125502   6.779   0.829   5.266
 8201SOL    HW225503   6.879   0.701   5.246
 8202SOL     OW25504   6.746   5.733   3.166
 8202SOL    HW125505   6.781   5.656   3.112
 8202SOL    HW225506   6.649   5.745   3.149
 8203SOL     OW25507   2.232   2.227   0.197
 8203SOL    HW125508   2.134   2.234   0.179
 8203SOL    HW225509   2.267   2.317   0.225
 8204SOL     OW25510   4.185   4.176   0.369
 8204SOL    HW125511   4.151   4.240   0.300
 8204SOL    HW225512   4.126   4.179   0.450
 8205SOL     OW25513   6.929   4.065   6.935
 8205SOL    HW125514   6.832   4.049   6.923
 8205SOL    HW225515   6.969   3.990   6.987
 8206SOL     OW25516   4.606   2.001   6.903
 8206SOL    HW125517   4.574   2.048   6.986
 8206SOL    HW225518   4.592   2.060   6.824
 8207SOL     OW25519   3.605   3.911   3.894
 8207SOL    HW125520   3.549   3.834   3.925
 8207SOL    HW225521   3.701   3.883   3.892
 8208SOL     OW25522   1.430   0.476   1.016
 8208SOL    HW125523   1.370   0.443   0.943
 8208SOL    HW225524   1.398   0.565   1.049
 8209SOL     OW25525   0.033   0.747   4.772
 8209SOL    HW125526   0.029   0.653   4.804
 8209SOL    HW225527   6.992   0.760   4.698
 8210SOL     OW25528   2.665   2.211   0.228
 8210SOL    HW125529   2.702   2.207   0.321
 8210SOL    HW225530   2.597   2.284   0.222
 8211SOL     OW25531   3.889   4.461   1.454
 8211SOL    HW125532   3.933   4.526   1.392
 8211SOL    HW225533   3.959   4.400   1.491
 8212SOL     OW25534   1.468   2.453   3.056
 8212SOL    HW125535   1.513   2.445   2.967
 8212SOL    HW225536   1.530   2.423   3.128
 8213SOL     OW25537   0.000   4.419   1.385
 8213SOL    HW125538   0.084   4.412   1.331
 8213SOL    HW225539   6.948   4.436   1.324
 8214SOL     OW25540   6.044   5.273   4.449
 8214SOL    HW125541   6.141   5.289   4.465
 8214SOL    HW225542   5.993   5.290   4.533
 8215SOL     OW25543   3.590   5.580   5.468
 8215SOL    HW125544   3.666   5.634   5.431
 8215SOL    HW225545   3.626   5.502   5.520
 8216SOL     OW25546   5.207   5.840   4.408
 8216SOL    HW125547   5.265   5.903   4.357
 8216SOL    HW225548   5.142   5.796   4.345
 8217SOL     OW25549   2.201   5.227   0.823
 8217SOL    HW125550   2.226   5.206   0.728
 8217SOL    HW225551   2.244   5.313   0.851
 8218SOL     OW25552   6.879   0.340   6.500
 8218SOL    HW125553   6.933   0.360   6.582
 8218SOL    HW225554   6.823   0.420   6.477
 8219SOL     OW25555   4.519   2.177   0.091
 8219SOL    HW125556   4.467   2.246   0.042
 8219SOL    HW225557   4.592   2.220   0.144
 8220SOL     OW25558   3.656   3.416   3.384
 8220SOL    HW125559   3.584   3.348   3.375
 8220SOL    HW225560   3.615   3.505   3.404
 8221SOL     OW25561   4.862   5.618   5.050
 8221SOL    HW125562   4.941   5.677   5.037
 8221SOL    HW225563   4.888   5.540   5.108
 8222SOL     OW25564   5.536   1.527   2.023
 8222SOL    HW125565   5.617   1.547   1.968
 8222SOL    HW225566   5.558   1.534   2.120
 8223SOL     OW25567   1.823   4.388   5.961
 8223SOL    HW125568   1.917   4.360   5.945
 8223SOL    HW225569   1.809   4.481   5.926
 8224SOL     OW25570   6.980   2.148   2.694
 8224SOL    HW125571   6.890   2.117   2.664
 8224SOL    HW225572   7.021   2.204   2.622
 8225SOL     OW25573   3.701   1.079   0.012
 8225SOL    HW125574   3.618   1.136   0.019
 8225SOL    HW225575   3.726   1.070   6.941
 8226SOL     OW25576   4.027   6.557   1.614
 8226SOL    HW125577   4.045   6.631   1.679
 8226SOL    HW225578   4.074   6.474   1.644
 8227SOL     OW25579   6.865   2.358   3.483
 8227SOL    HW125580   6.791   2.319   3.426
 8227SOL    HW225581   6.935   2.289   3.497
 8228SOL     OW25582   6.918   2.481   5.375
 8228SOL    HW125583   6.873   2.512   5.458
 8228SOL    HW225584   6.860   2.414   5.329
 8229SOL     OW25585   4.105   4.488   0.809
 8229SOL    HW125586   4.076   4.579   0.839
 8229SOL    HW225587   4.090   4.480   0.710
 8230SOL     OW25588   3.903   6.779   5.221
 8230SOL    HW125589   3.995   6.809   5.248
 8230SOL    HW225590   3.887   6.686   5.255
 8231SOL     OW25591   4.312   5.351   0.241
 8231SOL    HW125592   4.254   5.362   0.322
 8231SOL    HW225593   4.408   5.358   0.267
 8232SOL     OW25594   4.795   1.732   1.017
 8232SOL    HW125595   4.718   1.792   0.997
 8232SOL    HW225596   4.880   1.784   1.011
 8233SOL     OW25597   0.995   6.038   6.373
 8233SOL    HW125598   1.076   6.004   6.422
 8233SOL    HW225599   0.984   6.136   6.390
 8234SOL     OW25600   2.247   3.929   6.819
 8234SOL    HW125601   2.197   3.918   6.733
 8234SOL    HW225602   2.277   3.839   6.852
 8235SOL     OW25603   0.866   3.690   0.377
 8235SOL    HW125604   0.781   3.641   0.356
 8235SOL    HW225605   0.930   3.680   0.300
 8236SOL     OW25606   0.061   4.469   0.039
 8236SOL    HW125607   7.025   4.530   0.089
 8236SOL    HW225608   0.068   4.382   0.087
 8237SOL     OW25609   4.326   6.284   4.429
 8237SOL    HW125610   4.250   6.347   4.415
 8237SOL    HW225611   4.342   6.273   4.527
 8238SOL     OW25612   1.206   4.927   0.071
 8238SOL    HW125613   1.209   4.827   0.064
 8238SOL    HW225614   1.135   4.963   0.010
 8239SOL     OW25615   6.317   1.093   5.469
 8239SOL    HW125616   6.280   1.049   5.551
 8239SOL    HW225617   6.411   1.122   5.487
 8240SOL     OW25618   3.246   4.102   2.478
 8240SOL    HW125619   3.292   4.145   2.400
 8240SOL    HW225620   3.312   4.088   2.552
 8241SOL     OW25621   3.829   0.059   6.939
 8241SOL    HW125622   3.892   7.015   6.972
 8241SOL    HW225623   3.878   0.126   6.883
 8242SOL     OW25624   0.618   4.868   5.906
 8242SOL    HW125625   0.677   4.947   5.886
 8242SOL    HW225626   0.613   4.809   5.825
 8243SOL     OW25627   1.063   2.286   0.282
 8243SOL    HW125628   1.041   2.189   0.272
 8243SOL    HW225629   1.078   2.307   0.379
 8244SOL     OW25630   1.351   0.007   4.019
 8244SOL    HW125631   1.345   6.953   3.957
 8244SOL    HW225632   1.267   0.014   4.072
 8245SOL     OW25633   4.493   2.202   2.742
 8245SOL    HW125634   4.428   2.239   2.675
 8245SOL    HW225635   4.519   2.110   2.716
 8246SOL     OW25636   0.873   3.650   5.983
 8246SOL    HW125637   0.876   3.732   5.925
 8246SOL    HW225638   0.858   3.677   6.078
 8247SOL     OW25639   0.461   0.170   2.363
 8247SOL    HW125640   0.409   0.217   2.291
 8247SOL    HW225641   0.545   0.133   2.325
 8248SOL     OW25642   6.401   5.072   4.777
 8248SOL    HW125643   6.452   5.109   4.855
 8248SOL    HW225644   6.403   4.973   4.781
 8249SOL     OW25645   1.942   2.657   5.087
 8249SOL    HW125646   2.033   2.618   5.070
 8249SOL    HW225647   1.909   2.626   5.176
 8250SOL     OW25648   3.634   4.108   2.134
 8250SOL    HW125649   3.551   4.088   2.184
 8250SOL    HW225650   3.693   4.169   2.189
 8251SOL     OW25651   6.153   3.486   3.607
 8251SOL    HW125652   6.131   3.549   3.681
 8251SOL    HW225653   6.071   3.435   3.581
 8252SOL     OW25654   3.278   1.841   5.580
 8252SOL    HW125655   3.287   1.920   5.641
 8252SOL    HW225656   3.244   1.763   5.631
 8253SOL     OW25657   4.709   4.390   5.326
 8253SOL    HW125658   4.755   4.384   5.415
 8253SOL    HW225659   4.725   4.305   5.275
 8254SOL     OW25660   4.394   4.772   4.980
 8254SOL    HW125661   4.389   4.674   4.960
 8254SOL    HW225662   4.472   4.811   4.931
 8255SOL     OW25663   2.736   6.475   4.693
 8255SOL    HW125664   2.787   6.429   4.621
 8255SOL    HW225665   2.745   6.574   4.683
 8256SOL     OW25666   6.220   0.422   2.689
 8256SOL    HW125667   6.154   0.347   2.681
 8256SOL    HW225668   6.241   0.438   2.785
 8257SOL     OW25669   6.208   3.947   3.758
 8257SOL    HW125670   6.298   3.981   3.787
 8257SOL    HW225671   6.191   3.973   3.664
 8258SOL     OW25672   5.379   1.729   0.790
 8258SOL    HW125673   5.359   1.748   0.886
 8258SOL    HW225674   5.303   1.761   0.733
 8259SOL     OW25675   4.355   2.013   3.348
 8259SOL    HW125676   4.273   2.054   3.307
 8259SOL    HW225677   4.369   1.921   3.309
 8260SOL     OW25678   2.771   6.302   1.800
 8260SOL    HW125679   2.746   6.309   1.896
 8260SOL    HW225680   2.793   6.206   1.778
 8261SOL     OW25681   6.070   1.211   1.912
 8261SOL    HW125682   6.092   1.114   1.911
 8261SOL    HW225683   5.984   1.227   1.862
 8262SOL     OW25684   0.675   2.872   0.387
 8262SOL    HW125685   0.640   2.939   0.322
 8262SOL    HW225686   0.598   2.820   0.426
 8263SOL     OW25687   1.348   1.849   6.965
 8263SOL    HW125688   1.390   1.914   0.003
 8263SOL    HW225689   1.306   1.775   7.017
 8264SOL     OW25690   2.163   6.215   2.930
 8264SOL    HW125691   2.164   6.118   2.952
 8264SOL    HW225692   2.157   6.268   3.014
 8265SOL     OW25693   0.732   6.787   0.512
 8265SOL    HW125694   0.691   6.701   0.483
 8265SOL    HW225695   0.687   6.819   0.595
 8266SOL     OW25696   2.309   1.416   3.764
 8266SOL    HW125697   2.351   1.506   3.751
 8266SOL    HW225698   2.211   1.427   3.781
 8267SOL     OW25699   1.252   2.497   0.828
 8267SOL    HW125700   1.280   2.516   0.733
 8267SOL    HW225701   1.175   2.556   0.852
 8268SOL     OW25702   2.130   6.825   5.573
 8268SOL    HW125703   2.109   6.745   5.516
 8268SOL    HW225704   2.182   6.795   5.653
 8269SOL     OW25705   4.294   2.344   2.270
 8269SOL    HW125706   4.379   2.396   2.273
 8269SOL    HW225707   4.244   2.365   2.186
 8270SOL     OW25708   3.084   6.797   5.314
 8270SOL    HW125709   3.128   6.729   5.373
 8270SOL    HW225710   3.129   6.886   5.327
 8271SOL     OW25711   6.407   0.198   3.307
 8271SOL    HW125712   6.355   0.272   3.349
 8271SOL    HW225713   6.502   0.202   3.338
 8272SOL     OW25714   4.527   1.976   1.673
 8272SOL    HW125715   4.517   1.882   1.641
 8272SOL    HW225716   4.437   2.019   1.680
 8273SOL     OW25717   2.808   6.902   0.344
 8273SOL    HW125718   2.728   6.870   0.396
 8273SOL    HW225719   2.864   6.823   0.317
 8274SOL     OW25720   5.133   4.851   3.278
 8274SOL    HW125721   5.227   4.850   3.245
 8274SOL    HW225722   5.117   4.931   3.334
 8275SOL     OW25723   4.832   1.440   5.499
 8275SOL    HW125724   4.886   1.356   5.493
 8275SOL    HW225725   4.735   1.417   5.505
 8276SOL     OW25726   1.153   2.158   3.636
 8276SOL    HW125727   1.184   2.064   3.652
 8276SOL    HW225728   1.162   2.211   3.720
 8277SOL     OW25729   6.773   0.066   0.397
 8277SOL    HW125730   6.735   0.084   0.488
 8277SOL    HW225731   6.705   0.090   0.328
 8278SOL     OW25732   2.519   2.236   5.530
 8278SOL    HW125733   2.521   2.250   5.431
 8278SOL    HW225734   2.514   2.138   5.550
 8279SOL     OW25735   1.514   6.728   4.208
 8279SOL    HW125736   1.543   6.717   4.113
 8279SOL    HW225737   1.438   6.666   4.228
 8280SOL     OW25738   2.495   3.606   0.446
 8280SOL    HW125739   2.548   3.548   0.384
 8280SOL    HW225740   2.443   3.548   0.509
 8281SOL     OW25741   2.697   4.726   1.584
 8281SOL    HW125742   2.693   4.747   1.682
 8281SOL    HW225743   2.793   4.716   1.556
 8282SOL     OW25744   5.057   3.838   7.006
 8282SOL    HW125745   4.987   3.885   6.953
 8282SOL    HW225746   5.103   3.904   0.040
 8283SOL     OW25747   1.828   5.518   6.661
 8283SOL    HW125748   1.774   5.592   6.622
 8283SOL    HW225749   1.884   5.475   6.590
 8284SOL     OW25750   0.976   3.665   1.002
 8284SOL    HW125751   0.880   3.638   0.995
 8284SOL    HW225752   1.000   3.676   1.098
 8285SOL     OW25753   3.052   3.146   4.607
 8285SOL    HW125754   2.998   3.077   4.557
 8285SOL    HW225755   2.991   3.218   4.639
 8286SOL     OW25756   5.839   2.797   6.171
 8286SOL    HW125757   5.915   2.816   6.108
 8286SOL    HW225758   5.789   2.881   6.190
 8287SOL     OW25759   2.178   5.384   3.749
 8287SOL    HW125760   2.098   5.327   3.729
 8287SOL    HW225761   2.259   5.326   3.760
 8288SOL     OW25762   3.557   1.991   1.545
 8288SOL    HW125763   3.598   1.938   1.471
 8288SOL    HW225764   3.458   1.997   1.531
 8289SOL     OW25765   0.573   5.429   1.117
 8289SOL    HW125766   0.605   5.481   1.197
 8289SOL    HW225767   0.628   5.452   1.038
 8290SOL     OW25768   6.197   1.524   1.033
 8290SOL    HW125769   6.152   1.605   1.069
 8290SOL    HW225770   6.157   1.442   1.074
 8291SOL     OW25771   5.203   6.343   5.882
 8291SOL    HW125772   5.197   6.443   5.879
 8291SOL    HW225773   5.182   6.305   5.792
 8292SOL     OW25774   2.707   6.310   6.923
 8292SOL    HW125775   2.663   6.382   6.978
 8292SOL    HW225776   2.648   6.288   6.845
 8293SOL     OW25777   3.394   6.310   6.965
 8293SOL    HW125778   3.416   6.356   0.026
 8293SOL    HW225779   3.303   6.270   6.970
 8294SOL     OW25780   5.350   4.154   4.729
 8294SOL    HW125781   5.258   4.183   4.705
 8294SOL    HW225782   5.392   4.222   4.789
 8295SOL     OW25783   5.289   5.507   1.482
 8295SOL    HW125784   5.204   5.455   1.494
 8295SOL    HW225785   5.334   5.478   1.397
 8296SOL     OW25786   1.564   5.768   5.884
 8296SOL    HW125787   1.562   5.834   5.809
 8296SOL    HW225788   1.560   5.675   5.847
 8297SOL     OW25789   6.327   2.768   2.183
 8297SOL    HW125790   6.334   2.833   2.107
 8297SOL    HW225791   6.416   2.726   2.200
 8298SOL     OW25792   6.012   1.730   1.160
 8298SOL    HW125793   6.066   1.771   1.233
 8298SOL    HW225794   5.935   1.680   1.200
 8299SOL     OW25795   6.676   2.767   1.908
 8299SOL    HW125796   6.592   2.819   1.896
 8299SOL    HW225797   6.728   2.805   1.984
 8300SOL     OW25798   0.353   6.128   4.905
 8300SOL    HW125799   0.366   6.157   4.810
 8300SOL    HW225800   0.345   6.209   4.963
 8301SOL     OW25801   4.258   1.744   1.777
 8301SOL    HW125802   4.271   1.812   1.705
 8301SOL    HW225803   4.231   1.789   1.862
 8302SOL     OW25804   5.895   6.046   7.013
 8302SOL    HW125805   5.983   6.091   7.000
 8302SOL    HW225806   5.890   5.963   6.957
 8303SOL     OW25807   6.203   0.546   4.229
 8303SOL    HW125808   6.169   0.622   4.285
 8303SOL    HW225809   6.131   0.476   4.222
 8304SOL     OW25810   0.507   3.390   0.565
 8304SOL    HW125811   0.533   3.388   0.469
 8304SOL    HW225812   0.500   3.485   0.596
 8305SOL     OW25813   4.387   5.226   4.437
 8305SOL    HW125814   4.387   5.303   4.373
 8305SOL    HW225815   4.330   5.152   4.400
 8306SOL     OW25816   6.834   2.935   5.774
 8306SOL    HW125817   6.913   2.971   5.725
 8306SOL    HW225818   6.848   2.839   5.796
 8307SOL     OW25819   3.666   5.211   1.208
 8307SOL    HW125820   3.626   5.297   1.175
 8307SOL    HW225821   3.669   5.145   1.133
 8308SOL     OW25822   3.861   5.412   1.272
 8308SOL    HW125823   3.907   5.412   1.183
 8308SOL    HW225824   3.801   5.332   1.278
 8309SOL     OW25825   6.157   5.146   4.190
 8309SOL    HW125826   6.113   5.205   4.259
 8309SOL    HW225827   6.253   5.173   4.181
 8310SOL     OW25828   0.627   4.580   0.921
 8310SOL    HW125829   0.685   4.500   0.904
 8310SOL    HW225830   0.566   4.594   0.842
 8311SOL     OW25831   0.776   1.432   4.180
 8311SOL    HW125832   0.681   1.442   4.208
 8311SOL    HW225833   0.827   1.513   4.208
 8312SOL     OW25834   4.860   0.018   0.478
 8312SOL    HW125835   4.939   7.001   0.434
 8312SOL    HW225836   4.845   0.109   0.440
 8313SOL     OW25837   4.904   0.659   2.140
 8313SOL    HW125838   4.864   0.651   2.231
 8313SOL    HW225839   4.946   0.749   2.130
 8314SOL     OW25840   4.272   0.588   0.757
 8314SOL    HW125841   4.272   0.556   0.662
 8314SOL    HW225842   4.366   0.608   0.785
 8315SOL     OW25843   4.076   3.491   1.131
 8315SOL    HW125844   4.053   3.419   1.065
 8315SOL    HW225845   4.000   3.504   1.194
 8316SOL     OW25846   0.369   2.077   2.016
 8316SOL    HW125847   0.371   2.176   2.030
 8316SOL    HW225848   0.460   2.045   1.990
 8317SOL     OW25849   2.207   2.379   2.930
 8317SOL    HW125850   2.304   2.380   2.954
 8317SOL    HW225851   2.178   2.470   2.902
 8318SOL     OW25852   4.424   1.349   4.531
 8318SOL    HW125853   4.523   1.337   4.517
 8318SOL    HW225854   4.381   1.374   4.444
 8319SOL     OW25855   2.101   1.261   6.374
 8319SOL    HW125856   2.121   1.306   6.287
 8319SOL    HW225857   2.141   1.314   6.449
 8320SOL     OW25858   3.099   3.230   1.443
 8320SOL    HW125859   3.017   3.189   1.404
 8320SOL    HW225860   3.132   3.175   1.519
 8321SOL     OW25861   0.200   0.498   0.487
 8321SOL    HW125862   0.104   0.524   0.469
 8321SOL    HW225863   0.260   0.570   0.452
 8322SOL     OW25864   0.454   0.171   1.120
 8322SOL    HW125865   0.443   0.092   1.059
 8322SOL    HW225866   0.535   0.157   1.177
 8323SOL     OW25867   5.999   5.762   2.511
 8323SOL    HW125868   5.979   5.664   2.505
 8323SOL    HW225869   5.915   5.811   2.535
 8324SOL     OW25870   5.523   0.340   1.479
 8324SOL    HW125871   5.499   0.418   1.538
 8324SOL    HW225872   5.444   0.315   1.423
 8325SOL     OW25873   2.901   3.265   5.493
 8325SOL    HW125874   2.802   3.259   5.478
 8325SOL    HW225875   2.940   3.335   5.433
 8326SOL     OW25876   5.495   3.183   5.822
 8326SOL    HW125877   5.465   3.225   5.737
 8326SOL    HW225878   5.501   3.253   5.894
 8327SOL     OW25879   6.082   1.310   6.351
 8327SOL    HW125880   6.149   1.337   6.282
 8327SOL    HW225881   6.095   1.365   6.434
 8328SOL     OW25882   2.651   4.932   5.406
 8328SOL    HW125883   2.578   4.878   5.449
 8328SOL    HW225884   2.674   4.892   5.317
 8329SOL     OW25885   0.790   3.338   6.178
 8329SOL    HW125886   0.875   3.383   6.206
 8329SOL    HW225887   0.776   3.351   6.080
 8330SOL     OW25888   2.718   0.010   0.085
 8330SOL    HW125889   2.779   0.089   0.074
 8330SOL    HW225890   2.743   6.986   0.169
 8331SOL     OW25891   3.092   1.738   1.564
 8331SOL    HW125892   3.002   1.772   1.537
 8331SOL    HW225893   3.161   1.810   1.549
 8332SOL     OW25894   5.249   5.395   2.422
 8332SOL    HW125895   5.292   5.474   2.467
 8332SOL    HW225896   5.221   5.329   2.492
 8333SOL     OW25897   0.838   6.629   6.432
 8333SOL    HW125898   0.754   6.612   6.484
 8333SOL    HW225899   0.915   6.640   6.495
 8334SOL     OW25900   3.844   1.884   3.817
 8334SOL    HW125901   3.943   1.892   3.830
 8334SOL    HW225902   3.824   1.866   3.721
 8335SOL     OW25903   6.475   6.076   6.657
 8335SOL    HW125904   6.474   6.144   6.583
 8335SOL    HW225905   6.400   6.011   6.644
 8336SOL     OW25906   6.227   6.472   3.041
 8336SOL    HW125907   6.316   6.475   3.087
 8336SOL    HW225908   6.240   6.488   2.943
 8337SOL     OW25909   1.190   6.053   2.946
 8337SOL    HW125910   1.148   6.141   2.970
 8337SOL    HW225911   1.275   6.041   2.997
 8338SOL     OW25912   2.287   5.030   1.624
 8338SOL    HW125913   2.362   5.021   1.690
 8338SOL    HW225914   2.202   5.048   1.672
 8339SOL     OW25915   5.793   0.247   1.928
 8339SOL    HW125916   5.742   0.258   1.843
 8339SOL    HW225917   5.795   0.334   1.977
 8340SOL     OW25918   5.465   3.388   1.367
 8340SOL    HW125919   5.404   3.355   1.439
 8340SOL    HW225920   5.441   3.344   1.280
 8341SOL     OW25921   2.132   6.007   6.806
 8341SOL    HW125922   2.160   6.000   6.902
 8341SOL    HW225923   2.038   5.976   6.796
 8342SOL     OW25924   4.146   0.231   2.034
 8342SOL    HW125925   4.204   0.156   2.066
 8342SOL    HW225926   4.089   0.198   1.958
 8343SOL     OW25927   1.004   5.318   6.200
 8343SOL    HW125928   1.069   5.376   6.249
 8343SOL    HW225929   0.983   5.237   6.256
 8344SOL     OW25930   4.113   6.625   4.992
 8344SOL    HW125931   4.023   6.653   4.959
 8344SOL    HW225932   4.140   6.540   4.947
 8345SOL     OW25933   4.666   1.644   3.512
 8345SOL    HW125934   4.646   1.730   3.559
 8345SOL    HW225935   4.755   1.651   3.468
 8346SOL     OW25936   2.611   4.507   0.655
 8346SOL    HW125937   2.609   4.408   0.668
 8346SOL    HW225938   2.567   4.552   0.733
 8347SOL     OW25939   3.683   5.504   4.779
 8347SOL    HW125940   3.604   5.546   4.823
 8347SOL    HW225941   3.666   5.495   4.681
 8348SOL     OW25942   1.634   6.388   2.308
 8348SOL    HW125943   1.613   6.344   2.220
 8348SOL    HW225944   1.586   6.340   2.381
 8349SOL     OW25945   5.643   6.891   1.691
 8349SOL    HW125946   5.666   6.794   1.698
 8349SOL    HW225947   5.544   6.902   1.700
 8350SOL     OW25948   4.644   0.628   4.937
 8350SOL    HW125949   4.739   0.660   4.930
 8350SOL    HW225950   4.612   0.601   4.847
 8351SOL     OW25951   4.581   4.840   3.901
 8351SOL    HW125952   4.578   4.835   3.801
 8351SOL    HW225953   4.624   4.926   3.929
 8352SOL     OW25954   0.033   6.208   3.171
 8352SOL    HW125955   0.026   6.112   3.199
 8352SOL    HW225956   0.125   6.227   3.138
 8353SOL     OW25957   6.889   3.642   1.314
 8353SOL    HW125958   6.947   3.717   1.281
 8353SOL    HW225959   6.841   3.671   1.396
 8354SOL     OW25960   3.733   6.861   6.773
 8354SOL    HW125961   3.795   6.853   6.695
 8354SOL    HW225962   3.746   6.950   6.817
 8355SOL     OW25963   3.097   0.825   6.689
 8355SOL    HW125964   3.112   0.739   6.641
 8355SOL    HW225965   3.010   0.865   6.659
 8356SOL     OW25966   1.766   6.483   0.805
 8356SOL    HW125967   1.804   6.576   0.811
 8356SOL    HW225968   1.814   6.424   0.870
 8357SOL     OW25969   3.736   0.490   5.358
 8357SOL    HW125970   3.665   0.486   5.428
 8357SOL    HW225971   3.695   0.485   5.268
 8358SOL     OW25972   1.207   3.798   5.222
 8358SOL    HW125973   1.286   3.737   5.223
 8358SOL    HW225974   1.131   3.753   5.174
 8359SOL     OW25975   2.620   6.706   5.094
 8359SOL    HW125976   2.564   6.689   5.013
 8359SOL    HW225977   2.585   6.786   5.142
 8360SOL     OW25978   3.773   6.054   0.792
 8360SOL    HW125979   3.683   6.045   0.835
 8360SOL    HW225980   3.826   6.123   0.841
 8361SOL     OW25981   2.674   0.057   3.030
 8361SOL    HW125982   2.769   0.042   3.053
 8361SOL    HW225983   2.630   6.996   3.007
 8362SOL     OW25984   3.221   2.062   1.076
 8362SOL    HW125985   3.278   2.038   1.154
 8362SOL    HW225986   3.225   2.161   1.061
 8363SOL     OW25987   0.573   2.625   6.967
 8363SOL    HW125988   0.508   2.556   6.934
 8363SOL    HW225989   0.523   2.702   7.007
 8364SOL     OW25990   0.272   3.094   2.475
 8364SOL    HW125991   0.258   3.000   2.443
 8364SOL    HW225992   0.328   3.143   2.408
 8365SOL     OW25993   2.249   3.901   1.834
 8365SOL    HW125994   2.208   3.873   1.921
 8365SOL    HW225995   2.283   3.820   1.786
 8366SOL     OW25996   2.450   5.963   2.232
 8366SOL    HW125997   2.401   6.026   2.291
 8366SOL    HW225998   2.391   5.937   2.155
 8367SOL     OW25999   4.159   6.201   4.009
 8367SOL    HW126000   4.163   6.291   4.051
 8367SOL    HW226001   4.064   6.170   4.005
 8368SOL     OW26002   2.360   6.717   6.152
 8368SOL    HW126003   2.356   6.694   6.249
 8368SOL    HW226004   2.303   6.654   6.100
 8369SOL     OW26005   1.857   6.742   6.496
 8369SOL    HW126006   1.957   6.736   6.490
 8369SOL    HW226007   1.818   6.706   6.411
 8370SOL     OW26008   2.578   2.299   5.218
 8370SOL    HW126009   2.599   2.389   5.257
 8370SOL    HW226010   2.662   2.257   5.185
 8371SOL     OW26011   2.009   4.612   1.395
 8371SOL    HW126012   2.106   4.616   1.419
 8371SOL    HW226013   1.988   4.682   1.328
 8372SOL     OW26014   0.375   5.283   2.823
 8372SOL    HW126015   0.413   5.332   2.901
 8372SOL    HW226016   0.300   5.225   2.853
 8373SOL     OW26017   1.299   0.423   3.857
 8373SOL    HW126018   1.304   0.523   3.855
 8373SOL    HW226019   1.343   0.386   3.774
 8374SOL     OW26020   0.057   0.796   6.010
 8374SOL    HW126021   0.087   0.889   5.988
 8374SOL    HW226022   0.127   0.751   6.065
 8375SOL     OW26023   3.765   0.091   6.024
 8375SOL    HW126024   3.674   0.060   6.052
 8375SOL    HW226025   3.758   0.140   5.937
 8376SOL     OW26026   1.877   0.521   4.006
 8376SOL    HW126027   1.818   0.599   3.984
 8376SOL    HW226028   1.893   0.467   3.924
 8377SOL     OW26029   5.519   5.855   1.484
 8377SOL    HW126030   5.555   5.936   1.530
 8377SOL    HW226031   5.578   5.777   1.504
 8378SOL     OW26032   4.174   5.014   2.673
 8378SOL    HW126033   4.221   5.083   2.617
 8378SOL    HW226034   4.199   5.027   2.769
 8379SOL     OW26035   6.256   2.400   1.497
 8379SOL    HW126036   6.343   2.368   1.458
 8379SOL    HW226037   6.271   2.483   1.550
 8380SOL     OW26038   6.880   0.894   2.454
 8380SOL    HW126039   6.855   0.834   2.530
 8380SOL    HW226040   6.940   0.967   2.488
 8381SOL     OW26041   0.158   3.670   5.242
 8381SOL    HW126042   0.065   3.689   5.208
 8381SOL    HW226043   0.173   3.571   5.242
 8382SOL     OW26044   2.166   0.562   2.172
 8382SOL    HW126045   2.236   0.582   2.103
 8382SOL    HW226046   2.111   0.644   2.188
 8383SOL     OW26047   2.603   0.228   5.990
 8383SOL    HW126048   2.691   0.273   5.971
 8383SOL    HW226049   2.591   0.219   6.088
 8384SOL     OW26050   0.334   0.397   0.711
 8384SOL    HW126051   0.253   0.370   0.763
 8384SOL    HW226052   0.306   0.431   0.622
 8385SOL     OW26053   6.184   2.148   1.579
 8385SOL    HW126054   6.185   2.239   1.538
 8385SOL    HW226055   6.256   2.142   1.648
 8386SOL     OW26056   1.162   4.627   2.016
 8386SOL    HW126057   1.074   4.584   1.998
 8386SOL    HW226058   1.212   4.574   2.084
 8387SOL     OW26059   1.670   1.193   2.134
 8387SOL    HW126060   1.602   1.192   2.061
 8387SOL    HW226061   1.752   1.239   2.102
 8388SOL     OW26062   1.843   6.031   0.056
 8388SOL    HW126063   1.850   5.939   0.018
 8388SOL    HW226064   1.768   6.034   0.122
 8389SOL     OW26065   6.092   3.791   2.930
 8389SOL    HW126066   6.156   3.740   2.873
 8389SOL    HW226067   6.000   3.751   2.920
 8390SOL     OW26068   4.207   0.504   6.334
 8390SOL    HW126069   4.173   0.509   6.240
 8390SOL    HW226070   4.235   0.595   6.365
 8391SOL     OW26071   6.482   5.149   1.004
 8391SOL    HW126072   6.574   5.154   0.964
 8391SOL    HW226073   6.426   5.223   0.967
 8392SOL     OW26074   0.001   3.727   4.314
 8392SOL    HW126075   6.950   3.672   4.349
 8392SOL    HW226076   7.016   3.740   4.216
 8393SOL     OW26077   6.343   0.968   2.628
 8393SOL    HW126078   6.261   0.954   2.573
 8393SOL    HW226079   6.415   1.008   2.571
 8394SOL     OW26080   6.312   2.767   1.182
 8394SOL    HW126081   6.253   2.720   1.248
 8394SOL    HW226082   6.304   2.722   1.093
 8395SOL     OW26083   2.550   6.529   5.473
 8395SOL    HW126084   2.624   6.554   5.536
 8395SOL    HW226085   2.465   6.518   5.525
 8396SOL     OW26086   4.847   4.914   3.550
 8396SOL    HW126087   4.902   4.941   3.629
 8396SOL    HW226088   4.883   4.959   3.468
 8397SOL     OW26089   1.255   0.797   2.650
 8397SOL    HW126090   1.320   0.721   2.650
 8397SOL    HW226091   1.163   0.763   2.666
 8398SOL     OW26092   4.576   2.643   6.143
 8398SOL    HW126093   4.623   2.731   6.144
 8398SOL    HW226094   4.493   2.649   6.200
 8399SOL     OW26095   6.482   6.981   6.779
 8399SOL    HW126096   6.394   6.943   6.804
 8399SOL    HW226097   6.555   6.931   6.827
 8400SOL     OW26098   2.232   1.879   4.222
 8400SOL    HW126099   2.307   1.945   4.220
 8400SOL    HW226100   2.223   1.836   4.133
 8401SOL     OW26101   2.074   1.472   5.181
 8401SOL    HW126102   2.005   1.526   5.228
 8401SOL    HW226103   2.118   1.527   5.110
 8402SOL     OW26104   5.306   1.793   6.629
 8402SOL    HW126105   5.270   1.852   6.556
 8402SOL    HW226106   5.267   1.822   6.716
 8403SOL     OW26107   0.239   3.873   4.319
 8403SOL    HW126108   0.146   3.837   4.318
 8403SOL    HW226109   0.262   3.910   4.229
 8404SOL     OW26110   3.586   6.895   5.785
 8404SOL    HW126111   3.615   6.799   5.789
 8404SOL    HW226112   3.631   6.940   5.708
 8405SOL     OW26113   2.728   1.244   5.555
 8405SOL    HW126114   2.678   1.222   5.638
 8405SOL    HW226115   2.682   1.203   5.476
 8406SOL     OW26116   4.235   0.602   0.392
 8406SOL    HW126117   4.228   0.587   0.293
 8406SOL    HW226118   4.303   0.538   0.430
 8407SOL     OW26119   4.191   6.572   3.493
 8407SOL    HW126120   4.277   6.621   3.478
 8407SOL    HW226121   4.209   6.483   3.535
 8408SOL     OW26122   5.449   4.165   1.136
 8408SOL    HW126123   5.388   4.086   1.138
 8408SOL    HW226124   5.475   4.185   1.041
 8409SOL     OW26125   4.832   2.128   3.382
 8409SOL    HW126126   4.871   2.220   3.386
 8409SOL    HW226127   4.905   2.062   3.365
 8410SOL     OW26128   6.207   0.915   1.628
 8410SOL    HW126129   6.267   0.994   1.619
 8410SOL    HW226130   6.112   0.946   1.638
 8411SOL     OW26131   0.505   6.340   0.829
 8411SOL    HW126132   0.421   6.367   0.782
 8411SOL    HW226133   0.492   6.250   0.870
 8412SOL     OW26134   3.694   2.813   1.248
 8412SOL    HW126135   3.747   2.895   1.269
 8412SOL    HW226136   3.638   2.788   1.327
 8413SOL     OW26137   4.785   5.980   6.319
 8413SOL    HW126138   4.804   6.047   6.391
 8413SOL    HW226139   4.732   5.904   6.358
 8414SOL     OW26140   2.756   0.163   3.656
 8414SOL    HW126141   2.725   0.258   3.663
 8414SOL    HW226142   2.765   0.124   3.748
 8415SOL     OW26143   0.686   6.017   4.585
 8415SOL    HW126144   0.716   6.025   4.680
 8415SOL    HW226145   0.762   5.985   4.528
 8416SOL     OW26146   6.445   1.692   4.110
 8416SOL    HW126147   6.486   1.608   4.075
 8416SOL    HW226148   6.441   1.688   4.209
 8417SOL     OW26149   0.965   3.292   5.715
 8417SOL    HW126150   0.886   3.338   5.675
 8417SOL    HW226151   1.048   3.323   5.669
 8418SOL     OW26152   6.727   5.557   1.744
 8418SOL    HW126153   6.631   5.582   1.738
 8418SOL    HW226154   6.764   5.547   1.652
 8419SOL     OW26155   5.306   0.704   2.425
 8419SOL    HW126156   5.388   0.686   2.480
 8419SOL    HW226157   5.334   0.737   2.334
 8420SOL     OW26158   3.704   0.201   1.492
 8420SOL    HW126159   3.627   0.264   1.502
 8420SOL    HW226160   3.732   0.168   1.582
 8421SOL     OW26161   3.227   4.976   0.363
 8421SOL    HW126162   3.133   4.977   0.329
 8421SOL    HW226163   3.238   4.900   0.427
 8422SOL     OW26164   4.651   1.177   2.176
 8422SOL    HW126165   4.638   1.246   2.247
 8422SOL    HW226166   4.629   1.215   2.086
 8423SOL     OW26167   4.156   4.193   6.163
 8423SOL    HW126168   4.074   4.138   6.181
 8423SOL    HW226169   4.146   4.283   6.206
 8424SOL     OW26170   1.957   2.328   3.083
 8424SOL    HW126171   2.027   2.351   3.015
 8424SOL    HW226172   1.870   2.314   3.037
 8425SOL     OW26173   4.285   3.833   6.065
 8425SOL    HW126174   4.360   3.897   6.052
 8425SOL    HW226175   4.203   3.867   6.019
 8426SOL     OW26176   3.373   3.422   2.768
 8426SOL    HW126177   3.376   3.347   2.834
 8426SOL    HW226178   3.463   3.434   2.727
 8427SOL     OW26179   3.380   4.108   3.689
 8427SOL    HW126180   3.355   4.142   3.599
 8427SOL    HW226181   3.466   4.150   3.719
 8428SOL     OW26182   0.103   6.252   1.420
 8428SOL    HW126183   0.076   6.175   1.478
 8428SOL    HW226184   0.029   6.319   1.418
 8429SOL     OW26185   1.534   5.478   5.498
 8429SOL    HW126186   1.435   5.479   5.514
 8429SOL    HW226187   1.580   5.525   5.573
 8430SOL     OW26188   3.757   4.915   3.658
 8430SOL    HW126189   3.714   4.922   3.569
 8430SOL    HW226190   3.812   4.831   3.662
 8431SOL     OW26191   4.242   3.729   6.997
 8431SOL    HW126192   4.243   3.706   0.069
 8431SOL    HW226193   4.228   3.646   6.943
 8432SOL     OW26194   6.202   5.669   5.360
 8432SOL    HW126195   6.106   5.696   5.361
 8432SOL    HW226196   6.209   5.572   5.338
 8433SOL     OW26197   3.979   3.298   0.295
 8433SOL    HW126198   3.921   3.216   0.298
 8433SOL    HW226199   3.925   3.377   0.322
 8434SOL     OW26200   2.362   0.175   4.351
 8434SOL    HW126201   2.402   0.101   4.299
 8434SOL    HW226202   2.284   0.141   4.404
 8435SOL     OW26203   5.511   0.240   2.389
 8435SOL    HW126204   5.556   0.250   2.301
 8435SOL    HW226205   5.469   0.149   2.395
 8436SOL     OW26206   3.377   6.662   3.558
 8436SOL    HW126207   3.373   6.621   3.467
 8436SOL    HW226208   3.294   6.716   3.574
 8437SOL     OW26209   2.495   2.278   3.063
 8437SOL    HW126210   2.586   2.269   3.022
 8437SOL    HW226211   2.440   2.198   3.039
 8438SOL     OW26212   2.352   4.670   3.319
 8438SOL    HW126213   2.406   4.718   3.388
 8438SOL    HW226214   2.393   4.685   3.229
 8439SOL     OW26215   6.171   4.383   2.350
 8439SOL    HW126216   6.111   4.419   2.421
 8439SOL    HW226217   6.191   4.456   2.284
 8440SOL     OW26218   3.322   2.061   3.207
 8440SOL    HW126219   3.274   2.081   3.122
 8440SOL    HW226220   3.335   1.962   3.214
 8441SOL     OW26221   5.827   6.367   6.786
 8441SOL    HW126222   5.811   6.429   6.709
 8441SOL    HW226223   5.918   6.326   6.778
 8442SOL     OW26224   3.812   1.542   5.516
 8442SOL    HW126225   3.738   1.591   5.469
 8442SOL    HW226226   3.817   1.449   5.480
 8443SOL     OW26227   2.294   5.194   3.519
 8443SOL    HW126228   2.230   5.269   3.498
 8443SOL    HW226229   2.387   5.222   3.495
 8444SOL     OW26230   3.441   6.556   3.815
 8444SOL    HW126231   3.419   6.594   3.725
 8444SOL    HW226232   3.437   6.628   3.884
 8445SOL     OW26233   2.603   0.188   0.747
 8445SOL    HW126234   2.586   0.240   0.663
 8445SOL    HW226235   2.600   0.250   0.826
 8446SOL     OW26236   6.500   5.189   5.769
 8446SOL    HW126237   6.562   5.216   5.696
 8446SOL    HW226238   6.407   5.181   5.732
 8447SOL     OW26239   4.208   1.217   1.705
 8447SOL    HW126240   4.144   1.162   1.651
 8447SOL    HW226241   4.171   1.308   1.720
 8448SOL     OW26242   4.490   6.240   3.076
 8448SOL    HW126243   4.507   6.200   3.166
 8448SOL    HW226244   4.475   6.338   3.086
 8449SOL     OW26245   0.077   3.368   3.280
 8449SOL    HW126246   0.121   3.341   3.365
 8449SOL    HW226247   0.123   3.323   3.203
 8450SOL     OW26248   0.996   0.785   1.400
 8450SOL    HW126249   1.056   0.720   1.446
 8450SOL    HW226250   1.020   0.791   1.303
 8451SOL     OW26251   3.500   1.244   0.106
 8451SOL    HW126252   3.539   1.275   0.193
 8451SOL    HW226253   3.425   1.181   0.124
 8452SOL     OW26254   6.288   3.117   3.867
 8452SOL    HW126255   6.310   3.069   3.782
 8452SOL    HW226256   6.343   3.200   3.873
 8453SOL     OW26257   0.284   5.570   0.655
 8453SOL    HW126258   0.243   5.627   0.726
 8453SOL    HW226259   0.352   5.624   0.604
 8454SOL     OW26260   0.427   5.399   0.791
 8454SOL    HW126261   0.382   5.464   0.730
 8454SOL    HW226262   0.358   5.353   0.847
 8455SOL     OW26263   0.495   1.661   2.668
 8455SOL    HW126264   0.488   1.760   2.670
 8455SOL    HW226265   0.589   1.635   2.646
 8456SOL     OW26266   4.631   6.887   3.364
 8456SOL    HW126267   4.704   6.903   3.297
 8456SOL    HW226268   4.605   6.974   3.406
 8457SOL     OW26269   6.497   5.940   4.044
 8457SOL    HW126270   6.558   5.956   3.966
 8457SOL    HW226271   6.517   6.006   4.116
 8458SOL     OW26272   2.450   0.682   0.093
 8458SOL    HW126273   2.420   0.587   0.092
 8458SOL    HW226274   2.549   0.686   0.085
 8459SOL     OW26275   2.547   5.772   2.427
 8459SOL    HW126276   2.629   5.783   2.483
 8459SOL    HW226277   2.538   5.850   2.365
 8460SOL     OW26278   4.751   4.147   5.189
 8460SOL    HW126279   4.676   4.178   5.130
 8460SOL    HW226280   4.838   4.158   5.141
 8461SOL     OW26281   0.718   2.803   4.544
 8461SOL    HW126282   0.655   2.877   4.522
 8461SOL    HW226283   0.750   2.760   4.459
 8462SOL     OW26284   2.430   2.499   6.708
 8462SOL    HW126285   2.337   2.501   6.671
 8462SOL    HW226286   2.440   2.421   6.770
 8463SOL     OW26287   6.945   0.047   1.557
 8463SOL    HW126288   6.866   0.051   1.619
 8463SOL    HW226289   0.003   0.036   1.611
 8464SOL     OW26290   4.981   4.442   4.544
 8464SOL    HW126291   5.023   4.489   4.466
 8464SOL    HW226292   4.945   4.509   4.608
 8465SOL     OW26293   1.217   2.608   0.571
 8465SOL    HW126294   1.246   2.619   0.476
 8465SOL    HW226295   1.133   2.554   0.574
 8466SOL     OW26296   0.335   6.412   3.915
 8466SOL    HW126297   0.428   6.376   3.922
 8466SOL    HW226298   0.307   6.410   3.819
 8467SOL     OW26299   2.956   5.916   0.621
 8467SOL    HW126300   2.919   6.009   0.623
 8467SOL    HW226301   3.021   5.908   0.546
 8468SOL     OW26302   3.216   1.663   0.160
 8468SOL    HW126303   3.243   1.727   0.232
 8468SOL    HW226304   3.226   1.569   0.193
 8469SOL     OW26305   3.399   2.706   0.019
 8469SOL    HW126306   3.428   2.796   7.013
 8469SOL    HW226307   3.300   2.699   0.016
 8470SOL     OW26308   2.199   3.557   0.584
 8470SOL    HW126309   2.273   3.490   0.577
 8470SOL    HW226310   2.228   3.644   0.544
 8471SOL     OW26311   3.028   1.316   2.604
 8471SOL    HW126312   3.087   1.262   2.664
 8471SOL    HW226313   3.040   1.285   2.510
 8472SOL     OW26314   0.289   0.141   3.872
 8472SOL    HW126315   0.370   0.087   3.848
 8472SOL    HW226316   0.252   0.184   3.789
 8473SOL     OW26317   0.033   5.592   6.923
 8473SOL    HW126318   7.000   5.517   6.953
 8473SOL    HW226319   0.017   5.673   6.980
 8474SOL     OW26320   3.447   2.932   2.250
 8474SOL    HW126321   3.386   2.984   2.190
 8474SOL    HW226322   3.407   2.927   2.341
 8475SOL     OW26323   0.237   1.046   3.180
 8475SOL    HW126324   0.334   1.040   3.203
 8475SOL    HW226325   0.215   1.140   3.151
 8476SOL     OW26326   6.264   1.023   1.065
 8476SOL    HW126327   6.351   1.023   1.015
 8476SOL    HW226328   6.221   0.933   1.057
 8477SOL     OW26329   3.768   5.962   1.492
 8477SOL    HW126330   3.843   5.931   1.550
 8477SOL    HW226331   3.763   6.062   1.493
 8478SOL     OW26332   1.741   0.397   6.305
 8478SOL    HW126333   1.835   0.428   6.290
 8478SOL    HW226334   1.679   0.474   6.297
 8479SOL     OW26335   6.530   2.262   0.635
 8479SOL    HW126336   6.526   2.211   0.721
 8479SOL    HW226337   6.457   2.231   0.574
 8480SOL     OW26338   3.096   1.024   0.422
 8480SOL    HW126339   3.005   1.044   0.457
 8480SOL    HW226340   3.127   0.936   0.459
 8481SOL     OW26341   4.435   1.535   3.793
 8481SOL    HW126342   4.528   1.538   3.830
 8481SOL    HW226343   4.436   1.488   3.705
 8482SOL     OW26344   2.994   0.037   2.306
 8482SOL    HW126345   3.064   0.085   2.253
 8482SOL    HW226346   3.004   6.963   2.294
 8483SOL     OW26347   4.093   5.599   1.635
 8483SOL    HW126348   4.037   5.517   1.639
 8483SOL    HW226349   4.155   5.601   1.713
 8484SOL     OW26350   6.551   5.051   3.196
 8484SOL    HW126351   6.558   5.051   3.296
 8484SOL    HW226352   6.637   5.083   3.156
 8485SOL     OW26353   2.941   3.342   6.421
 8485SOL    HW126354   2.865   3.400   6.390
 8485SOL    HW226355   2.911   3.246   6.422
 8486SOL     OW26356   5.140   1.560   3.106
 8486SOL    HW126357   5.051   1.600   3.084
 8486SOL    HW226358   5.210   1.631   3.107
 8487SOL     OW26359   5.806   0.418   0.813
 8487SOL    HW126360   5.897   0.390   0.846
 8487SOL    HW226361   5.804   0.517   0.801
 8488SOL     OW26362   5.643   4.943   4.980
 8488SOL    HW126363   5.596   5.030   4.994
 8488SOL    HW226364   5.741   4.955   4.994
 8489SOL     OW26365   6.449   0.553   1.436
 8489SOL    HW126366   6.374   0.620   1.430
 8489SOL    HW226367   6.431   0.490   1.511
 8490SOL     OW26368   4.348   6.137   3.813
 8490SOL    HW126369   4.343   6.038   3.798
 8490SOL    HW226370   4.286   6.162   3.887
 8491SOL     OW26371   2.073   0.301   1.773
 8491SOL    HW126372   2.067   0.205   1.803
 8491SOL    HW226373   2.059   0.306   1.674
 8492SOL     OW26374   4.527   3.986   6.099
 8492SOL    HW126375   4.551   3.947   6.188
 8492SOL    HW226376   4.560   4.080   6.094
 8493SOL     OW26377   3.199   1.833   6.399
 8493SOL    HW126378   3.248   1.915   6.428
 8493SOL    HW226379   3.133   1.857   6.328
 8494SOL     OW26380   2.108   4.764   0.120
 8494SOL    HW126381   2.157   4.725   0.198
 8494SOL    HW226382   2.096   4.695   0.049
 8495SOL     OW26383   6.977   3.424   0.288
 8495SOL    HW126384   6.959   3.404   0.192
 8495SOL    HW226385   6.949   3.517   0.309
 8496SOL     OW26386   0.666   1.996   1.979
 8496SOL    HW126387   0.650   1.907   1.937
 8496SOL    HW226388   0.663   2.067   1.909
 8497SOL     OW26389   6.569   0.129   4.518
 8497SOL    HW126390   6.639   0.138   4.448
 8497SOL    HW226391   6.479   0.149   4.478
 8498SOL     OW26392   0.512   6.117   2.766
 8498SOL    HW126393   0.597   6.083   2.806
 8498SOL    HW226394   0.532   6.199   2.712
 8499SOL     OW26395   2.266   5.579   6.467
 8499SOL    HW126396   2.205   5.629   6.528
 8499SOL    HW226397   2.253   5.612   6.373
 8500SOL     OW26398   1.772   1.032   5.493
 8500SOL    HW126399   1.761   1.026   5.593
 8500SOL    HW226400   1.868   1.014   5.470
 8501SOL     OW26401   1.617   2.560   0.610
 8501SOL    HW126402   1.650   2.536   0.701
 8501SOL    HW226403   1.641   2.487   0.546
 8502SOL     OW26404   1.984   4.829   1.213
 8502SOL    HW126405   1.914   4.806   1.146
 8502SOL    HW226406   2.075   4.823   1.170
 8503SOL     OW26407   1.249   5.821   2.639
 8503SOL    HW126408   1.234   5.861   2.549
 8503SOL    HW226409   1.171   5.843   2.699
 8504SOL     OW26410   1.847   6.563   3.773
 8504SOL    HW126411   1.855   6.472   3.813
 8504SOL    HW226412   1.853   6.632   3.846
 8505SOL     OW26413   4.965   3.760   3.614
 8505SOL    HW126414   4.867   3.767   3.633
 8505SOL    HW226415   5.015   3.757   3.701
 8506SOL     OW26416   0.405   0.475   1.077
 8506SOL    HW126417   0.449   0.386   1.080
 8506SOL    HW226418   0.474   0.547   1.065
 8507SOL     OW26419   3.238   0.659   5.494
 8507SOL    HW126420   3.208   0.566   5.470
 8507SOL    HW226421   3.180   0.695   5.567
 8508SOL     OW26422   0.288   2.306   4.538
 8508SOL    HW126423   0.279   2.207   4.522
 8508SOL    HW226424   0.330   2.349   4.458
 8509SOL     OW26425   5.370   1.165   3.941
 8509SOL    HW126426   5.398   1.217   4.022
 8509SOL    HW226427   5.451   1.131   3.893
 8510SOL     OW26428   5.393   4.439   3.011
 8510SOL    HW126429   5.433   4.414   2.923
 8510SOL    HW226430   5.294   4.421   3.009
 8511SOL     OW26431   5.722   3.461   1.344
 8511SOL    HW126432   5.739   3.518   1.264
 8511SOL    HW226433   5.626   3.432   1.344
 8512SOL     OW26434   3.079   2.264   6.927
 8512SOL    HW126435   3.148   2.327   6.961
 8512SOL    HW226436   3.107   2.170   6.947
 8513SOL     OW26437   4.597   3.933   1.214
 8513SOL    HW126438   4.524   3.901   1.275
 8513SOL    HW226439   4.655   3.856   1.188
 8514SOL     OW26440   2.747   2.220   3.745
 8514SOL    HW126441   2.680   2.247   3.814
 8514SOL    HW226442   2.741   2.122   3.728
 8515SOL     OW26443   6.247   0.710   6.903
 8515SOL    HW126444   6.220   0.766   6.825
 8515SOL    HW226445   6.172   0.706   6.969
 8516SOL     OW26446   6.691   2.493   1.868
 8516SOL    HW126447   6.666   2.492   1.771
 8516SOL    HW226448   6.689   2.588   1.901
 8517SOL     OW26449   2.057   2.325   5.719
 8517SOL    HW126450   2.150   2.343   5.688
 8517SOL    HW226451   2.042   2.227   5.726
 8518SOL     OW26452   5.028   4.656   6.016
 8518SOL    HW126453   4.935   4.683   6.042
 8518SOL    HW226454   5.047   4.565   6.052
 8519SOL     OW26455   1.185   5.398   1.156
 8519SOL    HW126456   1.097   5.353   1.170
 8519SOL    HW226457   1.171   5.495   1.141
 8520SOL     OW26458   2.836   2.601   6.706
 8520SOL    HW126459   2.805   2.660   6.631
 8520SOL    HW226460   2.933   2.617   6.723
 8521SOL     OW26461   2.159   5.108   5.794
 8521SOL    HW126462   2.121   5.122   5.703
 8521SOL    HW226463   2.238   5.167   5.806
 8522SOL     OW26464   0.877   6.698   1.485
 8522SOL    HW126465   0.941   6.688   1.409
 8522SOL    HW226466   0.927   6.703   1.571
 8523SOL     OW26467   2.300   6.202   0.112
 8523SOL    HW126468   2.284   6.296   0.083
 8523SOL    HW226469   2.215   6.149   0.107
 8524SOL     OW26470   0.641   3.247   5.634
 8524SOL    HW126471   0.567   3.194   5.592
 8524SOL    HW226472   0.718   3.187   5.654
 8525SOL     OW26473   6.139   4.809   1.827
 8525SOL    HW126474   6.040   4.822   1.834
 8525SOL    HW226475   6.160   4.711   1.821
 8526SOL     OW26476   3.496   6.091   0.804
 8526SOL    HW126477   3.527   6.185   0.815
 8526SOL    HW226478   3.498   6.065   0.708
 8527SOL     OW26479   3.182   0.913   0.132
 8527SOL    HW126480   3.148   0.854   0.059
 8527SOL    HW226481   3.119   0.908   0.210
 8528SOL     OW26482   3.978   1.217   0.344
 8528SOL    HW126483   3.990   1.182   0.437
 8528SOL    HW226484   3.911   1.161   0.296
 8529SOL     OW26485   1.109   0.537   0.542
 8529SOL    HW126486   1.020   0.577   0.522
 8529SOL    HW226487   1.096   0.447   0.585
 8530SOL     OW26488   4.119   3.748   5.176
 8530SOL    HW126489   4.121   3.765   5.078
 8530SOL    HW226490   4.201   3.696   5.202
 8531SOL     OW26491   6.769   5.164   2.790
 8531SOL    HW126492   6.839   5.118   2.735
 8531SOL    HW226493   6.797   5.259   2.806
 8532SOL     OW26494   4.054   5.858   4.627
 8532SOL    HW126495   4.079   5.883   4.534
 8532SOL    HW226496   4.041   5.759   4.634
 8533SOL     OW26497   2.086   5.773   0.190
 8533SOL    HW126498   2.146   5.705   0.148
 8533SOL    HW226499   2.006   5.728   0.229
 8534SOL     OW26500   5.239   2.407   4.363
 8534SOL    HW126501   5.179   2.332   4.391
 8534SOL    HW226502   5.322   2.370   4.321
 8535SOL     OW26503   5.824   1.335   3.572
 8535SOL    HW126504   5.843   1.370   3.481
 8535SOL    HW226505   5.868   1.245   3.583
 8536SOL     OW26506   0.255   1.569   4.712
 8536SOL    HW126507   0.229   1.592   4.806
 8536SOL    HW226508   0.219   1.638   4.650
 8537SOL     OW26509   5.489   0.691   3.470
 8537SOL    HW126510   5.471   0.668   3.566
 8537SOL    HW226511   5.449   0.620   3.411
 8538SOL     OW26512   2.011   1.116   0.163
 8538SOL    HW126513   2.048   1.063   0.239
 8538SOL    HW226514   1.946   1.060   0.111
 8539SOL     OW26515   6.642   1.272   3.063
 8539SOL    HW126516   6.661   1.363   3.028
 8539SOL    HW226517   6.558   1.274   3.117
 8540SOL     OW26518   5.853   0.661   6.540
 8540SOL    HW126519   5.936   0.695   6.583
 8540SOL    HW226520   5.846   0.562   6.552
 8541SOL     OW26521   3.252   2.095   3.698
 8541SOL    HW126522   3.298   2.099   3.610
 8541SOL    HW226523   3.201   2.180   3.713
 8542SOL     OW26524   3.721   5.333   6.159
 8542SOL    HW126525   3.731   5.238   6.128
 8542SOL    HW226526   3.745   5.394   6.084
 8543SOL     OW26527   2.351   1.804   1.453
 8543SOL    HW126528   2.337   1.903   1.448
 8543SOL    HW226529   2.365   1.767   1.361
 8544SOL     OW26530   5.630   3.459   4.447
 8544SOL    HW126531   5.613   3.365   4.477
 8544SOL    HW226532   5.690   3.505   4.512
 8545SOL     OW26533   4.183   0.426   5.631
 8545SOL    HW126534   4.233   0.511   5.615
 8545SOL    HW226535   4.185   0.369   5.549
 8546SOL     OW26536   5.695   2.120   4.635
 8546SOL    HW126537   5.726   2.091   4.725
 8546SOL    HW226538   5.762   2.091   4.566
 8547SOL     OW26539   0.381   6.474   5.664
 8547SOL    HW126540   0.304   6.409   5.667
 8547SOL    HW226541   0.348   6.564   5.636
 8548SOL     OW26542   6.353   2.444   5.292
 8548SOL    HW126543   6.276   2.480   5.344
 8548SOL    HW226544   6.406   2.381   5.349
 8549SOL     OW26545   0.671   3.313   3.959
 8549SOL    HW126546   0.730   3.242   3.920
 8549SOL    HW226547   0.722   3.399   3.966
 8550SOL     OW26548   1.697   4.734   6.912
 8550SOL    HW126549   1.737   4.803   6.852
 8550SOL    HW226550   1.769   4.689   6.965
 8551SOL     OW26551   3.962   3.774   6.008
 8551SOL    HW126552   3.914   3.801   6.092
 8551SOL    HW226553   3.959   3.675   5.998
 8552SOL     OW26554   3.055   6.591   3.659
 8552SOL    HW126555   2.998   6.668   3.629
 8552SOL    HW226556   3.090   6.610   3.751
 8553SOL     OW26557   4.906   5.061   6.189
 8553SOL    HW126558   4.881   5.100   6.278
 8553SOL    HW226559   4.825   5.025   6.144
 8554SOL     OW26560   0.789   5.277   0.047
 8554SOL    HW126561   0.843   5.220   0.108
 8554SOL    HW226562   0.849   5.322   7.006
 8555SOL     OW26563   0.802   0.042   2.948
 8555SOL    HW126564   0.855   0.105   3.005
 8555SOL    HW226565   0.839   6.975   2.956
 8556SOL     OW26566   0.951   6.716   4.072
 8556SOL    HW126567   1.037   6.668   4.053
 8556SOL    HW226568   0.897   6.721   3.989
 8557SOL     OW26569   6.407   1.165   2.370
 8557SOL    HW126570   6.484   1.159   2.434
 8557SOL    HW226571   6.441   1.159   2.276
 8558SOL     OW26572   2.573   6.170   3.234
 8558SOL    HW126573   2.612   6.169   3.326
 8558SOL    HW226574   2.475   6.151   3.239
 8559SOL     OW26575   6.427   0.677   2.282
 8559SOL    HW126576   6.468   0.742   2.346
 8559SOL    HW226577   6.361   0.620   2.331
 8560SOL     OW26578   0.108   7.014   1.758
 8560SOL    HW126579   0.120   0.088   1.758
 8560SOL    HW226580   0.193   6.971   1.727
 8561SOL     OW26581   3.569   6.048   1.801
 8561SOL    HW126582   3.603   6.142   1.806
 8561SOL    HW226583   3.642   5.985   1.829
 8562SOL     OW26584   5.026   6.174   4.898
 8562SOL    HW126585   5.024   6.185   4.998
 8562SOL    HW226586   5.085   6.098   4.874
 8563SOL     OW26587   2.684   4.031   6.943
 8563SOL    HW126588   2.601   4.057   6.895
 8563SOL    HW226589   2.724   3.950   6.900
 8564SOL     OW26590   2.616   1.370   3.105
 8564SOL    HW126591   2.550   1.440   3.076
 8564SOL    HW226592   2.575   1.280   3.094
 8565SOL     OW26593   4.703   6.712   1.866
 8565SOL    HW126594   4.747   6.746   1.949
 8565SOL    HW226595   4.716   6.778   1.792
 8566SOL     OW26596   1.202   0.634   1.508
 8566SOL    HW126597   1.239   0.554   1.461
 8566SOL    HW226598   1.269   0.669   1.573
 8567SOL     OW26599   6.943   1.779   2.388
 8567SOL    HW126600   6.897   1.860   2.425
 8567SOL    HW226601   0.011   1.774   2.423
 8568SOL     OW26602   4.769   1.259   5.750
 8568SOL    HW126603   4.704   1.227   5.681
 8568SOL    HW226604   4.720   1.281   5.834
 8569SOL     OW26605   5.029   1.693   5.501
 8569SOL    HW126606   5.075   1.719   5.416
 8569SOL    HW226607   4.934   1.669   5.482
 8570SOL     OW26608   0.681   2.651   5.305
 8570SOL    HW126609   0.779   2.629   5.308
 8570SOL    HW226610   0.666   2.741   5.347
 8571SOL     OW26611   0.595   5.033   6.327
 8571SOL    HW126612   0.499   5.044   6.304
 8571SOL    HW226613   0.615   4.936   6.341
 8572SOL     OW26614   3.063   4.976   6.573
 8572SOL    HW126615   3.149   4.962   6.623
 8572SOL    HW226616   3.032   5.070   6.586
 8573SOL     OW26617   3.194   0.133   6.581
 8573SOL    HW126618   3.200   0.170   6.674
 8573SOL    HW226619   3.139   0.049   6.582
 8574SOL     OW26620   0.274   5.408   5.949
 8574SOL    HW126621   0.286   5.394   5.851
 8574SOL    HW226622   0.314   5.330   5.999
 8575SOL     OW26623   3.321   2.458   6.105
 8575SOL    HW126624   3.279   2.378   6.062
 8575SOL    HW226625   3.288   2.467   6.199
 8576SOL     OW26626   0.976   6.372   0.250
 8576SOL    HW126627   1.074   6.377   0.267
 8576SOL    HW226628   0.959   6.314   0.170
 8577SOL     OW26629   6.714   5.315   4.075
 8577SOL    HW126630   6.711   5.405   4.119
 8577SOL    HW226631   6.795   5.266   4.105
 8578SOL     OW26632   4.464   0.487   4.627
 8578SOL    HW126633   4.515   0.572   4.614
 8578SOL    HW226634   4.527   0.409   4.624
 8579SOL     OW26635   1.528   6.401   3.891
 8579SOL    HW126636   1.541   6.495   3.921
 8579SOL    HW226637   1.484   6.401   3.801
 8580SOL     OW26638   2.144   6.905   2.356
 8580SOL    HW126639   2.149   6.838   2.282
 8580SOL    HW226640   2.234   6.946   2.371
 8581SOL     OW26641   3.592   2.937   1.592
 8581SOL    HW126642   3.544   2.972   1.512
 8581SOL    HW226643   3.682   2.981   1.599
 8582SOL     OW26644   4.252   4.628   2.196
 8582SOL    HW126645   4.205   4.637   2.284
 8582SOL    HW226646   4.192   4.661   2.123
 8583SOL     OW26647   5.791   1.008   5.914
 8583SOL    HW126648   5.784   1.076   5.841
 8583SOL    HW226649   5.746   1.043   5.996
 8584SOL     OW26650   0.485   3.669   5.994
 8584SOL    HW126651   0.417   3.599   5.974
 8584SOL    HW226652   0.444   3.760   5.980
 8585SOL     OW26653   0.166   6.895   6.115
 8585SOL    HW126654   0.218   6.845   6.046
 8585SOL    HW226655   0.155   6.990   6.087
 8586SOL     OW26656   2.538   6.819   3.819
 8586SOL    HW126657   2.621   6.874   3.829
 8586SOL    HW226658   2.511   6.817   3.723
 8587SOL     OW26659   1.644   0.452   2.511
 8587SOL    HW126660   1.646   0.544   2.472
 8587SOL    HW226661   1.633   0.384   2.438
 8588SOL     OW26662   2.456   0.689   6.699
 8588SOL    HW126663   2.436   0.741   6.782
 8588SOL    HW226664   2.555   0.683   6.687
 8589SOL     OW26665   4.826   3.028   4.625
 8589SOL    HW126666   4.899   2.960   4.629
 8589SOL    HW226667   4.746   2.994   4.674
 8590SOL     OW26668   6.524   5.883   4.388
 8590SOL    HW126669   6.609   5.864   4.436
 8590SOL    HW226670   6.447   5.858   4.446
 8591SOL     OW26671   1.554   5.402   6.315
 8591SOL    HW126672   1.543   5.442   6.224
 8591SOL    HW226673   1.474   5.345   6.335
 8592SOL     OW26674   0.079   4.208   0.106
 8592SOL    HW126675   7.025   4.164   0.063
 8592SOL    HW226676   0.120   4.145   0.173
 8593SOL     OW26677   0.974   0.142   2.692
 8593SOL    HW126678   0.911   0.150   2.770
 8593SOL    HW226679   0.955   0.214   2.626
 8594SOL     OW26680   3.646   3.241   5.219
 8594SOL    HW126681   3.681   3.282   5.134
 8594SOL    HW226682   3.579   3.170   5.197
 8595SOL     OW26683   2.173   1.756   2.732
 8595SOL    HW126684   2.196   1.784   2.639
 8595SOL    HW226685   2.212   1.667   2.751
 8596SOL     OW26686   5.910   6.016   2.858
 8596SOL    HW126687   5.995   6.015   2.806
 8596SOL    HW226688   5.872   6.108   2.860
 8597SOL     OW26689   4.581   1.883   0.989
 8597SOL    HW126690   4.505   1.902   0.926
 8597SOL    HW226691   4.545   1.871   1.081
 8598SOL     OW26692   0.081   5.613   1.574
 8598SOL    HW126693   0.035   5.700   1.554
 8598SOL    HW226694   0.013   5.545   1.600
 8599SOL     OW26695   1.017   3.169   4.102
 8599SOL    HW126696   0.997   3.163   4.200
 8599SOL    HW226697   1.073   3.091   4.075
 8600SOL     OW26698   5.511   5.250   6.578
 8600SOL    HW126699   5.437   5.182   6.577
 8600SOL    HW226700   5.478   5.335   6.538
 8601SOL     OW26701   1.158   0.573   5.121
 8601SOL    HW126702   1.097   0.507   5.077
 8601SOL    HW226703   1.128   0.666   5.100
 8602SOL     OW26704   2.421   6.144   2.765
 8602SOL    HW126705   2.323   6.121   2.762
 8602SOL    HW226706   2.458   6.123   2.855
 8603SOL     OW26707   3.301   4.531   0.039
 8603SOL    HW126708   3.280   4.525   6.967
 8603SOL    HW226709   3.274   4.446   0.084
 8604SOL     OW26710   0.037   2.638   3.208
 8604SOL    HW126711   6.970   2.669   3.188
 8604SOL    HW226712   0.050   2.634   3.307
 8605SOL     OW26713   3.347   4.972   3.995
 8605SOL    HW126714   3.278   4.906   4.025
 8605SOL    HW226715   3.368   4.956   3.898
 8606SOL     OW26716   2.407   4.532   5.574
 8606SOL    HW126717   2.497   4.554   5.612
 8606SOL    HW226718   2.401   4.433   5.557
 8607SOL     OW26719   3.482   4.867   0.672
 8607SOL    HW126720   3.523   4.950   0.710
 8607SOL    HW226721   3.394   4.888   0.632
 8608SOL     OW26722   4.195   5.009   3.212
 8608SOL    HW126723   4.138   4.938   3.170
 8608SOL    HW226724   4.291   4.985   3.202
 8609SOL     OW26725   4.488   0.518   3.698
 8609SOL    HW126726   4.415   0.543   3.762
 8609SOL    HW226727   4.557   0.590   3.696
 8610SOL     OW26728   1.537   0.892   2.795
 8610SOL    HW126729   1.484   0.902   2.710
 8610SOL    HW226730   1.632   0.920   2.778
 8611SOL     OW26731   2.172   2.652   3.678
 8611SOL    HW126732   2.209   2.743   3.658
 8611SOL    HW226733   2.238   2.601   3.733
 8612SOL     OW26734   3.056   3.102   6.992
 8612SOL    HW126735   2.964   3.121   6.959
 8612SOL    HW226736   3.050   3.056   0.056
 8613SOL     OW26737   2.673   2.428   1.857
 8613SOL    HW126738   2.745   2.405   1.923
 8613SOL    HW226739   2.583   2.413   1.899
 8614SOL     OW26740   0.477   2.896   2.805
 8614SOL    HW126741   0.403   2.945   2.759
 8614SOL    HW226742   0.557   2.894   2.745
 8615SOL     OW26743   4.849   1.695   5.280
 8615SOL    HW126744   4.779   1.680   5.210
 8615SOL    HW226745   4.908   1.614   5.287
 8616SOL     OW26746   1.860   5.244   1.147
 8616SOL    HW126747   1.927   5.318   1.156
 8616SOL    HW226748   1.797   5.246   1.225
 8617SOL     OW26749   6.395   1.253   7.003
 8617SOL    HW126750   6.350   1.208   0.056
 8617SOL    HW226751   6.331   1.318   6.962
 8618SOL     OW26752   5.543   6.629   0.891
 8618SOL    HW126753   5.640   6.607   0.885
 8618SOL    HW226754   5.531   6.726   0.910
 8619SOL     OW26755   3.403   5.027   1.491
 8619SOL    HW126756   3.461   5.108   1.499
 8619SOL    HW226757   3.354   5.012   1.577
 8620SOL     OW26758   6.241   0.089   3.088
 8620SOL    HW126759   6.306   0.111   3.161
 8620SOL    HW226760   6.283   0.104   2.999
 8621SOL     OW26761   5.988   2.149   3.506
 8621SOL    HW126762   5.984   2.147   3.606
 8621SOL    HW226763   5.903   2.187   3.470
 8622SOL     OW26764   4.788   4.449   0.444
 8622SOL    HW126765   4.811   4.500   0.527
 8622SOL    HW226766   4.854   4.471   0.372
 8623SOL     OW26767   0.629   4.432   3.067
 8623SOL    HW126768   0.649   4.378   3.149
 8623SOL    HW226769   0.619   4.371   2.988
 8624SOL     OW26770   0.445   4.081   3.424
 8624SOL    HW126771   0.454   3.994   3.472
 8624SOL    HW226772   0.351   4.091   3.389
 8625SOL     OW26773   4.950   6.990   4.955
 8625SOL    HW126774   5.046   6.971   4.975
 8625SOL    HW226775   4.924   0.051   4.997
 8626SOL     OW26776   3.682   2.852   4.852
 8626SOL    HW126777   3.735   2.770   4.833
 8626SOL    HW226778   3.699   2.920   4.780
 8627SOL     OW26779   0.362   0.469   3.425
 8627SOL    HW126780   0.354   0.548   3.365
 8627SOL    HW226781   0.456   0.462   3.459
 8628SOL     OW26782   6.211   6.799   1.619
 8628SOL    HW126783   6.298   6.789   1.668
 8628SOL    HW226784   6.135   6.801   1.684
 8629SOL     OW26785   1.853   5.398   4.940
 8629SOL    HW126786   1.927   5.375   5.003
 8629SOL    HW226787   1.788   5.322   4.936
 8630SOL     OW26788   5.921   3.987   4.900
 8630SOL    HW126789   5.996   4.013   4.840
 8630SOL    HW226790   5.864   3.918   4.854
 8631SOL     OW26791   3.414   5.390   6.674
 8631SOL    HW126792   3.451   5.356   6.760
 8631SOL    HW226793   3.437   5.487   6.664
 8632SOL     OW26794   3.642   6.437   3.667
 8632SOL    HW126795   3.712   6.390   3.721
 8632SOL    HW226796   3.571   6.470   3.729
 8633SOL     OW26797   4.775   1.355   4.545
 8633SOL    HW126798   4.738   1.317   4.460
 8633SOL    HW226799   4.834   1.433   4.523
 8634SOL     OW26800   5.846   2.887   0.839
 8634SOL    HW126801   5.751   2.869   0.817
 8634SOL    HW226802   5.852   2.929   0.930
 8635SOL     OW26803   6.225   4.487   6.331
 8635SOL    HW126804   6.165   4.409   6.316
 8635SOL    HW226805   6.233   4.540   6.247
 8636SOL     OW26806   5.175   5.670   0.335
 8636SOL    HW126807   5.120   5.754   0.336
 8636SOL    HW226808   5.231   5.665   0.417
 8637SOL     OW26809   2.334   1.256   0.214
 8637SOL    HW126810   2.272   1.333   0.225
 8637SOL    HW226811   2.359   1.220   0.304
 8638SOL     OW26812   1.933   3.386   6.697
 8638SOL    HW126813   1.916   3.355   6.790
 8638SOL    HW226814   2.003   3.457   6.697
 8639SOL     OW26815   6.052   2.295   1.822
 8639SOL    HW126816   6.002   2.311   1.737
 8639SOL    HW226817   6.144   2.264   1.801
 8640SOL     OW26818   4.680   3.863   0.480
 8640SOL    HW126819   4.756   3.842   0.418
 8640SOL    HW226820   4.594   3.845   0.433
 8641SOL     OW26821   6.624   4.638   4.142
 8641SOL    HW126822   6.544   4.699   4.142
 8641SOL    HW226823   6.649   4.616   4.048
 8642SOL     OW26824   4.087   0.817   2.569
 8642SOL    HW126825   4.048   0.772   2.488
 8642SOL    HW226826   4.014   0.865   2.618
 8643SOL     OW26827   4.105   0.280   0.038
 8643SOL    HW126828   4.157   0.288   6.978
 8643SOL    HW226829   4.122   0.191   0.079
 8644SOL     OW26830   4.362   2.413   5.889
 8644SOL    HW126831   4.357   2.352   5.809
 8644SOL    HW226832   4.455   2.447   5.900
 8645SOL     OW26833   5.352   4.730   1.344
 8645SOL    HW126834   5.406   4.675   1.280
 8645SOL    HW226835   5.302   4.670   1.406
 8646SOL     OW26836   6.924   1.546   1.199
 8646SOL    HW126837   6.944   1.643   1.206
 8646SOL    HW226838   7.006   1.496   1.171
 8647SOL     OW26839   3.005   5.171   6.157
 8647SOL    HW126840   3.064   5.112   6.211
 8647SOL    HW226841   3.059   5.217   6.086
 8648SOL     OW26842   5.889   0.937   4.405
 8648SOL    HW126843   5.864   0.894   4.492
 8648SOL    HW226844   5.910   1.034   4.421
 8649SOL     OW26845   5.944   5.138   6.793
 8649SOL    HW126846   6.004   5.197   6.738
 8649SOL    HW226847   5.856   5.129   6.747
 8650SOL     OW26848   1.538   4.527   5.140
 8650SOL    HW126849   1.520   4.434   5.172
 8650SOL    HW226850   1.585   4.524   5.052
 8651SOL     OW26851   3.515   0.644   0.683
 8651SOL    HW126852   3.555   0.553   0.672
 8651SOL    HW226853   3.570   0.697   0.747
 8652SOL     OW26854   1.237   4.019   3.188
 8652SOL    HW126855   1.194   4.109   3.179
 8652SOL    HW226856   1.234   3.971   3.101
 8653SOL     OW26857   5.476   1.357   5.848
 8653SOL    HW126858   5.408   1.284   5.855
 8653SOL    HW226859   5.456   1.413   5.768
 8654SOL     OW26860   1.537   6.030   1.900
 8654SOL    HW126861   1.452   6.025   1.848
 8654SOL    HW226862   1.614   6.025   1.836
 8655SOL     OW26863   5.793   0.738   4.212
 8655SOL    HW126864   5.825   0.823   4.254
 8655SOL    HW226865   5.693   0.736   4.213
 8656SOL     OW26866   6.919   1.147   0.698
 8656SOL    HW126867   7.007   1.134   0.745
 8656SOL    HW226868   6.893   1.062   0.653
 8657SOL     OW26869   4.306   4.825   6.508
 8657SOL    HW126870   4.258   4.897   6.558
 8657SOL    HW226871   4.365   4.774   6.571
 8658SOL     OW26872   4.544   6.282   6.805
 8658SOL    HW126873   4.558   6.360   6.866
 8658SOL    HW226874   4.563   6.197   6.854
 8659SOL     OW26875   4.344   1.361   3.031
 8659SOL    HW126876   4.261   1.404   2.995
 8659SOL    HW226877   4.323   1.315   3.117
 8660SOL     OW26878   5.689   3.499   0.621
 8660SOL    HW126879   5.763   3.501   0.688
 8660SOL    HW226880   5.697   3.417   0.565
 8661SOL     OW26881   5.675   3.963   0.788
 8661SOL    HW126882   5.641   3.910   0.711
 8661SOL    HW226883   5.640   3.926   0.873
 8662SOL     OW26884   4.953   5.902   1.558
 8662SOL    HW126885   4.905   5.894   1.471
 8662SOL    HW226886   4.948   5.996   1.591
 8663SOL     OW26887   2.567   6.283   0.865
 8663SOL    HW126888   2.591   6.275   0.768
 8663SOL    HW226889   2.484   6.230   0.883
 8664SOL     OW26890   3.406   6.126   1.063
 8664SOL    HW126891   3.426   6.094   0.971
 8664SOL    HW226892   3.368   6.051   1.117
 8665SOL     OW26893   5.521   5.874   5.706
 8665SOL    HW126894   5.429   5.903   5.681
 8665SOL    HW226895   5.526   5.861   5.805
 8666SOL     OW26896   5.173   1.836   4.748
 8666SOL    HW126897   5.120   1.894   4.811
 8666SOL    HW226898   5.250   1.889   4.711
 8667SOL     OW26899   4.454   2.343   3.138
 8667SOL    HW126900   4.427   2.247   3.143
 8667SOL    HW226901   4.438   2.378   3.046
 8668SOL     OW26902   5.852   3.200   3.048
 8668SOL    HW126903   5.891   3.120   3.094
 8668SOL    HW226904   5.920   3.239   2.986
 8669SOL     OW26905   2.584   6.572   6.376
 8669SOL    HW126906   2.596   6.634   6.298
 8669SOL    HW226907   2.620   6.482   6.353
 8670SOL     OW26908   3.683   4.426   5.802
 8670SOL    HW126909   3.585   4.406   5.809
 8670SOL    HW226910   3.701   4.516   5.842
 8671SOL     OW26911   5.644   2.086   3.119
 8671SOL    HW126912   5.737   2.124   3.123
 8671SOL    HW226913   5.582   2.145   3.170
 8672SOL     OW26914   2.398   5.211   3.119
 8672SOL    HW126915   2.366   5.117   3.131
 8672SOL    HW226916   2.487   5.210   3.075
 8673SOL     OW26917   6.809   1.688   6.832
 8673SOL    HW126918   6.831   1.592   6.817
 8673SOL    HW226919   6.713   1.697   6.859
 8674SOL     OW26920   6.230   5.421   1.916
 8674SOL    HW126921   6.210   5.519   1.908
 8674SOL    HW226922   6.288   5.392   1.840
 8675SOL     OW26923   3.877   1.908   4.995
 8675SOL    HW126924   3.816   1.963   5.051
 8675SOL    HW226925   3.827   1.875   4.915
 8676SOL     OW26926   4.268   0.118   3.152
 8676SOL    HW126927   4.328   0.084   3.080
 8676SOL    HW226928   4.280   0.063   3.235
 8677SOL     OW26929   2.371   6.611   5.253
 8677SOL    HW126930   2.440   6.547   5.286
 8677SOL    HW226931   2.405   6.704   5.259
 8678SOL     OW26932   0.647   0.316   1.442
 8678SOL    HW126933   0.561   0.360   1.469
 8678SOL    HW226934   0.711   0.386   1.411
 8679SOL     OW26935   6.649   3.220   4.478
 8679SOL    HW126936   6.651   3.120   4.475
 8679SOL    HW226937   6.565   3.251   4.522
 8680SOL     OW26938   0.468   4.128   1.785
 8680SOL    HW126939   0.554   4.169   1.757
 8680SOL    HW226940   0.472   4.029   1.771
 8681SOL     OW26941   4.395   5.079   0.062
 8681SOL    HW126942   4.451   5.159   0.039
 8681SOL    HW226943   4.388   5.072   0.162
 8682SOL     OW26944   4.368   6.675   1.656
 8682SOL    HW126945   4.300   6.744   1.678
 8682SOL    HW226946   4.339   6.586   1.691
 8683SOL     OW26947   1.455   2.393   2.397
 8683SOL    HW126948   1.460   2.331   2.318
 8683SOL    HW226949   1.517   2.360   2.469
 8684SOL     OW26950   0.665   2.672   4.829
 8684SOL    HW126951   0.764   2.662   4.816
 8684SOL    HW226952   0.639   2.767   4.814
 8685SOL     OW26953   1.446   2.729   5.440
 8685SOL    HW126954   1.413   2.636   5.421
 8685SOL    HW226955   1.465   2.737   5.538
 8686SOL     OW26956   0.353   1.705   1.592
 8686SOL    HW126957   0.295   1.644   1.646
 8686SOL    HW226958   0.297   1.761   1.533
 8687SOL     OW26959   3.225   5.468   3.040
 8687SOL    HW126960   3.273   5.539   2.988
 8687SOL    HW226961   3.127   5.475   3.024
 8688SOL     OW26962   3.017   6.537   6.923
 8688SOL    HW126963   3.067   6.564   6.841
 8688SOL    HW226964   2.922   6.568   6.916
 8689SOL     OW26965   3.651   4.653   0.702
 8689SOL    HW126966   3.661   4.591   0.624
 8689SOL    HW226967   3.582   4.722   0.681
 8690SOL     OW26968   2.200   2.768   3.086
 8690SOL    HW126969   2.274   2.714   3.126
 8690SOL    HW226970   2.229   2.864   3.079
 8691SOL     OW26971   3.447   2.486   6.757
 8691SOL    HW126972   3.529   2.460   6.808
 8691SOL    HW226973   3.425   2.415   6.691
 8692SOL     OW26974   3.758   2.060   2.865
 8692SOL    HW126975   3.677   2.090   2.916
 8692SOL    HW226976   3.841   2.090   2.912
 8693SOL     OW26977   6.330   1.478   0.784
 8693SOL    HW126978   6.295   1.497   0.875
 8693SOL    HW226979   6.265   1.513   0.716
 8694SOL     OW26980   3.799   1.312   5.327
 8694SOL    HW126981   3.815   1.368   5.245
 8694SOL    HW226982   3.774   1.220   5.299
 8695SOL     OW26983   4.428   3.041   6.098
 8695SOL    HW126984   4.456   3.117   6.040
 8695SOL    HW226985   4.381   3.076   6.179
 8696SOL     OW26986   2.638   5.541   0.842
 8696SOL    HW126987   2.581   5.516   0.764
 8696SOL    HW226988   2.708   5.606   0.813
 8697SOL     OW26989   6.420   3.557   6.993
 8697SOL    HW126990   6.354   3.497   0.013
 8697SOL    HW226991   6.435   3.638   0.024
 8698SOL     OW26992   6.119   5.738   4.467
 8698SOL    HW126993   6.035   5.779   4.431
 8698SOL    HW226994   6.194   5.755   4.404
 8699SOL     OW26995   1.785   2.889   5.827
 8699SOL    HW126996   1.882   2.904   5.844
 8699SOL    HW226997   1.760   2.795   5.853
 8700SOL     OW26998   0.951   0.633   4.765
 8700SOL    HW126999   0.903   0.710   4.808
 8700SOL    HW227000   0.965   0.652   4.668
 8701SOL     OW27001   1.614   6.938   6.798
 8701SOL    HW127002   1.613   0.012   6.811
 8701SOL    HW227003   1.647   6.916   6.706
 8702SOL     OW27004   5.323   4.439   0.391
 8702SOL    HW127005   5.388   4.407   0.460
 8702SOL    HW227006   5.374   4.468   0.309
 8703SOL     OW27007   2.757   5.423   1.186
 8703SOL    HW127008   2.771   5.521   1.169
 8703SOL    HW227009   2.690   5.387   1.121
 8704SOL     OW27010   6.480   3.797   3.009
 8704SOL    HW127011   6.383   3.778   2.991
 8704SOL    HW227012   6.536   3.747   2.944
 8705SOL     OW27013   5.382   0.577   0.583
 8705SOL    HW127014   5.462   0.634   0.603
 8705SOL    HW227015   5.334   0.557   0.668
 8706SOL     OW27016   4.813   2.054   6.392
 8706SOL    HW127017   4.764   2.010   6.317
 8706SOL    HW227018   4.853   1.984   6.451
 8707SOL     OW27019   6.020   1.902   6.979
 8707SOL    HW127020   6.060   1.970   0.016
 8707SOL    HW227021   6.079   1.822   6.975
 8708SOL     OW27022   4.153   2.098   2.341
 8708SOL    HW127023   4.194   2.181   2.304
 8708SOL    HW227024   4.174   2.021   2.281
 8709SOL     OW27025   7.015   6.101   6.566
 8709SOL    HW127026   0.037   6.073   6.483
 8709SOL    HW227027   6.916   6.099   6.550
 8710SOL     OW27028   1.989   3.363   3.343
 8710SOL    HW127029   2.079   3.349   3.301
 8710SOL    HW227030   1.918   3.327   3.282
 8711SOL     OW27031   0.486   5.413   3.084
 8711SOL    HW127032   0.573   5.405   3.132
 8711SOL    HW227033   0.425   5.472   3.136
 8712SOL     OW27034   3.906   1.925   4.484
 8712SOL    HW127035   3.939   1.848   4.430
 8712SOL    HW227036   3.906   2.008   4.427
 8713SOL     OW27037   6.938   4.372   3.519
 8713SOL    HW127038   6.941   4.278   3.554
 8713SOL    HW227039   0.006   4.409   3.517
 8714SOL     OW27040   0.396   1.577   6.242
 8714SOL    HW127041   0.472   1.634   6.210
 8714SOL    HW227042   0.408   1.557   6.339
 8715SOL     OW27043   5.483   6.920   0.927
 8715SOL    HW127044   5.472   6.939   0.830
 8715SOL    HW227045   5.568   6.962   0.959
 8716SOL     OW27046   0.819   7.019   0.999
 8716SOL    HW127047   0.827   6.920   1.010
 8716SOL    HW227048   0.800   0.036   1.088
 8717SOL     OW27049   3.770   3.089   3.183
 8717SOL    HW127050   3.792   3.185   3.167
 8717SOL    HW227051   3.788   3.067   3.279
 8718SOL     OW27052   0.362   3.645   5.068
 8718SOL    HW127053   0.276   3.674   5.112
 8718SOL    HW227054   0.380   3.704   4.989
 8719SOL     OW27055   2.043   6.874   6.206
 8719SOL    HW127056   2.031   6.867   6.305
 8719SOL    HW227057   2.024   6.967   6.176
 8720SOL     OW27058   6.781   4.559   5.255
 8720SOL    HW127059   6.862   4.579   5.312
 8720SOL    HW227060   6.804   4.487   5.190
 8721SOL     OW27061   6.224   2.597   3.555
 8721SOL    HW127062   6.323   2.587   3.558
 8721SOL    HW227063   6.186   2.530   3.492
 8722SOL     OW27064   4.180   0.921   0.476
 8722SOL    HW127065   4.144   0.833   0.506
 8722SOL    HW227066   4.119   0.994   0.507
 8723SOL     OW27067   5.107   5.308   0.940
 8723SOL    HW127068   5.079   5.213   0.942
 8723SOL    HW227069   5.037   5.365   0.983
 8724SOL     OW27070   5.734   6.610   5.594
 8724SOL    HW127071   5.744   6.533   5.532
 8724SOL    HW227072   5.803   6.605   5.666
 8725SOL     OW27073   1.992   0.502   6.300
 8725SOL    HW127074   2.058   0.544   6.363
 8725SOL    HW227075   2.016   0.406   6.286
 8726SOL     OW27076   6.400   0.864   1.854
 8726SOL    HW127077   6.360   0.892   1.767
 8726SOL    HW227078   6.425   0.767   1.851
 8727SOL     OW27079   0.079   6.140   1.679
 8727SOL    HW127080   0.008   6.148   1.749
 8727SOL    HW227081   0.166   6.175   1.715
 8728SOL     OW27082   4.067   0.471   4.388
 8728SOL    HW127083   4.084   0.489   4.485
 8728SOL    HW227084   3.969   0.460   4.373
 8729SOL     OW27085   4.504   5.954   3.531
 8729SOL    HW127086   4.589   5.934   3.580
 8729SOL    HW227087   4.427   5.947   3.594
 8730SOL     OW27088   6.569   4.277   2.249
 8730SOL    HW127089   6.614   4.188   2.239
 8730SOL    HW227090   6.622   4.334   2.313
 8731SOL     OW27091   2.313   2.216   2.495
 8731SOL    HW127092   2.279   2.179   2.582
 8731SOL    HW227093   2.406   2.184   2.479
 8732SOL     OW27094   5.581   3.853   1.381
 8732SOL    HW127095   5.542   3.764   1.406
 8732SOL    HW227096   5.532   3.890   1.302
 8733SOL     OW27097   1.748   5.793   2.469
 8733SOL    HW127098   1.650   5.774   2.478
 8733SOL    HW227099   1.793   5.716   2.424
 8734SOL     OW27100   1.206   4.784   1.772
 8734SOL    HW127101   1.167   4.735   1.694
 8734SOL    HW227102   1.185   4.735   1.856
 8735SOL     OW27103   0.928   1.523   0.081
 8735SOL    HW127104   0.899   1.448   0.021
 8735SOL    HW227105   0.942   1.605   0.025
 8736SOL     OW27106   0.340   6.762   5.958
 8736SOL    HW127107   0.331   6.798   5.865
 8736SOL    HW227108   0.412   6.693   5.960
 8737SOL     OW27109   2.379   0.186   5.858
 8737SOL    HW127110   2.391   0.094   5.820
 8737SOL    HW227111   2.461   0.212   5.909
 8738SOL     OW27112   2.277   4.939   4.156
 8738SOL    HW127113   2.255   5.002   4.081
 8738SOL    HW227114   2.325   4.860   4.119
 8739SOL     OW27115   6.515   5.451   6.424
 8739SOL    HW127116   6.607   5.412   6.430
 8739SOL    HW227117   6.485   5.452   6.329
 8740SOL     OW27118   4.856   0.776   5.147
 8740SOL    HW127119   4.805   0.703   5.192
 8740SOL    HW227120   4.954   0.759   5.156
 8741SOL     OW27121   2.368   0.657   2.030
 8741SOL    HW127122   2.363   0.751   2.062
 8741SOL    HW227123   2.463   0.629   2.023
 8742SOL     OW27124   5.720   6.192   1.454
 8742SOL    HW127125   5.683   6.137   1.529
 8742SOL    HW227126   5.651   6.256   1.422
 8743SOL     OW27127   1.650   0.268   2.305
 8743SOL    HW127128   1.727   0.262   2.241
 8743SOL    HW227129   1.661   0.198   2.376
 8744SOL     OW27130   3.703   2.153   6.045
 8744SOL    HW127131   3.651   2.221   6.097
 8744SOL    HW227132   3.669   2.149   5.951
 8745SOL     OW27133   6.173   2.448   5.776
 8745SOL    HW127134   6.193   2.372   5.838
 8745SOL    HW227135   6.204   2.533   5.817
 8746SOL     OW27136   4.839   3.837   5.219
 8746SOL    HW127137   4.815   3.764   5.156
 8746SOL    HW227138   4.922   3.883   5.186
 8747SOL     OW27139   0.345   2.626   2.839
 8747SOL    HW127140   0.381   2.600   2.929
 8747SOL    HW227141   0.418   2.667   2.784
 8748SOL     OW27142   0.185   1.608   5.979
 8748SOL    HW127143   0.085   1.598   5.984
 8748SOL    HW227144   0.228   1.521   6.001
 8749SOL     OW27145   2.886   0.173   6.325
 8749SOL    HW127146   2.891   0.100   6.393
 8749SOL    HW227147   2.890   0.134   6.233
 8750SOL     OW27148   3.291   3.242   5.360
 8750SOL    HW127149   3.374   3.233   5.415
 8750SOL    HW227150   3.307   3.203   5.269
 8751SOL     OW27151   6.046   0.422   3.036
 8751SOL    HW127152   6.142   0.395   3.043
 8751SOL    HW227153   6.021   0.478   3.115
 8752SOL     OW27154   2.707   4.826   6.712
 8752SOL    HW127155   2.752   4.871   6.635
 8752SOL    HW227156   2.736   4.869   6.798
 8753SOL     OW27157   4.611   1.657   5.106
 8753SOL    HW127158   4.532   1.666   5.166
 8753SOL    HW227159   4.584   1.679   5.012
 8754SOL     OW27160   0.992   2.197   5.241
 8754SOL    HW127161   1.084   2.233   5.233
 8754SOL    HW227162   0.992   2.118   5.303
 8755SOL     OW27163   2.421   1.028   6.127
 8755SOL    HW127164   2.324   1.023   6.150
 8755SOL    HW227165   2.462   1.106   6.175
 8756SOL     OW27166   2.154   3.581   3.114
 8756SOL    HW127167   2.153   3.625   3.024
 8756SOL    HW227168   2.177   3.648   3.184
 8757SOL     OW27169   5.442   6.881   5.691
 8757SOL    HW127170   5.488   6.842   5.611
 8757SOL    HW227171   5.343   6.879   5.677
 8758SOL     OW27172   4.509   6.126   1.989
 8758SOL    HW127173   4.574   6.199   2.009
 8758SOL    HW227174   4.527   6.089   1.898
 8759SOL     OW27175   3.945   2.356   6.992
 8759SOL    HW127176   4.039   2.382   6.972
 8759SOL    HW227177   3.904   2.425   0.027
 8760SOL     OW27178   1.695   1.846   4.795
 8760SOL    HW127179   1.777   1.799   4.827
 8760SOL    HW227180   1.621   1.832   4.860
 8761SOL     OW27181   4.464   1.194   1.783
 8761SOL    HW127182   4.376   1.211   1.738
 8761SOL    HW227183   4.476   1.095   1.797
 8762SOL     OW27184   0.468   4.020   2.559
 8762SOL    HW127185   0.415   3.938   2.541
 8762SOL    HW227186   0.524   4.007   2.642
 8763SOL     OW27187   6.161   5.626   6.130
 8763SOL    HW127188   6.179   5.562   6.204
 8763SOL    HW227189   6.065   5.621   6.103
 8764SOL     OW27190   4.562   0.724   4.607
 8764SOL    HW127191   4.501   0.803   4.609
 8764SOL    HW227192   4.621   0.729   4.527
 8765SOL     OW27193   6.127   6.632   5.270
 8765SOL    HW127194   6.051   6.638   5.336
 8765SOL    HW227195   6.206   6.589   5.315
 8766SOL     OW27196   4.152   5.400   2.885
 8766SOL    HW127197   4.231   5.413   2.825
 8766SOL    HW227198   4.071   5.439   2.842
 8767SOL     OW27199   3.712   0.153   3.243
 8767SOL    HW127200   3.712   0.057   3.272
 8767SOL    HW227201   3.624   0.195   3.265
 8768SOL     OW27202   1.102   3.274   0.692
 8768SOL    HW127203   1.186   3.301   0.644
 8768SOL    HW227204   1.080   3.179   0.668
 8769SOL     OW27205   1.208   6.813   3.866
 8769SOL    HW127206   1.197   6.727   3.916
 8769SOL    HW227207   1.213   6.794   3.768
 8770SOL     OW27208   4.851   4.167   2.006
 8770SOL    HW127209   4.918   4.142   2.076
 8770SOL    HW227210   4.821   4.084   1.959
 8771SOL     OW27211   1.142   0.404   5.906
 8771SOL    HW127212   1.108   0.386   5.998
 8771SOL    HW227213   1.071   0.452   5.853
 8772SOL     OW27214   5.534   6.723   0.087
 8772SOL    HW127215   5.462   6.656   0.069
 8772SOL    HW227216   5.624   6.680   0.076
 8773SOL     OW27217   4.595   2.295   3.903
 8773SOL    HW127218   4.508   2.338   3.928
 8773SOL    HW227219   4.592   2.198   3.926
 8774SOL     OW27220   2.626   1.646   0.619
 8774SOL    HW127221   2.602   1.629   0.524
 8774SOL    HW227222   2.646   1.743   0.632
 8775SOL     OW27223   6.319   0.385   5.383
 8775SOL    HW127224   6.257   0.464   5.381
 8775SOL    HW227225   6.396   0.406   5.444
 8776SOL     OW27226   2.963   3.821   4.527
 8776SOL    HW127227   3.028   3.780   4.591
 8776SOL    HW227228   2.970   3.920   4.533
 8777SOL     OW27229   0.052   3.845   1.220
 8777SOL    HW127230   0.143   3.808   1.201
 8777SOL    HW227231   0.061   3.928   1.275
 8778SOL     OW27232   6.146   2.250   4.566
 8778SOL    HW127233   6.235   2.282   4.600
 8778SOL    HW227234   6.134   2.280   4.471
 8779SOL     OW27235   2.800   5.366   2.038
 8779SOL    HW127236   2.730   5.425   1.996
 8779SOL    HW227237   2.877   5.422   2.068
 8780SOL     OW27238   1.025   5.267   3.814
 8780SOL    HW127239   1.003   5.335   3.883
 8780SOL    HW227240   1.065   5.311   3.734
 8781SOL     OW27241   6.428   1.470   3.895
 8781SOL    HW127242   6.376   1.525   3.961
 8781SOL    HW227243   6.388   1.379   3.890
 8782SOL     OW27244   5.749   0.713   2.051
 8782SOL    HW127245   5.723   0.774   2.126
 8782SOL    HW227246   5.753   0.765   1.966
 8783SOL     OW27247   6.399   4.198   3.568
 8783SOL    HW127248   6.381   4.175   3.664
 8783SOL    HW227249   6.394   4.297   3.556
 8784SOL     OW27250   5.406   3.867   5.454
 8784SOL    HW127251   5.369   3.861   5.547
 8784SOL    HW227252   5.497   3.826   5.452
 8785SOL     OW27253   6.489   3.611   6.726
 8785SOL    HW127254   6.434   3.606   6.809
 8785SOL    HW227255   6.586   3.604   6.750
 8786SOL     OW27256   2.775   6.347   0.352
 8786SOL    HW127257   2.688   6.387   0.381
 8786SOL    HW227258   2.758   6.280   0.280
 8787SOL     OW27259   1.786   2.807   2.226
 8787SOL    HW127260   1.841   2.772   2.302
 8787SOL    HW227261   1.833   2.885   2.185
 8788SOL     OW27262   0.096   2.401   5.564
 8788SOL    HW127263   0.032   2.415   5.489
 8788SOL    HW227264   0.081   2.470   5.634
 8789SOL     OW27265   6.021   6.597   5.970
 8789SOL    HW127266   6.041   6.665   5.900
 8789SOL    HW227267   5.976   6.641   6.048
 8790SOL     OW27268   0.074   1.265   0.120
 8790SOL    HW127269   0.154   1.324   0.111
 8790SOL    HW227270   0.008   1.287   0.048
 8791SOL     OW27271   5.421   6.933   4.819
 8791SOL    HW127272   5.443   6.945   4.722
 8791SOL    HW227273   5.454   6.844   4.850
 8792SOL     OW27274   3.725   6.093   3.619
 8792SOL    HW127275   3.775   6.006   3.621
 8792SOL    HW227276   3.644   6.086   3.677
 8793SOL     OW27277   1.674   5.185   4.008
 8793SOL    HW127278   1.710   5.274   4.035
 8793SOL    HW227279   1.654   5.131   4.090
 8794SOL     OW27280   4.079   6.730   1.804
 8794SOL    HW127281   4.129   6.716   1.890
 8794SOL    HW227282   4.000   6.789   1.821
 8795SOL     OW27283   1.281   6.625   4.704
 8795SOL    HW127284   1.285   6.535   4.661
 8795SOL    HW227285   1.221   6.622   4.784
 8796SOL     OW27286   3.811   0.418   4.947
 8796SOL    HW127287   3.811   0.517   4.964
 8796SOL    HW227288   3.744   0.397   4.877
 8797SOL     OW27289   1.261   6.927   5.236
 8797SOL    HW127290   1.260   6.837   5.192
 8797SOL    HW227291   1.312   6.921   5.322
 8798SOL     OW27292   4.883   5.197   4.969
 8798SOL    HW127293   4.902   5.173   5.064
 8798SOL    HW227294   4.940   5.141   4.909
 8799SOL     OW27295   1.726   4.365   3.422
 8799SOL    HW127296   1.734   4.393   3.326
 8799SOL    HW227297   1.734   4.266   3.428
 8800SOL     OW27298   5.804   3.891   5.405
 8800SOL    HW127299   5.791   3.794   5.387
 8800SOL    HW227300   5.897   3.908   5.437
 8801SOL     OW27301   0.988   1.330   4.627
 8801SOL    HW127302   0.909   1.272   4.607
 8801SOL    HW227303   1.066   1.301   4.572
 8802SOL     OW27304   1.555   0.511   0.266
 8802SOL    HW127305   1.527   0.422   0.230
 8802SOL    HW227306   1.647   0.505   0.305
 8803SOL     OW27307   0.586   5.268   5.735
 8803SOL    HW127308   0.543   5.184   5.703
 8803SOL    HW227309   0.582   5.272   5.835
 8804SOL     OW27310   2.961   0.465   1.586
 8804SOL    HW127311   2.866   0.469   1.556
 8804SOL    HW227312   2.968   0.403   1.665
 8805SOL     OW27313   2.471   0.493   4.262
 8805SOL    HW127314   2.439   0.435   4.337
 8805SOL    HW227315   2.500   0.581   4.299
 8806SOL     OW27316   1.822   4.942   1.828
 8806SOL    HW127317   1.739   4.977   1.871
 8806SOL    HW227318   1.801   4.912   1.735
 8807SOL     OW27319   6.647   6.611   6.229
 8807SOL    HW127320   6.557   6.604   6.187
 8807SOL    HW227321   6.704   6.673   6.175
 8808SOL     OW27322   5.335   2.050   1.036
 8808SOL    HW127323   5.352   2.109   1.115
 8808SOL    HW227324   5.237   2.031   1.029
 8809SOL     OW27325   5.144   4.677   2.941
 8809SOL    HW127326   5.242   4.697   2.946
 8809SOL    HW227327   5.113   4.642   3.030
 8810SOL     OW27328   5.628   1.332   6.249
 8810SOL    HW127329   5.540   1.377   6.263
 8810SOL    HW227330   5.687   1.348   6.328
 8811SOL     OW27331   3.329   1.742   3.431
 8811SOL    HW127332   3.377   1.750   3.343
 8811SOL    HW227333   3.362   1.660   3.479
 8812SOL     OW27334   1.920   0.447   1.230
 8812SOL    HW127335   1.855   0.373   1.247
 8812SOL    HW227336   1.996   0.440   1.295
 8813SOL     OW27337   1.144   4.388   1.668
 8813SOL    HW127338   1.170   4.348   1.579
 8813SOL    HW227339   1.056   4.434   1.659
 8814SOL     OW27340   6.380   0.902   0.622
 8814SOL    HW127341   6.412   0.868   0.710
 8814SOL    HW227342   6.380   1.002   0.623
 8815SOL     OW27343   6.351   6.303   0.706
 8815SOL    HW127344   6.260   6.262   0.709
 8815SOL    HW227345   6.343   6.402   0.701
 8816SOL     OW27346   2.148   0.874   0.257
 8816SOL    HW127347   2.165   0.823   0.341
 8816SOL    HW227348   2.123   0.811   0.184
 8817SOL     OW27349   0.724   6.118   5.510
 8817SOL    HW127350   0.697   6.201   5.559
 8817SOL    HW227351   0.820   6.125   5.482
 8818SOL     OW27352   0.253   2.918   4.132
 8818SOL    HW127353   0.352   2.924   4.115
 8818SOL    HW227354   0.229   2.822   4.151
 8819SOL     OW27355   4.495   5.508   4.482
 8819SOL    HW127356   4.489   5.414   4.517
 8819SOL    HW227357   4.477   5.572   4.556
 8820SOL     OW27358   2.322   1.549   4.208
 8820SOL    HW127359   2.396   1.617   4.209
 8820SOL    HW227360   2.344   1.476   4.143
 8821SOL     OW27361   2.900   6.054   0.340
 8821SOL    HW127362   2.932   5.961   0.323
 8821SOL    HW227363   2.875   6.097   0.253
 8822SOL     OW27364   0.713   0.252   3.736
 8822SOL    HW127365   0.717   0.174   3.799
 8822SOL    HW227366   0.783   0.318   3.760
 8823SOL     OW27367   2.241   1.074   0.711
 8823SOL    HW127368   2.288   1.069   0.799
 8823SOL    HW227369   2.171   1.003   0.706
 8824SOL     OW27370   1.497   3.581   1.321
 8824SOL    HW127371   1.444   3.522   1.260
 8824SOL    HW227372   1.520   3.530   1.405
 8825SOL     OW27373   1.799   0.167   3.400
 8825SOL    HW127374   1.843   0.247   3.358
 8825SOL    HW227375   1.869   0.105   3.436
 8826SOL     OW27376   6.424   2.747   0.046
 8826SOL    HW127377   6.501   2.684   0.038
 8826SOL    HW227378   6.372   2.726   0.129
 8827SOL     OW27379   3.538   1.358   3.023
 8827SOL    HW127380   3.540   1.263   2.990
 8827SOL    HW227381   3.597   1.415   2.966
 8828SOL     OW27382   4.429   5.652   4.722
 8828SOL    HW127383   4.510   5.693   4.764
 8828SOL    HW227384   4.421   5.557   4.752
 8829SOL     OW27385   6.966   2.062   0.253
 8829SOL    HW127386   0.024   2.040   0.304
 8829SOL    HW227387   6.897   1.991   0.270
 8830SOL     OW27388   0.394   1.222   1.275
 8830SOL    HW127389   0.471   1.260   1.325
 8830SOL    HW227390   0.385   1.268   1.186
 8831SOL     OW27391   5.177   0.854   3.693
 8831SOL    HW127392   5.206   0.764   3.727
 8831SOL    HW227393   5.145   0.909   3.769
 8832SOL     OW27394   6.211   6.157   2.561
 8832SOL    HW127395   6.290   6.215   2.542
 8832SOL    HW227396   6.127   6.209   2.547
 8833SOL     OW27397   2.293   6.571   5.567
 8833SOL    HW127398   2.271   6.474   5.577
 8833SOL    HW227399   2.289   6.597   5.471
 8834SOL     OW27400   5.206   3.403   4.432
 8834SOL    HW127401   5.264   3.456   4.370
 8834SOL    HW227402   5.123   3.455   4.452
 8835SOL     OW27403   6.024   1.206   5.870
 8835SOL    HW127404   6.003   1.233   5.964
 8835SOL    HW227405   5.948   1.231   5.810
 8836SOL     OW27406   4.549   1.443   6.679
 8836SOL    HW127407   4.469   1.494   6.711
 8836SOL    HW227408   4.537   1.346   6.698
 8837SOL     OW27409   0.245   6.123   2.715
 8837SOL    HW127410   0.190   6.045   2.747
 8837SOL    HW227411   0.340   6.112   2.744
 8838SOL     OW27412   3.200   4.915   2.829
 8838SOL    HW127413   3.170   4.859   2.906
 8838SOL    HW227414   3.143   4.896   2.749
 8839SOL     OW27415   5.132   5.663   1.867
 8839SOL    HW127416   5.185   5.589   1.907
 8839SOL    HW227417   5.192   5.723   1.814
 8840SOL     OW27418   6.294   1.695   2.022
 8840SOL    HW127419   6.254   1.651   1.942
 8840SOL    HW227420   6.316   1.626   2.091
 8841SOL     OW27421   1.402   0.521   4.812
 8841SOL    HW127422   1.490   0.549   4.774
 8841SOL    HW227423   1.339   0.599   4.813
 8842SOL     OW27424   2.980   3.187   1.953
 8842SOL    HW127425   2.907   3.201   2.020
 8842SOL    HW227426   3.047   3.260   1.960
 8843SOL     OW27427   1.942   3.206   5.024
 8843SOL    HW127428   2.033   3.169   5.008
 8843SOL    HW227429   1.921   3.203   5.122
 8844SOL     OW27430   5.834   1.712   0.049
 8844SOL    HW127431   5.844   1.774   6.997
 8844SOL    HW227432   5.780   1.755   0.121
 8845SOL     OW27433   4.517   4.009   6.668
 8845SOL    HW127434   4.527   4.108   6.660
 8845SOL    HW227435   4.433   3.988   6.719
 8846SOL     OW27436   2.453   5.484   3.285
 8846SOL    HW127437   2.414   5.426   3.213
 8846SOL    HW227438   2.483   5.427   3.361
 8847SOL     OW27439   2.985   0.957   2.750
 8847SOL    HW127440   2.962   0.940   2.655
 8847SOL    HW227441   3.040   0.882   2.786
 8848SOL     OW27442   2.501   0.077   1.991
 8848SOL    HW127443   2.539   0.015   1.922
 8848SOL    HW227444   2.575   0.111   2.049
 8849SOL     OW27445   3.024   6.060   2.749
 8849SOL    HW127446   3.002   6.092   2.841
 8849SOL    HW227447   3.055   5.965   2.754
 8850SOL     OW27448   1.679   2.033   0.237
 8850SOL    HW127449   1.642   1.941   0.223
 8850SOL    HW227450   1.754   2.029   0.304
 8851SOL     OW27451   1.684   4.321   2.385
 8851SOL    HW127452   1.668   4.267   2.302
 8851SOL    HW227453   1.763   4.380   2.372
 8852SOL     OW27454   0.883   1.815   4.737
 8852SOL    HW127455   0.911   1.839   4.829
 8852SOL    HW227456   0.786   1.836   4.725
 8853SOL     OW27457   2.458   0.571   1.541
 8853SOL    HW127458   2.451   0.671   1.545
 8853SOL    HW227459   2.421   0.532   1.626
 8854SOL     OW27460   2.088   3.583   4.931
 8854SOL    HW127461   2.145   3.504   4.911
 8854SOL    HW227462   2.025   3.599   4.854
 8855SOL     OW27463   6.723   5.275   1.436
 8855SOL    HW127464   6.775   5.360   1.431
 8855SOL    HW227465   6.780   5.202   1.474
 8856SOL     OW27466   0.719   6.232   6.521
 8856SOL    HW127467   0.683   6.290   6.594
 8856SOL    HW227468   0.818   6.221   6.533
 8857SOL     OW27469   6.589   1.691   4.737
 8857SOL    HW127470   6.607   1.596   4.715
 8857SOL    HW227471   6.536   1.697   4.822
 8858SOL     OW27472   6.887   4.465   4.140
 8858SOL    HW127473   6.939   4.457   4.055
 8858SOL    HW227474   6.833   4.549   4.138
 8859SOL     OW27475   0.941   0.995   3.888
 8859SOL    HW127476   0.925   1.080   3.938
 8859SOL    HW227477   1.036   0.994   3.854
 8860SOL     OW27478   6.736   2.264   1.624
 8860SOL    HW127479   6.796   2.185   1.616
 8860SOL    HW227480   6.777   2.343   1.578
 8861SOL     OW27481   4.225   1.032   6.919
 8861SOL    HW127482   4.172   0.948   6.922
 8861SOL    HW227483   4.189   1.097   6.986
 8862SOL     OW27484   5.656   6.551   3.973
 8862SOL    HW127485   5.743   6.511   4.004
 8862SOL    HW227486   5.613   6.489   3.907
 8863SOL     OW27487   1.961   5.066   3.015
 8863SOL    HW127488   1.959   5.119   3.100
 8863SOL    HW227489   2.035   5.099   2.957
 8864SOL     OW27490   3.881   4.285   6.469
 8864SOL    HW127491   3.870   4.300   6.370
 8864SOL    HW227492   3.971   4.245   6.486
 8865SOL     OW27493   3.384   1.024   5.075
 8865SOL    HW127494   3.416   0.955   5.010
 8865SOL    HW227495   3.307   0.987   5.128
 8866SOL     OW27496   5.435   6.664   2.741
 8866SOL    HW127497   5.484   6.670   2.828
 8866SOL    HW227498   5.389   6.576   2.735
 8867SOL     OW27499   5.736   4.123   3.647
 8867SOL    HW127500   5.683   4.182   3.587
 8867SOL    HW227501   5.829   4.114   3.611
 8868SOL     OW27502   6.779   3.357   2.341
 8868SOL    HW127503   6.877   3.373   2.327
 8868SOL    HW227504   6.745   3.421   2.411
 8869SOL     OW27505   4.323   5.653   5.431
 8869SOL    HW127506   4.316   5.613   5.339
 8869SOL    HW227507   4.398   5.719   5.433
 8870SOL     OW27508   1.741   6.379   1.509
 8870SOL    HW127509   1.826   6.376   1.457
 8870SOL    HW227510   1.748   6.450   1.580
 8871SOL     OW27511   1.998   0.628   3.588
 8871SOL    HW127512   2.078   0.573   3.616
 8871SOL    HW227513   2.016   0.671   3.500
 8872SOL     OW27514   1.048   4.892   5.999
 8872SOL    HW127515   1.092   4.805   5.975
 8872SOL    HW227516   0.973   4.876   6.063
 8873SOL     OW27517   1.678   6.565   1.670
 8873SOL    HW127518   1.602   6.614   1.714
 8873SOL    HW227519   1.755   6.628   1.658
 8874SOL     OW27520   1.442   5.650   2.203
 8874SOL    HW127521   1.490   5.646   2.115
 8874SOL    HW227522   1.353   5.607   2.194
 8875SOL     OW27523   0.075   3.137   4.649
 8875SOL    HW127524   0.139   3.105   4.719
 8875SOL    HW227525   7.007   3.115   4.678
 8876SOL     OW27526   2.654   0.777   6.387
 8876SOL    HW127527   2.594   0.853   6.412
 8876SOL    HW227528   2.606   0.691   6.402
 8877SOL     OW27529   1.733   3.294   3.206
 8877SOL    HW127530   1.685   3.322   3.288
 8877SOL    HW227531   1.671   3.298   3.128
 8878SOL     OW27532   3.713   5.026   1.019
 8878SOL    HW127533   3.672   4.935   1.025
 8878SOL    HW227534   3.793   5.023   0.959
 8879SOL     OW27535   5.598   4.790   2.390
 8879SOL    HW127536   5.663   4.723   2.426
 8879SOL    HW227537   5.591   4.867   2.454
 8880SOL     OW27538   4.178   5.998   5.083
 8880SOL    HW127539   4.237   6.078   5.086
 8880SOL    HW227540   4.085   6.025   5.108
 8881SOL     OW27541   5.331   5.303   4.379
 8881SOL    HW127542   5.316   5.212   4.417
 8881SOL    HW227543   5.428   5.314   4.355
 8882SOL     OW27544   3.757   1.243   0.802
 8882SOL    HW127545   3.704   1.328   0.805
 8882SOL    HW227546   3.710   1.177   0.744
 8883SOL     OW27547   1.244   6.233   5.772
 8883SOL    HW127548   1.163   6.244   5.714
 8883SOL    HW227549   1.322   6.279   5.729
 8884SOL     OW27550   6.062   3.556   5.299
 8884SOL    HW127551   6.077   3.527   5.394
 8884SOL    HW227552   5.986   3.505   5.260
 8885SOL     OW27553   5.309   4.741   0.741
 8885SOL    HW127554   5.386   4.765   0.800
 8885SOL    HW227555   5.323   4.781   0.650
 8886SOL     OW27556   3.541   5.802   6.405
 8886SOL    HW127557   3.589   5.727   6.361
 8886SOL    HW227558   3.451   5.813   6.363
 8887SOL     OW27559   3.552   1.429   0.834
 8887SOL    HW127560   3.463   1.423   0.879
 8887SOL    HW227561   3.606   1.503   0.875
 8888SOL     OW27562   2.234   2.918   4.590
 8888SOL    HW127563   2.248   2.960   4.500
 8888SOL    HW227564   2.208   2.988   4.656
 8889SOL     OW27565   7.003   6.422   6.547
 8889SOL    HW127566   6.942   6.441   6.470
 8889SOL    HW227567   0.032   6.340   6.527
 8890SOL     OW27568   0.569   6.278   6.290
 8890SOL    HW127569   0.617   6.238   6.212
 8890SOL    HW227570   0.614   6.249   6.375
 8891SOL     OW27571   4.285   4.496   0.294
 8891SOL    HW127572   4.342   4.574   0.318
 8891SOL    HW227573   4.300   4.472   0.198
 8892SOL     OW27574   3.585   4.925   3.458
 8892SOL    HW127575   3.642   4.937   3.377
 8892SOL    HW227576   3.538   5.010   3.478
 8893SOL     OW27577   1.609   5.526   5.027
 8893SOL    HW127578   1.700   5.491   5.004
 8893SOL    HW227579   1.600   5.620   4.993
 8894SOL     OW27580   3.743   1.605   6.960
 8894SOL    HW127581   3.750   1.622   0.033
 8894SOL    HW227582   3.826   1.559   6.929
 8895SOL     OW27583   0.492   2.374   0.775
 8895SOL    HW127584   0.537   2.291   0.742
 8895SOL    HW227585   0.560   2.437   0.812
 8896SOL     OW27586   1.802   3.000   4.708
 8896SOL    HW127587   1.808   3.078   4.770
 8896SOL    HW227588   1.851   2.922   4.747
 8897SOL     OW27589   1.950   3.657   3.354
 8897SOL    HW127590   1.946   3.559   3.334
 8897SOL    HW227591   2.045   3.687   3.353
 8898SOL     OW27592   5.771   3.401   2.042
 8898SOL    HW127593   5.706   3.384   2.116
 8898SOL    HW227594   5.722   3.420   1.957
 8899SOL     OW27595   0.977   4.877   0.268
 8899SOL    HW127596   1.071   4.873   0.233
 8899SOL    HW227597   0.940   4.784   0.273
 8900SOL     OW27598   5.600   2.725   3.202
 8900SOL    HW127599   5.562   2.634   3.218
 8900SOL    HW227600   5.649   2.725   3.115
 8901SOL     OW27601   0.892   1.257   3.994
 8901SOL    HW127602   0.855   1.327   4.055
 8901SOL    HW227603   0.833   1.248   3.913
 8902SOL     OW27604   1.776   5.798   6.948
 8902SOL    HW127605   1.749   5.811   6.852
 8902SOL    HW227606   1.793   5.700   6.964
 8903SOL     OW27607   1.148   2.254   4.559
 8903SOL    HW127608   1.076   2.185   4.566
 8903SOL    HW227609   1.131   2.311   4.478
 8904SOL     OW27610   1.099   1.330   3.767
 8904SOL    HW127611   1.011   1.377   3.754
 8904SOL    HW227612   1.105   1.255   3.702
 8905SOL     OW27613   1.812   3.468   2.590
 8905SOL    HW127614   1.766   3.423   2.667
 8905SOL    HW227615   1.910   3.455   2.597
 8906SOL     OW27616   1.416   6.232   0.887
 8906SOL    HW127617   1.360   6.234   0.970
 8906SOL    HW227618   1.436   6.326   0.858
 8907SOL     OW27619   2.927   2.725   5.341
 8907SOL    HW127620   2.935   2.806   5.282
 8907SOL    HW227621   3.004   2.664   5.324
 8908SOL     OW27622   1.922   5.174   0.035
 8908SOL    HW127623   1.879   5.132   0.115
 8908SOL    HW227624   2.011   5.130   0.018
 8909SOL     OW27625   2.520   1.029   6.482
 8909SOL    HW127626   2.553   1.087   6.407
 8909SOL    HW227627   2.420   1.031   6.484
 8910SOL     OW27628   0.387   2.919   5.404
 8910SOL    HW127629   0.477   2.889   5.435
 8910SOL    HW227630   0.328   2.840   5.388
 8911SOL     OW27631   5.727   3.292   4.781
 8911SOL    HW127632   5.820   3.268   4.750
 8911SOL    HW227633   5.660   3.247   4.722
 8912SOL     OW27634   2.975   3.165   5.971
 8912SOL    HW127635   3.020   3.076   5.969
 8912SOL    HW227636   3.008   3.220   5.894
 8913SOL     OW27637   4.540   5.337   6.912
 8913SOL    HW127638   4.460   5.394   6.929
 8913SOL    HW227639   4.604   5.387   6.852
 8914SOL     OW27640   5.077   6.716   4.395
 8914SOL    HW127641   5.052   6.630   4.440
 8914SOL    HW227642   5.171   6.739   4.417
 8915SOL     OW27643   1.345   2.180   4.304
 8915SOL    HW127644   1.442   2.176   4.279
 8915SOL    HW227645   1.335   2.226   4.392
 8916SOL     OW27646   6.592   2.532   6.662
 8916SOL    HW127647   6.545   2.508   6.577
 8916SOL    HW227648   6.542   2.494   6.740
 8917SOL     OW27649   5.718   2.745   1.144
 8917SOL    HW127650   5.643   2.788   1.195
 8917SOL    HW227651   5.783   2.703   1.208
 8918SOL     OW27652   1.077   5.506   0.507
 8918SOL    HW127653   1.098   5.602   0.486
 8918SOL    HW227654   1.003   5.502   0.574
 8919SOL     OW27655   5.414   4.730   6.678
 8919SOL    HW127656   5.465   4.690   6.602
 8919SOL    HW227657   5.475   4.744   6.756
 8920SOL     OW27658   0.167   2.338   0.144
 8920SOL    HW127659   0.128   2.422   0.106
 8920SOL    HW227660   0.252   2.359   0.192
 8921SOL     OW27661   1.649   2.952   1.859
 8921SOL    HW127662   1.634   2.961   1.761
 8921SOL    HW227663   1.744   2.926   1.876
 8922SOL     OW27664   4.510   5.753   1.944
 8922SOL    HW127665   4.593   5.800   1.974
 8922SOL    HW227666   4.458   5.722   2.024
 8923SOL     OW27667   1.385   0.981   6.023
 8923SOL    HW127668   1.380   0.985   5.923
 8923SOL    HW227669   1.304   1.026   6.062
 8924SOL     OW27670   4.689   5.291   5.318
 8924SOL    HW127671   4.719   5.204   5.279
 8924SOL    HW227672   4.617   5.274   5.385
 8925SOL     OW27673   6.668   0.527   2.528
 8925SOL    HW127674   6.691   0.468   2.451
 8925SOL    HW227675   6.695   0.621   2.509
 8926SOL     OW27676   6.451   3.314   4.624
 8926SOL    HW127677   6.397   3.385   4.669
 8926SOL    HW227678   6.390   3.250   4.577
 8927SOL     OW27679   6.118   1.660   4.745
 8927SOL    HW127680   6.082   1.643   4.837
 8927SOL    HW227681   6.204   1.711   4.751
 8928SOL     OW27682   1.750   0.216   6.105
 8928SOL    HW127683   1.848   0.196   6.103
 8928SOL    HW227684   1.729   0.273   6.184
 8929SOL     OW27685   6.379   1.868   5.272
 8929SOL    HW127686   6.438   1.938   5.231
 8929SOL    HW227687   6.283   1.888   5.251
 8930SOL     OW27688   0.837   2.925   3.279
 8930SOL    HW127689   0.813   2.828   3.270
 8930SOL    HW227690   0.935   2.935   3.293
 8931SOL     OW27691   3.068   3.626   1.617
 8931SOL    HW127692   3.117   3.578   1.544
 8931SOL    HW227693   3.078   3.725   1.605
 8932SOL     OW27694   6.788   2.338   2.792
 8932SOL    HW127695   6.880   2.329   2.755
 8932SOL    HW227696   6.791   2.394   2.875
 8933SOL     OW27697   2.985   2.394   6.229
 8933SOL    HW127698   3.022   2.453   6.301
 8933SOL    HW227699   3.021   2.301   6.240
 8934SOL     OW27700   3.639   4.707   5.348
 8934SOL    HW127701   3.625   4.612   5.375
 8934SOL    HW227702   3.551   4.754   5.344
 8935SOL     OW27703   0.185   4.092   0.331
 8935SOL    HW127704   0.196   4.067   0.427
 8935SOL    HW227705   0.239   4.030   0.274
 8936SOL     OW27706   1.638   4.013   1.044
 8936SOL    HW127707   1.634   3.934   0.983
 8936SOL    HW227708   1.586   3.994   1.127
 8937SOL     OW27709   0.424   0.607   5.118
 8937SOL    HW127710   0.354   0.545   5.153
 8937SOL    HW227711   0.461   0.570   5.033
 8938SOL     OW27712   0.690   5.469   0.839
 8938SOL    HW127713   0.593   5.445   0.827
 8938SOL    HW227714   0.700   5.568   0.838
 8939SOL     OW27715   4.700   2.800   4.346
 8939SOL    HW127716   4.767   2.859   4.301
 8939SOL    HW227717   4.653   2.851   4.417
 8940SOL     OW27718   0.111   1.068   3.423
 8940SOL    HW127719   0.163   1.048   3.341
 8940SOL    HW227720   0.033   1.127   3.400
 8941SOL     OW27721   6.099   2.578   5.084
 8941SOL    HW127722   6.147   2.586   4.997
 8941SOL    HW227723   6.128   2.652   5.145
 8942SOL     OW27724   0.416   4.583   4.983
 8942SOL    HW127725   0.318   4.599   4.996
 8942SOL    HW227726   0.430   4.490   4.949
 8943SOL     OW27727   3.802   4.075   7.014
 8943SOL    HW127728   3.824   4.138   0.063
 8943SOL    HW227729   3.733   4.116   6.954
 8944SOL     OW27730   5.121   4.749   4.897
 8944SOL    HW127731   5.198   4.779   4.954
 8944SOL    HW227732   5.036   4.761   4.948
 8945SOL     OW27733   1.776   0.780   3.606
 8945SOL    HW127734   1.814   0.869   3.580
 8945SOL    HW227735   1.849   0.718   3.634
 8946SOL     OW27736   2.893   1.396   4.915
 8946SOL    HW127737   2.970   1.360   4.968
 8946SOL    HW227738   2.928   1.453   4.840
 8947SOL     OW27739   1.653   3.724   4.994
 8947SOL    HW127740   1.693   3.666   5.065
 8947SOL    HW227741   1.620   3.809   5.035
 8948SOL     OW27742   6.539   6.111   4.249
 8948SOL    HW127743   6.523   6.025   4.298
 8948SOL    HW227744   6.618   6.158   4.289
 8949SOL     OW27745   2.214   0.339   0.670
 8949SOL    HW127746   2.151   0.267   0.640
 8949SOL    HW227747   2.271   0.305   0.744
 8950SOL     OW27748   4.907   3.354   5.805
 8950SOL    HW127749   4.925   3.265   5.764
 8950SOL    HW227750   4.830   3.398   5.758
 8951SOL     OW27751   0.622   1.875   4.629
 8951SOL    HW127752   0.653   1.970   4.630
 8951SOL    HW227753   0.528   1.870   4.663
 8952SOL     OW27754   1.168   0.061   2.415
 8952SOL    HW127755   1.110   0.080   2.494
 8952SOL    HW227756   1.129   7.010   2.363
 8953SOL     OW27757   1.064   3.751   6.604
 8953SOL    HW127758   1.072   3.802   6.518
 8953SOL    HW227759   1.148   3.699   6.619
 8954SOL     OW27760   1.172   6.300   6.214
 8954SOL    HW127761   1.144   6.210   6.179
 8954SOL    HW227762   1.167   6.368   6.141
 8955SOL     OW27763   0.602   4.602   2.367
 8955SOL    HW127764   0.641   4.592   2.459
 8955SOL    HW227765   0.523   4.541   2.357
 8956SOL     OW27766   0.493   1.805   0.028
 8956SOL    HW127767   0.413   1.753   7.025
 8956SOL    HW227768   0.556   1.813   6.976
 8957SOL     OW27769   3.115   4.297   1.730
 8957SOL    HW127770   3.033   4.353   1.742
 8957SOL    HW227771   3.089   4.205   1.703
 8958SOL     OW27772   0.843   0.051   4.367
 8958SOL    HW127773   0.750   0.042   4.404
 8958SOL    HW227774   0.885   0.134   4.401
 8959SOL     OW27775   1.282   4.866   1.476
 8959SOL    HW127776   1.376   4.845   1.503
 8959SOL    HW227777   1.278   4.959   1.441
 8960SOL     OW27778   4.707   5.741   2.804
 8960SOL    HW127779   4.736   5.646   2.802
 8960SOL    HW227780   4.607   5.746   2.799
 8961SOL     OW27781   2.314   2.507   4.677
 8961SOL    HW127782   2.351   2.565   4.750
 8961SOL    HW227783   2.365   2.524   4.593
 8962SOL     OW27784   6.703   6.464   2.823
 8962SOL    HW127785   6.668   6.553   2.795
 8962SOL    HW227786   6.724   6.409   2.742
 8963SOL     OW27787   5.319   6.358   3.870
 8963SOL    HW127788   5.250   6.366   3.799
 8963SOL    HW227789   5.411   6.365   3.830
 8964SOL     OW27790   5.550   3.622   3.372
 8964SOL    HW127791   5.602   3.707   3.370
 8964SOL    HW227792   5.455   3.641   3.398
 8965SOL     OW27793   2.345   4.685   0.579
 8965SOL    HW127794   2.393   4.737   0.650
 8965SOL    HW227795   2.401   4.684   0.496
 8966SOL     OW27796   1.091   4.196   5.465
 8966SOL    HW127797   1.082   4.259   5.542
 8966SOL    HW227798   1.006   4.145   5.454
 8967SOL     OW27799   3.833   6.183   1.949
 8967SOL    HW127800   3.861   6.279   1.946
 8967SOL    HW227801   3.737   6.178   1.978
 8968SOL     OW27802   5.270   4.752   2.632
 8968SOL    HW127803   5.208   4.761   2.554
 8968SOL    HW227804   5.292   4.843   2.667
 8969SOL     OW27805   6.462   0.568   4.186
 8969SOL    HW127806   6.363   0.560   4.176
 8969SOL    HW227807   6.483   0.612   4.273
 8970SOL     OW27808   2.863   2.974   0.525
 8970SOL    HW127809   2.940   2.930   0.480
 8970SOL    HW227810   2.896   3.052   0.579
 8971SOL     OW27811   4.824   5.430   1.731
 8971SOL    HW127812   4.885   5.505   1.704
 8971SOL    HW227813   4.766   5.460   1.807
 8972SOL     OW27814   4.826   5.008   6.494
 8972SOL    HW127815   4.775   5.067   6.557
 8972SOL    HW227816   4.774   4.925   6.476
 8973SOL     OW27817   0.978   3.141   1.940
 8973SOL    HW127818   1.052   3.201   1.909
 8973SOL    HW227819   0.994   3.048   1.906
 8974SOL     OW27820   1.924   4.426   5.468
 8974SOL    HW127821   1.978   4.385   5.395
 8974SOL    HW227822   1.829   4.434   5.439
 8975SOL     OW27823   2.226   0.031   6.467
 8975SOL    HW127824   2.243   0.072   6.377
 8975SOL    HW227825   2.282   0.078   6.536
 8976SOL     OW27826   0.343   4.948   4.970
 8976SOL    HW127827   0.336   5.047   4.955
 8976SOL    HW227828   0.268   4.918   5.028
 8977SOL     OW27829   5.469   1.539   0.066
 8977SOL    HW127830   5.557   1.516   0.025
 8977SOL    HW227831   5.409   1.459   0.064
 8978SOL     OW27832   5.343   0.224   6.410
 8978SOL    HW127833   5.304   0.315   6.392
 8978SOL    HW227834   5.273   0.154   6.394
 8979SOL     OW27835   1.343   3.258   4.727
 8979SOL    HW127836   1.257   3.212   4.707
 8979SOL    HW227837   1.356   3.262   4.826
 8980SOL     OW27838   2.315   3.117   5.335
 8980SOL    HW127839   2.242   3.076   5.281
 8980SOL    HW227840   2.403   3.094   5.294
 8981SOL     OW27841   3.857   1.507   5.127
 8981SOL    HW127842   3.888   1.477   5.037
 8981SOL    HW227843   3.897   1.596   5.149
 8982SOL     OW27844   2.001   1.895   0.575
 8982SOL    HW127845   2.073   1.833   0.544
 8982SOL    HW227846   2.036   1.989   0.574
 8983SOL     OW27847   2.012   6.121   6.411
 8983SOL    HW127848   2.013   6.088   6.505
 8983SOL    HW227849   2.061   6.057   6.353
 8984SOL     OW27850   0.577   6.837   4.046
 8984SOL    HW127851   0.632   6.784   3.981
 8984SOL    HW227852   0.552   6.779   4.123
 8985SOL     OW27853   3.084   3.284   0.474
 8985SOL    HW127854   3.139   3.214   0.429
 8985SOL    HW227855   3.035   3.338   0.405
 8986SOL     OW27856   4.200   5.445   2.594
 8986SOL    HW127857   4.205   5.544   2.580
 8986SOL    HW227858   4.105   5.415   2.584
 8987SOL     OW27859   4.433   6.962   1.866
 8987SOL    HW127860   4.491   6.947   1.785
 8987SOL    HW227861   4.419   6.875   1.913
 8988SOL     OW27862   1.289   4.566   4.813
 8988SOL    HW127863   1.290   4.494   4.744
 8988SOL    HW227864   1.379   4.570   4.858
 8989SOL     OW27865   5.070   3.172   0.313
 8989SOL    HW127866   5.028   3.233   0.380
 8989SOL    HW227867   5.020   3.085   0.310
 8990SOL     OW27868   1.652   5.581   4.696
 8990SOL    HW127869   1.614   5.578   4.603
 8990SOL    HW227870   1.678   5.489   4.725
 8991SOL     OW27871   1.222   2.571   5.185
 8991SOL    HW127872   1.253   2.556   5.279
 8991SOL    HW227873   1.230   2.485   5.134
 8992SOL     OW27874   4.744   1.408   0.217
 8992SOL    HW127875   4.701   1.405   0.307
 8992SOL    HW227876   4.767   1.315   0.189
 8993SOL     OW27877   4.963   2.542   1.390
 8993SOL    HW127878   4.995   2.636   1.401
 8993SOL    HW227879   5.042   2.481   1.385
 8994SOL     OW27880   1.054   3.409   4.884
 8994SOL    HW127881   1.116   3.480   4.852
 8994SOL    HW227882   0.960   3.443   4.881
 8995SOL     OW27883   1.375   2.672   6.894
 8995SOL    HW127884   1.414   2.704   6.980
 8995SOL    HW227885   1.416   2.722   6.818
 8996SOL     OW27886   5.145   4.440   6.923
 8996SOL    HW127887   5.228   4.434   6.867
 8996SOL    HW227888   5.120   4.350   6.956
 8997SOL     OW27889   5.229   1.862   6.183
 8997SOL    HW127890   5.256   1.880   6.089
 8997SOL    HW227891   5.286   1.789   6.221
 8998SOL     OW27892   6.302   3.590   3.922
 8998SOL    HW127893   6.214   3.614   3.881
 8998SOL    HW227894   6.371   3.582   3.851
 8999SOL     OW27895   4.788   6.647   6.520
 8999SOL    HW127896   4.811   6.622   6.426
 8999SOL    HW227897   4.692   6.675   6.525
 9000SOL     OW27898   1.799   3.290   1.488
 9000SOL    HW127899   1.886   3.327   1.521
 9000SOL    HW227900   1.804   3.190   1.487
 9001SOL     OW27901   1.020   5.242   2.213
 9001SOL    HW127902   1.021   5.293   2.299
 9001SOL    HW227903   1.100   5.181   2.210
 9002SOL     OW27904   1.407   5.207   5.148
 9002SOL    HW127905   1.377   5.111   5.148
 9002SOL    HW227906   1.383   5.249   5.236
 9003SOL     OW27907   5.963   3.504   1.417
 9003SOL    HW127908   5.959   3.598   1.451
 9003SOL    HW227909   5.873   3.477   1.383
 9004SOL     OW27910   4.118   5.825   0.836
 9004SOL    HW127911   4.118   5.865   0.927
 9004SOL    HW227912   4.191   5.757   0.830
 9005SOL     OW27913   6.404   2.669   4.479
 9005SOL    HW127914   6.451   2.658   4.566
 9005SOL    HW227915   6.377   2.578   4.445
 9006SOL     OW27916   2.339   5.455   0.908
 9006SOL    HW127917   2.400   5.482   0.983
 9006SOL    HW227918   2.386   5.469   0.821
 9007SOL     OW27919   3.241   0.932   3.148
 9007SOL    HW127920   3.178   1.007   3.131
 9007SOL    HW227921   3.203   0.872   3.219
 9008SOL     OW27922   1.307   5.621   3.713
 9008SOL    HW127923   1.374   5.551   3.736
 9008SOL    HW227924   1.233   5.580   3.659
 9009SOL     OW27925   2.874   6.170   0.575
 9009SOL    HW127926   2.888   6.153   0.478
 9009SOL    HW227927   2.951   6.225   0.610
 9010SOL     OW27928   1.088   6.319   3.985
 9010SOL    HW127929   1.005   6.318   4.041
 9010SOL    HW227930   1.091   6.237   3.928
 9011SOL     OW27931   4.864   1.482   1.362
 9011SOL    HW127932   4.813   1.397   1.351
 9011SOL    HW227933   4.884   1.496   1.458
 9012SOL     OW27934   1.730   4.456   0.424
 9012SOL    HW127935   1.762   4.486   0.513
 9012SOL    HW227936   1.777   4.508   0.352
 9013SOL     OW27937   0.274   6.880   5.713
 9013SOL    HW127938   0.183   6.915   5.734
 9013SOL    HW227939   0.342   6.950   5.732
 9014SOL     OW27940   0.103   2.259   0.998
 9014SOL    HW127941   0.176   2.328   0.997
 9014SOL    HW227942   0.028   2.290   0.940
 9015SOL     OW27943   4.793   2.031   1.739
 9015SOL    HW127944   4.703   2.011   1.700
 9015SOL    HW227945   4.784   2.104   1.807
 9016SOL     OW27946   6.918   6.864   6.487
 9016SOL    HW127947   6.950   6.804   6.414
 9016SOL    HW227948   6.944   6.958   6.466
 9017SOL     OW27949   4.659   1.570   3.939
 9017SOL    HW127950   4.750   1.549   3.905
 9017SOL    HW227951   4.658   1.665   3.972
 9018SOL     OW27952   3.217   2.836   6.633
 9018SOL    HW127953   3.193   2.933   6.627
 9018SOL    HW227954   3.314   2.824   6.612
 9019SOL     OW27955   1.262   5.101   2.185
 9019SOL    HW127956   1.293   5.184   2.138
 9019SOL    HW227957   1.291   5.020   2.133
 9020SOL     OW27958   7.015   4.084   0.719
 9020SOL    HW127959   0.047   4.003   0.726
 9020SOL    HW227960   6.976   4.106   0.808
 9021SOL     OW27961   6.603   0.287   3.727
 9021SOL    HW127962   6.662   0.368   3.725
 9021SOL    HW227963   6.655   0.208   3.759
 9022SOL     OW27964   3.149   1.241   6.787
 9022SOL    HW127965   3.183   1.335   6.785
 9022SOL    HW227966   3.093   1.227   6.869
 9023SOL     OW27967   3.453   2.820   2.538
 9023SOL    HW127968   3.468   2.721   2.540
 9023SOL    HW227969   3.402   2.848   2.619
 9024SOL     OW27970   1.035   3.832   4.910
 9024SOL    HW127971   1.058   3.742   4.949
 9024SOL    HW227972   0.963   3.874   4.964
 9025SOL     OW27973   0.912   5.452   0.720
 9025SOL    HW127974   0.971   5.512   0.774
 9025SOL    HW227975   0.818   5.457   0.756
 9026SOL     OW27976   3.684   3.105   0.898
 9026SOL    HW127977   3.625   3.180   0.928
 9026SOL    HW227978   3.753   3.140   0.836
 9027SOL     OW27979   1.310   3.150   2.848
 9027SOL    HW127980   1.238   3.176   2.913
 9027SOL    HW227981   1.307   3.051   2.833
 9028SOL     OW27982   3.049   2.928   5.225
 9028SOL    HW127983   3.125   2.897   5.168
 9028SOL    HW227984   3.084   2.984   5.300
 9029SOL     OW27985   3.802   6.790   4.637
 9029SOL    HW127986   3.704   6.808   4.642
 9029SOL    HW227987   3.853   6.875   4.647
 9030SOL     OW27988   2.814   1.966   3.177
 9030SOL    HW127989   2.870   1.884   3.170
 9030SOL    HW227990   2.728   1.952   3.128
 9031SOL     OW27991   3.965   6.055   4.798
 9031SOL    HW127992   4.012   5.994   4.734
 9031SOL    HW227993   3.877   6.015   4.824
 9032SOL     OW27994   4.046   3.910   0.955
 9032SOL    HW127995   3.981   3.943   1.023
 9032SOL    HW227996   4.138   3.908   0.994
 9033SOL     OW27997   6.811   4.006   2.989
 9033SOL    HW127998   6.787   4.043   2.900
 9033SOL    HW227999   6.729   4.004   3.047
 9034SOL     OW28000   3.286   6.274   4.438
 9034SOL    HW128001   3.267   6.370   4.420
 9034SOL    HW228002   3.285   6.258   4.537
 9035SOL     OW28003   2.554   4.256   0.265
 9035SOL    HW128004   2.456   4.244   0.251
 9035SOL    HW228005   2.571   4.341   0.316
 9036SOL     OW28006   2.019   3.013   5.598
 9036SOL    HW128007   2.007   2.944   5.526
 9036SOL    HW228008   2.053   2.969   5.680
 9037SOL     OW28009   1.070   4.046   4.701
 9037SOL    HW128010   1.039   3.972   4.761
 9037SOL    HW228011   1.152   4.017   4.652
 9038SOL     OW28012   4.631   0.793   6.485
 9038SOL    HW128013   4.582   0.834   6.562
 9038SOL    HW228014   4.591   0.704   6.463
 9039SOL     OW28015   2.363   5.408   5.706
 9039SOL    HW128016   2.361   5.350   5.788
 9039SOL    HW228017   2.308   5.490   5.722
 9040SOL     OW28018   3.125   2.063   2.431
 9040SOL    HW128019   3.093   2.105   2.346
 9040SOL    HW228020   3.218   2.028   2.417
 9041SOL     OW28021   1.334   1.721   1.605
 9041SOL    HW128022   1.409   1.663   1.573
 9041SOL    HW228023   1.247   1.676   1.586
 9042SOL     OW28024   3.845   6.515   4.654
 9042SOL    HW128025   3.840   6.615   4.645
 9042SOL    HW228026   3.778   6.485   4.722
 9043SOL     OW28027   1.659   0.901   6.379
 9043SOL    HW128028   1.706   0.863   6.459
 9043SOL    HW228029   1.613   0.986   6.405
 9044SOL     OW28030   6.613   0.102   0.653
 9044SOL    HW128031   6.634   0.004   0.661
 9044SOL    HW228032   6.586   0.137   0.743
 9045SOL     OW28033   3.345   1.634   2.559
 9045SOL    HW128034   3.401   1.601   2.482
 9045SOL    HW228035   3.312   1.556   2.611
 9046SOL     OW28036   3.357   4.129   2.734
 9046SOL    HW128037   3.323   4.222   2.745
 9046SOL    HW228038   3.402   4.100   2.818
 9047SOL     OW28039   1.962   3.767   5.250
 9047SOL    HW128040   1.899   3.844   5.245
 9047SOL    HW228041   2.052   3.795   5.215
 9048SOL     OW28042   5.780   2.892   5.523
 9048SOL    HW128043   5.823   2.816   5.474
 9048SOL    HW228044   5.702   2.857   5.574
 9049SOL     OW28045   3.759   6.361   6.022
 9049SOL    HW128046   3.792   6.456   6.026
 9049SOL    HW228047   3.706   6.348   5.938
 9050SOL     OW28048   1.140   3.427   0.918
 9050SOL    HW128049   1.055   3.475   0.943
 9050SOL    HW228050   1.130   3.386   0.828
 9051SOL     OW28051   3.484   0.004   1.445
 9051SOL    HW128052   3.393   0.032   1.476
 9051SOL    HW228053   3.547   0.082   1.452
 9052SOL     OW28054   2.513   2.112   3.484
 9052SOL    HW128055   2.593   2.068   3.444
 9052SOL    HW228056   2.499   2.078   3.577
 9053SOL     OW28057   1.848   1.446   2.681
 9053SOL    HW128058   1.893   1.457   2.593
 9053SOL    HW228059   1.897   1.377   2.735
 9054SOL     OW28060   2.856   6.017   3.529
 9054SOL    HW128061   2.865   5.978   3.621
 9054SOL    HW228062   2.938   6.071   3.508
 9055SOL     OW28063   5.987   2.660   4.492
 9055SOL    HW128064   5.944   2.708   4.569
 9055SOL    HW228065   5.916   2.616   4.437
 9056SOL     OW28066   1.330   2.497   1.524
 9056SOL    HW128067   1.249   2.554   1.509
 9056SOL    HW228068   1.382   2.534   1.602
 9057SOL     OW28069   4.741   2.892   5.717
 9057SOL    HW128070   4.801   2.812   5.707
 9057SOL    HW228071   4.664   2.883   5.654
 9058SOL     OW28072   1.995   0.880   1.937
 9058SOL    HW128073   2.074   0.894   1.997
 9058SOL    HW228074   1.928   0.823   1.984
 9059SOL     OW28075   1.703   1.916   3.145
 9059SOL    HW128076   1.689   1.885   3.051
 9059SOL    HW228077   1.615   1.941   3.185
 9060SOL     OW28078   6.514   2.910   4.294
 9060SOL    HW128079   6.542   2.994   4.248
 9060SOL    HW228080   6.447   2.862   4.239
 9061SOL     OW28081   2.408   5.624   2.124
 9061SOL    HW128082   2.421   5.666   2.214
 9061SOL    HW228083   2.343   5.680   2.071
 9062SOL     OW28084   1.312   6.598   2.565
 9062SOL    HW128085   1.226   6.583   2.613
 9062SOL    HW228086   1.298   6.585   2.467
 9063SOL     OW28087   3.521   0.465   4.373
 9063SOL    HW128088   3.495   0.562   4.374
 9063SOL    HW228089   3.469   0.417   4.444
 9064SOL     OW28090   5.993   2.186   5.901
 9064SOL    HW128091   6.020   2.203   5.996
 9064SOL    HW228092   5.906   2.232   5.882
 9065SOL     OW28093   3.875   0.891   0.110
 9065SOL    HW128094   3.849   0.801   0.147
 9065SOL    HW228095   3.792   0.945   0.096
 9066SOL     OW28096   5.482   6.146   0.660
 9066SOL    HW128097   5.549   6.147   0.735
 9066SOL    HW228098   5.464   6.239   0.630
 9067SOL     OW28099   1.082   0.696   4.250
 9067SOL    HW128100   1.151   0.678   4.181
 9067SOL    HW228101   1.012   0.758   4.213
 9068SOL     OW28102   1.442   6.411   4.379
 9068SOL    HW128103   1.470   6.365   4.294
 9068SOL    HW228104   1.381   6.351   4.430
 9069SOL     OW28105   1.625   2.992   1.572
 9069SOL    HW128106   1.566   2.914   1.554
 9069SOL    HW228107   1.700   2.993   1.506
 9070SOL     OW28108   1.623   3.460   5.196
 9070SOL    HW128109   1.604   3.415   5.283
 9070SOL    HW228110   1.714   3.500   5.198
 9071SOL     OW28111   6.524   6.691   2.012
 9071SOL    HW128112   6.480   6.607   2.043
 9071SOL    HW228113   6.546   6.684   1.915
 9072SOL     OW28114   0.710   2.089   0.985
 9072SOL    HW128115   0.649   2.137   1.048
 9072SOL    HW228116   0.805   2.116   1.005
 9073SOL     OW28117   2.715   6.873   2.673
 9073SOL    HW128118   2.729   6.794   2.614
 9073SOL    HW228119   2.617   6.887   2.687
 9074SOL     OW28120   1.224   0.487   2.562
 9074SOL    HW128121   1.146   0.545   2.542
 9074SOL    HW228122   1.236   0.420   2.489
 9075SOL     OW28123   0.066   1.299   2.378
 9075SOL    HW128124   0.154   1.332   2.345
 9075SOL    HW228125   0.023   1.243   2.308
 9076SOL     OW28126   6.933   1.446   6.334
 9076SOL    HW128127   6.874   1.521   6.364
 9076SOL    HW228128   6.891   1.400   6.256
 9077SOL     OW28129   4.812   0.518   1.191
 9077SOL    HW128130   4.846   0.454   1.122
 9077SOL    HW228131   4.888   0.568   1.232
 9078SOL     OW28132   3.401   3.530   5.086
 9078SOL    HW128133   3.470   3.597   5.057
 9078SOL    HW228134   3.446   3.442   5.104
 9079SOL     OW28135   2.626   0.845   4.697
 9079SOL    HW128136   2.641   0.926   4.639
 9079SOL    HW228137   2.528   0.835   4.714
 9080SOL     OW28138   4.805   2.520   6.929
 9080SOL    HW128139   4.852   2.599   6.890
 9080SOL    HW228140   4.843   2.436   6.892
 9081SOL     OW28141   4.427   6.961   2.343
 9081SOL    HW128142   4.493   7.020   2.296
 9081SOL    HW228143   4.443   6.966   2.441
 9082SOL     OW28144   2.305   0.403   5.031
 9082SOL    HW128145   2.255   0.471   5.085
 9082SOL    HW228146   2.366   0.352   5.091
 9083SOL     OW28147   3.452   4.924   5.894
 9083SOL    HW128148   3.409   4.974   5.970
 9083SOL    HW228149   3.421   4.828   5.896
 9084SOL     OW28150   3.286   3.981   3.222
 9084SOL    HW128151   3.295   3.887   3.255
 9084SOL    HW228152   3.207   3.987   3.160
 9085SOL     OW28153   2.377   0.291   0.937
 9085SOL    HW128154   2.465   0.323   0.971
 9085SOL    HW228155   2.319   0.264   1.014
 9086SOL     OW28156   0.554   4.276   0.367
 9086SOL    HW128157   0.500   4.253   0.286
 9086SOL    HW228158   0.637   4.220   0.369
 9087SOL     OW28159   4.747   2.403   1.291
 9087SOL    HW128160   4.834   2.448   1.311
 9087SOL    HW228161   4.744   2.376   1.194
 9088SOL     OW28162   6.715   6.761   1.146
 9088SOL    HW128163   6.676   6.852   1.151
 9088SOL    HW228164   6.669   6.701   1.212
 9089SOL     OW28165   5.234   6.611   5.788
 9089SOL    HW128166   5.311   6.574   5.735
 9089SOL    HW228167   5.174   6.664   5.727
 9090SOL     OW28168   5.639   1.038   5.544
 9090SOL    HW128169   5.580   1.105   5.500
 9090SOL    HW228170   5.592   0.949   5.546
 9091SOL     OW28171   2.918   3.540   6.811
 9091SOL    HW128172   2.969   3.621   6.841
 9091SOL    HW228173   2.856   3.565   6.736
 9092SOL     OW28174   6.708   0.918   6.932
 9092SOL    HW128175   6.624   0.868   6.950
 9092SOL    HW228176   6.782   0.881   6.988
 9093SOL     OW28177   1.470   6.404   5.303
 9093SOL    HW128178   1.419   6.443   5.380
 9093SOL    HW228179   1.568   6.420   5.316
 9094SOL     OW28180   6.442   4.220   2.731
 9094SOL    HW128181   6.382   4.148   2.697
 9094SOL    HW228182   6.419   4.241   2.826
 9095SOL     OW28183   4.515   4.600   6.150
 9095SOL    HW128184   4.444   4.651   6.199
 9095SOL    HW228185   4.473   4.527   6.097
 9096SOL     OW28186   6.152   5.528   2.925
 9096SOL    HW128187   6.189   5.436   2.916
 9096SOL    HW228188   6.196   5.574   3.003
 9097SOL     OW28189   2.520   1.998   0.131
 9097SOL    HW128190   2.511   2.007   0.032
 9097SOL    HW228191   2.585   2.066   0.165
 9098SOL     OW28192   2.908   1.713   5.388
 9098SOL    HW128193   2.924   1.808   5.414
 9098SOL    HW228194   2.828   1.707   5.328
 9099SOL     OW28195   2.561   3.029   6.511
 9099SOL    HW128196   2.562   2.980   6.423
 9099SOL    HW228197   2.468   3.030   6.547
 9100SOL     OW28198   0.917   3.632   3.044
 9100SOL    HW128199   0.877   3.608   2.956
 9100SOL    HW228200   1.016   3.628   3.038
 9101SOL     OW28201   2.800   1.596   2.331
 9101SOL    HW128202   2.700   1.595   2.332
 9101SOL    HW228203   2.834   1.622   2.422
 9102SOL     OW28204   3.312   6.528   1.951
 9102SOL    HW128205   3.225   6.537   1.999
 9102SOL    HW228206   3.303   6.458   1.879
 9103SOL     OW28207   5.223   1.494   0.286
 9103SOL    HW128208   5.130   1.509   0.251
 9103SOL    HW228209   5.243   1.559   0.358
 9104SOL     OW28210   0.091   6.552   1.737
 9104SOL    HW128211   0.104   6.624   1.805
 9104SOL    HW228212   0.012   6.496   1.762
 9105SOL     OW28213   1.271   0.204   5.345
 9105SOL    HW128214   1.269   0.124   5.285
 9105SOL    HW228215   1.229   0.281   5.298
 9106SOL     OW28216   0.209   3.155   0.585
 9106SOL    HW128217   0.141   3.099   0.631
 9106SOL    HW228218   0.300   3.134   0.621
 9107SOL     OW28219   1.725   0.964   6.659
 9107SOL    HW128220   1.796   1.031   6.637
 9107SOL    HW228221   1.664   1.002   6.730
 9108SOL     OW28222   4.396   3.913   5.653
 9108SOL    HW128223   4.474   3.896   5.713
 9108SOL    HW228224   4.321   3.953   5.706
 9109SOL     OW28225   4.794   2.989   3.210
 9109SOL    HW128226   4.787   2.935   3.127
 9109SOL    HW228227   4.843   3.074   3.190
 9110SOL     OW28228   1.225   5.546   4.259
 9110SOL    HW128229   1.273   5.481   4.200
 9110SOL    HW228230   1.196   5.500   4.343
 9111SOL     OW28231   4.584   2.712   6.627
 9111SOL    HW128232   4.557   2.617   6.609
 9111SOL    HW228233   4.625   2.751   6.544
 9112SOL     OW28234   1.262   5.021   2.663
 9112SOL    HW128235   1.293   4.992   2.572
 9112SOL    HW228236   1.170   4.986   2.679
 9113SOL     OW28237   5.023   2.763   3.731
 9113SOL    HW128238   5.013   2.669   3.764
 9113SOL    HW228239   5.118   2.792   3.743
 9114SOL     OW28240   0.867   5.893   3.909
 9114SOL    HW128241   0.852   5.884   4.007
 9114SOL    HW228242   0.782   5.870   3.860
 9115SOL     OW28243   6.188   5.486   4.559
 9115SOL    HW128244   6.149   5.556   4.501
 9115SOL    HW228245   6.209   5.525   4.649
 9116SOL     OW28246   6.656   0.215   2.952
 9116SOL    HW128247   6.656   0.283   2.879
 9116SOL    HW228248   6.658   0.261   3.041
 9117SOL     OW28249   4.457   1.732   6.608
 9117SOL    HW128250   4.448   1.752   6.511
 9117SOL    HW228251   4.550   1.750   6.638
 9118SOL     OW28252   6.308   3.763   0.112
 9118SOL    HW128253   6.328   3.854   0.147
 9118SOL    HW228254   6.216   3.761   0.073
 9119SOL     OW28255   4.183   0.194   1.498
 9119SOL    HW128256   4.201   0.096   1.498
 9119SOL    HW228257   4.187   0.228   1.404
 9120SOL     OW28258   6.247   2.940   5.654
 9120SOL    HW128259   6.150   2.941   5.680
 9120SOL    HW228260   6.276   3.034   5.633
 9121SOL     OW28261   4.101   6.780   5.682
 9121SOL    HW128262   4.188   6.828   5.693
 9121SOL    HW228263   4.037   6.839   5.633
 9122SOL     OW28264   2.142   4.040   2.153
 9122SOL    HW128265   2.217   4.088   2.107
 9122SOL    HW228266   2.089   3.989   2.086
 9123SOL     OW28267   1.345   0.691   3.810
 9123SOL    HW128268   1.269   0.689   3.745
 9123SOL    HW228269   1.424   0.734   3.765
 9124SOL     OW28270   4.048   5.340   1.761
 9124SOL    HW128271   4.002   5.273   1.819
 9124SOL    HW228272   4.118   5.388   1.815
 9125SOL     OW28273   4.180   4.867   0.934
 9125SOL    HW128274   4.090   4.829   0.957
 9125SOL    HW228275   4.170   4.962   0.904
 9126SOL     OW28276   4.959   4.149   0.540
 9126SOL    HW128277   5.029   4.210   0.578
 9126SOL    HW228278   4.963   4.061   0.586
 9127SOL     OW28279   6.825   2.933   4.354
 9127SOL    HW128280   6.743   2.955   4.408
 9127SOL    HW228281   6.901   2.912   4.416
 9128SOL     OW28282   6.556   2.684   4.695
 9128SOL    HW128283   6.527   2.689   4.791
 9128SOL    HW228284   6.655   2.683   4.690
 9129SOL     OW28285   1.698   2.443   0.868
 9129SOL    HW128286   1.686   2.372   0.938
 9129SOL    HW228287   1.775   2.419   0.809
 9130SOL     OW28288   1.024   4.199   6.141
 9130SOL    HW128289   1.063   4.114   6.177
 9130SOL    HW228290   1.010   4.264   6.217
 9131SOL     OW28291   5.706   2.966   0.087
 9131SOL    HW128292   5.614   2.933   0.067
 9131SOL    HW228293   5.761   2.891   0.125
 9132SOL     OW28294   0.580   4.777   4.116
 9132SOL    HW128295   0.621   4.854   4.164
 9132SOL    HW228296   0.581   4.696   4.175
 9133SOL     OW28297   2.791   0.746   1.145
 9133SOL    HW128298   2.886   0.775   1.156
 9133SOL    HW228299   2.748   0.797   1.071
 9134SOL     OW28300   4.184   5.418   0.731
 9134SOL    HW128301   4.240   5.356   0.676
 9134SOL    HW228302   4.243   5.483   0.780
 9135SOL     OW28303   1.094   6.392   1.508
 9135SOL    HW128304   1.147   6.442   1.440
 9135SOL    HW228305   1.048   6.457   1.569
 9136SOL     OW28306   4.521   5.137   5.882
 9136SOL    HW128307   4.445   5.190   5.844
 9136SOL    HW228308   4.606   5.163   5.837
 9137SOL     OW28309   4.773   6.393   5.708
 9137SOL    HW128310   4.807   6.370   5.799
 9137SOL    HW228311   4.694   6.335   5.686
 9138SOL     OW28312   2.212   2.953   0.803
 9138SOL    HW128313   2.129   2.998   0.771
 9138SOL    HW228314   2.189   2.883   0.871
 9139SOL     OW28315   0.781   1.164   1.414
 9139SOL    HW128316   0.777   1.208   1.324
 9139SOL    HW228317   0.877   1.146   1.437
 9140SOL     OW28318   0.222   4.478   1.561
 9140SOL    HW128319   0.129   4.485   1.525
 9140SOL    HW228320   0.287   4.495   1.488
 9141SOL     OW28321   0.014   5.616   6.650
 9141SOL    HW128322   0.069   5.698   6.634
 9141SOL    HW228323   0.003   5.601   6.748
 9142SOL     OW28324   0.486   2.652   2.459
 9142SOL    HW128325   0.433   2.636   2.376
 9142SOL    HW228326   0.552   2.577   2.470
 9143SOL     OW28327   0.154   3.576   1.350
 9143SOL    HW128328   0.056   3.583   1.329
 9143SOL    HW228329   0.205   3.556   1.266
 9144SOL     OW28330   2.850   4.853   4.850
 9144SOL    HW128331   2.829   4.779   4.914
 9144SOL    HW228332   2.861   4.815   4.758
 9145SOL     OW28333   1.390   7.003   6.323
 9145SOL    HW128334   1.323   0.043   6.361
 9145SOL    HW228335   1.465   6.991   6.389
 9146SOL     OW28336   6.176   3.159   3.445
 9146SOL    HW128337   6.199   3.068   3.410
 9146SOL    HW228338   6.096   3.153   3.505
 9147SOL     OW28339   5.829   0.370   4.941
 9147SOL    HW128340   5.901   0.380   5.009
 9147SOL    HW228341   5.847   0.430   4.864
 9148SOL     OW28342   6.104   0.420   1.976
 9148SOL    HW128343   6.015   0.432   2.020
 9148SOL    HW228344   6.166   0.492   2.007
 9149SOL     OW28345   5.634   2.726   1.505
 9149SOL    HW128346   5.545   2.732   1.550
 9149SOL    HW228347   5.686   2.810   1.522
 9150SOL     OW28348   3.022   4.696   0.259
 9150SOL    HW128349   3.032   4.678   0.162
 9150SOL    HW228350   3.073   4.627   0.311
 9151SOL     OW28351   2.191   4.026   3.861
 9151SOL    HW128352   2.167   3.929   3.863
 9151SOL    HW228353   2.214   4.056   3.954
 9152SOL     OW28354   1.959   3.864   4.118
 9152SOL    HW128355   1.995   3.856   4.025
 9152SOL    HW228356   1.904   3.782   4.139
 9153SOL     OW28357   0.523   2.741   6.319
 9153SOL    HW128358   0.461   2.711   6.392
 9153SOL    HW228359   0.570   2.661   6.281
 9154SOL     OW28360   5.594   5.222   3.093
 9154SOL    HW128361   5.615   5.150   3.160
 9154SOL    HW228362   5.619   5.311   3.132
 9155SOL     OW28363   2.047   5.221   2.300
 9155SOL    HW128364   2.111   5.204   2.224
 9155SOL    HW228365   1.955   5.195   2.272
 9156SOL     OW28366   6.962   3.053   1.065
 9156SOL    HW128367   6.883   3.055   1.127
 9156SOL    HW228368   6.971   3.143   1.021
 9157SOL     OW28369   3.410   4.078   6.488
 9157SOL    HW128370   3.366   4.037   6.568
 9157SOL    HW228371   3.494   4.124   6.517
 9158SOL     OW28372   6.420   4.052   3.878
 9158SOL    HW128373   6.436   4.000   3.963
 9158SOL    HW228374   6.439   4.149   3.895
 9159SOL     OW28375   2.663   0.278   3.228
 9159SOL    HW128376   2.736   0.276   3.296
 9159SOL    HW228377   2.693   0.231   3.145
 9160SOL     OW28378   0.454   4.922   6.996
 9160SOL    HW128379   0.505   4.992   0.020
 9160SOL    HW228380   0.515   4.847   6.971
 9161SOL     OW28381   5.724   3.998   1.982
 9161SOL    HW128382   5.708   4.092   2.013
 9161SOL    HW228383   5.813   3.967   2.015
 9162SOL     OW28384   4.170   1.677   2.506
 9162SOL    HW128385   4.207   1.673   2.598
 9162SOL    HW228386   4.240   1.713   2.443
 9163SOL     OW28387   0.159   1.942   1.919
 9163SOL    HW128388   0.067   1.958   1.955
 9163SOL    HW228389   0.223   2.006   1.962
 9164SOL     OW28390   2.372   0.158   6.671
 9164SOL    HW128391   2.309   0.135   6.746
 9164SOL    HW228392   2.408   0.250   6.686
 9165SOL     OW28393   4.594   2.126   5.781
 9165SOL    HW128394   4.505   2.156   5.747
 9165SOL    HW228395   4.656   2.110   5.705
 9166SOL     OW28396   4.133   5.759   1.379
 9166SOL    HW128397   4.154   5.677   1.432
 9166SOL    HW228398   4.217   5.809   1.360
 9167SOL     OW28399   0.829   2.179   6.061
 9167SOL    HW128400   0.832   2.083   6.033
 9167SOL    HW228401   0.808   2.236   5.981
 9168SOL     OW28402   6.243   5.110   5.677
 9168SOL    HW128403   6.267   5.014   5.665
 9168SOL    HW228404   6.170   5.118   5.745
 9169SOL     OW28405   6.353   6.342   6.559
 9169SOL    HW128406   6.271   6.394   6.582
 9169SOL    HW228407   6.434   6.392   6.589
 9170SOL     OW28408   1.417   1.670   5.767
 9170SOL    HW128409   1.458   1.751   5.809
 9170SOL    HW228410   1.416   1.595   5.833
 9171SOL     OW28411   2.942   4.816   0.785
 9171SOL    HW128412   3.010   4.784   0.851
 9171SOL    HW228413   2.907   4.738   0.733
 9172SOL     OW28414   4.511   1.433   4.795
 9172SOL    HW128415   4.505   1.410   4.697
 9172SOL    HW228416   4.498   1.531   4.807
 9173SOL     OW28417   6.756   2.318   3.763
 9173SOL    HW128418   6.808   2.367   3.833
 9173SOL    HW228419   6.786   2.346   3.672
 9174SOL     OW28420   0.788   6.206   0.394
 9174SOL    HW128421   0.828   6.201   0.486
 9174SOL    HW228422   0.846   6.262   0.336
 9175SOL     OW28423   1.577   7.009   0.167
 9175SOL    HW128424   1.648   0.013   0.103
 9175SOL    HW228425   1.523   0.062   0.195
 9176SOL     OW28426   1.929   1.059   3.069
 9176SOL    HW128427   1.970   0.972   3.043
 9176SOL    HW228428   2.001   1.123   3.097
 9177SOL     OW28429   0.837   3.544   3.665
 9177SOL    HW128430   0.803   3.497   3.584
 9177SOL    HW228431   0.893   3.623   3.638
 9178SOL     OW28432   2.225   6.440   6.699
 9178SOL    HW128433   2.131   6.445   6.733
 9178SOL    HW228434   2.251   6.344   6.686
 9179SOL     OW28435   3.385   6.032   5.642
 9179SOL    HW128436   3.399   5.942   5.599
 9179SOL    HW228437   3.363   6.100   5.572
 9180SOL     OW28438   6.987   2.254   4.155
 9180SOL    HW128439   6.903   2.287   4.112
 9180SOL    HW228440   0.008   2.330   4.200
 9181SOL     OW28441   4.462   2.106   3.597
 9181SOL    HW128442   4.433   2.074   3.507
 9181SOL    HW228443   4.442   2.204   3.606
 9182SOL     OW28444   1.738   0.778   3.207
 9182SOL    HW128445   1.810   0.835   3.248
 9182SOL    HW228446   1.652   0.829   3.204
 9183SOL     OW28447   5.146   2.614   6.955
 9183SOL    HW128448   5.175   2.520   6.939
 9183SOL    HW228449   5.117   2.624   0.024
 9184SOL     OW28450   3.424   2.960   0.758
 9184SOL    HW128451   3.509   3.011   0.742
 9184SOL    HW228452   3.440   2.890   0.827
 9185SOL     OW28453   0.226   0.295   6.482
 9185SOL    HW128454   0.222   0.328   6.576
 9185SOL    HW228455   0.280   0.211   6.477
 9186SOL     OW28456   4.548   0.663   6.142
 9186SOL    HW128457   4.642   0.686   6.167
 9186SOL    HW228458   4.539   0.564   6.133
 9187SOL     OW28459   4.854   2.003   6.777
 9187SOL    HW128460   4.761   2.022   6.809
 9187SOL    HW228461   4.852   1.930   6.708
 9188SOL     OW28462   1.661   0.331   1.041
 9188SOL    HW128463   1.581   0.392   1.040
 9188SOL    HW228464   1.659   0.273   0.960
 9189SOL     OW28465   2.790   1.313   2.731
 9189SOL    HW128466   2.718   1.334   2.666
 9189SOL    HW228467   2.879   1.325   2.687
 9190SOL     OW28468   5.875   3.356   5.238
 9190SOL    HW128469   5.813   3.347   5.159
 9190SOL    HW228470   5.848   3.291   5.309
 9191SOL     OW28471   5.346   6.532   7.021
 9191SOL    HW128472   5.394   6.445   7.013
 9191SOL    HW228473   5.292   6.548   6.938
 9192SOL     OW28474   6.736   4.253   5.553
 9192SOL    HW128475   6.759   4.188   5.625
 9192SOL    HW228476   6.816   4.268   5.495
 9193SOL     OW28477   3.459   3.392   4.044
 9193SOL    HW128478   3.500   3.367   3.956
 9193SOL    HW228479   3.390   3.324   4.069
 9194SOL     OW28480   3.428   6.129   2.515
 9194SOL    HW128481   3.366   6.051   2.509
 9194SOL    HW228482   3.474   6.141   2.427
 9195SOL     OW28483   0.619   3.081   3.381
 9195SOL    HW128484   0.627   3.083   3.481
 9195SOL    HW228485   0.708   3.063   3.341
 9196SOL     OW28486   3.145   0.882   4.030
 9196SOL    HW128487   3.237   0.845   4.043
 9196SOL    HW228488   3.093   0.871   4.115
 9197SOL     OW28489   2.547   3.547   0.064
 9197SOL    HW128490   2.539   3.488   7.009
 9197SOL    HW228491   2.537   3.643   0.036
 9198SOL     OW28492   5.656   4.459   5.853
 9198SOL    HW128493   5.577   4.440   5.911
 9198SOL    HW228494   5.630   4.523   5.781
 9199SOL     OW28495   1.341   4.124   5.797
 9199SOL    HW128496   1.327   4.080   5.886
 9199SOL    HW228497   1.304   4.065   5.725
 9200SOL     OW28498   0.262   6.368   0.681
 9200SOL    HW128499   0.182   6.336   0.631
 9200SOL    HW228500   0.287   6.460   0.649
 9201SOL     OW28501   0.137   4.098   1.835
 9201SOL    HW128502   0.063   4.165   1.848
 9201SOL    HW228503   0.102   4.020   1.784
 9202SOL     OW28504   2.011   4.870   4.164
 9202SOL    HW128505   2.101   4.912   4.164
 9202SOL    HW228506   1.969   4.879   4.254
 9203SOL     OW28507   5.093   1.737   6.466
 9203SOL    HW128508   5.065   1.722   6.371
 9203SOL    HW228509   5.153   1.663   6.495
 9204SOL     OW28510   5.564   4.011   2.951
 9204SOL    HW128511   5.503   4.059   3.014
 9204SOL    HW228512   5.635   3.964   3.002
 9205SOL     OW28513   5.468   3.364   2.501
 9205SOL    HW128514   5.370   3.381   2.505
 9205SOL    HW228515   5.517   3.441   2.542
 9206SOL     OW28516   2.342   6.737   4.251
 9206SOL    HW128517   2.306   6.649   4.279
 9206SOL    HW228518   2.387   6.728   4.162
 9207SOL     OW28519   4.085   6.624   6.183
 9207SOL    HW128520   4.179   6.597   6.204
 9207SOL    HW228521   4.054   6.693   6.249
 9208SOL     OW28522   4.911   3.428   2.249
 9208SOL    HW128523   4.830   3.371   2.237
 9208SOL    HW228524   4.992   3.378   2.216
 9209SOL     OW28525   4.367   1.296   2.670
 9209SOL    HW128526   4.270   1.286   2.691
 9209SOL    HW228527   4.416   1.325   2.752
 9210SOL     OW28528   2.318   6.461   1.617
 9210SOL    HW128529   2.223   6.492   1.625
 9210SOL    HW228530   2.379   6.538   1.635
 9211SOL     OW28531   5.361   1.581   6.203
 9211SOL    HW128532   5.289   1.512   6.210
 9211SOL    HW228533   5.388   1.592   6.107
 9212SOL     OW28534   4.579   4.478   4.447
 9212SOL    HW128535   4.644   4.551   4.468
 9212SOL    HW228536   4.486   4.511   4.463
 9213SOL     OW28537   5.757   0.146   4.737
 9213SOL    HW128538   5.785   0.177   4.827
 9213SOL    HW228539   5.758   0.222   4.673
 9214SOL     OW28540   1.855   2.673   4.461
 9214SOL    HW128541   1.897   2.689   4.550
 9214SOL    HW228542   1.778   2.609   4.471
 9215SOL     OW28543   0.423   3.715   2.538
 9215SOL    HW128544   0.365   3.640   2.508
 9215SOL    HW228545   0.511   3.711   2.490
 9216SOL     OW28546   2.709   6.037   4.786
 9216SOL    HW128547   2.614   6.065   4.799
 9216SOL    HW228548   2.724   6.016   4.690
 9217SOL     OW28549   5.147   1.346   6.246
 9217SOL    HW128550   5.230   1.311   6.290
 9217SOL    HW228551   5.098   1.270   6.201
 9218SOL     OW28552   5.414   0.081   6.941
 9218SOL    HW128553   5.334   0.033   6.903
 9218SOL    HW228554   5.394   0.112   0.008
 9219SOL     OW28555   3.766   3.003   5.542
 9219SOL    HW128556   3.829   3.025   5.617
 9219SOL    HW228557   3.792   3.054   5.460
 9220SOL     OW28558   2.145   6.336   3.167
 9220SOL    HW128559   2.091   6.370   3.244
 9220SOL    HW228560   2.212   6.406   3.141
 9221SOL     OW28561   2.864   0.405   6.036
 9221SOL    HW128562   2.948   0.364   6.071
 9221SOL    HW228563   2.859   0.500   6.064
 9222SOL     OW28564   2.029   4.280   3.846
 9222SOL    HW128565   2.049   4.362   3.900
 9222SOL    HW228566   2.103   4.214   3.857
 9223SOL     OW28567   1.353   3.974   4.610
 9223SOL    HW128568   1.405   3.907   4.559
 9223SOL    HW228569   1.412   4.051   4.635
 9224SOL     OW28570   1.400   4.341   3.956
 9224SOL    HW128571   1.347   4.412   3.909
 9224SOL    HW228572   1.337   4.281   4.006
 9225SOL     OW28573   3.865   6.616   6.022
 9225SOL    HW128574   3.944   6.602   6.080
 9225SOL    HW228575   3.825   6.707   6.040
 9226SOL     OW28576   1.152   6.729   0.836
 9226SOL    HW128577   1.189   6.767   0.751
 9226SOL    HW228578   1.058   6.699   0.822
 9227SOL     OW28579   2.065   5.547   0.909
 9227SOL    HW128580   2.088   5.624   0.849
 9227SOL    HW228581   2.149   5.498   0.933
 9228SOL     OW28582   2.023   2.598   5.625
 9228SOL    HW128583   2.020   2.514   5.571
 9228SOL    HW228584   2.105   2.598   5.682
 9229SOL     OW28585   0.838   4.653   0.309
 9229SOL    HW128586   0.818   4.647   0.407
 9229SOL    HW228587   0.766   4.608   0.257
 9230SOL     OW28588   5.545   2.701   4.280
 9230SOL    HW128589   5.448   2.681   4.296
 9230SOL    HW228590   5.592   2.709   4.368
 9231SOL     OW28591   0.558   4.920   5.558
 9231SOL    HW128592   0.483   4.969   5.601
 9231SOL    HW228593   0.636   4.981   5.546
 9232SOL     OW28594   2.084   5.091   1.789
 9232SOL    HW128595   1.989   5.069   1.811
 9232SOL    HW228596   2.145   5.037   1.848
 9233SOL     OW28597   0.719   6.455   0.695
 9233SOL    HW128598   0.692   6.495   0.607
 9233SOL    HW228599   0.639   6.420   0.742
 9234SOL     OW28600   2.236   5.034   1.273
 9234SOL    HW128601   2.175   5.080   1.337
 9234SOL    HW228602   2.283   5.103   1.217
 9235SOL     OW28603   2.403   2.548   3.493
 9235SOL    HW128604   2.331   2.479   3.487
 9235SOL    HW228605   2.478   2.522   3.431
 9236SOL     OW28606   1.735   3.607   6.773
 9236SOL    HW128607   1.736   3.704   6.797
 9236SOL    HW228608   1.815   3.586   6.718
 9237SOL     OW28609   6.056   5.661   3.259
 9237SOL    HW128610   6.143   5.679   3.213
 9237SOL    HW228611   5.990   5.733   3.236
 9238SOL     OW28612   1.810   3.155   5.291
 9238SOL    HW128613   1.806   3.062   5.328
 9238SOL    HW228614   1.726   3.204   5.314
 9239SOL     OW28615   6.832   4.629   0.180
 9239SOL    HW128616   6.819   4.536   0.214
 9239SOL    HW228617   6.785   4.693   0.240
 9240SOL     OW28618   4.959   3.159   3.075
 9240SOL    HW128619   5.043   3.163   3.129
 9240SOL    HW228620   4.931   3.252   3.050
 9241SOL     OW28621   0.288   5.883   0.113
 9241SOL    HW128622   0.202   5.831   0.119
 9241SOL    HW228623   0.291   5.950   0.187
 9242SOL     OW28624   1.929   2.264   2.259
 9242SOL    HW128625   1.892   2.325   2.189
 9242SOL    HW228626   2.029   2.264   2.254
 9243SOL     OW28627   0.728   6.951   1.857
 9243SOL    HW128628   0.815   6.942   1.905
 9243SOL    HW228629   0.744   6.983   1.764
 9244SOL     OW28630   3.450   6.342   5.321
 9244SOL    HW128631   3.398   6.405   5.262
 9244SOL    HW228632   3.507   6.283   5.263
 9245SOL     OW28633   0.906   4.075   3.342
 9245SOL    HW128634   0.914   4.006   3.270
 9245SOL    HW228635   0.949   4.160   3.313
 9246SOL     OW28636   6.155   0.185   4.695
 9246SOL    HW128637   6.080   0.119   4.694
 9246SOL    HW228638   6.239   0.139   4.724
 9247SOL     OW28639   3.533   5.596   2.785
 9247SOL    HW128640   3.476   5.654   2.843
 9247SOL    HW228641   3.567   5.650   2.707
 9248SOL     OW28642   2.683   1.451   4.646
 9248SOL    HW128643   2.638   1.524   4.594
 9248SOL    HW228644   2.643   1.446   4.737
 9249SOL     OW28645   3.798   4.796   1.734
 9249SOL    HW128646   3.712   4.781   1.782
 9249SOL    HW228647   3.781   4.798   1.635
 9250SOL     OW28648   6.817   4.819   4.259
 9250SOL    HW128649   6.782   4.908   4.287
 9250SOL    HW228650   6.741   4.759   4.234
 9251SOL     OW28651   4.184   2.841   1.279
 9251SOL    HW128652   4.217   2.934   1.261
 9251SOL    HW228653   4.117   2.816   1.208
 9252SOL     OW28654   4.243   0.309   5.040
 9252SOL    HW128655   4.281   0.380   5.099
 9252SOL    HW228656   4.205   0.235   5.096
 9253SOL     OW28657   6.556   4.913   5.760
 9253SOL    HW128658   6.559   5.012   5.769
 9253SOL    HW228659   6.641   4.874   5.797
 9254SOL     OW28660   5.781   4.575   2.445
 9254SOL    HW128661   5.857   4.579   2.510
 9254SOL    HW228662   5.729   4.491   2.460
 9255SOL     OW28663   6.551   3.842   6.601
 9255SOL    HW128664   6.482   3.839   6.529
 9255SOL    HW228665   6.520   3.788   6.680
 9256SOL     OW28666   1.878   6.763   1.668
 9256SOL    HW128667   1.882   6.811   1.581
 9256SOL    HW228668   1.939   6.808   1.734
 9257SOL     OW28669   6.058   5.585   3.537
 9257SOL    HW128670   6.065   5.654   3.609
 9257SOL    HW228671   6.049   5.630   3.448
 9258SOL     OW28672   3.304   3.375   0.266
 9258SOL    HW128673   3.292   3.474   0.275
 9258SOL    HW228674   3.386   3.346   0.315
 9259SOL     OW28675   1.865   1.605   6.341
 9259SOL    HW128676   1.829   1.698   6.339
 9259SOL    HW228677   1.879   1.576   6.435
 9260SOL     OW28678   5.962   2.959   5.706
 9260SOL    HW128679   5.904   2.925   5.633
 9260SOL    HW228680   5.929   3.049   5.736
 9261SOL     OW28681   4.124   1.270   0.832
 9261SOL    HW128682   4.038   1.321   0.826
 9261SOL    HW228683   4.200   1.334   0.845
 9262SOL     OW28684   0.130   6.658   4.826
 9262SOL    HW128685   0.089   6.590   4.764
 9262SOL    HW228686   0.087   6.747   4.811
 9263SOL     OW28687   3.085   5.525   2.554
 9263SOL    HW128688   3.099   5.443   2.610
 9263SOL    HW228689   3.147   5.597   2.585
 9264SOL     OW28690   5.642   3.749   6.395
 9264SOL    HW128691   5.579   3.813   6.439
 9264SOL    HW228692   5.595   3.664   6.375
 9265SOL     OW28693   3.818   2.060   6.672
 9265SOL    HW128694   3.806   2.157   6.692
 9265SOL    HW228695   3.888   2.049   6.601
 9266SOL     OW28696   0.263   4.950   1.745
 9266SOL    HW128697   0.256   5.036   1.695
 9266SOL    HW228698   0.302   4.967   1.835
 9267SOL     OW28699   0.532   1.461   3.837
 9267SOL    HW128700   0.515   1.559   3.846
 9267SOL    HW228701   0.630   1.446   3.826
 9268SOL     OW28702   0.548   6.553   1.851
 9268SOL    HW128703   0.552   6.485   1.924
 9268SOL    HW228704   0.632   6.608   1.852
 9269SOL     OW28705   5.153   0.344   0.133
 9269SOL    HW128706   5.083   0.376   0.197
 9269SOL    HW228707   5.229   0.409   0.133
 9270SOL     OW28708   3.584   1.445   6.192
 9270SOL    HW128709   3.614   1.490   6.108
 9270SOL    HW228710   3.522   1.506   6.242
 9271SOL     OW28711   1.465   0.401   6.577
 9271SOL    HW128712   1.397   0.339   6.616
 9271SOL    HW228713   1.452   0.408   6.478
 9272SOL     OW28714   7.016   6.485   6.148
 9272SOL    HW128715   6.968   6.433   6.078
 9272SOL    HW228716   0.089   6.480   6.131
 9273SOL     OW28717   5.183   5.909   4.040
 9273SOL    HW128718   5.219   6.000   4.059
 9273SOL    HW228719   5.103   5.916   3.980
 9274SOL     OW28720   0.578   3.057   0.143
 9274SOL    HW128721   0.501   3.045   0.080
 9274SOL    HW228722   0.660   3.017   0.102
 9275SOL     OW28723   0.914   6.618   0.783
 9275SOL    HW128724   0.844   6.640   0.851
 9275SOL    HW228725   0.877   6.555   0.716
 9276SOL     OW28726   3.303   4.681   6.746
 9276SOL    HW128727   3.228   4.727   6.794
 9276SOL    HW228728   3.275   4.659   6.653
 9277SOL     OW28729   4.348   4.913   2.409
 9277SOL    HW128730   4.442   4.903   2.440
 9277SOL    HW228731   4.308   4.995   2.451
 9278SOL     OW28732   0.463   0.469   4.207
 9278SOL    HW128733   0.503   0.558   4.228
 9278SOL    HW228734   0.363   0.476   4.206
 9279SOL     OW28735   3.688   5.557   1.590
 9279SOL    HW128736   3.714   5.461   1.587
 9279SOL    HW228737   3.750   5.610   1.532
 9280SOL     OW28738   1.550   1.687   2.693
 9280SOL    HW128739   1.566   1.673   2.595
 9280SOL    HW228740   1.526   1.599   2.735
 9281SOL     OW28741   3.519   3.662   6.007
 9281SOL    HW128742   3.471   3.745   5.978
 9281SOL    HW228743   3.609   3.658   5.964
 9282SOL     OW28744   3.630   0.401   4.733
 9282SOL    HW128745   3.534   0.424   4.715
 9282SOL    HW228746   3.688   0.479   4.710
 9283SOL     OW28747   5.600   0.200   6.452
 9283SOL    HW128748   5.502   0.203   6.433
 9283SOL    HW228749   5.648   0.163   6.372
 9284SOL     OW28750   3.243   3.529   5.458
 9284SOL    HW128751   3.286   3.441   5.441
 9284SOL    HW228752   3.146   3.525   5.431
 9285SOL     OW28753   5.643   3.111   2.250
 9285SOL    HW128754   5.725   3.164   2.273
 9285SOL    HW228755   5.659   3.063   2.163
 9286SOL     OW28756   5.150   6.406   0.484
 9286SOL    HW128757   5.066   6.435   0.437
 9286SOL    HW228758   5.181   6.480   0.545
 9287SOL     OW28759   2.461   4.753   5.947
 9287SOL    HW128760   2.511   4.817   5.890
 9287SOL    HW228761   2.402   4.697   5.890
 9288SOL     OW28762   4.368   2.409   3.946
 9288SOL    HW128763   4.395   2.454   4.031
 9288SOL    HW228764   4.270   2.391   3.947
 9289SOL     OW28765   4.311   0.011   6.180
 9289SOL    HW128766   4.287   7.016   6.275
 9289SOL    HW228767   4.326   6.950   6.131
 9290SOL     OW28768   5.325   0.853   4.753
 9290SOL    HW128769   5.320   0.853   4.653
 9290SOL    HW228770   5.252   0.796   4.790
 9291SOL     OW28771   1.059   6.574   5.595
 9291SOL    HW128772   1.114   6.598   5.515
 9291SOL    HW228773   1.068   6.477   5.614
 9292SOL     OW28774   1.486   1.453   5.946
 9292SOL    HW128775   1.507   1.374   5.888
 9292SOL    HW228776   1.560   1.466   6.012
 9293SOL     OW28777   4.836   2.958   5.967
 9293SOL    HW128778   4.821   2.946   5.868
 9293SOL    HW228779   4.934   2.956   5.986
 9294SOL     OW28780   4.933   0.824   0.588
 9294SOL    HW128781   4.840   0.856   0.602
 9294SOL    HW228782   4.991   0.858   0.662
 9295SOL     OW28783   0.999   0.809   5.109
 9295SOL    HW128784   1.018   0.903   5.079
 9295SOL    HW228785   0.958   0.810   5.200
 9296SOL     OW28786   2.820   3.832   1.331
 9296SOL    HW128787   2.721   3.834   1.347
 9296SOL    HW228788   2.864   3.902   1.386
 9297SOL     OW28789   0.319   5.761   3.070
 9297SOL    HW128790   0.243   5.723   3.017
 9297SOL    HW228791   0.336   5.705   3.150
 9298SOL     OW28792   1.336   6.963   5.881
 9298SOL    HW128793   1.247   6.919   5.893
 9298SOL    HW228794   1.394   6.942   5.959
 9299SOL     OW28795   2.010   2.077   4.102
 9299SOL    HW128796   2.062   2.010   4.156
 9299SOL    HW228797   2.072   2.127   4.042
 9300SOL     OW28798   1.385   6.164   5.185
 9300SOL    HW128799   1.418   6.084   5.236
 9300SOL    HW228800   1.414   6.247   5.232
 9301SOL     OW28801   0.176   3.954   4.589
 9301SOL    HW128802   0.219   3.958   4.499
 9301SOL    HW228803   0.077   3.967   4.580
 9302SOL     OW28804   2.189   3.099   4.971
 9302SOL    HW128805   2.282   3.083   5.003
 9302SOL    HW228806   2.190   3.126   4.875
 9303SOL     OW28807   3.258   3.994   6.731
 9303SOL    HW128808   3.218   3.941   6.656
 9303SOL    HW228809   3.235   3.952   6.818
 9304SOL     OW28810   4.770   5.032   0.556
 9304SOL    HW128811   4.838   5.069   0.492
 9304SOL    HW228812   4.765   5.091   0.637
 9305SOL     OW28813   2.936   1.747   1.169
 9305SOL    HW128814   2.903   1.678   1.104
 9305SOL    HW228815   2.911   1.838   1.138
 9306SOL     OW28816   0.093   4.476   4.320
 9306SOL    HW128817   0.163   4.542   4.291
 9306SOL    HW228818   0.057   4.429   4.239
 9307SOL     OW28819   1.900   4.119   0.657
 9307SOL    HW128820   1.923   4.022   0.643
 9307SOL    HW228821   1.801   4.129   0.664
 9308SOL     OW28822   1.566   4.871   1.568
 9308SOL    HW128823   1.539   4.885   1.663
 9308SOL    HW228824   1.661   4.843   1.564
 9309SOL     OW28825   5.203   5.969   5.917
 9309SOL    HW128826   5.208   6.049   5.856
 9309SOL    HW228827   5.177   5.889   5.864
 9310SOL     OW28828   4.608   5.745   5.934
 9310SOL    HW128829   4.561   5.807   5.871
 9310SOL    HW228830   4.577   5.762   6.028
 9311SOL     OW28831   4.293   3.511   1.357
 9311SOL    HW128832   4.204   3.555   1.339
 9311SOL    HW228833   4.281   3.412   1.359
 9312SOL     OW28834   1.300   2.129   0.615
 9312SOL    HW128835   1.386   2.138   0.665
 9312SOL    HW228836   1.314   2.071   0.535
 9313SOL     OW28837   1.703   0.572   1.775
 9313SOL    HW128838   1.733   0.638   1.843
 9313SOL    HW228839   1.685   0.619   1.688
 9314SOL     OW28840   5.309   2.816   0.670
 9314SOL    HW128841   5.397   2.767   0.673
 9314SOL    HW228842   5.304   2.880   0.747
 9315SOL     OW28843   5.830   1.126   6.428
 9315SOL    HW128844   5.784   1.040   6.447
 9315SOL    HW228845   5.928   1.118   6.449
 9316SOL     OW28846   4.923   0.421   5.551
 9316SOL    HW128847   4.861   0.454   5.622
 9316SOL    HW228848   4.998   0.369   5.593
 9317SOL     OW28849   3.120   5.201   3.463
 9317SOL    HW128850   3.088   5.210   3.368
 9317SOL    HW228851   3.175   5.281   3.487
 9318SOL     OW28852   5.287   6.055   0.222
 9318SOL    HW128853   5.203   6.020   0.183
 9318SOL    HW228854   5.282   6.051   0.322
 9319SOL     OW28855   2.943   3.979   1.126
 9319SOL    HW128856   2.887   3.912   1.077
 9319SOL    HW228857   3.010   3.932   1.183
 9320SOL     OW28858   5.454   0.442   6.112
 9320SOL    HW128859   5.502   0.470   6.195
 9320SOL    HW228860   5.510   0.377   6.061
 9321SOL     OW28861   0.260   2.672   5.366
 9321SOL    HW128862   0.250   2.634   5.275
 9321SOL    HW228863   0.192   2.631   5.427
 9322SOL     OW28864   6.579   4.452   5.966
 9322SOL    HW128865   6.642   4.451   6.044
 9322SOL    HW228866   6.630   4.460   5.881
 9323SOL     OW28867   1.716   3.124   3.879
 9323SOL    HW128868   1.650   3.075   3.822
 9323SOL    HW228869   1.704   3.096   3.975
 9324SOL     OW28870   1.159   3.701   0.793
 9324SOL    HW128871   1.170   3.607   0.760
 9324SOL    HW228872   1.097   3.701   0.871
 9325SOL     OW28873   2.435   5.334   1.830
 9325SOL    HW128874   2.511   5.274   1.857
 9325SOL    HW228875   2.470   5.408   1.773
 9326SOL     OW28876   3.903   4.555   0.196
 9326SOL    HW128877   3.967   4.604   0.256
 9326SOL    HW228878   3.843   4.621   0.150
 9327SOL     OW28879   4.246   0.911   3.352
 9327SOL    HW128880   4.301   0.869   3.280
 9327SOL    HW228881   4.267   0.866   3.439
 9328SOL     OW28882   3.043   6.820   4.783
 9328SOL    HW128883   3.054   6.794   4.878
 9328SOL    HW228884   3.106   6.894   4.760
 9329SOL     OW28885   0.366   6.039   6.544
 9329SOL    HW128886   0.369   6.056   6.445
 9329SOL    HW228887   0.302   6.102   6.587
 9330SOL     OW28888   0.296   6.885   6.385
 9330SOL    HW128889   0.226   6.890   6.314
 9330SOL    HW228890   0.376   6.838   6.350
 9331SOL     OW28891   1.473   2.911   4.983
 9331SOL    HW128892   1.479   2.842   4.911
 9331SOL    HW228893   1.547   2.978   4.971
 9332SOL     OW28894   3.870   5.561   0.578
 9332SOL    HW128895   3.848   5.656   0.603
 9332SOL    HW228896   3.968   5.546   0.590
 9333SOL     OW28897   3.632   5.203   0.650
 9333SOL    HW128898   3.546   5.178   0.695
 9333SOL    HW228899   3.703   5.216   0.719
 9334SOL     OW28900   5.056   6.669   4.111
 9334SOL    HW128901   5.034   6.675   4.208
 9334SOL    HW228902   5.133   6.607   4.097
 9335SOL     OW28903   2.261   2.056   1.415
 9335SOL    HW128904   2.195   2.023   1.347
 9335SOL    HW228905   2.350   2.071   1.370
 9336SOL     OW28906   5.768   0.879   5.280
 9336SOL    HW128907   5.724   0.793   5.306
 9336SOL    HW228908   5.723   0.916   5.199
 9337SOL     OW28909   4.367   0.071   6.749
 9337SOL    HW128910   4.311   0.153   6.763
 9337SOL    HW228911   4.376   0.053   6.652
 9338SOL     OW28912   0.355   6.077   0.314
 9338SOL    HW128913   0.452   6.100   0.309
 9338SOL    HW228914   0.301   6.155   0.281
 9339SOL     OW28915   5.670   5.123   6.755
 9339SOL    HW128916   5.603   5.156   6.688
 9339SOL    HW228917   5.628   5.122   6.846
 9340SOL     OW28918   3.633   5.985   2.941
 9340SOL    HW128919   3.595   5.952   2.855
 9340SOL    HW228920   3.559   6.004   3.005
 9341SOL     OW28921   6.163   4.603   6.573
 9341SOL    HW128922   6.095   4.549   6.624
 9341SOL    HW228923   6.210   4.544   6.508
 9342SOL     OW28924   3.191   0.374   4.497
 9342SOL    HW128925   3.163   0.288   4.455
 9342SOL    HW228926   3.150   0.450   4.447
 9343SOL     OW28927   4.828   3.983   1.752
 9343SOL    HW128928   4.786   4.070   1.727
 9343SOL    HW228929   4.812   3.916   1.680
 9344SOL     OW28930   5.640   5.041   6.437
 9344SOL    HW128931   5.563   5.016   6.379
 9344SOL    HW228932   5.609   5.101   6.511
 9345SOL     OW28933   6.936   6.023   0.120
 9345SOL    HW128934   6.927   6.030   0.020
 9345SOL    HW228935   6.846   6.033   0.162
 9346SOL     OW28936   5.269   6.441   2.717
 9346SOL    HW128937   5.251   6.366   2.780
 9346SOL    HW228938   5.237   6.415   2.626
 9347SOL     OW28939   3.569   5.447   1.080
 9347SOL    HW128940   3.505   5.446   1.004
 9347SOL    HW228941   3.659   5.474   1.047
 9348SOL     OW28942   2.606   6.448   3.145
 9348SOL    HW128943   2.660   6.509   3.203
 9348SOL    HW228944   2.562   6.379   3.201
 9349SOL     OW28945   6.937   5.690   2.424
 9349SOL    HW128946   6.881   5.722   2.347
 9349SOL    HW228947   0.007   5.717   2.410
 9350SOL     OW28948   6.908   1.506   4.641
 9350SOL    HW128949   6.916   1.544   4.549
 9350SOL    HW228950   6.981   1.439   4.656
 9351SOL     OW28951   2.037   0.949   5.292
 9351SOL    HW128952   2.132   0.936   5.266
 9351SOL    HW228953   2.024   1.041   5.328
 9352SOL     OW28954   1.339   2.489   5.461
 9352SOL    HW128955   1.432   2.465   5.487
 9352SOL    HW228956   1.275   2.456   5.530
 9353SOL     OW28957   1.461   4.114   1.733
 9353SOL    HW128958   1.461   4.098   1.634
 9353SOL    HW228959   1.540   4.068   1.774
 9354SOL     OW28960   6.398   2.473   1.231
 9354SOL    HW128961   6.317   2.414   1.217
 9354SOL    HW228962   6.470   2.420   1.276
 9355SOL     OW28963   6.288   1.221   4.704
 9355SOL    HW128964   6.205   1.271   4.729
 9355SOL    HW228965   6.269   1.123   4.702
 9356SOL     OW28966   4.751   5.026   2.133
 9356SOL    HW128967   4.677   4.962   2.112
 9356SOL    HW228968   4.774   5.079   2.051
 9357SOL     OW28969   2.547   3.835   0.058
 9357SOL    HW128970   2.606   3.903   0.015
 9357SOL    HW228971   2.520   3.867   0.149
 9358SOL     OW28972   5.933   3.729   1.636
 9358SOL    HW128973   5.978   3.681   1.712
 9358SOL    HW228974   5.843   3.760   1.665
 9359SOL     OW28975   6.836   3.622   5.868
 9359SOL    HW128976   6.808   3.697   5.808
 9359SOL    HW228977   6.769   3.549   5.863
 9360SOL     OW28978   1.825   0.320   5.798
 9360SOL    HW128979   1.862   0.397   5.850
 9360SOL    HW228980   1.778   0.257   5.860
 9361SOL     OW28981   2.851   6.326   3.206
 9361SOL    HW128982   2.884   6.374   3.287
 9361SOL    HW228983   2.766   6.368   3.174
 9362SOL     OW28984   1.773   1.068   1.765
 9362SOL    HW128985   1.838   1.012   1.816
 9362SOL    HW228986   1.823   1.130   1.704
 9363SOL     OW28987   3.832   5.305   1.606
 9363SOL    HW128988   3.908   5.323   1.668
 9363SOL    HW228989   3.867   5.261   1.523
 9364SOL     OW28990   3.697   2.956   6.189
 9364SOL    HW128991   3.681   3.053   6.204
 9364SOL    HW228992   3.795   2.939   6.180
 9365SOL     OW28993   2.567   2.542   4.848
 9365SOL    HW128994   2.644   2.517   4.906
 9365SOL    HW228995   2.574   2.493   4.761
 9366SOL     OW28996   3.195   1.976   6.841
 9366SOL    HW128997   3.262   2.005   6.909
 9366SOL    HW228998   3.235   1.981   6.750
 9367SOL     OW28999   6.877   5.891   3.976
 9367SOL    HW129000   6.919   5.803   3.953
 9367SOL    HW229001   6.839   5.887   4.068
 9368SOL     OW29002   3.613   2.078   2.605
 9368SOL    HW129003   3.669   2.074   2.522
 9368SOL    HW229004   3.667   2.046   2.683
 9369SOL     OW29005   6.702   1.486   6.150
 9369SOL    HW129006   6.702   1.564   6.213
 9369SOL    HW229007   6.607   1.465   6.124
 9370SOL     OW29008   5.354   0.807   2.966
 9370SOL    HW129009   5.360   0.736   2.896
 9370SOL    HW229010   5.396   0.891   2.932
 9371SOL     OW29011   1.614   5.327   7.001
 9371SOL    HW129012   1.580   5.362   6.914
 9371SOL    HW229013   1.635   5.230   6.992
 9372SOL     OW29014   5.980   6.409   3.168
 9372SOL    HW129015   5.990   6.508   3.175
 9372SOL    HW229016   6.063   6.369   3.129
 9373SOL     OW29017   4.461   2.430   2.858
 9373SOL    HW129018   4.467   2.340   2.815
 9373SOL    HW229019   4.449   2.501   2.788
 9374SOL     OW29020   6.012   2.706   6.858
 9374SOL    HW129021   5.942   2.637   6.837
 9374SOL    HW229022   6.102   2.669   6.838
 9375SOL     OW29023   6.796   1.626   3.617
 9375SOL    HW129024   6.740   1.708   3.628
 9375SOL    HW229025   6.749   1.549   3.660
 9376SOL     OW29026   3.058   3.797   0.611
 9376SOL    HW129027   3.060   3.782   0.512
 9376SOL    HW229028   3.054   3.709   0.658
 9377SOL     OW29029   0.766   5.180   3.554
 9377SOL    HW129030   0.698   5.237   3.601
 9377SOL    HW229031   0.828   5.139   3.621
 9378SOL     OW29032   1.750   0.039   5.655
 9378SOL    HW129033   1.752   0.132   5.692
 9378SOL    HW229034   1.777   0.041   5.559
 9379SOL     OW29035   4.714   4.714   4.626
 9379SOL    HW129036   4.624   4.674   4.645
 9379SOL    HW229037   4.780   4.681   4.692
 9380SOL     OW29038   5.826   5.719   5.231
 9380SOL    HW129039   5.909   5.699   5.179
 9380SOL    HW229040   5.828   5.667   5.317
 9381SOL     OW29041   2.536   3.160   5.741
 9381SOL    HW129042   2.568   3.148   5.647
 9381SOL    HW229043   2.449   3.111   5.752
 9382SOL     OW29044   3.659   1.578   2.880
 9382SOL    HW129045   3.725   1.651   2.896
 9382SOL    HW229046   3.576   1.616   2.838
 9383SOL     OW29047   3.508   6.139   5.133
 9383SOL    HW129048   3.436   6.183   5.079
 9383SOL    HW229049   3.475   6.052   5.170
 9384SOL     OW29050   4.408   6.237   1.483
 9384SOL    HW129051   4.361   6.282   1.406
 9384SOL    HW229052   4.493   6.197   1.450
 9385SOL     OW29053   4.055   1.746   2.232
 9385SOL    HW129054   4.081   1.665   2.285
 9385SOL    HW229055   3.975   1.789   2.274
 9386SOL     OW29056   2.499   6.307   4.657
 9386SOL    HW129057   2.455   6.223   4.690
 9386SOL    HW229058   2.583   6.323   4.708
 9387SOL     OW29059   4.426   0.026   0.360
 9387SOL    HW129060   4.423   0.085   0.441
 9387SOL    HW229061   4.481   0.071   0.289
 9388SOL     OW29062   1.645   6.177   2.712
 9388SOL    HW129063   1.593   6.187   2.628
 9388SOL    HW229064   1.725   6.119   2.695
 9389SOL     OW29065   2.402   0.321   5.257
 9389SOL    HW129066   2.471   0.255   5.288
 9389SOL    HW229067   2.324   0.319   5.319
 9390SOL     OW29068   3.872   6.279   3.786
 9390SOL    HW129069   3.969   6.254   3.791
 9390SOL    HW229070   3.821   6.206   3.741
 9391SOL     OW29071   2.187   1.112   5.525
 9391SOL    HW129072   2.132   1.155   5.453
 9391SOL    HW229073   2.199   1.176   5.601
 9392SOL     OW29074   0.129   0.206   4.917
 9392SOL    HW129075   0.114   0.148   4.837
 9392SOL    HW229076   0.155   0.149   4.995
 9393SOL     OW29077   3.312   1.500   4.397
 9393SOL    HW129078   3.364   1.449   4.330
 9393SOL    HW229079   3.372   1.562   4.447
 9394SOL     OW29080   6.387   1.642   2.976
 9394SOL    HW129081   6.316   1.572   2.968
 9394SOL    HW229082   6.347   1.733   2.961
 9395SOL     OW29083   2.623   2.366   7.005
 9395SOL    HW129084   2.669   2.285   6.969
 9395SOL    HW229085   2.632   2.442   6.940
 9396SOL     OW29086   0.376   6.275   4.512
 9396SOL    HW129087   0.343   6.185   4.539
 9396SOL    HW229088   0.475   6.281   4.526
 9397SOL     OW29089   2.398   6.988   6.963
 9397SOL    HW129090   2.479   0.021   6.954
 9397SOL    HW229091   2.320   0.007   6.917
 9398SOL     OW29092   1.812   0.708   5.746
 9398SOL    HW129093   1.871   0.646   5.695
 9398SOL    HW229094   1.843   0.713   5.841
 9399SOL     OW29095   0.676   1.880   6.854
 9399SOL    HW129096   0.676   1.963   6.797
 9399SOL    HW229097   0.662   1.800   6.795
 9400SOL     OW29098   5.151   3.135   1.213
 9400SOL    HW129099   5.068   3.175   1.252
 9400SOL    HW229100   5.185   3.194   1.140
 9401SOL     OW29101   3.477   6.044   3.370
 9401SOL    HW129102   3.472   6.051   3.271
 9401SOL    HW229103   3.487   6.135   3.409
 9402SOL     OW29104   1.261   5.168   5.480
 9402SOL    HW129105   1.238   5.071   5.478
 9402SOL    HW229106   1.226   5.209   5.564
 9403SOL     OW29107   5.269   1.836   2.810
 9403SOL    HW129108   5.174   1.804   2.801
 9403SOL    HW229109   5.312   1.791   2.888
 9404SOL     OW29110   0.828   4.338   6.649
 9404SOL    HW129111   0.859   4.417   6.597
 9404SOL    HW229112   0.731   4.322   6.632
 9405SOL     OW29113   6.933   6.952   2.790
 9405SOL    HW129114   6.834   6.969   2.797
 9405SOL    HW229115   6.956   6.871   2.844
 9406SOL     OW29116   6.764   2.263   5.976
 9406SOL    HW129117   6.748   2.197   6.050
 9406SOL    HW229118   6.680   2.274   5.923
 9407SOL     OW29119   2.259   5.946   3.003
 9407SOL    HW129120   2.210   5.889   2.937
 9407SOL    HW229121   2.356   5.920   3.004
 9408SOL     OW29122   3.976   1.757   6.065
 9408SOL    HW129123   4.013   1.793   5.980
 9408SOL    HW229124   3.899   1.814   6.095
 9409SOL     OW29125   5.287   4.411   5.607
 9409SOL    HW129126   5.259   4.317   5.621
 9409SOL    HW229127   5.230   4.472   5.663
 9410SOL     OW29128   4.016   5.858   1.634
 9410SOL    HW129129   4.105   5.904   1.632
 9410SOL    HW229130   4.030   5.759   1.632
 9411SOL     OW29131   4.000   4.292   0.984
 9411SOL    HW129132   4.038   4.362   0.924
 9411SOL    HW229133   4.055   4.285   1.067
 9412SOL     OW29134   0.245   3.446   1.585
 9412SOL    HW129135   0.305   3.523   1.608
 9412SOL    HW229136   0.206   3.460   1.494
 9413SOL     OW29137   4.204   5.547   5.081
 9413SOL    HW129138   4.253   5.479   5.026
 9413SOL    HW229139   4.175   5.622   5.022
 9414SOL     OW29140   3.257   1.340   3.326
 9414SOL    HW129141   3.248   1.334   3.426
 9414SOL    HW229142   3.338   1.395   3.304
 9415SOL     OW29143   2.239   6.683   2.598
 9415SOL    HW129144   2.275   6.593   2.620
 9415SOL    HW229145   2.143   6.676   2.570
 9416SOL     OW29146   0.629   1.726   1.575
 9416SOL    HW129147   0.647   1.737   1.673
 9416SOL    HW229148   0.542   1.678   1.562
 9417SOL     OW29149   3.677   0.569   5.746
 9417SOL    HW129150   3.769   0.530   5.748
 9417SOL    HW229151   3.617   0.514   5.804
 9418SOL     OW29152   3.366   6.866   0.592
 9418SOL    HW129153   3.355   6.775   0.631
 9418SOL    HW229154   3.347   6.935   0.663
 9419SOL     OW29155   3.732   5.365   5.567
 9419SOL    HW129156   3.790   5.354   5.486
 9419SOL    HW229157   3.644   5.320   5.551
 9420SOL     OW29158   0.506   2.351   4.035
 9420SOL    HW129159   0.439   2.290   3.993
 9420SOL    HW229160   0.569   2.385   3.966
 9421SOL     OW29161   2.172   6.355   5.319
 9421SOL    HW129162   2.210   6.337   5.409
 9421SOL    HW229163   2.144   6.451   5.313
 9422SOL     OW29164   5.352   6.900   2.668
 9422SOL    HW129165   5.254   6.900   2.688
 9422SOL    HW229166   5.393   6.815   2.702
 9423SOL     OW29167   3.307   0.398   3.538
 9423SOL    HW129168   3.405   0.398   3.519
 9423SOL    HW229169   3.257   0.412   3.452
 9424SOL     OW29170   4.650   0.338   5.014
 9424SOL    HW129171   4.595   0.287   4.949
 9424SOL    HW229172   4.630   0.436   5.006
 9425SOL     OW29173   0.043   3.862   6.120
 9425SOL    HW129174   7.007   3.914   6.061
 9425SOL    HW229175   0.050   3.907   6.209
 9426SOL     OW29176   3.133   1.714   6.936
 9426SOL    HW129177   3.169   1.806   6.923
 9426SOL    HW229178   3.159   1.679   0.001
 9427SOL     OW29179   2.844   5.148   4.822
 9427SOL    HW129180   2.782   5.168   4.898
 9427SOL    HW229181   2.870   5.052   4.824
 9428SOL     OW29182   5.549   0.775   1.551
 9428SOL    HW129183   5.635   0.801   1.507
 9428SOL    HW229184   5.532   0.835   1.629
 9429SOL     OW29185   1.531   4.705   1.799
 9429SOL    HW129186   1.460   4.634   1.799
 9429SOL    HW229187   1.618   4.664   1.826
 9430SOL     OW29188   0.326   6.168   2.138
 9430SOL    HW129189   0.398   6.186   2.071
 9430SOL    HW229190   0.292   6.075   2.127
 9431SOL     OW29191   5.928   4.755   0.801
 9431SOL    HW129192   5.872   4.837   0.786
 9431SOL    HW229193   5.920   4.695   0.722
 9432SOL     OW29194   6.567   0.618   3.241
 9432SOL    HW129195   6.577   0.679   3.163
 9432SOL    HW229196   6.640   0.636   3.307
 9433SOL     OW29197   3.496   4.890   3.755
 9433SOL    HW129198   3.505   4.869   3.852
 9433SOL    HW229199   3.587   4.893   3.713
 9434SOL     OW29200   5.856   4.710   3.596
 9434SOL    HW129201   5.950   4.722   3.628
 9434SOL    HW229202   5.794   4.767   3.650
 9435SOL     OW29203   1.163   1.611   3.872
 9435SOL    HW129204   1.087   1.639   3.812
 9435SOL    HW229205   1.192   1.519   3.847
 9436SOL     OW29206   0.747   4.296   2.346
 9436SOL    HW129207   0.778   4.201   2.350
 9436SOL    HW229208   0.819   4.356   2.380
 9437SOL     OW29209   0.840   6.579   3.616
 9437SOL    HW129210   0.846   6.622   3.706
 9437SOL    HW229211   0.840   6.649   3.545
 9438SOL     OW29212   1.160   6.500   0.993
 9438SOL    HW129213   1.194   6.568   1.059
 9438SOL    HW229214   1.133   6.547   0.909
 9439SOL     OW29215   0.106   2.934   2.114
 9439SOL    HW129216   0.108   2.905   2.209
 9439SOL    HW229217   0.022   2.903   2.071
 9440SOL     OW29218   4.395   6.125   4.231
 9440SOL    HW129219   4.358   6.184   4.303
 9440SOL    HW229220   4.320   6.073   4.189
 9441SOL     OW29221   1.337   4.789   4.578
 9441SOL    HW129222   1.304   4.695   4.590
 9441SOL    HW229223   1.305   4.845   4.654
 9442SOL     OW29224   5.968   3.280   0.223
 9442SOL    HW129225   6.042   3.235   0.273
 9442SOL    HW229226   5.960   3.240   0.132
 9443SOL     OW29227   2.672   4.964   1.468
 9443SOL    HW129228   2.661   4.878   1.517
 9443SOL    HW229229   2.592   4.980   1.410
 9444SOL     OW29230   1.287   3.878   6.364
 9444SOL    HW129231   1.365   3.831   6.322
 9444SOL    HW229232   1.211   3.881   6.299
 9445SOL     OW29233   5.574   3.454   2.249
 9445SOL    HW129234   5.521   3.393   2.308
 9445SOL    HW229235   5.664   3.471   2.291
 9446SOL     OW29236   5.977   6.706   4.116
 9446SOL    HW129237   5.950   6.799   4.139
 9446SOL    HW229238   6.070   6.689   4.150
 9447SOL     OW29239   5.866   3.376   3.275
 9447SOL    HW129240   5.832   3.318   3.200
 9447SOL    HW229241   5.966   3.373   3.276
 9448SOL     OW29242   6.191   6.364   5.900
 9448SOL    HW129243   6.144   6.448   5.929
 9448SOL    HW229244   6.124   6.299   5.864
 9449SOL     OW29245   0.223   5.985   6.912
 9449SOL    HW129246   0.179   5.927   6.844
 9449SOL    HW229247   0.254   5.929   6.988
 9450SOL     OW29248   3.559   4.973   4.414
 9450SOL    HW129249   3.625   5.047   4.428
 9450SOL    HW229250   3.571   4.903   4.484
 9451SOL     OW29251   3.524   6.202   6.579
 9451SOL    HW129252   3.589   6.127   6.565
 9451SOL    HW229253   3.444   6.189   6.521
 9452SOL     OW29254   1.043   3.082   0.990
 9452SOL    HW129255   1.079   3.051   0.902
 9452SOL    HW229256   1.108   3.144   1.033
 9453SOL     OW29257   2.075   4.781   3.586
 9453SOL    HW129258   1.976   4.767   3.584
 9453SOL    HW229259   2.117   4.720   3.654
 9454SOL     OW29260   1.740   3.295   5.718
 9454SOL    HW129261   1.704   3.202   5.708
 9454SOL    HW229262   1.840   3.291   5.723
 9455SOL     OW29263   3.871   1.544   2.688
 9455SOL    HW129264   3.798   1.567   2.752
 9455SOL    HW229265   3.909   1.455   2.712
 9456SOL     OW29266   0.761   3.596   6.464
 9456SOL    HW129267   0.791   3.596   6.559
 9456SOL    HW229268   0.684   3.533   6.453
 9457SOL     OW29269   1.776   3.807   6.196
 9457SOL    HW129270   1.733   3.857   6.120
 9457SOL    HW229271   1.705   3.770   6.256
 9458SOL     OW29272   1.195   3.365   5.599
 9458SOL    HW129273   1.179   3.355   5.501
 9458SOL    HW229274   1.265   3.435   5.615
 9459SOL     OW29275   5.737   4.305   2.529
 9459SOL    HW129276   5.677   4.229   2.503
 9459SOL    HW229277   5.804   4.273   2.596
 9460SOL     OW29278   0.054   1.427   4.168
 9460SOL    HW129279   0.129   1.371   4.204
 9460SOL    HW229280   7.008   1.368   4.132
 9461SOL     OW29281   6.383   1.889   3.594
 9461SOL    HW129282   6.363   1.794   3.615
 9461SOL    HW229283   6.314   1.925   3.532
 9462SOL     OW29284   2.228   4.046   3.228
 9462SOL    HW129285   2.224   4.118   3.296
 9462SOL    HW229286   2.255   4.084   3.139
 9463SOL     OW29287   0.348   0.984   1.665
 9463SOL    HW129288   0.275   0.986   1.598
 9463SOL    HW229289   0.386   1.076   1.676
 9464SOL     OW29290   5.883   6.089   0.266
 9464SOL    HW129291   5.839   6.008   0.306
 9464SOL    HW229292   5.867   6.090   0.167
 9465SOL     OW29293   0.149   6.636   3.451
 9465SOL    HW129294   0.236   6.597   3.478
 9465SOL    HW229295   0.094   6.567   3.403
 9466SOL     OW29296   3.775   3.919   5.382
 9466SOL    HW129297   3.680   3.949   5.380
 9466SOL    HW229298   3.826   3.966   5.310
 9467SOL     OW29299   1.036   2.564   1.800
 9467SOL    HW129300   0.964   2.514   1.751
 9467SOL    HW229301   1.085   2.501   1.860
 9468SOL     OW29302   5.927   2.007   6.322
 9468SOL    HW129303   5.855   2.032   6.387
 9468SOL    HW229304   5.899   1.927   6.270
 9469SOL     OW29305   6.377   5.587   1.513
 9469SOL    HW129306   6.316   5.509   1.529
 9469SOL    HW229307   6.445   5.561   1.444
 9470SOL     OW29308   5.336   2.950   5.783
 9470SOL    HW129309   5.388   3.029   5.817
 9470SOL    HW229310   5.399   2.884   5.743
 9471SOL     OW29311   5.788   2.359   4.846
 9471SOL    HW129312   5.872   2.376   4.794
 9471SOL    HW229313   5.709   2.364   4.785
 9472SOL     OW29314   6.810   3.595   4.418
 9472SOL    HW129315   6.747   3.519   4.431
 9472SOL    HW229316   6.771   3.678   4.458
 9473SOL     OW29317   2.992   6.053   5.828
 9473SOL    HW129318   3.013   5.992   5.752
 9473SOL    HW229319   2.894   6.073   5.829
 9474SOL     OW29320   6.591   3.565   0.448
 9474SOL    HW129321   6.600   3.531   0.354
 9474SOL    HW229322   6.647   3.509   0.510
 9475SOL     OW29323   2.902   3.416   0.292
 9475SOL    HW129324   2.911   3.405   0.193
 9475SOL    HW229325   2.805   3.418   0.316
 9476SOL     OW29326   3.364   3.217   4.971
 9476SOL    HW129327   3.396   3.146   5.034
 9476SOL    HW229328   3.300   3.177   4.905
 9477SOL     OW29329   0.317   3.374   2.279
 9477SOL    HW129330   0.408   3.335   2.271
 9477SOL    HW229331   0.298   3.431   2.199
 9478SOL     OW29332   5.627   3.351   6.677
 9478SOL    HW129333   5.707   3.385   6.627
 9478SOL    HW229334   5.659   3.292   6.752
 9479SOL     OW29335   5.626   6.306   6.482
 9479SOL    HW129336   5.644   6.248   6.402
 9479SOL    HW229337   5.661   6.398   6.464
 9480SOL     OW29338   4.785   4.301   7.024
 9480SOL    HW129339   4.687   4.305   0.020
 9480SOL    HW229340   4.809   4.376   6.963
 9481SOL     OW29341   5.447   3.454   0.915
 9481SOL    HW129342   5.541   3.466   0.947
 9481SOL    HW229343   5.431   3.513   0.836
 9482SOL     OW29344   5.937   1.496   3.283
 9482SOL    HW129345   6.013   1.438   3.312
 9482SOL    HW229346   5.957   1.536   3.194
 9483SOL     OW29347   1.326   1.955   0.418
 9483SOL    HW129348   1.293   1.999   0.335
 9483SOL    HW229349   1.399   1.890   0.394
 9484SOL     OW29350   4.651   1.444   3.176
 9484SOL    HW129351   4.631   1.380   3.102
 9484SOL    HW229352   4.746   1.476   3.168
 9485SOL     OW29353   1.217   0.006   2.048
 9485SOL    HW129354   1.245   0.022   1.953
 9485SOL    HW229355   1.281   0.051   2.110
 9486SOL     OW29356   2.273   4.592   1.497
 9486SOL    HW129357   2.298   4.680   1.457
 9486SOL    HW229358   2.356   4.542   1.520
 9487SOL     OW29359   3.042   3.707   3.107
 9487SOL    HW129360   2.994   3.729   3.022
 9487SOL    HW229361   3.105   3.631   3.091
 9488SOL     OW29362   2.591   6.556   0.896
 9488SOL    HW129363   2.573   6.459   0.913
 9488SOL    HW229364   2.689   6.570   0.886
 9489SOL     OW29365   3.840   4.192   1.566
 9489SOL    HW129366   3.844   4.094   1.546
 9489SOL    HW229367   3.928   4.222   1.603
 9490SOL     OW29368   6.065   6.512   0.247
 9490SOL    HW129369   5.972   6.501   0.211
 9490SOL    HW229370   6.064   6.492   0.346
 9491SOL     OW29371   0.187   4.429   3.527
 9491SOL    HW129372   0.275   4.421   3.481
 9491SOL    HW229373   0.197   4.484   3.610
 9492SOL     OW29374   3.223   3.714   2.506
 9492SOL    HW129375   3.288   3.734   2.580
 9492SOL    HW229376   3.162   3.793   2.493
 9493SOL     OW29377   3.949   5.002   3.914
 9493SOL    HW129378   3.957   4.927   3.850
 9493SOL    HW229379   3.854   5.011   3.944
 9494SOL     OW29380   4.447   4.257   1.070
 9494SOL    HW129381   4.539   4.230   1.042
 9494SOL    HW229382   4.443   4.265   1.170
 9495SOL     OW29383   5.910   1.896   4.241
 9495SOL    HW129384   5.924   1.954   4.322
 9495SOL    HW229385   5.962   1.811   4.252
 9496SOL     OW29386   5.607   4.837   0.561
 9496SOL    HW129387   5.603   4.864   0.658
 9496SOL    HW229388   5.614   4.737   0.555
 9497SOL     OW29389   5.375   4.746   0.053
 9497SOL    HW129390   5.407   4.692   7.000
 9497SOL    HW229391   5.276   4.761   0.044
 9498SOL     OW29392   5.517   0.787   6.207
 9498SOL    HW129393   5.612   0.802   6.235
 9498SOL    HW229394   5.470   0.875   6.199
 9499SOL     OW29395   2.195   3.320   6.014
 9499SOL    HW129396   2.225   3.333   5.919
 9499SOL    HW229397   2.119   3.256   6.017
 9500SOL     OW29398   3.637   6.907   1.647
 9500SOL    HW129399   3.578   6.846   1.700
 9500SOL    HW229400   3.580   6.960   1.584
 9501SOL     OW29401   2.395   1.316   4.476
 9501SOL    HW129402   2.390   1.231   4.528
 9501SOL    HW229403   2.486   1.355   4.484
 9502SOL     OW29404   0.315   1.754   4.324
 9502SOL    HW129405   0.257   1.714   4.253
 9502SOL    HW229406   0.259   1.787   4.400
 9503SOL     OW29407   0.885   1.545   1.513
 9503SOL    HW129408   0.811   1.613   1.522
 9503SOL    HW229409   0.887   1.488   1.595
 9504SOL     OW29410   0.593   1.858   0.886
 9504SOL    HW129411   0.500   1.889   0.867
 9504SOL    HW229412   0.647   1.935   0.922
 9505SOL     OW29413   5.317   4.375   3.515
 9505SOL    HW129414   5.316   4.296   3.454
 9505SOL    HW229415   5.224   4.392   3.549
 9506SOL     OW29416   0.173   3.453   6.278
 9506SOL    HW129417   0.141   3.363   6.249
 9506SOL    HW229418   0.204   3.504   6.198
 9507SOL     OW29419   1.513   0.982   3.474
 9507SOL    HW129420   1.502   1.047   3.549
 9507SOL    HW229421   1.508   0.889   3.509
 9508SOL     OW29422   5.862   3.022   0.508
 9508SOL    HW129423   5.785   2.967   0.538
 9508SOL    HW229424   5.884   3.000   0.413
 9509SOL     OW29425   1.112   0.120   5.846
 9509SOL    HW129426   1.117   0.218   5.869
 9509SOL    HW229427   1.188   0.072   5.890
 9510SOL     OW29428   0.742   4.230   1.765
 9510SOL    HW129429   0.804   4.176   1.708
 9510SOL    HW229430   0.772   4.227   1.860
 9511SOL     OW29431   1.182   1.406   0.165
 9511SOL    HW129432   1.231   1.355   0.095
 9511SOL    HW229433   1.115   1.467   0.122
 9512SOL     OW29434   5.622   1.462   2.547
 9512SOL    HW129435   5.716   1.428   2.556
 9512SOL    HW229436   5.566   1.428   2.622
 9513SOL     OW29437   1.145   3.093   5.332
 9513SOL    HW129438   1.192   3.098   5.244
 9513SOL    HW229439   1.102   3.003   5.342
 9514SOL     OW29440   1.671   3.881   6.818
 9514SOL    HW129441   1.679   3.975   6.785
 9514SOL    HW229442   1.582   3.844   6.791
 9515SOL     OW29443   1.813   5.732   0.358
 9515SOL    HW129444   1.724   5.775   0.344
 9515SOL    HW229445   1.803   5.653   0.418
 9516SOL     OW29446   4.957   3.412   4.600
 9516SOL    HW129447   4.953   3.356   4.683
 9516SOL    HW229448   4.941   3.508   4.623
 9517SOL     OW29449   1.351   5.132   0.159
 9517SOL    HW129450   1.292   5.057   0.126
 9517SOL    HW229451   1.432   5.093   0.202
 9518SOL     OW29452   0.725   2.385   6.823
 9518SOL    HW129453   0.800   2.352   6.880
 9518SOL    HW229454   0.760   2.453   6.759
 9519SOL     OW29455   4.152   3.447   3.455
 9519SOL    HW129456   4.199   3.470   3.540
 9519SOL    HW229457   4.077   3.383   3.475
 9520SOL     OW29458   6.934   1.262   3.338
 9520SOL    HW129459   6.918   1.306   3.249
 9520SOL    HW229460   6.851   1.267   3.393
 9521SOL     OW29461   3.275   4.009   1.483
 9521SOL    HW129462   3.307   3.939   1.419
 9521SOL    HW229463   3.351   4.042   1.538
 9522SOL     OW29464   4.059   6.044   2.751
 9522SOL    HW129465   3.995   6.046   2.674
 9522SOL    HW229466   4.013   6.009   2.832
 9523SOL     OW29467   2.469   4.839   4.769
 9523SOL    HW129468   2.376   4.872   4.784
 9523SOL    HW229469   2.513   4.894   4.697
 9524SOL     OW29470   2.039   2.516   0.771
 9524SOL    HW129471   2.134   2.496   0.746
 9524SOL    HW229472   2.033   2.529   0.870
 9525SOL     OW29473   1.567   2.270   4.888
 9525SOL    HW129474   1.597   2.324   4.809
 9525SOL    HW229475   1.516   2.190   4.856
 9526SOL     OW29476   6.069   4.318   1.295
 9526SOL    HW129477   6.112   4.384   1.233
 9526SOL    HW229478   6.116   4.231   1.289
 9527SOL     OW29479   2.842   0.639   5.097
 9527SOL    HW129480   2.759   0.684   5.129
 9527SOL    HW229481   2.841   0.634   4.997
 9528SOL     OW29482   6.589   1.562   0.842
 9528SOL    HW129483   6.672   1.530   0.796
 9528SOL    HW229484   6.509   1.523   0.797
 9529SOL     OW29485   5.915   3.624   6.906
 9529SOL    HW129486   5.936   3.590   6.814
 9529SOL    HW229487   5.816   3.639   6.913
 9530SOL     OW29488   0.659   4.084   3.940
 9530SOL    HW129489   0.750   4.081   3.899
 9530SOL    HW229490   0.590   4.091   3.868
 9531SOL     OW29491   4.852   3.842   2.263
 9531SOL    HW129492   4.933   3.893   2.295
 9531SOL    HW229493   4.834   3.866   2.168
 9532SOL     OW29494   0.216   5.138   1.261
 9532SOL    HW129495   0.132   5.183   1.292
 9532SOL    HW229496   0.289   5.156   1.327
 9533SOL     OW29497   1.033   5.479   4.013
 9533SOL    HW129498   1.062   5.527   4.096
 9533SOL    HW229499   1.000   5.545   3.946
 9534SOL     OW29500   5.915   4.439   4.800
 9534SOL    HW129501   5.893   4.364   4.738
 9534SOL    HW229502   5.997   4.487   4.767
 9535SOL     OW29503   2.150   0.984   6.147
 9535SOL    HW129504   2.139   0.923   6.069
 9535SOL    HW229505   2.061   1.022   6.172
 9536SOL     OW29506   2.942   3.735   5.421
 9536SOL    HW129507   2.945   3.637   5.402
 9536SOL    HW229508   2.982   3.785   5.344
 9537SOL     OW29509   2.242   1.053   4.733
 9537SOL    HW129510   2.249   1.083   4.638
 9537SOL    HW229511   2.267   0.956   4.739
 9538SOL     OW29512   4.854   0.566   4.678
 9538SOL    HW129513   4.811   0.620   4.751
 9538SOL    HW229514   4.886   0.479   4.716
 9539SOL     OW29515   2.948   3.686   4.267
 9539SOL    HW129516   2.938   3.747   4.345
 9539SOL    HW229517   3.044   3.680   4.241
 9540SOL     OW29518   5.537   4.696   4.460
 9540SOL    HW129519   5.560   4.702   4.557
 9540SOL    HW229520   5.613   4.654   4.410
 9541SOL     OW29521   3.036   0.995   6.131
 9541SOL    HW129522   3.013   0.930   6.058
 9541SOL    HW229523   2.968   1.068   6.133
 9542SOL     OW29524   4.920   4.602   4.756
 9542SOL    HW129525   4.991   4.671   4.771
 9542SOL    HW229526   4.928   4.530   4.825
 9543SOL     OW29527   3.957   0.781   6.453
 9543SOL    HW129528   3.887   0.787   6.524
 9543SOL    HW229529   3.932   0.710   6.387
 9544SOL     OW29530   5.822   3.028   3.846
 9544SOL    HW129531   5.805   3.119   3.807
 9544SOL    HW229532   5.795   3.027   3.942
 9545SOL     OW29533   5.942   5.139   2.303
 9545SOL    HW129534   5.898   5.087   2.229
 9545SOL    HW229535   6.011   5.200   2.264
 9546SOL     OW29536   4.055   1.155   6.106
 9546SOL    HW129537   4.071   1.060   6.079
 9546SOL    HW229538   3.997   1.158   6.187
 9547SOL     OW29539   2.427   5.265   3.830
 9547SOL    HW129540   2.384   5.188   3.877
 9547SOL    HW229541   2.509   5.233   3.782
 9548SOL     OW29542   0.156   4.972   5.189
 9548SOL    HW129543   0.068   4.926   5.201
 9548SOL    HW229544   0.142   5.065   5.156
 9549SOL     OW29545   3.430   1.225   1.607
 9549SOL    HW129546   3.401   1.312   1.567
 9549SOL    HW229547   3.435   1.234   1.707
 9550SOL     OW29548   0.075   1.023   0.255
 9550SOL    HW129549   0.063   1.095   0.186
 9550SOL    HW229550   0.129   1.059   0.331
 9551SOL     OW29551   5.707   3.052   5.982
 9551SOL    HW129552   5.618   3.061   5.939
 9551SOL    HW229553   5.696   3.050   6.082
 9552SOL     OW29554   2.256   5.711   5.257
 9552SOL    HW129555   2.176   5.652   5.269
 9552SOL    HW229556   2.326   5.661   5.206
 9553SOL     OW29557   5.979   2.166   0.304
 9553SOL    HW129558   5.986   2.266   0.308
 9553SOL    HW229559   6.035   2.132   0.229
 9554SOL     OW29560   1.644   6.230   3.184
 9554SOL    HW129561   1.591   6.277   3.113
 9554SOL    HW229562   1.730   6.278   3.199
 9555SOL     OW29563   0.192   1.038   2.711
 9555SOL    HW129564   0.184   0.976   2.789
 9555SOL    HW229565   0.237   1.122   2.740
 9556SOL     OW29566   1.577   4.191   1.374
 9556SOL    HW129567   1.556   4.107   1.323
 9556SOL    HW229568   1.508   4.261   1.352
 9557SOL     OW29569   5.708   6.775   1.221
 9557SOL    HW129570   5.777   6.829   1.269
 9557SOL    HW229571   5.624   6.772   1.276
 9558SOL     OW29572   6.013   5.779   5.677
 9558SOL    HW129573   6.026   5.805   5.581
 9558SOL    HW229574   5.983   5.684   5.682
 9559SOL     OW29575   0.587   5.187   0.652
 9559SOL    HW129576   0.526   5.263   0.673
 9559SOL    HW229577   0.587   5.170   0.554
 9560SOL     OW29578   2.411   1.169   2.715
 9560SOL    HW129579   2.484   1.102   2.725
 9560SOL    HW229580   2.361   1.178   2.801
 9561SOL     OW29581   1.060   1.207   1.466
 9561SOL    HW129582   1.101   1.146   1.398
 9561SOL    HW229583   1.090   1.301   1.449
 9562SOL     OW29584   3.219   0.215   4.967
 9562SOL    HW129585   3.293   0.277   4.992
 9562SOL    HW229586   3.139   0.268   4.939
 9563SOL     OW29587   6.963   6.912   0.502
 9563SOL    HW129588   6.894   6.944   0.437
 9563SOL    HW229589   6.932   6.827   0.544
 9564SOL     OW29590   2.576   1.144   0.121
 9564SOL    HW129591   2.617   1.093   0.196
 9564SOL    HW229592   2.488   1.181   0.150
 9565SOL     OW29593   4.075   0.607   5.242
 9565SOL    HW129594   3.999   0.606   5.178
 9565SOL    HW229595   4.041   0.589   5.335
 9566SOL     OW29596   3.392   5.725   6.960
 9566SOL    HW129597   3.324   5.652   6.950
 9566SOL    HW229598   3.484   5.686   6.951
 9567SOL     OW29599   5.079   4.618   0.683
 9567SOL    HW129600   5.166   4.634   0.729
 9567SOL    HW229601   5.007   4.668   0.731
 9568SOL     OW29602   4.332   2.260   6.215
 9568SOL    HW129603   4.337   2.167   6.179
 9568SOL    HW229604   4.422   2.303   6.210
 9569SOL     OW29605   6.589   1.152   2.596
 9569SOL    HW129606   6.677   1.130   2.638
 9569SOL    HW229607   6.537   1.211   2.657
 9570SOL     OW29608   0.474   3.149   1.356
 9570SOL    HW129609   0.500   3.230   1.304
 9570SOL    HW229610   0.408   3.096   1.305
 9571SOL     OW29611   3.308   3.187   6.021
 9571SOL    HW129612   3.332   3.257   6.088
 9571SOL    HW229613   3.300   3.098   6.066
 9572SOL     OW29614   2.250   5.155   2.128
 9572SOL    HW129615   2.245   5.088   2.054
 9572SOL    HW229616   2.253   5.247   2.090
 9573SOL     OW29617   0.981   2.281   6.858
 9573SOL    HW129618   1.010   2.275   6.762
 9573SOL    HW229619   0.982   2.189   6.899
 9574SOL     OW29620   3.973   3.023   2.825
 9574SOL    HW129621   4.035   3.071   2.764
 9574SOL    HW229622   3.912   2.964   2.770
 9575SOL     OW29623   1.236   0.947   1.518
 9575SOL    HW129624   1.150   0.903   1.492
 9575SOL    HW229625   1.277   0.897   1.594
 9576SOL     OW29626   2.056   1.541   0.538
 9576SOL    HW129627   2.077   1.623   0.590
 9576SOL    HW229628   1.968   1.553   0.491
 9577SOL     OW29629   1.511   0.285   5.959
 9577SOL    HW129630   1.425   0.249   5.997
 9577SOL    HW229631   1.586   0.264   6.021
 9578SOL     OW29632   0.873   3.790   2.805
 9578SOL    HW129633   0.946   3.854   2.783
 9578SOL    HW229634   0.880   3.709   2.747
 9579SOL     OW29635   0.624   4.633   3.585
 9579SOL    HW129636   0.723   4.628   3.602
 9579SOL    HW229637   0.606   4.705   3.518
 9580SOL     OW29638   4.327   3.367   0.734
 9580SOL    HW129639   4.281   3.400   0.652
 9580SOL    HW229640   4.277   3.398   0.815
 9581SOL     OW29641   0.625   0.201   5.533
 9581SOL    HW129642   0.573   0.275   5.490
 9581SOL    HW229643   0.606   0.200   5.631
 9582SOL     OW29644   4.922   4.841   5.129
 9582SOL    HW129645   4.839   4.818   5.079
 9582SOL    HW229646   4.962   4.757   5.167
 9583SOL     OW29647   3.495   3.717   1.489
 9583SOL    HW129648   3.528   3.803   1.528
 9583SOL    HW229649   3.446   3.666   1.560
 9584SOL     OW29650   0.151   4.838   6.416
 9584SOL    HW129651   0.086   4.781   6.364
 9584SOL    HW229652   0.130   4.831   6.514
 9585SOL     OW29653   6.338   6.305   4.197
 9585SOL    HW129654   6.400   6.373   4.158
 9585SOL    HW229655   6.390   6.226   4.229
 9586SOL     OW29656   5.120   5.081   2.326
 9586SOL    HW129657   5.135   4.995   2.278
 9586SOL    HW229658   5.097   5.153   2.260
 9587SOL     OW29659   1.139   0.294   1.160
 9587SOL    HW129660   1.068   0.304   1.090
 9587SOL    HW229661   1.209   0.230   1.127
 9588SOL     OW29662   6.436   0.006   1.875
 9588SOL    HW129663   6.502   6.980   1.820
 9588SOL    HW229664   6.485   0.060   1.943
 9589SOL     OW29665   1.815   4.885   6.728
 9589SOL    HW129666   1.868   4.970   6.722
 9589SOL    HW229667   1.746   4.883   6.656
 9590SOL     OW29668   6.001   3.066   2.104
 9590SOL    HW129669   5.938   3.010   2.051
 9590SOL    HW229670   6.018   3.024   2.192
 9591SOL     OW29671   2.749   5.591   5.515
 9591SOL    HW129672   2.721   5.495   5.528
 9591SOL    HW229673   2.846   5.600   5.534
 9592SOL     OW29674   2.965   4.346   0.589
 9592SOL    HW129675   3.000   4.261   0.628
 9592SOL    HW229676   2.931   4.328   0.496
 9593SOL     OW29677   0.476   0.963   5.987
 9593SOL    HW129678   0.484   0.897   6.061
 9593SOL    HW229679   0.527   0.931   5.907
 9594SOL     OW29680   1.694   5.146   3.280
 9594SOL    HW129681   1.752   5.225   3.259
 9594SOL    HW229682   1.657   5.108   3.196
 9595SOL     OW29683   0.414   2.712   4.448
 9595SOL    HW129684   0.322   2.706   4.488
 9595SOL    HW229685   0.475   2.647   4.495
 9596SOL     OW29686   0.589   5.397   6.317
 9596SOL    HW129687   0.571   5.299   6.321
 9596SOL    HW229688   0.661   5.421   6.382
 9597SOL     OW29689   0.344   4.180   1.105
 9597SOL    HW129690   0.358   4.117   1.181
 9597SOL    HW229691   0.433   4.214   1.073
 9598SOL     OW29692   1.310   4.498   3.672
 9598SOL    HW129693   1.373   4.552   3.728
 9598SOL    HW229694   1.233   4.467   3.728
 9599SOL     OW29695   2.853   0.480   4.676
 9599SOL    HW129696   2.840   0.568   4.723
 9599SOL    HW229697   2.770   0.425   4.686
 9600SOL     OW29698   2.796   6.795   6.779
 9600SOL    HW129699   2.774   6.708   6.737
 9600SOL    HW229700   2.713   6.850   6.788
 9601SOL     OW29701   4.551   4.039   0.659
 9601SOL    HW129702   4.586   3.981   0.586
 9601SOL    HW229703   4.568   3.996   0.748
 9602SOL     OW29704   6.411   4.319   5.710
 9602SOL    HW129705   6.436   4.261   5.787
 9602SOL    HW229706   6.469   4.401   5.710
 9603SOL     OW29707   4.178   1.273   4.634
 9603SOL    HW129708   4.171   1.269   4.734
 9603SOL    HW229709   4.272   1.298   4.608
 9604SOL     OW29710   4.693   0.297   7.025
 9604SOL    HW129711   4.729   0.354   6.951
 9604SOL    HW229712   4.624   0.349   0.051
 9605SOL     OW29713   0.639   5.816   3.821
 9605SOL    HW129714   0.559   5.782   3.872
 9605SOL    HW229715   0.608   5.883   3.754
 9606SOL     OW29716   2.285   6.201   6.640
 9606SOL    HW129717   2.226   6.134   6.684
 9606SOL    HW229718   2.375   6.162   6.624
 9607SOL     OW29719   1.593   1.546   7.007
 9607SOL    HW129720   1.494   1.548   0.001
 9607SOL    HW229721   1.608   1.548   6.908
 9608SOL     OW29722   6.524   5.284   2.492
 9608SOL    HW129723   6.493   5.228   2.569
 9608SOL    HW229724   6.516   5.380   2.515
 9609SOL     OW29725   2.003   3.778   6.976
 9609SOL    HW129726   2.101   3.799   6.984
 9609SOL    HW229727   1.950   3.860   6.999
 9610SOL     OW29728   1.805   4.765   3.550
 9610SOL    HW129729   1.766   4.851   3.583
 9610SOL    HW229730   1.763   4.688   3.599
 9611SOL     OW29731   1.042   6.568   6.614
 9611SOL    HW129732   1.140   6.580   6.631
 9611SOL    HW229733   1.010   6.486   6.661
 9612SOL     OW29734   0.353   3.827   1.180
 9612SOL    HW129735   0.415   3.891   1.224
 9612SOL    HW229736   0.401   3.780   1.106
 9613SOL     OW29737   5.522   0.152   3.336
 9613SOL    HW129738   5.604   0.148   3.279
 9613SOL    HW229739   5.510   0.244   3.372
 9614SOL     OW29740   3.528   2.361   1.095
 9614SOL    HW129741   3.512   2.394   1.188
 9614SOL    HW229742   3.440   2.351   1.048
 9615SOL     OW29743   2.168   6.827   6.909
 9615SOL    HW129744   2.098   6.760   6.932
 9615SOL    HW229745   2.243   6.823   6.975
 9616SOL     OW29746   4.280   4.094   1.292
 9616SOL    HW129747   4.233   4.162   1.236
 9616SOL    HW229748   4.341   4.140   1.357
 9617SOL     OW29749   1.411   3.146   3.257
 9617SOL    HW129750   1.484   3.188   3.311
 9617SOL    HW229751   1.424   3.046   3.257
 9618SOL     OW29752   3.703   6.850   6.178
 9618SOL    HW129753   3.661   6.910   6.246
 9618SOL    HW229754   3.632   6.795   6.133
 9619SOL     OW29755   1.301   6.669   6.879
 9619SOL    HW129756   1.373   6.704   6.939
 9619SOL    HW229757   1.237   6.742   6.857
 9620SOL     OW29758   4.690   1.168   6.004
 9620SOL    HW129759   4.716   1.090   5.948
 9620SOL    HW229760   4.593   1.162   6.028
 9621SOL     OW29761   0.938   1.380   2.099
 9621SOL    HW129762   0.986   1.306   2.147
 9621SOL    HW229763   0.849   1.347   2.068
 9622SOL     OW29764   0.229   0.653   0.852
 9622SOL    HW129765   0.266   0.563   0.827
 9622SOL    HW229766   0.278   0.688   0.932
 9623SOL     OW29767   3.051   3.998   5.564
 9623SOL    HW129768   3.035   3.900   5.580
 9623SOL    HW229769   2.964   4.047   5.571
 9624SOL     OW29770   6.839   4.239   2.537
 9624SOL    HW129771   6.795   4.312   2.484
 9624SOL    HW229772   6.936   4.235   2.515
 9625SOL     OW29773   4.910   5.098   7.025
 9625SOL    HW129774   4.822   5.146   0.001
 9625SOL    HW229775   4.962   5.126   6.945
 9626SOL     OW29776   3.320   5.240   0.071
 9626SOL    HW129777   3.411   5.280   0.061
 9626SOL    HW229778   3.326   5.140   0.068
 9627SOL     OW29779   6.547   5.680   4.112
 9627SOL    HW129780   6.481   5.620   4.066
 9627SOL    HW229781   6.532   5.775   4.082
 9628SOL     OW29782   5.100   4.703   7.019
 9628SOL    HW129783   5.056   4.744   6.939
 9628SOL    HW229784   5.148   4.620   6.992
 9629SOL     OW29785   0.216   0.149   2.547
 9629SOL    HW129786   0.216   0.208   2.628
 9629SOL    HW229787   0.287   0.180   2.484
 9630SOL     OW29788   6.338   6.463   5.365
 9630SOL    HW129789   6.408   6.462   5.436
 9630SOL    HW229790   6.379   6.439   5.277
 9631SOL     OW29791   6.901   6.793   6.739
 9631SOL    HW129792   6.901   6.784   6.639
 9631SOL    HW229793   6.941   6.881   6.765
 9632SOL     OW29794   1.227   6.682   2.860
 9632SOL    HW129795   1.261   6.632   2.940
 9632SOL    HW229796   1.296   6.747   2.829
 9633SOL     OW29797   5.547   4.602   6.433
 9633SOL    HW129798   5.462   4.644   6.401
 9633SOL    HW229799   5.608   4.673   6.470
 9634SOL     OW29800   1.324   5.871   3.831
 9634SOL    HW129801   1.309   5.773   3.826
 9634SOL    HW229802   1.370   5.903   3.748
 9635SOL     OW29803   1.829   4.927   5.704
 9635SOL    HW129804   1.741   4.973   5.715
 9635SOL    HW229805   1.860   4.934   5.609
 9636SOL     OW29806   4.284   1.446   6.338
 9636SOL    HW129807   4.307   1.532   6.383
 9636SOL    HW229808   4.232   1.465   6.255
 9637SOL     OW29809   2.682   2.051   6.299
 9637SOL    HW129810   2.682   2.150   6.290
 9637SOL    HW229811   2.746   2.011   6.233
 9638SOL     OW29812   6.369   3.450   6.542
 9638SOL    HW129813   6.397   3.437   6.447
 9638SOL    HW229814   6.446   3.487   6.594
 9639SOL     OW29815   3.735   1.516   2.032
 9639SOL    HW129816   3.698   1.608   2.024
 9639SOL    HW229817   3.828   1.520   2.070
 9640SOL     OW29818   2.555   2.407   3.306
 9640SOL    HW129819   2.536   2.364   3.218
 9640SOL    HW229820   2.646   2.380   3.338
 9641SOL     OW29821   4.449   6.685   0.797
 9641SOL    HW129822   4.437   6.590   0.770
 9641SOL    HW229823   4.414   6.698   0.890
 9642SOL     OW29824   3.611   6.597   4.878
 9642SOL    HW129825   3.705   6.609   4.912
 9642SOL    HW229826   3.603   6.508   4.834
 9643SOL     OW29827   5.348   5.251   4.049
 9643SOL    HW129828   5.255   5.286   4.038
 9643SOL    HW229829   5.362   5.224   4.144
 9644SOL     OW29830   1.589   4.175   5.623
 9644SOL    HW129831   1.617   4.115   5.548
 9644SOL    HW229832   1.496   4.152   5.652
 9645SOL     OW29833   3.881   5.556   3.272
 9645SOL    HW129834   3.797   5.546   3.324
 9645SOL    HW229835   3.918   5.466   3.251
 9646SOL     OW29836   2.769   4.767   2.203
 9646SOL    HW129837   2.792   4.706   2.127
 9646SOL    HW229838   2.750   4.858   2.168
 9647SOL     OW29839   6.111   5.486   1.571
 9647SOL    HW129840   6.087   5.430   1.492
 9647SOL    HW229841   6.091   5.436   1.655
 9648SOL     OW29842   4.162   2.118   6.923
 9648SOL    HW129843   4.253   2.161   6.924
 9648SOL    HW229844   4.170   2.022   6.896
 9649SOL     OW29845   2.666   6.566   6.650
 9649SOL    HW129846   2.626   6.585   6.561
 9649SOL    HW229847   2.745   6.506   6.639
 9650SOL     OW29848   5.805   5.114   2.705
 9650SOL    HW129849   5.757   5.040   2.658
 9650SOL    HW229850   5.817   5.191   2.643
 9651SOL     OW29851   6.892   1.049   6.330
 9651SOL    HW129852   6.848   0.964   6.358
 9651SOL    HW229853   6.989   1.032   6.311
 9652SOL     OW29854   2.363   5.151   1.049
 9652SOL    HW129855   2.416   5.233   1.028
 9652SOL    HW229856   2.290   5.140   0.982
 9653SOL     OW29857   3.784   5.217   4.759
 9653SOL    HW129858   3.884   5.220   4.755
 9653SOL    HW229859   3.748   5.308   4.775
 9654SOL     OW29860   3.537   3.270   1.418
 9654SOL    HW129861   3.556   3.308   1.509
 9654SOL    HW229862   3.608   3.300   1.354
 9655SOL     OW29863   0.347   1.749   6.799
 9655SOL    HW129864   0.407   1.824   6.828
 9655SOL    HW229865   0.257   1.761   6.839
 9656SOL     OW29866   2.875   2.580   1.264
 9656SOL    HW129867   2.903   2.522   1.187
 9656SOL    HW229868   2.938   2.658   1.271
 9657SOL     OW29869   6.296   0.934   4.185
 9657SOL    HW129870   6.393   0.921   4.206
 9657SOL    HW229871   6.274   0.890   4.098
 9658SOL     OW29872   6.207   2.207   2.998
 9658SOL    HW129873   6.235   2.161   3.082
 9658SOL    HW229874   6.196   2.305   3.016
 9659SOL     OW29875   6.485   4.649   0.084
 9659SOL    HW129876   6.567   4.633   0.029
 9659SOL    HW229877   6.436   4.729   0.048
 9660SOL     OW29878   0.790   5.702   1.088
 9660SOL    HW129879   0.777   5.778   1.151
 9660SOL    HW229880   0.789   5.616   1.140
 9661SOL     OW29881   3.598   6.287   2.288
 9661SOL    HW129882   3.651   6.208   2.259
 9661SOL    HW229883   3.659   6.361   2.314
 9662SOL     OW29884   5.427   2.200   5.125
 9662SOL    HW129885   5.426   2.184   5.027
 9662SOL    HW229886   5.475   2.286   5.145
 9663SOL     OW29887   0.764   5.836   4.223
 9663SOL    HW129888   0.665   5.824   4.222
 9663SOL    HW229889   0.808   5.746   4.231
 9664SOL     OW29890   6.315   6.943   3.950
 9664SOL    HW129891   6.222   6.938   3.913
 9664SOL    HW229892   6.349   0.011   3.943
 9665SOL     OW29893   5.009   5.875   6.126
 9665SOL    HW129894   4.990   5.940   6.052
 9665SOL    HW229895   4.952   5.896   6.205
 9666SOL     OW29896   5.727   4.274   2.005
 9666SOL    HW129897   5.780   4.359   2.007
 9666SOL    HW229898   5.630   4.295   2.003
 9667SOL     OW29899   3.206   3.109   4.393
 9667SOL    HW129900   3.155   3.143   4.472
 9667SOL    HW229901   3.174   3.155   4.310
 9668SOL     OW29902   5.549   1.223   0.001
 9668SOL    HW129903   5.627   1.221   6.963
 9668SOL    HW229904   5.464   1.230   6.975
 9669SOL     OW29905   0.823   0.200   1.858
 9669SOL    HW129906   0.872   0.215   1.772
 9669SOL    HW229907   0.751   0.132   1.844
 9670SOL     OW29908   5.352   4.759   6.348
 9670SOL    HW129909   5.399   4.832   6.298
 9670SOL    HW229910   5.257   4.787   6.367
 9671SOL     OW29911   0.226   5.319   6.571
 9671SOL    HW129912   0.204   5.283   6.662
 9671SOL    HW229913   0.154   5.382   6.543
 9672SOL     OW29914   1.149   5.814   4.958
 9672SOL    HW129915   1.115   5.739   5.013
 9672SOL    HW229916   1.242   5.794   4.927
 9673SOL     OW29917   5.659   4.324   6.854
 9673SOL    HW129918   5.746   4.291   6.818
 9673SOL    HW229919   5.589   4.254   6.843
 9674SOL     OW29920   2.715   6.414   3.539
 9674SOL    HW129921   2.717   6.316   3.520
 9674SOL    HW229922   2.630   6.436   3.586
 9675SOL     OW29923   5.870   2.072   1.321
 9675SOL    HW129924   5.939   2.012   1.362
 9675SOL    HW229925   5.795   2.086   1.385
 9676SOL     OW29926   1.416   3.631   5.261
 9676SOL    HW129927   1.394   3.587   5.349
 9676SOL    HW229928   1.475   3.570   5.208
 9677SOL     OW29929   2.353   5.762   5.623
 9677SOL    HW129930   2.429   5.750   5.687
 9677SOL    HW229931   2.384   5.814   5.544
 9678SOL     OW29932   2.951   3.767   2.306
 9678SOL    HW129933   2.892   3.714   2.367
 9678SOL    HW229934   3.024   3.708   2.270
 9679SOL     OW29935   1.991   1.262   2.831
 9679SOL    HW129936   2.087   1.284   2.845
 9679SOL    HW229937   1.980   1.163   2.822
 9680SOL     OW29938   5.938   0.345   4.502
 9680SOL    HW129939   6.010   0.370   4.566
 9680SOL    HW229940   5.951   0.394   4.416
 9681SOL     OW29941   2.890   1.105   0.554
 9681SOL    HW129942   2.882   1.054   0.639
 9681SOL    HW229943   2.799   1.124   0.518
 9682SOL     OW29944   4.773   5.038   3.919
 9682SOL    HW129945   4.842   5.012   3.852
 9682SOL    HW229946   4.747   5.134   3.905
 9683SOL     OW29947   3.061   5.284   0.781
 9683SOL    HW129948   3.079   5.326   0.693
 9683SOL    HW229949   3.066   5.353   0.854
 9684SOL     OW29950   0.040   2.196   4.898
 9684SOL    HW129951   0.140   2.198   4.893
 9684SOL    HW229952   0.002   2.248   4.821
 9685SOL     OW29953   2.091   3.392   0.783
 9685SOL    HW129954   2.057   3.405   0.876
 9685SOL    HW229955   2.097   3.480   0.736
 9686SOL     OW29956   5.788   2.329   0.729
 9686SOL    HW129957   5.753   2.306   0.820
 9686SOL    HW229958   5.844   2.253   0.694
 9687SOL     OW29959   2.025   1.050   4.091
 9687SOL    HW129960   2.092   0.995   4.042
 9687SOL    HW229961   2.000   1.004   4.176
 9688SOL     OW29962   6.657   2.195   3.380
 9688SOL    HW129963   6.653   2.139   3.297
 9688SOL    HW229964   6.584   2.263   3.378
 9689SOL     OW29965   2.163   6.221   1.030
 9689SOL    HW129966   2.215   6.305   1.017
 9689SOL    HW229967   2.213   6.144   0.990
 9690SOL     OW29968   5.600   5.719   6.772
 9690SOL    HW129969   5.593   5.707   6.871
 9690SOL    HW229970   5.580   5.632   6.726
 9691SOL     OW29971   2.582   4.505   1.511
 9691SOL    HW129972   2.611   4.597   1.537
 9691SOL    HW229973   2.633   4.438   1.565
 9692SOL     OW29974   2.983   5.117   2.476
 9692SOL    HW129975   2.973   5.037   2.417
 9692SOL    HW229976   3.019   5.193   2.422
 9693SOL     OW29977   6.212   4.997   1.618
 9693SOL    HW129978   6.213   4.931   1.694
 9693SOL    HW229979   6.297   4.990   1.567
 9694SOL     OW29980   2.207   1.336   5.781
 9694SOL    HW129981   2.280   1.269   5.796
 9694SOL    HW229982   2.245   1.428   5.785
 9695SOL     OW29983   0.019   3.613   1.683
 9695SOL    HW129984   6.956   3.565   1.676
 9695SOL    HW229985   0.086   3.566   1.625
 9696SOL     OW29986   5.463   2.441   1.027
 9696SOL    HW129987   5.419   2.477   1.110
 9696SOL    HW229988   5.400   2.451   0.950
 9697SOL     OW29989   6.606   5.923   0.024
 9697SOL    HW129990   6.641   5.892   0.113
 9697SOL    HW229991   6.625   5.852   6.981
 9698SOL     OW29992   5.531   1.855   6.250
 9698SOL    HW129993   5.534   1.788   6.324
 9698SOL    HW229994   5.515   1.807   6.163
 9699SOL     OW29995   0.389   4.255   0.116
 9699SOL    HW129996   0.307   4.303   0.084
 9699SOL    HW229997   0.399   4.169   0.066
 9700SOL     OW29998   4.128   5.333   5.229
 9700SOL    HW129999   4.176   5.254   5.191
 9700SOL    HW230000   4.152   5.415   5.176
 9701SOL     OW30001   3.986   4.931   5.026
 9701SOL    HW130002   3.951   4.919   5.119
 9701SOL    HW230003   3.930   4.998   4.977
 9702SOL     OW30004   5.080   0.323   0.549
 9702SOL    HW130005   5.149   0.256   0.520
 9702SOL    HW230006   5.117   0.381   0.621
 9703SOL     OW30007   4.219   5.457   3.810
 9703SOL    HW130008   4.234   5.513   3.891
 9703SOL    HW230009   4.172   5.373   3.837
 9704SOL     OW30010   3.062   1.290   2.328
 9704SOL    HW130011   3.103   1.379   2.311
 9704SOL    HW230012   3.086   1.227   2.254
 9705SOL     OW30013   4.844   5.642   0.270
 9705SOL    HW130014   4.836   5.568   0.203
 9705SOL    HW230015   4.935   5.684   0.262
 9706SOL     OW30016   1.121   2.335   0.554
 9706SOL    HW130017   1.187   2.264   0.577
 9706SOL    HW230018   1.032   2.312   0.594
 9707SOL     OW30019   6.700   4.010   1.748
 9707SOL    HW130020   6.693   3.942   1.676
 9707SOL    HW230021   6.611   4.021   1.793
 9708SOL     OW30022   1.253   2.132   2.719
 9708SOL    HW130023   1.278   2.042   2.754
 9708SOL    HW230024   1.328   2.196   2.734
 9709SOL     OW30025   6.000   5.500   2.613
 9709SOL    HW130026   6.095   5.482   2.639
 9709SOL    HW230027   5.945   5.518   2.694
 9710SOL     OW30028   0.205   1.716   2.244
 9710SOL    HW130029   0.217   1.815   2.233
 9710SOL    HW230030   0.112   1.690   2.217
 9711SOL     OW30031   1.520   3.106   5.858
 9711SOL    HW130032   1.444   3.170   5.844
 9711SOL    HW230033   1.551   3.072   5.770
 9712SOL     OW30034   5.307   3.907   5.721
 9712SOL    HW130035   5.339   3.993   5.762
 9712SOL    HW230036   5.261   3.852   5.791
 9713SOL     OW30037   1.040   4.365   3.464
 9713SOL    HW130038   0.996   4.361   3.374
 9713SOL    HW230039   1.105   4.440   3.466
 9714SOL     OW30040   2.693   1.772   1.779
 9714SOL    HW130041   2.746   1.786   1.695
 9714SOL    HW230042   2.748   1.801   1.858
 9715SOL     OW30043   5.706   4.850   5.664
 9715SOL    HW130044   5.643   4.850   5.586
 9715SOL    HW230045   5.786   4.905   5.643
 9716SOL     OW30046   3.890   2.708   6.649
 9716SOL    HW130047   3.836   2.723   6.566
 9716SOL    HW230048   3.925   2.795   6.683
 9717SOL     OW30049   5.557   5.602   6.128
 9717SOL    HW130050   5.539   5.664   6.052
 9717SOL    HW230051   5.559   5.654   6.213
 9718SOL     OW30052   4.818   2.957   1.689
 9718SOL    HW130053   4.744   2.994   1.745
 9718SOL    HW230054   4.813   2.996   1.597
 9719SOL     OW30055   0.495   2.225   6.828
 9719SOL    HW130056   0.551   2.308   6.827
 9719SOL    HW230057   0.515   2.172   6.910
 9720SOL     OW30058   0.512   5.431   1.513
 9720SOL    HW130059   0.472   5.410   1.602
 9720SOL    HW230060   0.452   5.495   1.464
 9721SOL     OW30061   1.152   2.967   1.240
 9721SOL    HW130062   1.114   3.018   1.317
 9721SOL    HW230063   1.147   3.024   1.157
 9722SOL     OW30064   0.323   0.149   3.335
 9722SOL    HW130065   0.375   0.219   3.285
 9722SOL    HW230066   0.387   0.088   3.382
 9723SOL     OW30067   2.205   5.835   3.758
 9723SOL    HW130068   2.198   5.931   3.786
 9723SOL    HW230069   2.301   5.813   3.739
 9724SOL     OW30070   2.803   3.482   0.542
 9724SOL    HW130071   2.761   3.391   0.555
 9724SOL    HW230072   2.860   3.481   0.460
 9725SOL     OW30073   3.886   3.812   6.885
 9725SOL    HW130074   3.879   3.899   6.835
 9725SOL    HW230075   3.970   3.765   6.858
 9726SOL     OW30076   4.484   6.897   4.124
 9726SOL    HW130077   4.540   6.820   4.154
 9726SOL    HW230078   4.538   6.982   4.130
 9727SOL     OW30079   0.464   3.631   5.320
 9727SOL    HW130080   0.463   3.633   5.220
 9727SOL    HW230081   0.484   3.722   5.356
 9728SOL     OW30082   0.613   0.311   6.200
 9728SOL    HW130083   0.557   0.312   6.117
 9728SOL    HW230084   0.558   0.282   6.277
 9729SOL     OW30085   0.967   4.483   2.515
 9729SOL    HW130086   0.871   4.494   2.543
 9729SOL    HW230087   0.996   4.563   2.463
 9730SOL     OW30088   0.608   3.507   2.766
 9730SOL    HW130089   0.574   3.554   2.685
 9730SOL    HW230090   0.563   3.419   2.775
 9731SOL     OW30091   4.544   4.191   0.351
 9731SOL    HW130092   4.494   4.106   0.335
 9731SOL    HW230093   4.537   4.250   0.271
 9732SOL     OW30094   5.245   5.870   3.211
 9732SOL    HW130095   5.335   5.915   3.209
 9732SOL    HW230096   5.186   5.911   3.142
 9733SOL     OW30097   5.473   4.942   6.216
 9733SOL    HW130098   5.437   5.031   6.187
 9733SOL    HW230099   5.565   4.929   6.179
 9734SOL     OW30100   5.474   2.266   3.253
 9734SOL    HW130101   5.405   2.337   3.241
 9734SOL    HW230102   5.565   2.308   3.259
 9735SOL     OW30103   1.776   4.228   2.623
 9735SOL    HW130104   1.748   4.266   2.535
 9735SOL    HW230105   1.869   4.257   2.644
 9736SOL     OW30106   6.156   1.589   6.457
 9736SOL    HW130107   6.142   1.543   6.544
 9736SOL    HW230108   6.091   1.665   6.449
 9737SOL     OW30109   6.744   3.332   5.174
 9737SOL    HW130110   6.652   3.307   5.207
 9737SOL    HW230111   6.812   3.305   5.241
 9738SOL     OW30112   1.746   0.169   2.731
 9738SOL    HW130113   1.704   0.130   2.649
 9738SOL    HW230114   1.732   0.107   2.808
 9739SOL     OW30115   6.380   5.311   1.722
 9739SOL    HW130116   6.401   5.215   1.741
 9739SOL    HW230117   6.407   5.332   1.628
 9740SOL     OW30118   6.876   3.015   3.696
 9740SOL    HW130119   6.929   3.008   3.611
 9740SOL    HW230120   6.932   3.060   3.766
 9741SOL     OW30121   4.638   1.360   2.372
 9741SOL    HW130122   4.546   1.400   2.371
 9741SOL    HW230123   4.706   1.432   2.363
 9742SOL     OW30124   4.232   6.864   2.675
 9742SOL    HW130125   4.223   6.963   2.674
 9742SOL    HW230126   4.328   6.839   2.686
 9743SOL     OW30127   1.249   1.860   4.756
 9743SOL    HW130128   1.257   1.766   4.790
 9743SOL    HW230129   1.261   1.861   4.657
 9744SOL     OW30130   0.007   0.104   3.006
 9744SOL    HW130131   0.107   0.104   3.001
 9744SOL    HW230132   6.995   0.094   2.913
 9745SOL     OW30133   6.624   2.678   6.064
 9745SOL    HW130134   6.601   2.767   6.027
 9745SOL    HW230135   6.721   2.676   6.090
 9746SOL     OW30136   6.105   1.040   6.335
 9746SOL    HW130137   6.083   1.137   6.340
 9746SOL    HW230138   6.191   1.027   6.285
 9747SOL     OW30139   2.055   0.865   1.673
 9747SOL    HW130140   2.018   0.777   1.642
 9747SOL    HW230141   2.035   0.877   1.770
 9748SOL     OW30142   1.250   1.128   3.941
 9748SOL    HW130143   1.219   1.223   3.940
 9748SOL    HW230144   1.243   1.090   3.849
 9749SOL     OW30145   2.419   1.866   5.125
 9749SOL    HW130146   2.462   1.780   5.095
 9749SOL    HW230147   2.435   1.937   5.056
 9750SOL     OW30148   5.458   4.878   3.574
 9750SOL    HW130149   5.485   4.791   3.534
 9750SOL    HW230150   5.537   4.919   3.620
 9751SOL     OW30151   2.253   1.555   1.016
 9751SOL    HW130152   2.235   1.630   0.952
 9751SOL    HW230153   2.172   1.498   1.024
 9752SOL     OW30154   5.183   1.069   0.127
 9752SOL    HW130155   5.165   1.063   0.226
 9752SOL    HW230156   5.244   0.995   0.100
 9753SOL     OW30157   5.606   5.611   5.064
 9753SOL    HW130158   5.647   5.573   4.981
 9753SOL    HW230159   5.678   5.642   5.126
 9754SOL     OW30160   1.031   1.754   0.292
 9754SOL    HW130161   0.969   1.705   0.230
 9754SOL    HW230162   1.070   1.689   0.357
 9755SOL     OW30163   4.148   3.362   5.115
 9755SOL    HW130164   4.075   3.408   5.165
 9755SOL    HW230165   4.217   3.329   5.179
 9756SOL     OW30166   6.414   3.377   0.194
 9756SOL    HW130167   6.479   3.302   0.210
 9756SOL    HW230168   6.358   3.390   0.275
 9757SOL     OW30169   5.597   3.183   3.152
 9757SOL    HW130170   5.568   3.091   3.125
 9757SOL    HW230171   5.690   3.199   3.118
 9758SOL     OW30172   2.112   6.748   6.472
 9758SOL    HW130173   2.161   6.832   6.496
 9758SOL    HW230174   2.176   6.672   6.466
 9759SOL     OW30175   2.061   0.292   0.048
 9759SOL    HW130176   1.984   0.355   0.043
 9759SOL    HW230177   2.028   0.198   0.047
 9760SOL     OW30178   4.542   3.396   5.398
 9760SOL    HW130179   4.588   3.414   5.311
 9760SOL    HW230180   4.575   3.461   5.466
 9761SOL     OW30181   6.066   6.322   2.072
 9761SOL    HW130182   6.069   6.413   2.031
 9761SOL    HW230183   6.090   6.254   2.002
 9762SOL     OW30184   2.598   2.380   4.632
 9762SOL    HW130185   2.656   2.377   4.551
 9762SOL    HW230186   2.513   2.331   4.615
 9763SOL     OW30187   4.424   2.307   1.356
 9763SOL    HW130188   4.373   2.362   1.422
 9763SOL    HW230189   4.512   2.350   1.336
 9764SOL     OW30190   1.044   2.509   2.290
 9764SOL    HW130191   1.074   2.426   2.338
 9764SOL    HW230192   1.115   2.579   2.298
 9765SOL     OW30193   6.237   2.101   3.459
 9765SOL    HW130194   6.296   2.137   3.532
 9765SOL    HW230195   6.144   2.134   3.472
 9766SOL     OW30196   2.903   0.579   2.851
 9766SOL    HW130197   2.814   0.540   2.872
 9766SOL    HW230198   2.938   0.628   2.930
 9767SOL     OW30199   5.195   2.054   5.169
 9767SOL    HW130200   5.230   2.144   5.142
 9767SOL    HW230201   5.243   1.983   5.119
 9768SOL     OW30202   4.688   1.679   2.160
 9768SOL    HW130203   4.694   1.777   2.141
 9768SOL    HW230204   4.754   1.655   2.231
 9769SOL     OW30205   2.162   1.298   2.024
 9769SOL    HW130206   2.128   1.325   1.933
 9769SOL    HW230207   2.242   1.354   2.047
 9770SOL     OW30208   5.707   0.154   0.129
 9770SOL    HW130209   5.796   0.127   0.167
 9770SOL    HW230210   5.640   0.081   0.146
 9771SOL     OW30211   4.016   4.934   1.598
 9771SOL    HW130212   3.944   4.929   1.668
 9771SOL    HW230213   3.974   4.948   1.508
 9772SOL     OW30214   0.944   6.008   1.808
 9772SOL    HW130215   1.005   6.006   1.887
 9772SOL    HW230216   0.893   6.093   1.807
 9773SOL     OW30217   5.559   6.868   4.284
 9773SOL    HW130218   5.595   6.779   4.257
 9773SOL    HW230219   5.460   6.871   4.265
 9774SOL     OW30220   6.029   4.898   2.414
 9774SOL    HW130221   6.047   4.845   2.331
 9774SOL    HW230222   5.996   4.989   2.389
 9775SOL     OW30223   3.179   1.658   3.751
 9775SOL    HW130224   3.168   1.745   3.703
 9775SOL    HW230225   3.097   1.601   3.737
 9776SOL     OW30226   6.846   5.393   4.450
 9776SOL    HW130227   6.831   5.294   4.449
 9776SOL    HW230228   6.759   5.440   4.434
 9777SOL     OW30229   5.750   4.787   6.511
 9777SOL    HW130230   5.726   4.883   6.498
 9777SOL    HW230231   5.835   4.767   6.463
 9778SOL     OW30232   6.480   0.631   3.739
 9778SOL    HW130233   6.514   0.725   3.741
 9778SOL    HW230234   6.547   0.573   3.694
 9779SOL     OW30235   2.477   1.608   4.519
 9779SOL    HW130236   2.473   1.695   4.569
 9779SOL    HW230237   2.416   1.542   4.563
 9780SOL     OW30238   2.356   1.977   1.048
 9780SOL    HW130239   2.385   1.882   1.062
 9780SOL    HW230240   2.272   1.994   1.099
 9781SOL     OW30241   1.824   3.662   3.649
 9781SOL    HW130242   1.821   3.654   3.748
 9781SOL    HW230243   1.793   3.577   3.607
 9782SOL     OW30244   0.488   0.567   1.432
 9782SOL    HW130245   0.449   0.605   1.516
 9782SOL    HW230246   0.587   0.571   1.437
 9783SOL     OW30247   4.597   1.544   1.656
 9783SOL    HW130248   4.591   1.535   1.755
 9783SOL    HW230249   4.545   1.470   1.612
 9784SOL     OW30250   4.816   1.077   3.671
 9784SOL    HW130251   4.854   1.038   3.587
 9784SOL    HW230252   4.829   1.176   3.671
 9785SOL     OW30253   6.870   4.263   4.781
 9785SOL    HW130254   6.903   4.169   4.794
 9785SOL    HW230255   6.912   4.302   4.699
 9786SOL     OW30256   1.643   4.735   6.337
 9786SOL    HW130257   1.645   4.822   6.385
 9786SOL    HW230258   1.734   4.693   6.341
 9787SOL     OW30259   5.200   3.682   0.759
 9787SOL    HW130260   5.287   3.655   0.717
 9787SOL    HW230261   5.124   3.646   0.706
 9788SOL     OW30262   0.337   0.438   3.818
 9788SOL    HW130263   0.323   0.373   3.893
 9788SOL    HW230264   0.332   0.391   3.730
 9789SOL     OW30265   2.142   5.934   6.289
 9789SOL    HW130266   2.091   5.856   6.253
 9789SOL    HW230267   2.239   5.914   6.290
 9790SOL     OW30268   5.767   3.630   5.381
 9790SOL    HW130269   5.793   3.563   5.312
 9790SOL    HW230270   5.737   3.583   5.464
 9791SOL     OW30271   0.327   0.664   3.260
 9791SOL    HW130272   0.356   0.755   3.289
 9791SOL    HW230273   0.368   0.642   3.171
 9792SOL     OW30274   5.413   5.031   1.249
 9792SOL    HW130275   5.411   4.934   1.274
 9792SOL    HW230276   5.373   5.085   1.322
 9793SOL     OW30277   5.765   5.655   3.491
 9793SOL    HW130278   5.852   5.615   3.519
 9793SOL    HW230279   5.691   5.607   3.539
 9794SOL     OW30280   6.105   3.982   6.402
 9794SOL    HW130281   6.167   3.953   6.330
 9794SOL    HW230282   6.021   3.928   6.398
 9795SOL     OW30283   1.498   1.995   3.997
 9795SOL    HW130284   1.490   1.925   3.926
 9795SOL    HW230285   1.580   2.050   3.980
 9796SOL     OW30286   3.564   3.962   0.508
 9796SOL    HW130287   3.534   3.965   0.603
 9796SOL    HW230288   3.604   4.050   0.482
 9797SOL     OW30289   3.936   3.998   6.675
 9797SOL    HW130290   4.000   3.989   6.599
 9797SOL    HW230291   3.856   4.051   6.646
 9798SOL     OW30292   2.396   0.808   0.728
 9798SOL    HW130293   2.352   0.724   0.760
 9798SOL    HW230294   2.329   0.863   0.678
 9799SOL     OW30295   3.145   3.495   2.632
 9799SOL    HW130296   3.143   3.580   2.579
 9799SOL    HW230297   3.236   3.481   2.670
 9800SOL     OW30298   3.340   6.018   5.918
 9800SOL    HW130299   3.417   6.055   5.970
 9800SOL    HW230300   3.365   6.012   5.822
 9801SOL     OW30301   4.379   4.752   0.219
 9801SOL    HW130302   4.352   4.846   0.240
 9801SOL    HW230303   4.441   4.753   0.140
 9802SOL     OW30304   0.094   2.816   2.345
 9802SOL    HW130305   0.047   2.841   2.429
 9802SOL    HW230306   0.152   2.736   2.362
 9803SOL     OW30307   5.996   1.116   0.081
 9803SOL    HW130308   5.935   1.171   0.137
 9803SOL    HW230309   6.050   1.056   0.140
 9804SOL     OW30310   0.392   5.523   3.513
 9804SOL    HW130311   0.398   5.424   3.526
 9804SOL    HW230312   0.319   5.560   3.571
 9805SOL     OW30313   1.187   5.824   6.751
 9805SOL    HW130314   1.099   5.833   6.798
 9805SOL    HW230315   1.255   5.786   6.814
 9806SOL     OW30316   1.031   1.966   1.176
 9806SOL    HW130317   1.072   2.034   1.115
 9806SOL    HW230318   0.974   1.904   1.123
 9807SOL     OW30319   2.420   2.764   0.201
 9807SOL    HW130320   2.427   2.739   0.297
 9807SOL    HW230321   2.510   2.760   0.158
 9808SOL     OW30322   5.407   0.658   5.407
 9808SOL    HW130323   5.366   0.745   5.431
 9808SOL    HW230324   5.497   0.650   5.449
 9809SOL     OW30325   0.477   1.862   6.129
 9809SOL    HW130326   0.471   1.886   6.226
 9809SOL    HW230327   0.482   1.946   6.075
 9810SOL     OW30328   2.917   2.221   3.111
 9810SOL    HW130329   2.873   2.257   3.193
 9810SOL    HW230330   2.905   2.122   3.107
 9811SOL     OW30331   5.760   5.553   3.905
 9811SOL    HW130332   5.702   5.473   3.890
 9811SOL    HW230333   5.723   5.632   3.855
 9812SOL     OW30334   3.594   2.301   6.388
 9812SOL    HW130335   3.595   2.334   6.294
 9812SOL    HW230336   3.675   2.335   6.436
 9813SOL     OW30337   5.524   6.079   6.838
 9813SOL    HW130338   5.573   6.078   6.925
 9813SOL    HW230339   5.586   6.053   6.764
 9814SOL     OW30340   0.666   0.808   5.826
 9814SOL    HW130341   0.732   0.831   5.898
 9814SOL    HW230342   0.716   0.782   5.744
 9815SOL     OW30343   6.600   1.986   1.387
 9815SOL    HW130344   6.653   2.069   1.375
 9815SOL    HW230345   6.658   1.906   1.371
 9816SOL     OW30346   6.662   1.173   0.009
 9816SOL    HW130347   6.676   1.085   6.989
 9816SOL    HW230348   6.588   1.222   6.989
 9817SOL     OW30349   2.757   5.831   1.883
 9817SOL    HW130350   2.856   5.841   1.889
 9817SOL    HW230351   2.724   5.773   1.957
 9818SOL     OW30352   1.545   1.094   3.731
 9818SOL    HW130353   1.548   1.165   3.802
 9818SOL    HW230354   1.556   1.004   3.773
 9819SOL     OW30355   5.397   3.466   4.772
 9819SOL    HW130356   5.485   3.462   4.724
 9819SOL    HW230357   5.347   3.381   4.757
 9820SOL     OW30358   3.116   2.127   6.487
 9820SOL    HW130359   3.064   2.180   6.553
 9820SOL    HW230360   3.204   2.100   6.527
 9821SOL     OW30361   4.101   1.666   1.091
 9821SOL    HW130362   4.095   1.764   1.110
 9821SOL    HW230363   4.009   1.626   1.096
 9822SOL     OW30364   3.932   5.469   4.194
 9822SOL    HW130365   3.970   5.376   4.192
 9822SOL    HW230366   3.994   5.528   4.245
 9823SOL     OW30367   1.138   0.728   2.036
 9823SOL    HW130368   1.182   0.652   1.988
 9823SOL    HW230369   1.040   0.712   2.042
 9824SOL     OW30370   2.697   5.846   5.621
 9824SOL    HW130371   2.769   5.894   5.572
 9824SOL    HW230372   2.679   5.758   5.577
 9825SOL     OW30373   5.566   5.648   5.469
 9825SOL    HW130374   5.604   5.681   5.556
 9825SOL    HW230375   5.564   5.723   5.403
 9826SOL     OW30376   3.728   6.337   5.562
 9826SOL    HW130377   3.759   6.353   5.655
 9826SOL    HW230378   3.657   6.405   5.539
 9827SOL     OW30379   2.193   5.127   2.890
 9827SOL    HW130380   2.241   5.188   2.952
 9827SOL    HW230381   2.258   5.066   2.845
 9828SOL     OW30382   3.658   2.083   4.854
 9828SOL    HW130383   3.617   2.022   4.786
 9828SOL    HW230384   3.732   2.136   4.812
 9829SOL     OW30385   5.143   6.698   6.330
 9829SOL    HW130386   5.146   6.738   6.422
 9829SOL    HW230387   5.048   6.692   6.299
 9830SOL     OW30388   5.723   1.189   2.144
 9830SOL    HW130389   5.651   1.164   2.209
 9830SOL    HW230390   5.783   1.257   2.185
 9831SOL     OW30391   0.371   4.420   1.801
 9831SOL    HW130392   0.307   4.432   1.725
 9831SOL    HW230393   0.410   4.328   1.798
 9832SOL     OW30394   4.927   5.326   4.230
 9832SOL    HW130395   4.861   5.283   4.291
 9832SOL    HW230396   4.879   5.369   4.153
 9833SOL     OW30397   3.542   3.913   3.408
 9833SOL    HW130398   3.516   3.984   3.472
 9833SOL    HW230399   3.469   3.844   3.403
 9834SOL     OW30400   1.996   5.276   5.975
 9834SOL    HW130401   1.911   5.264   6.027
 9834SOL    HW230402   2.051   5.193   5.983
 9835SOL     OW30403   3.857   3.718   4.102
 9835SOL    HW130404   3.873   3.782   4.027
 9835SOL    HW230405   3.785   3.654   4.076
 9836SOL     OW30406   0.593   4.483   5.451
 9836SOL    HW130407   0.666   4.495   5.384
 9836SOL    HW230408   0.509   4.526   5.416
 9837SOL     OW30409   5.484   2.039   2.180
 9837SOL    HW130410   5.454   1.990   2.262
 9837SOL    HW230411   5.576   2.010   2.155
 9838SOL     OW30412   1.446   6.662   0.960
 9838SOL    HW130413   1.475   6.577   0.918
 9838SOL    HW230414   1.410   6.724   0.891
 9839SOL     OW30415   4.460   1.154   3.785
 9839SOL    HW130416   4.486   1.216   3.711
 9839SOL    HW230417   4.471   1.059   3.756
 9840SOL     OW30418   4.602   1.499   0.003
 9840SOL    HW130419   4.661   1.460   0.074
 9840SOL    HW230420   4.616   1.598   7.024
 9841SOL     OW30421   0.723   4.979   3.378
 9841SOL    HW130422   0.712   5.055   3.442
 9841SOL    HW230423   0.642   4.920   3.382
 9842SOL     OW30424   3.438   3.233   0.515
 9842SOL    HW130425   3.520   3.288   0.531
 9842SOL    HW230426   3.369   3.256   0.584
 9843SOL     OW30427   6.777   0.279   1.936
 9843SOL    HW130428   6.830   0.276   2.021
 9843SOL    HW230429   6.679   0.284   1.957
 9844SOL     OW30430   5.908   0.573   4.773
 9844SOL    HW130431   5.864   0.652   4.816
 9844SOL    HW230432   6.000   0.598   4.743
 9845SOL     OW30433   1.193   2.347   2.470
 9845SOL    HW130434   1.160   2.349   2.565
 9845SOL    HW230435   1.292   2.335   2.470
 9846SOL     OW30436   4.888   1.488   0.964
 9846SOL    HW130437   4.950   1.454   1.034
 9846SOL    HW230438   4.840   1.569   0.998
 9847SOL     OW30439   3.865   3.097   2.117
 9847SOL    HW130440   3.949   3.122   2.166
 9847SOL    HW230441   3.889   3.064   2.026
 9848SOL     OW30442   3.480   4.113   5.497
 9848SOL    HW130443   3.571   4.147   5.523
 9848SOL    HW230444   3.417   4.125   5.573
 9849SOL     OW30445   0.918   0.182   6.454
 9849SOL    HW130446   0.902   0.248   6.380
 9849SOL    HW230447   0.836   0.127   6.466
 9850SOL     OW30448   0.209   0.504   4.178
 9850SOL    HW130449   0.172   0.524   4.269
 9850SOL    HW230450   0.161   0.426   4.138
 9851SOL     OW30451   2.898   5.646   4.769
 9851SOL    HW130452   2.833   5.574   4.743
 9851SOL    HW230453   2.958   5.666   4.692
 9852SOL     OW30454   1.314   2.069   5.473
 9852SOL    HW130455   1.322   2.132   5.396
 9852SOL    HW230456   1.363   1.984   5.451
 9853SOL     OW30457   0.120   3.950   5.350
 9853SOL    HW130458   0.065   3.996   5.280
 9853SOL    HW230459   0.160   3.866   5.311
 9854SOL     OW30460   0.937   5.762   5.241
 9854SOL    HW130461   0.904   5.740   5.333
 9854SOL    HW230462   0.987   5.684   5.204
 9855SOL     OW30463   1.248   3.332   1.383
 9855SOL    HW130464   1.192   3.385   1.447
 9855SOL    HW230465   1.325   3.291   1.432
 9856SOL     OW30466   5.859   4.950   4.140
 9856SOL    HW130467   5.826   4.859   4.115
 9856SOL    HW230468   5.945   4.941   4.190
 9857SOL     OW30469   5.692   2.843   2.769
 9857SOL    HW130470   5.703   2.940   2.790
 9857SOL    HW230471   5.664   2.832   2.674
 9858SOL     OW30472   1.113   6.548   1.966
 9858SOL    HW130473   1.083   6.569   2.059
 9858SOL    HW230474   1.197   6.494   1.970
 9859SOL     OW30475   6.672   4.764   5.081
 9859SOL    HW130476   6.717   4.736   4.996
 9859SOL    HW230477   6.689   4.696   5.152
 9860SOL     OW30478   2.006   2.252   5.078
 9860SOL    HW130479   1.955   2.188   5.136
 9860SOL    HW230480   2.102   2.254   5.107
 9861SOL     OW30481   3.432   1.267   3.686
 9861SOL    HW130482   3.362   1.208   3.645
 9861SOL    HW230483   3.508   1.210   3.718
 9862SOL     OW30484   2.733   4.169   1.100
 9862SOL    HW130485   2.821   4.127   1.121
 9862SOL    HW230486   2.748   4.262   1.065
 9863SOL     OW30487   3.316   5.769   0.853
 9863SOL    HW130488   3.348   5.741   0.943
 9863SOL    HW230489   3.366   5.718   0.783
 9864SOL     OW30490   2.833   6.790   5.444
 9864SOL    HW130491   2.923   6.784   5.399
 9864SOL    HW230492   2.842   6.763   5.539
 9865SOL     OW30493   0.376   0.094   5.189
 9865SOL    HW130494   0.436   0.136   5.120
 9865SOL    HW230495   0.372   0.152   5.270
 9866SOL     OW30496   5.907   4.423   5.076
 9866SOL    HW130497   5.920   4.405   4.979
 9866SOL    HW230498   5.971   4.367   5.129
 9867SOL     OW30499   4.823   2.273   2.795
 9867SOL    HW130500   4.861   2.350   2.745
 9867SOL    HW230501   4.752   2.305   2.857
 9868SOL     OW30502   0.509   4.130   3.709
 9868SOL    HW130503   0.508   4.222   3.747
 9868SOL    HW230504   0.488   4.133   3.612
 9869SOL     OW30505   0.848   2.583   1.112
 9869SOL    HW130506   0.911   2.528   1.167
 9869SOL    HW230507   0.759   2.588   1.159
 9870SOL     OW30508   4.194   1.145   1.992
 9870SOL    HW130509   4.097   1.169   1.995
 9870SOL    HW230510   4.228   1.156   1.898
 9871SOL     OW30511   6.525   2.573   5.630
 9871SOL    HW130512   6.611   2.611   5.666
 9871SOL    HW230513   6.540   2.540   5.537
 9872SOL     OW30514   2.349   5.278   5.090
 9872SOL    HW130515   2.349   5.250   4.994
 9872SOL    HW230516   2.386   5.204   5.146
 9873SOL     OW30517   1.873   2.188   5.426
 9873SOL    HW130518   1.775   2.190   5.446
 9873SOL    HW230519   1.924   2.164   5.508
 9874SOL     OW30520   0.968   2.854   4.293
 9874SOL    HW130521   0.930   2.857   4.200
 9874SOL    HW230522   0.960   2.945   4.334
 9875SOL     OW30523   0.435   6.149   1.392
 9875SOL    HW130524   0.497   6.149   1.470
 9875SOL    HW230525   0.401   6.242   1.377
 9876SOL     OW30526   3.362   0.045   3.730
 9876SOL    HW130527   3.385   0.096   3.647
 9876SOL    HW230528   3.309   6.989   3.706
 9877SOL     OW30529   6.805   4.175   4.120
 9877SOL    HW130530   6.736   4.120   4.167
 9877SOL    HW230531   6.786   4.272   4.134
 9878SOL     OW30532   1.718   2.924   6.916
 9878SOL    HW130533   1.634   2.933   6.970
 9878SOL    HW230534   1.772   3.007   6.924
 9879SOL     OW30535   1.409   4.412   5.484
 9879SOL    HW130536   1.505   4.394   5.505
 9879SOL    HW230537   1.351   4.376   5.557
 9880SOL     OW30538   2.855   0.939   6.611
 9880SOL    HW130539   2.792   0.884   6.556
 9880SOL    HW230540   2.805   1.012   6.657
 9881SOL     OW30541   5.554   0.599   4.751
 9881SOL    HW130542   5.609   0.535   4.698
 9881SOL    HW230543   5.466   0.613   4.705
 9882SOL     OW30544   3.667   3.474   4.453
 9882SOL    HW130545   3.592   3.419   4.418
 9882SOL    HW230546   3.633   3.533   4.527
 9883SOL     OW30547   2.049   5.601   1.988
 9883SOL    HW130548   2.102   5.520   2.012
 9883SOL    HW230549   2.063   5.672   2.056
 9884SOL     OW30550   1.745   3.196   6.899
 9884SOL    HW130551   1.718   3.191   6.995
 9884SOL    HW230552   1.682   3.257   6.850
 9885SOL     OW30553   0.531   3.028   3.839
 9885SOL    HW130554   0.567   3.053   3.749
 9885SOL    HW230555   0.486   3.107   3.880
 9886SOL     OW30556   5.857   6.070   1.800
 9886SOL    HW130557   5.944   6.106   1.833
 9886SOL    HW230558   5.844   5.977   1.835
 9887SOL     OW30559   4.202   6.831   0.404
 9887SOL    HW130560   4.227   6.864   0.495
 9887SOL    HW230561   4.232   6.897   0.335
 9888SOL     OW30562   5.771   5.926   2.616
 9888SOL    HW130563   5.803   5.902   2.708
 9888SOL    HW230564   5.710   6.004   2.621
 9889SOL     OW30565   6.894   4.743   3.158
 9889SOL    HW130566   6.918   4.653   3.122
 9889SOL    HW230567   6.813   4.735   3.216
 9890SOL     OW30568   6.255   2.708   0.250
 9890SOL    HW130569   6.231   2.710   0.347
 9890SOL    HW230570   6.186   2.655   0.200
 9891SOL     OW30571   5.107   4.831   1.242
 9891SOL    HW130572   5.032   4.770   1.216
 9891SOL    HW230573   5.191   4.778   1.253
 9892SOL     OW30574   2.317   4.939   3.577
 9892SOL    HW130575   2.222   4.909   3.584
 9892SOL    HW230576   2.320   5.034   3.548
 9893SOL     OW30577   6.196   5.998   2.802
 9893SOL    HW130578   6.192   6.063   2.725
 9893SOL    HW230579   6.286   6.002   2.844
 9894SOL     OW30580   3.451   2.062   6.237
 9894SOL    HW130581   3.413   2.091   6.149
 9894SOL    HW230582   3.474   2.142   6.292
 9895SOL     OW30583   5.756   2.053   6.554
 9895SOL    HW130584   5.842   2.040   6.603
 9895SOL    HW230585   5.681   2.056   6.620
 9896SOL     OW30586   4.056   3.164   0.711
 9896SOL    HW130587   3.971   3.119   0.681
 9896SOL    HW230588   4.104   3.200   0.632
 9897SOL     OW30589   5.387   1.733   3.060
 9897SOL    HW130590   5.485   1.732   3.041
 9897SOL    HW230591   5.371   1.759   3.155
 9898SOL     OW30592   1.201   4.887   5.522
 9898SOL    HW130593   1.196   4.818   5.593
 9898SOL    HW230594   1.171   4.847   5.435
 9899SOL     OW30595   5.540   4.498   2.161
 9899SOL    HW130596   5.521   4.404   2.133
 9899SOL    HW230597   5.504   4.513   2.253
 9900SOL     OW30598   1.568   1.820   3.446
 9900SOL    HW130599   1.535   1.808   3.353
 9900SOL    HW230600   1.506   1.775   3.510
 9901SOL     OW30601   1.557   1.736   6.277
 9901SOL    HW130602   1.637   1.785   6.311
 9901SOL    HW230603   1.555   1.644   6.316
 9902SOL     OW30604   3.939   3.519   0.748
 9902SOL    HW130605   3.874   3.494   0.819
 9902SOL    HW230606   4.032   3.497   0.779
 9903SOL     OW30607   4.824   0.931   2.678
 9903SOL    HW130608   4.856   0.864   2.611
 9903SOL    HW230609   4.748   0.893   2.730
 9904SOL     OW30610   6.797   3.623   6.790
 9904SOL    HW130611   6.795   3.524   6.808
 9904SOL    HW230612   6.891   3.656   6.796
 9905SOL     OW30613   1.441   6.358   6.894
 9905SOL    HW130614   1.517   6.381   6.955
 9905SOL    HW230615   1.411   6.440   6.845
 9906SOL     OW30616   1.559   3.239   6.240
 9906SOL    HW130617   1.612   3.201   6.164
 9906SOL    HW230618   1.465   3.205   6.236
 9907SOL     OW30619   2.647   6.149   3.505
 9907SOL    HW130620   2.722   6.084   3.502
 9907SOL    HW230621   2.570   6.110   3.556
 9908SOL     OW30622   0.851   3.102   6.326
 9908SOL    HW130623   0.860   3.189   6.277
 9908SOL    HW230624   0.756   3.071   6.323
 9909SOL     OW30625   2.743   0.919   3.306
 9909SOL    HW130626   2.696   0.983   3.367
 9909SOL    HW230627   2.734   0.826   3.342
 9910SOL     OW30628   0.569   4.761   1.166
 9910SOL    HW130629   0.544   4.853   1.135
 9910SOL    HW230630   0.657   4.736   1.126
 9911SOL     OW30631   5.113   5.206   2.570
 9911SOL    HW130632   5.142   5.163   2.484
 9911SOL    HW230633   5.108   5.138   2.642
 9912SOL     OW30634   3.833   0.660   2.679
 9912SOL    HW130635   3.892   0.597   2.729
 9912SOL    HW230636   3.806   0.618   2.592
 9913SOL     OW30637   5.613   2.752   2.245
 9913SOL    HW130638   5.537   2.772   2.183
 9913SOL    HW230639   5.656   2.666   2.217
 9914SOL     OW30640   1.375   0.710   5.459
 9914SOL    HW130641   1.384   0.642   5.532
 9914SOL    HW230642   1.410   0.672   5.373
 9915SOL     OW30643   5.691   3.776   4.192
 9915SOL    HW130644   5.685   3.824   4.105
 9915SOL    HW230645   5.663   3.681   4.180
 9916SOL     OW30646   2.144   3.117   3.080
 9916SOL    HW130647   2.178   3.069   2.999
 9916SOL    HW230648   2.120   3.211   3.056
 9917SOL     OW30649   3.418   3.792   4.907
 9917SOL    HW130650   3.332   3.777   4.956
 9917SOL    HW230651   3.493   3.797   4.973
 9918SOL     OW30652   1.735   1.528   6.099
 9918SOL    HW130653   1.683   1.610   6.074
 9918SOL    HW230654   1.811   1.554   6.159
 9919SOL     OW30655   1.608   5.615   2.788
 9919SOL    HW130656   1.516   5.645   2.813
 9919SOL    HW230657   1.617   5.614   2.689
 9920SOL     OW30658   3.863   0.070   2.073
 9920SOL    HW130659   3.829   0.164   2.076
 9920SOL    HW230660   3.947   0.064   2.128
 9921SOL     OW30661   6.103   6.647   3.237
 9921SOL    HW130662   6.161   6.594   3.174
 9921SOL    HW230663   6.114   6.745   3.217
 9922SOL     OW30664   4.868   4.461   0.913
 9922SOL    HW130665   4.826   4.549   0.894
 9922SOL    HW230666   4.821   4.389   0.861
 9923SOL     OW30667   6.558   2.606   6.333
 9923SOL    HW130668   6.525   2.696   6.362
 9923SOL    HW230669   6.584   2.610   6.237
 9924SOL     OW30670   5.766   1.210   1.884
 9924SOL    HW130671   5.776   1.309   1.882
 9924SOL    HW230672   5.779   1.177   1.978
 9925SOL     OW30673   2.025   3.613   5.759
 9925SOL    HW130674   2.053   3.699   5.800
 9925SOL    HW230675   2.030   3.619   5.660
 9926SOL     OW30676   2.622   1.753   1.024
 9926SOL    HW130677   2.624   1.694   0.943
 9926SOL    HW230678   2.612   1.848   0.997
 9927SOL     OW30679   1.144   2.000   2.303
 9927SOL    HW130680   1.139   1.912   2.255
 9927SOL    HW230681   1.112   1.987   2.397
 9928SOL     OW30682   0.142   4.720   1.990
 9928SOL    HW130683   0.111   4.725   1.895
 9928SOL    HW230684   0.209   4.646   2.000
 9929SOL     OW30685   3.073   4.106   5.281
 9929SOL    HW130686   3.085   4.081   5.377
 9929SOL    HW230687   3.150   4.071   5.228
 9930SOL     OW30688   0.238   0.728   5.535
 9930SOL    HW130689   0.308   0.726   5.464
 9930SOL    HW230690   0.159   0.673   5.506
 9931SOL     OW30691   0.645   6.286   4.560
 9931SOL    HW130692   0.653   6.186   4.563
 9931SOL    HW230693   0.734   6.326   4.541
 9932SOL     OW30694   1.740   1.820   0.648
 9932SOL    HW130695   1.839   1.831   0.638
 9932SOL    HW230696   1.720   1.757   0.723
 9933SOL     OW30697   2.341   0.748   3.788
 9933SOL    HW130698   2.403   0.682   3.831
 9933SOL    HW230699   2.383   0.782   3.704
 9934SOL     OW30700   5.780   1.506   0.312
 9934SOL    HW130701   5.854   1.572   0.328
 9934SOL    HW230702   5.693   1.548   0.337
 9935SOL     OW30703   3.249   2.579   1.126
 9935SOL    HW130704   3.252   2.627   1.213
 9935SOL    HW230705   3.161   2.534   1.115
 9936SOL     OW30706   5.185   4.866   5.952
 9936SOL    HW130707   5.246   4.817   5.890
 9936SOL    HW230708   5.129   4.801   6.003
 9937SOL     OW30709   6.985   0.345   3.140
 9937SOL    HW130710   6.888   0.360   3.160
 9937SOL    HW230711   7.000   0.249   3.117
 9938SOL     OW30712   5.938   0.993   4.664
 9938SOL    HW130713   5.878   1.070   4.646
 9938SOL    HW230714   5.896   0.933   4.732
 9939SOL     OW30715   1.541   3.577   0.827
 9939SOL    HW130716   1.495   3.488   0.830
 9939SOL    HW230717   1.536   3.614   0.735
 9940SOL     OW30718   6.497   6.854   3.378
 9940SOL    HW130719   6.438   6.897   3.447
 9940SOL    HW230720   6.562   6.793   3.423
 9941SOL     OW30721   3.848   5.048   5.771
 9941SOL    HW130722   3.892   5.010   5.852
 9941SOL    HW230723   3.766   4.995   5.749
 9942SOL     OW30724   4.892   5.351   2.506
 9942SOL    HW130725   4.969   5.297   2.540
 9942SOL    HW230726   4.890   5.440   2.553
 9943SOL     OW30727   1.682   4.099   6.282
 9943SOL    HW130728   1.589   4.132   6.300
 9943SOL    HW230729   1.685   4.056   6.192
 9944SOL     OW30730   1.012   5.091   6.328
 9944SOL    HW130731   0.990   5.000   6.295
 9944SOL    HW230732   0.989   5.098   6.426
 9945SOL     OW30733   6.431   3.725   6.299
 9945SOL    HW130734   6.483   3.669   6.235
 9945SOL    HW230735   6.337   3.692   6.306
 9946SOL     OW30736   5.748   0.657   2.966
 9946SOL    HW130737   5.787   0.746   2.991
 9946SOL    HW230738   5.678   0.631   3.033
 9947SOL     OW30739   1.241   1.970   4.177
 9947SOL    HW130740   1.311   1.936   4.115
 9947SOL    HW230741   1.284   2.028   4.247
 9948SOL     OW30742   6.784   6.601   5.010
 9948SOL    HW130743   6.722   6.613   5.087
 9948SOL    HW230744   6.731   6.583   4.927
 9949SOL     OW30745   6.999   4.679   4.446
 9949SOL    HW130746   6.960   4.733   4.371
 9949SOL    HW230747   0.043   4.617   4.410
 9950SOL     OW30748   6.335   4.683   6.764
 9950SOL    HW130749   6.415   4.631   6.734
 9950SOL    HW230750   6.268   4.686   6.690
 9951SOL     OW30751   1.593   3.218   2.636
 9951SOL    HW130752   1.570   3.123   2.615
 9951SOL    HW230753   1.652   3.221   2.716
 9952SOL     OW30754   0.882   3.563   1.658
 9952SOL    HW130755   0.909   3.619   1.736
 9952SOL    HW230756   0.803   3.507   1.684
 9953SOL     OW30757   6.466   2.773   3.600
 9953SOL    HW130758   6.376   2.810   3.622
 9953SOL    HW230759   6.528   2.849   3.578
 9954SOL     OW30760   2.579   1.653   5.087
 9954SOL    HW130761   2.513   1.584   5.117
 9954SOL    HW230762   2.664   1.642   5.138
 9955SOL     OW30763   4.332   3.414   7.023
 9955SOL    HW130764   4.396   3.380   0.066
 9955SOL    HW230765   4.350   3.371   6.935
 9956SOL     OW30766   0.455   4.176   2.353
 9956SOL    HW130767   0.550   4.208   2.351
 9956SOL    HW230768   0.444   4.108   2.425
 9957SOL     OW30769   5.792   0.033   1.552
 9957SOL    HW130770   5.836   7.021   1.470
 9957SOL    HW230771   5.720   6.996   1.582
 9958SOL     OW30772   3.438   4.965   6.217
 9958SOL    HW130773   3.374   4.911   6.272
 9958SOL    HW230774   3.442   5.058   6.252
 9959SOL     OW30775   4.600   3.663   1.658
 9959SOL    HW130776   4.510   3.625   1.639
 9959SOL    HW230777   4.659   3.593   1.697
 9960SOL     OW30778   6.415   6.819   1.214
 9960SOL    HW130779   6.430   6.874   1.131
 9960SOL    HW230780   6.318   6.820   1.237
 9961SOL     OW30781   1.335   4.515   1.830
 9961SOL    HW130782   1.274   4.458   1.774
 9961SOL    HW230783   1.283   4.556   1.904
 9962SOL     OW30784   3.807   6.785   1.812
 9962SOL    HW130785   3.787   6.701   1.763
 9962SOL    HW230786   3.768   6.863   1.763
 9963SOL     OW30787   2.924   2.488   0.311
 9963SOL    HW130788   3.006   2.470   0.365
 9963SOL    HW230789   2.938   2.456   0.217
 9964SOL     OW30790   4.430   4.899   5.641
 9964SOL    HW130791   4.367   4.904   5.564
 9964SOL    HW230792   4.514   4.948   5.620
 9965SOL     OW30793   3.460   5.875   5.183
 9965SOL    HW130794   3.368   5.835   5.187
 9965SOL    HW230795   3.523   5.809   5.143
 9966SOL     OW30796   3.013   4.880   2.352
 9966SOL    HW130797   2.947   4.808   2.329
 9966SOL    HW230798   3.056   4.914   2.269
 9967SOL     OW30799   5.988   6.352   2.627
 9967SOL    HW130800   5.958   6.321   2.717
 9967SOL    HW230801   6.027   6.444   2.634
 9968SOL     OW30802   4.210   5.812   6.908
 9968SOL    HW130803   4.298   5.776   6.877
 9968SOL    HW230804   4.136   5.763   6.863
 9969SOL     OW30805   1.037   4.427   4.474
 9969SOL    HW130806   1.017   4.465   4.565
 9969SOL    HW230807   1.091   4.343   4.485
 9970SOL     OW30808   5.668   5.161   1.572
 9970SOL    HW130809   5.568   5.172   1.571
 9970SOL    HW230810   5.711   5.249   1.588
 9971SOL     OW30811   1.589   2.835   1.303
 9971SOL    HW130812   1.551   2.744   1.287
 9971SOL    HW230813   1.519   2.904   1.285
 9972SOL     OW30814   3.304   4.232   1.274
 9972SOL    HW130815   3.271   4.250   1.181
 9972SOL    HW230816   3.294   4.135   1.295
 9973SOL     OW30817   4.570   2.606   4.962
 9973SOL    HW130818   4.504   2.551   4.910
 9973SOL    HW230819   4.644   2.635   4.901
 9974SOL     OW30820   6.599   2.020   3.179
 9974SOL    HW130821   6.576   2.028   3.082
 9974SOL    HW230822   6.515   2.025   3.234
 9975SOL     OW30823   0.763   5.121   6.581
 9975SOL    HW130824   0.710   5.088   6.503
 9975SOL    HW230825   0.718   5.095   6.666
 9976SOL     OW30826   1.147   5.067   5.838
 9976SOL    HW130827   1.246   5.072   5.852
 9976SOL    HW230828   1.109   4.999   5.901
 9977SOL     OW30829   5.205   5.145   5.340
 9977SOL    HW130830   5.237   5.060   5.382
 9977SOL    HW230831   5.197   5.216   5.410
 9978SOL     OW30832   0.251   2.290   5.905
 9978SOL    HW130833   0.196   2.276   5.987
 9978SOL    HW230834   0.226   2.222   5.836
 9979SOL     OW30835   5.265   3.821   5.987
 9979SOL    HW130836   5.359   3.794   6.010
 9979SOL    HW230837   5.201   3.757   6.029
 9980SOL     OW30838   1.789   0.848   0.293
 9980SOL    HW130839   1.847   0.876   0.370
 9980SOL    HW230840   1.781   0.748   0.294
 9981SOL     OW30841   1.534   2.097   0.792
 9981SOL    HW130842   1.568   2.157   0.864
 9981SOL    HW230843   1.512   2.007   0.831
 9982SOL     OW30844   1.960   1.166   4.512
 9982SOL    HW130845   1.896   1.119   4.451
 9982SOL    HW230846   2.036   1.204   4.459
 9983SOL     OW30847   6.541   2.561   2.506
 9983SOL    HW130848   6.587   2.632   2.560
 9983SOL    HW230849   6.456   2.533   2.553
 9984SOL     OW30850   0.150   6.029   0.870
 9984SOL    HW130851   0.234   5.976   0.855
 9984SOL    HW230852   0.163   6.091   0.947
 9985SOL     OW30853   3.044   5.253   1.115
 9985SOL    HW130854   3.045   5.335   1.172
 9985SOL    HW230855   2.956   5.245   1.068
 9986SOL     OW30856   6.108   4.382   0.740
 9986SOL    HW130857   6.026   4.435   0.718
 9986SOL    HW230858   6.189   4.439   0.726
 9987SOL     OW30859   5.214   3.145   1.672
 9987SOL    HW130860   5.243   3.074   1.607
 9987SOL    HW230861   5.191   3.103   1.760
 9988SOL     OW30862   0.032   5.406   4.617
 9988SOL    HW130863   0.069   5.493   4.652
 9988SOL    HW230864   7.004   5.424   4.535
 9989SOL     OW30865   6.020   3.585   2.175
 9989SOL    HW130866   6.073   3.547   2.099
 9989SOL    HW230867   6.036   3.684   2.180
 9990SOL     OW30868   1.095   6.393   3.456
 9990SOL    HW130869   1.078   6.295   3.461
 9990SOL    HW230870   1.119   6.427   3.547
 9991SOL     OW30871   1.817   3.411   3.828
 9991SOL    HW130872   1.790   3.316   3.839
 9991SOL    HW230873   1.765   3.468   3.891
 9992SOL     OW30874   3.289   3.921   1.176
 9992SOL    HW130875   3.272   3.835   1.224
 9992SOL    HW230876   3.375   3.915   1.126
 9993SOL     OW30877   3.353   6.348   4.003
 9993SOL    HW130878   3.384   6.423   3.944
 9993SOL    HW230879   3.330   6.268   3.947
 9994SOL     OW30880   6.877   4.049   3.257
 9994SOL    HW130881   6.861   4.017   3.163
 9994SOL    HW230882   6.896   4.147   3.256
 9995SOL     OW30883   3.451   0.825   3.029
 9995SOL    HW130884   3.361   0.830   3.073
 9995SOL    HW230885   3.520   0.798   3.097
 9996SOL     OW30886   3.223   4.051   0.946
 9996SOL    HW130887   3.213   4.006   1.034
 9996SOL    HW230888   3.306   4.108   0.947
 9997SOL     OW30889   4.915   1.605   3.381
 9997SOL    HW130890   4.982   1.661   3.333
 9997SOL    HW230891   4.926   1.509   3.355
 9998SOL     OW30892   4.935   3.768   2.550
 9998SOL    HW130893   4.888   3.824   2.618
 9998SOL    HW230894   4.904   3.792   2.458
 9999SOL     OW30895   6.886   6.579   4.359
 9999SOL    HW130896   6.930   6.585   4.448
 9999SOL    HW230897   6.931   6.507   4.305
10000SOL     OW30898   5.737   1.606   1.601
10000SOL    HW130899   5.831   1.608   1.633
10000SOL    HW230900   5.711   1.512   1.577
10001SOL     OW30901   3.401   6.497   2.212
10001SOL    HW130902   3.349   6.511   2.128
10001SOL    HW230903   3.445   6.407   2.209
10002SOL     OW30904   2.673   1.519   1.302
10002SOL    HW130905   2.701   1.551   1.212
10002SOL    HW230906   2.648   1.598   1.359
10003SOL     OW30907   3.555   1.569   2.381
10003SOL    HW130908   3.543   1.660   2.340
10003SOL    HW230909   3.527   1.499   2.316
10004SOL     OW30910   5.417   3.915   4.617
10004SOL    HW130911   5.452   3.846   4.681
10004SOL    HW230912   5.386   3.995   4.668
10005SOL     OW30913   3.386   5.487   2.567
10005SOL    HW130914   3.409   5.500   2.664
10005SOL    HW230915   3.313   5.419   2.560
10006SOL     OW30916   5.195   6.982   5.389
10006SOL    HW130917   5.115   7.020   5.341
10006SOL    HW230918   5.261   6.949   5.322
10007SOL     OW30919   0.832   3.629   4.574
10007SOL    HW130920   0.829   3.618   4.673
10007SOL    HW230921   0.740   3.648   4.540
10008SOL     OW30922   4.938   1.876   3.815
10008SOL    HW130923   4.921   1.901   3.720
10008SOL    HW230924   4.985   1.950   3.862
10009SOL     OW30925   1.592   4.596   1.481
10009SOL    HW130926   1.684   4.632   1.469
10009SOL    HW230927   1.550   4.636   1.562
10010SOL     OW30928   3.133   5.871   0.006
10010SOL    HW130929   3.232   5.857   0.012
10010SOL    HW230930   3.088   5.784   7.013
10011SOL     OW30931   0.402   4.055   6.960
10011SOL    HW130932   0.475   4.035   6.895
10011SOL    HW230933   0.313   4.054   6.913
10012SOL     OW30934   4.736   0.373   2.581
10012SOL    HW130935   4.812   0.322   2.621
10012SOL    HW230936   4.771   0.432   2.508
10013SOL     OW30937   0.876   4.057   3.758
10013SOL    HW130938   0.841   3.995   3.688
10013SOL    HW230939   0.959   4.017   3.799
10014SOL     OW30940   1.394   6.751   2.114
10014SOL    HW130941   1.433   6.777   2.025
10014SOL    HW230942   1.311   6.804   2.130
10015SOL     OW30943   4.046   5.093   0.349
10015SOL    HW130944   4.077   5.095   0.254
10015SOL    HW230945   3.948   5.110   0.352
10016SOL     OW30946   2.524   1.477   4.868
10016SOL    HW130947   2.436   1.469   4.822
10016SOL    HW230948   2.536   1.571   4.900
10017SOL     OW30949   1.568   1.197   3.013
10017SOL    HW130950   1.585   1.282   3.062
10017SOL    HW230951   1.576   1.120   3.076
10018SOL     OW30952   6.522   4.038   5.512
10018SOL    HW130953   6.571   4.125   5.516
10018SOL    HW230954   6.461   4.031   5.591
10019SOL     OW30955   0.491   1.385   3.217
10019SOL    HW130956   0.424   1.352   3.150
10019SOL    HW230957   0.551   1.453   3.174
10020SOL     OW30958   0.394   1.099   2.029
10020SOL    HW130959   0.399   1.107   1.929
10020SOL    HW230960   0.363   1.008   2.054
10021SOL     OW30961   0.725   2.974   2.230
10021SOL    HW130962   0.676   2.992   2.145
10021SOL    HW230963   0.822   2.958   2.210
10022SOL     OW30964   2.849   5.699   0.740
10022SOL    HW130965   2.876   5.784   0.694
10022SOL    HW230966   2.840   5.626   0.673
10023SOL     OW30967   2.694   5.469   5.065
10023SOL    HW130968   2.602   5.507   5.063
10023SOL    HW230969   2.691   5.372   5.091
10024SOL     OW30970   0.941   5.114   2.942
10024SOL    HW130971   0.860   5.058   2.923
10024SOL    HW230972   1.000   5.066   3.007
10025SOL     OW30973   1.545   2.974   2.528
10025SOL    HW130974   1.491   2.904   2.575
10025SOL    HW230975   1.552   2.951   2.431
10026SOL     OW30976   5.090   6.911   3.646
10026SOL    HW130977   5.140   6.830   3.677
10026SOL    HW230978   5.078   6.974   3.723
10027SOL     OW30979   0.362   2.077   5.047
10027SOL    HW130980   0.402   2.011   4.983
10027SOL    HW230981   0.346   2.163   4.999
10028SOL     OW30982   2.431   1.312   1.319
10028SOL    HW130983   2.412   1.275   1.409
10028SOL    HW230984   2.527   1.337   1.312
10029SOL     OW30985   1.477   3.099   3.633
10029SOL    HW130986   1.438   3.191   3.633
10029SOL    HW230987   1.561   3.099   3.580
10030SOL     OW30988   3.537   0.641   5.102
10030SOL    HW130989   3.580   0.722   5.061
10030SOL    HW230990   3.539   0.566   5.037
10031SOL     OW30991   4.973   5.011   4.590
10031SOL    HW130992   4.990   5.074   4.514
10031SOL    HW230993   5.026   4.927   4.577
10032SOL     OW30994   4.003   0.283   5.969
10032SOL    HW130995   4.094   0.246   5.950
10032SOL    HW230996   3.948   0.213   6.015
10033SOL     OW30997   4.826   1.934   4.632
10033SOL    HW130998   4.828   1.834   4.638
10033SOL    HW230999   4.853   1.973   4.720
10034SOL     OW31000   2.356   1.136   3.716
10034SOL    HW131001   2.307   1.223   3.727
10034SOL    HW231002   2.452   1.149   3.742
10035SOL     OW31003   6.247   4.083   0.341
10035SOL    HW131004   6.320   4.096   0.274
10035SOL    HW231005   6.286   4.081   0.433
10036SOL     OW31006   6.923   0.644   0.525
10036SOL    HW131007   6.923   0.682   0.617
10036SOL    HW231008   6.890   0.550   0.527
10037SOL     OW31009   6.220   6.912   6.797
10037SOL    HW131010   6.196   6.890   6.892
10037SOL    HW231011   6.138   6.945   6.749
10038SOL     OW31012   4.525   0.368   6.169
10038SOL    HW131013   4.481   0.338   6.254
10038SOL    HW231014   4.564   0.289   6.122
10039SOL     OW31015   5.285   6.572   5.449
10039SOL    HW131016   5.361   6.555   5.511
10039SOL    HW231017   5.266   6.670   5.446
10040SOL     OW31018   4.289   6.203   5.810
10040SOL    HW131019   4.258   6.114   5.845
10040SOL    HW231020   4.211   6.255   5.777
10041SOL     OW31021   5.392   5.529   6.493
10041SOL    HW131022   5.394   5.612   6.436
10041SOL    HW231023   5.338   5.547   6.575
10042SOL     OW31024   0.300   1.208   5.268
10042SOL    HW131025   0.247   1.227   5.351
10042SOL    HW231026   0.240   1.170   5.198
10043SOL     OW31027   0.533   0.995   3.916
10043SOL    HW131028   0.618   0.963   3.873
10043SOL    HW231029   0.456   0.941   3.883
10044SOL     OW31030   2.765   2.272   3.458
10044SOL    HW131031   2.792   2.328   3.537
10044SOL    HW231032   2.762   2.176   3.485
10045SOL     OW31033   5.024   0.072   3.859
10045SOL    HW131034   4.971   0.156   3.865
10045SOL    HW231035   5.090   0.069   3.934
10046SOL     OW31036   1.695   2.514   1.348
10046SOL    HW131037   1.604   2.513   1.308
10046SOL    HW231038   1.751   2.443   1.306
10047SOL     OW31039   5.669   3.310   5.043
10047SOL    HW131040   5.607   3.386   5.063
10047SOL    HW231041   5.696   3.314   4.947
10048SOL     OW31042   3.744   1.981   2.380
10048SOL    HW131043   3.804   2.010   2.305
10048SOL    HW231044   3.798   1.928   2.446
10049SOL     OW31045   0.462   0.657   6.931
10049SOL    HW131046   0.432   0.719   6.858
10049SOL    HW231047   0.489   0.710   7.011
10050SOL     OW31048   6.500   2.665   4.955
10050SOL    HW131049   6.593   2.637   4.980
10050SOL    HW231050   6.445   2.678   5.038
10051SOL     OW31051   6.145   2.033   5.105
10051SOL    HW131052   6.185   2.124   5.092
10051SOL    HW231053   6.058   2.042   5.153
10052SOL     OW31054   2.449   2.513   2.647
10052SOL    HW131055   2.379   2.441   2.636
10052SOL    HW231056   2.498   2.525   2.561
10053SOL     OW31057   3.543   5.240   1.543
10053SOL    HW131058   3.637   5.230   1.576
10053SOL    HW231059   3.494   5.305   1.601
10054SOL     OW31060   4.054   5.706   5.885
10054SOL    HW131061   4.143   5.680   5.849
10054SOL    HW231062   3.995   5.736   5.809
10055SOL     OW31063   5.770   2.206   5.564
10055SOL    HW131064   5.694   2.219   5.501
10055SOL    HW231065   5.856   2.218   5.516
10056SOL     OW31066   6.733   5.325   0.958
10056SOL    HW131067   6.667   5.346   0.886
10056SOL    HW231068   6.826   5.332   0.921
10057SOL     OW31069   3.785   1.628   4.505
10057SOL    HW131070   3.883   1.613   4.523
10057SOL    HW231071   3.733   1.552   4.542
10058SOL     OW31072   0.233   3.690   4.697
10058SOL    HW131073   0.218   3.779   4.654
10058SOL    HW231074   0.150   3.661   4.744
10059SOL     OW31075   5.086   6.151   0.536
10059SOL    HW131076   5.156   6.080   0.540
10059SOL    HW231077   5.129   6.239   0.516
10060SOL     OW31078   2.518   1.546   2.354
10060SOL    HW131079   2.430   1.530   2.310
10060SOL    HW231080   2.534   1.477   2.424
10061SOL     OW31081   5.192   1.199   4.653
10061SOL    HW131082   5.134   1.150   4.588
10061SOL    HW231083   5.287   1.196   4.622
10062SOL     OW31084   6.319   6.804   4.966
10062SOL    HW131085   6.314   6.773   5.061
10062SOL    HW231086   6.414   6.799   4.934
10063SOL     OW31087   1.671   1.680   3.825
10063SOL    HW131088   1.684   1.625   3.908
10063SOL    HW231089   1.589   1.737   3.836
10064SOL     OW31090   5.193   6.257   6.668
10064SOL    HW131091   5.187   6.341   6.721
10064SOL    HW231092   5.164   6.275   6.574
10065SOL     OW31093   2.077   0.815   2.201
10065SOL    HW131094   2.136   0.884   2.160
10065SOL    HW231095   2.002   0.861   2.249
10066SOL     OW31096   1.593   1.281   3.925
10066SOL    HW131097   1.509   1.313   3.967
10066SOL    HW231098   1.672   1.311   3.979
10067SOL     OW31099   6.015   3.922   5.178
10067SOL    HW131100   5.972   3.949   5.092
10067SOL    HW231101   5.958   3.853   5.224
10068SOL     OW31102   6.378   3.329   3.523
10068SOL    HW131103   6.332   3.252   3.481
10068SOL    HW231104   6.310   3.398   3.549
10069SOL     OW31105   1.795   5.098   3.558
10069SOL    HW131106   1.714   5.109   3.615
10069SOL    HW231107   1.768   5.104   3.462
10070SOL     OW31108   6.776   0.326   5.347
10070SOL    HW131109   6.749   0.233   5.373
10070SOL    HW231110   6.702   0.367   5.293
10071SOL     OW31111   5.470   5.753   3.536
10071SOL    HW131112   5.478   5.840   3.487
10071SOL    HW231113   5.513   5.761   3.625
10072SOL     OW31114   0.246   5.822   3.692
10072SOL    HW131115   0.151   5.846   3.711
10072SOL    HW231116   0.259   5.724   3.706
10073SOL     OW31117   5.732   5.024   4.724
10073SOL    HW131118   5.699   4.989   4.812
10073SOL    HW231119   5.677   4.986   4.650
10074SOL     OW31120   1.494   1.228   5.087
10074SOL    HW131121   1.512   1.132   5.110
10074SOL    HW231122   1.439   1.232   5.004
10075SOL     OW31123   1.243   2.433   2.878
10075SOL    HW131124   1.316   2.446   2.945
10075SOL    HW231125   1.254   2.500   2.804
10076SOL     OW31126   6.174   0.186   4.081
10076SOL    HW131127   6.253   0.240   4.054
10076SOL    HW231128   6.113   0.174   4.002
10077SOL     OW31129   3.661   2.861   5.922
10077SOL    HW131130   3.651   2.860   6.021
10077SOL    HW231131   3.729   2.930   5.896
10078SOL     OW31132   0.145   5.889   4.095
10078SOL    HW131133   0.050   5.918   4.087
10078SOL    HW231134   0.160   5.808   4.038
10079SOL     OW31135   0.616   3.394   2.464
10079SOL    HW131136   0.646   3.490   2.463
10079SOL    HW231137   0.604   3.362   2.371
10080SOL     OW31138   3.613   1.199   5.565
10080SOL    HW131139   3.568   1.159   5.644
10080SOL    HW231140   3.550   1.262   5.519
10081SOL     OW31141   0.835   0.881   0.264
10081SOL    HW131142   0.828   0.977   0.236
10081SOL    HW231143   0.809   0.822   0.187
10082SOL     OW31144   0.132   4.854   2.294
10082SOL    HW131145   0.228   4.833   2.313
10082SOL    HW231146   0.123   4.884   2.199
10083SOL     OW31147   5.083   0.655   3.229
10083SOL    HW131148   5.073   0.593   3.307
10083SOL    HW231149   5.034   0.740   3.248
10084SOL     OW31150   3.346   1.369   6.480
10084SOL    HW131151   3.281   1.296   6.502
10084SOL    HW231152   3.391   1.348   6.393
10085SOL     OW31153   1.013   6.557   2.241
10085SOL    HW131154   1.107   6.532   2.264
10085SOL    HW231155   0.958   6.558   2.324
10086SOL     OW31156   5.838   4.853   1.864
10086SOL    HW131157   5.809   4.911   1.787
10086SOL    HW231158   5.824   4.757   1.841
10087SOL     OW31159   6.999   6.782   4.073
10087SOL    HW131160   7.005   6.683   4.056
10087SOL    HW231161   0.038   6.830   4.014
10088SOL     OW31162   0.058   0.293   0.046
10088SOL    HW131163   0.118   0.369   0.022
10088SOL    HW231164   0.045   0.291   0.145
10089SOL     OW31165   2.753   2.335   2.923
10089SOL    HW131166   2.798   2.275   2.989
10089SOL    HW231167   2.778   2.307   2.831
10090SOL     OW31168   1.323   4.959   1.076
10090SOL    HW131169   1.225   4.936   1.074
10090SOL    HW231170   1.376   4.882   1.040
10091SOL     OW31171   1.423   3.126   5.513
10091SOL    HW131172   1.495   3.072   5.554
10091SOL    HW231173   1.414   3.102   5.416
10092SOL     OW31174   1.883   3.563   5.107
10092SOL    HW131175   1.949   3.559   5.031
10092SOL    HW231176   1.906   3.641   5.166
10093SOL     OW31177   0.295   4.035   4.961
10093SOL    HW131178   0.359   4.075   5.026
10093SOL    HW231179   0.265   4.105   4.896
10094SOL     OW31180   1.538   6.146   2.143
10094SOL    HW131181   1.616   6.110   2.194
10094SOL    HW231182   1.519   6.087   2.065
10095SOL     OW31183   5.848   1.634   5.106
10095SOL    HW131184   5.848   1.540   5.072
10095SOL    HW231185   5.942   1.669   5.106
10096SOL     OW31186   5.405   5.184   2.341
10096SOL    HW131187   5.354   5.268   2.355
10096SOL    HW231188   5.342   5.110   2.316
10097SOL     OW31189   1.092   1.110   0.050
10097SOL    HW131190   1.161   1.180   0.067
10097SOL    HW231191   1.111   1.030   0.106
10098SOL     OW31192   2.603   0.729   5.169
10098SOL    HW131193   2.557   0.724   5.258
10098SOL    HW231194   2.606   0.825   5.139
10099SOL     OW31195   6.938   4.958   0.442
10099SOL    HW131196   6.989   4.900   0.505
10099SOL    HW231197   7.001   4.997   0.375
10100SOL     OW31198   4.662   0.276   4.644
10100SOL    HW131199   4.729   0.252   4.574
10100SOL    HW231200   4.671   0.214   4.722
10101SOL     OW31201   6.303   3.674   1.284
10101SOL    HW131202   6.353   3.760   1.273
10101SOL    HW231203   6.205   3.694   1.292
10102SOL     OW31204   1.625   0.747   2.522
10102SOL    HW131205   1.563   0.752   2.443
10102SOL    HW231206   1.682   0.830   2.524
10103SOL     OW31207   2.309   1.737   6.161
10103SOL    HW131208   2.364   1.812   6.199
10103SOL    HW231209   2.278   1.679   6.236
10104SOL     OW31210   1.344   2.862   4.432
10104SOL    HW131211   1.440   2.856   4.459
10104SOL    HW231212   1.323   2.789   4.367
10105SOL     OW31213   1.409   0.722   0.176
10105SOL    HW131214   1.379   0.724   0.081
10105SOL    HW231215   1.454   0.635   0.195
10106SOL     OW31216   4.427   6.370   0.934
10106SOL    HW131217   4.507   6.416   0.895
10106SOL    HW231218   4.398   6.418   1.017
10107SOL     OW31219   0.344   1.419   6.715
10107SOL    HW131220   0.322   1.324   6.693
10107SOL    HW231221   0.274   1.480   6.678
10108SOL     OW31222   6.643   6.455   0.316
10108SOL    HW131223   6.568   6.437   0.379
10108SOL    HW231224   6.608   6.502   0.234
10109SOL     OW31225   4.170   0.275   1.237
10109SOL    HW131226   4.228   0.352   1.208
10109SOL    HW231227   4.137   0.226   1.157
10110SOL     OW31228   4.686   5.996   4.768
10110SOL    HW131229   4.770   6.048   4.754
10110SOL    HW231230   4.613   6.058   4.797
10111SOL     OW31231   5.289   3.667   3.442
10111SOL    HW131232   5.231   3.748   3.455
10111SOL    HW231233   5.233   3.585   3.449
10112SOL     OW31234   5.824   3.871   3.827
10112SOL    HW131235   5.739   3.861   3.878
10112SOL    HW231236   5.829   3.963   3.788
10113SOL     OW31237   4.449   6.897   5.289
10113SOL    HW131238   4.428   6.823   5.224
10113SOL    HW231239   4.499   6.969   5.241
10114SOL     OW31240   5.563   0.866   1.210
10114SOL    HW131241   5.614   0.929   1.152
10114SOL    HW231242   5.617   0.784   1.228
10115SOL     OW31243   3.474   1.392   4.203
10115SOL    HW131244   3.421   1.378   4.120
10115SOL    HW231245   3.546   1.460   4.186
10116SOL     OW31246   6.849   6.026   0.441
10116SOL    HW131247   6.856   6.101   0.375
10116SOL    HW231248   6.918   6.038   0.512
10117SOL     OW31249   0.320   6.754   5.071
10117SOL    HW131250   0.413   6.753   5.034
10117SOL    HW231251   0.257   6.715   5.004
10118SOL     OW31252   1.601   5.033   3.069
10118SOL    HW131253   1.595   4.933   3.075
10118SOL    HW231254   1.656   5.058   2.990
10119SOL     OW31255   0.366   6.287   4.220
10119SOL    HW131256   0.458   6.313   4.190
10119SOL    HW231257   0.359   6.298   4.319
10120SOL     OW31258   1.704   4.013   4.809
10120SOL    HW131259   1.659   3.941   4.757
10120SOL    HW231260   1.785   3.976   4.855
10121SOL     OW31261   6.499   4.408   6.453
10121SOL    HW131262   6.525   4.315   6.427
10121SOL    HW231263   6.432   4.443   6.387
10122SOL     OW31264   6.120   2.699   0.962
10122SOL    HW131265   6.058   2.630   0.999
10122SOL    HW231266   6.068   2.771   0.917
10123SOL     OW31267   6.253   0.087   0.282
10123SOL    HW131268   6.191   0.164   0.287
10123SOL    HW231269   6.336   0.107   0.334
10124SOL     OW31270   2.039   3.629   6.699
10124SOL    HW131271   2.015   3.695   6.628
10124SOL    HW231272   2.066   3.678   6.782
10125SOL     OW31273   1.749   0.997   2.501
10125SOL    HW131274   1.800   1.018   2.418
10125SOL    HW231275   1.802   1.024   2.581
10126SOL     OW31276   0.478   0.008   5.795
10126SOL    HW131277   0.576   7.021   5.808
10126SOL    HW231278   0.454   0.104   5.808
10127SOL     OW31279   2.312   4.516   6.299
10127SOL    HW131280   2.295   4.461   6.217
10127SOL    HW231281   2.368   4.464   6.363
10128SOL     OW31282   1.837   0.882   1.409
10128SOL    HW131283   1.836   0.972   1.366
10128SOL    HW231284   1.914   0.876   1.472
10129SOL     OW31285   6.008   2.658   3.101
10129SOL    HW131286   5.994   2.670   3.199
10129SOL    HW231287   5.922   2.631   3.057
10130SOL     OW31288   1.815   4.017   2.148
10130SOL    HW131289   1.853   4.042   2.059
10130SOL    HW231290   1.734   4.073   2.166
10131SOL     OW31291   0.520   0.066   3.729
10131SOL    HW131292   0.495   0.033   3.638
10131SOL    HW231293   0.578   0.147   3.721
10132SOL     OW31294   3.219   7.018   4.721
10132SOL    HW131295   3.282   0.007   4.645
10132SOL    HW231296   3.240   0.058   4.794
10133SOL     OW31297   4.751   6.393   1.525
10133SOL    HW131298   4.779   6.474   1.474
10133SOL    HW231299   4.723   6.420   1.617
10134SOL     OW31300   6.762   6.161   3.936
10134SOL    HW131301   6.691   6.139   3.869
10134SOL    HW231302   6.814   6.079   3.959
10135SOL     OW31303   4.900   3.480   3.533
10135SOL    HW131304   4.942   3.565   3.564
10135SOL    HW231305   4.873   3.425   3.612
10136SOL     OW31306   5.189   0.587   3.504
10136SOL    HW131307   5.258   0.659   3.512
10136SOL    HW231308   5.101   0.623   3.533
10137SOL     OW31309   5.832   4.269   3.874
10137SOL    HW131310   5.926   4.247   3.900
10137SOL    HW231311   5.810   4.225   3.787
10138SOL     OW31312   5.207   2.427   0.878
10138SOL    HW131313   5.195   2.526   0.888
10138SOL    HW231314   5.199   2.384   0.968
10139SOL     OW31315   3.905   3.971   3.385
10139SOL    HW131316   3.958   3.970   3.300
10139SOL    HW231317   3.937   3.897   3.445
10140SOL     OW31318   6.210   6.167   6.333
10140SOL    HW131319   6.163   6.214   6.407
10140SOL    HW231320   6.258   6.233   6.276
10141SOL     OW31321   4.119   1.760   4.645
10141SOL    HW131322   4.060   1.823   4.595
10141SOL    HW231323   4.175   1.811   4.711
10142SOL     OW31324   6.114   0.066   5.106
10142SOL    HW131325   6.159   0.006   5.172
10142SOL    HW231326   6.031   0.023   5.073
10143SOL     OW31327   4.406   0.927   0.131
10143SOL    HW131328   4.314   0.903   0.162
10143SOL    HW231329   4.404   0.952   0.034
10144SOL     OW31330   3.534   0.316   6.666
10144SOL    HW131331   3.614   0.275   6.620
10144SOL    HW231332   3.532   0.285   6.761
10145SOL     OW31333   2.929   5.448   5.222
10145SOL    HW131334   2.949   5.350   5.212
10145SOL    HW231335   2.841   5.469   5.180
10146SOL     OW31336   4.043   5.261   4.724
10146SOL    HW131337   4.048   5.307   4.635
10146SOL    HW231338   4.135   5.248   4.760
10147SOL     OW31339   5.200   4.306   5.356
10147SOL    HW131340   5.178   4.358   5.438
10147SOL    HW231341   5.218   4.210   5.380
10148SOL     OW31342   4.323   5.461   7.022
10148SOL    HW131343   4.299   5.554   0.024
10148SOL    HW231344   4.353   5.409   0.076
10149SOL     OW31345   6.027   2.928   0.268
10149SOL    HW131346   6.075   2.938   0.181
10149SOL    HW231347   5.966   2.850   0.264
10150SOL     OW31348   4.119   3.870   0.449
10150SOL    HW131349   4.087   3.832   0.536
10150SOL    HW231350   4.138   3.967   0.460
10151SOL     OW31351   0.912   6.760   6.811
10151SOL    HW131352   0.939   6.676   6.764
10151SOL    HW231353   0.839   6.739   6.876
10152SOL     OW31354   0.009   5.868   4.549
10152SOL    HW131355   7.023   5.951   4.604
10152SOL    HW231356   0.059   5.890   4.466
10153SOL     OW31357   4.954   6.285   4.001
10153SOL    HW131358   5.002   6.333   4.074
10153SOL    HW231359   4.881   6.343   3.964
10154SOL     OW31360   5.195   6.688   5.159
10154SOL    HW131361   5.176   6.775   5.114
10154SOL    HW231362   5.294   6.680   5.176
10155SOL     OW31363   3.751   1.936   5.685
10155SOL    HW131364   3.770   2.034   5.697
10155SOL    HW231365   3.682   1.924   5.614
10156SOL     OW31366   5.886   1.147   3.214
10156SOL    HW131367   5.848   1.203   3.141
10156SOL    HW231368   5.984   1.166   3.224
10157SOL     OW31369   6.575   2.518   0.073
10157SOL    HW131370   6.664   2.534   0.031
10157SOL    HW231371   6.585   2.462   0.155
10158SOL     OW31372   5.897   3.844   0.869
10158SOL    HW131373   5.893   3.761   0.814
10158SOL    HW231374   5.837   3.914   0.829
10159SOL     OW31375   2.869   3.416   0.024
10159SOL    HW131376   2.890   3.457   6.960
10159SOL    HW231377   2.833   3.324   0.011
10160SOL     OW31378   2.096   2.884   2.080
10160SOL    HW131379   2.047   2.958   2.127
10160SOL    HW231380   2.151   2.922   2.006
10161SOL     OW31381   3.134   2.738   6.207
10161SOL    HW131382   3.183   2.713   6.124
10161SOL    HW231383   3.041   2.767   6.182
10162SOL     OW31384   3.577   4.396   0.486
10162SOL    HW131385   3.553   4.460   0.413
10162SOL    HW231386   3.617   4.313   0.447
10163SOL     OW31387   6.034   4.684   6.166
10163SOL    HW131388   5.945   4.652   6.131
10163SOL    HW231389   6.023   4.720   6.258
10164SOL     OW31390   5.718   4.164   4.873
10164SOL    HW131391   5.786   4.094   4.892
10164SOL    HW231392   5.682   4.200   4.959
10165SOL     OW31393   0.152   1.806   3.097
10165SOL    HW131394   0.074   1.827   3.156
10165SOL    HW231395   0.144   1.857   3.012
10166SOL     OW31396   3.368   2.011   1.806
10166SOL    HW131397   3.353   1.946   1.732
10166SOL    HW231398   3.323   2.097   1.785
10167SOL     OW31399   2.521   3.433   6.830
10167SOL    HW131400   2.550   3.338   6.844
10167SOL    HW231401   2.427   3.434   6.797
10168SOL     OW31402   5.995   3.530   5.912
10168SOL    HW131403   6.004   3.579   5.826
10168SOL    HW231404   6.040   3.441   5.906
10169SOL     OW31405   6.674   4.147   3.651
10169SOL    HW131406   6.582   4.182   3.635
10169SOL    HW231407   6.724   4.143   3.564
10170SOL     OW31408   0.721   5.268   5.386
10170SOL    HW131409   0.758   5.187   5.431
10170SOL    HW231410   0.726   5.346   5.448
10171SOL     OW31411   6.768   2.306   5.233
10171SOL    HW131412   6.817   2.264   5.157
10171SOL    HW231413   6.678   2.263   5.242
10172SOL     OW31414   0.012   6.720   5.063
10172SOL    HW131415   0.034   6.664   4.983
10172SOL    HW231416   6.939   6.713   5.082
10173SOL     OW31417   1.312   3.466   1.692
10173SOL    HW131418   1.318   3.526   1.772
10173SOL    HW231419   1.402   3.457   1.650
10174SOL     OW31420   5.541   5.574   2.784
10174SOL    HW131421   5.588   5.487   2.770
10174SOL    HW231422   5.550   5.630   2.701
10175SOL     OW31423   5.163   1.420   3.894
10175SOL    HW131424   5.215   1.334   3.898
10175SOL    HW231425   5.226   1.497   3.895
10176SOL     OW31426   1.034   3.624   5.094
10176SOL    HW131427   1.069   3.553   5.154
10176SOL    HW231428   0.951   3.663   5.134
10177SOL     OW31429   2.591   0.741   0.889
10177SOL    HW131430   2.544   0.674   0.946
10177SOL    HW231431   2.530   0.771   0.815
10178SOL     OW31432   0.457   0.744   6.163
10178SOL    HW131433   0.511   0.682   6.220
10178SOL    HW231434   0.378   0.694   6.127
10179SOL     OW31435   1.021   2.026   6.964
10179SOL    HW131436   1.006   2.020   0.037
10179SOL    HW231437   1.119   2.015   6.944
10180SOL     OW31438   4.285   0.649   5.943
10180SOL    HW131439   4.340   0.567   5.925
10180SOL    HW231440   4.264   0.694   5.857
10181SOL     OW31441   6.436   2.933   1.585
10181SOL    HW131442   6.401   3.019   1.549
10181SOL    HW231443   6.469   2.876   1.510
10182SOL     OW31444   4.134   1.004   1.514
10182SOL    HW131445   4.163   1.046   1.428
10182SOL    HW231446   4.192   0.925   1.533
10183SOL     OW31447   6.831   2.424   6.609
10183SOL    HW131448   6.738   2.446   6.637
10183SOL    HW231449   6.829   2.370   6.524
10184SOL     OW31450   4.676   1.032   6.365
10184SOL    HW131451   4.658   0.943   6.406
10184SOL    HW231452   4.737   1.020   6.286
10185SOL     OW31453   6.094   6.053   2.181
10185SOL    HW131454   6.059   5.970   2.226
10185SOL    HW231455   6.172   6.028   2.123
10186SOL     OW31456   5.670   3.502   3.898
10186SOL    HW131457   5.741   3.480   3.965
10186SOL    HW231458   5.707   3.564   3.829
10187SOL     OW31459   0.958   3.491   0.592
10187SOL    HW131460   0.972   3.490   0.493
10187SOL    HW231461   0.984   3.403   0.631
10188SOL     OW31462   3.590   5.672   0.794
10188SOL    HW131463   3.626   5.661   0.701
10188SOL    HW231464   3.517   5.605   0.810
10189SOL     OW31465   0.963   1.418   6.109
10189SOL    HW131466   0.914   1.415   6.197
10189SOL    HW231467   0.943   1.336   6.057
10190SOL     OW31468   4.914   3.209   1.973
10190SOL    HW131469   4.844   3.141   1.951
10190SOL    HW231470   4.924   3.272   1.896
10191SOL     OW31471   5.424   5.189   6.103
10191SOL    HW131472   5.358   5.241   6.157
10191SOL    HW231473   5.488   5.252   6.059
10192SOL     OW31474   4.106   1.220   5.286
10192SOL    HW131475   4.054   1.220   5.371
10192SOL    HW231476   4.186   1.278   5.295
10193SOL     OW31477   4.006   3.324   1.921
10193SOL    HW131478   3.919   3.374   1.915
10193SOL    HW231479   4.009   3.271   2.006
10194SOL     OW31480   5.542   5.866   5.983
10194SOL    HW131481   5.631   5.908   5.996
10194SOL    HW231482   5.477   5.907   6.047
10195SOL     OW31483   6.216   5.817   0.603
10195SOL    HW131484   6.210   5.760   0.521
10195SOL    HW231485   6.216   5.759   0.685
10196SOL     OW31486   4.867   1.354   3.687
10196SOL    HW131487   4.871   1.443   3.733
10196SOL    HW231488   4.803   1.359   3.611
10197SOL     OW31489   5.581   1.722   5.693
10197SOL    HW131490   5.638   1.756   5.619
10197SOL    HW231491   5.537   1.636   5.665
10198SOL     OW31492   2.636   6.869   2.329
10198SOL    HW131493   2.685   6.916   2.256
10198SOL    HW231494   2.699   6.846   2.402
10199SOL     OW31495   2.257   3.113   0.299
10199SOL    HW131496   2.301   3.078   0.383
10199SOL    HW231497   2.297   3.201   0.275
10200SOL     OW31498   5.058   2.181   0.023
10200SOL    HW131499   4.998   2.192   6.970
10200SOL    HW231500   5.101   2.268   0.046
10201SOL     OW31501   1.460   4.715   1.052
10201SOL    HW131502   1.383   4.686   1.108
10201SOL    HW231503   1.517   4.636   1.030
10202SOL     OW31504   3.756   4.159   0.429
10202SOL    HW131505   3.839   4.161   0.484
10202SOL    HW231506   3.769   4.215   0.347
10203SOL     OW31507   6.428   3.209   2.885
10203SOL    HW131508   6.337   3.178   2.859
10203SOL    HW231509   6.494   3.180   2.817
10204SOL     OW31510   5.078   6.314   0.037
10204SOL    HW131511   5.169   6.354   0.034
10204SOL    HW231512   5.019   6.360   6.996
10205SOL     OW31513   1.421   7.012   1.555
10205SOL    HW131514   1.451   7.008   1.460
10205SOL    HW231515   1.325   6.985   1.561
10206SOL     OW31516   6.966   0.847   0.065
10206SOL    HW131517   0.012   0.822   7.025
10206SOL    HW231518   7.006   0.904   0.137
10207SOL     OW31519   1.265   2.046   0.150
10207SOL    HW131520   1.279   2.108   0.073
10207SOL    HW231521   1.177   2.067   0.193
10208SOL     OW31522   6.128   4.161   4.205
10208SOL    HW131523   6.083   4.231   4.260
10208SOL    HW231524   6.227   4.169   4.216
10209SOL     OW31525   0.337   0.145   0.531
10209SOL    HW131526   0.288   0.140   0.444
10209SOL    HW231527   0.411   0.212   0.523
10210SOL     OW31528   4.693   6.457   1.780
10210SOL    HW131529   4.685   6.552   1.810
10210SOL    HW231530   4.675   6.396   1.857
10211SOL     OW31531   3.888   6.310   4.926
10211SOL    HW131532   3.888   6.355   5.015
10211SOL    HW231533   3.967   6.249   4.920
10212SOL     OW31534   0.815   0.555   5.291
10212SOL    HW131535   0.878   0.511   5.356
10212SOL    HW231536   0.730   0.503   5.287
10213SOL     OW31537   5.807   2.940   1.522
10213SOL    HW131538   5.902   2.911   1.512
10213SOL    HW231539   5.794   3.028   1.477
10214SOL     OW31540   1.680   1.735   2.174
10214SOL    HW131541   1.676   1.748   2.075
10214SOL    HW231542   1.644   1.816   2.221
10215SOL     OW31543   3.897   3.287   3.463
10215SOL    HW131544   3.812   3.315   3.419
10215SOL    HW231545   3.937   3.209   3.414
10216SOL     OW31546   0.162   1.208   1.616
10216SOL    HW131547   0.141   1.122   1.569
10216SOL    HW231548   0.099   1.220   1.693
10217SOL     OW31549   3.239   1.812   2.962
10217SOL    HW131550   3.216   1.908   2.944
10217SOL    HW231551   3.154   1.761   2.978
10218SOL     OW31552   1.955   1.578   1.507
10218SOL    HW131553   2.016   1.613   1.578
10218SOL    HW231554   2.009   1.538   1.433
10219SOL     OW31555   0.164   1.863   2.808
10219SOL    HW131556   0.087   1.881   2.748
10219SOL    HW231557   0.249   1.875   2.758
10220SOL     OW31558   5.023   2.065   0.961
10220SOL    HW131559   5.050   2.149   1.007
10220SOL    HW231560   4.966   2.010   1.022
10221SOL     OW31561   0.932   4.801   3.293
10221SOL    HW131562   0.853   4.855   3.321
10221SOL    HW231563   0.994   4.791   3.371
10222SOL     OW31564   2.922   3.721   5.695
10222SOL    HW131565   2.911   3.715   5.596
10222SOL    HW231566   2.839   3.761   5.735
10223SOL     OW31567   1.238   5.133   1.401
10223SOL    HW131568   1.304   5.175   1.464
10223SOL    HW231569   1.168   5.200   1.379
10224SOL     OW31570   6.807   2.999   4.926
10224SOL    HW131571   6.751   3.039   4.853
10224SOL    HW231572   6.757   3.004   5.013
10225SOL     OW31573   0.998   5.218   5.635
10225SOL    HW131574   1.043   5.164   5.706
10225SOL    HW231575   0.965   5.304   5.674
10226SOL     OW31576   2.845   1.172   6.092
10226SOL    HW131577   2.810   1.193   6.000
10226SOL    HW231578   2.814   1.243   6.156
10227SOL     OW31579   5.833   5.020   0.901
10227SOL    HW131580   5.932   5.029   0.900
10227SOL    HW231581   5.791   5.108   0.878
10228SOL     OW31582   0.321   6.626   1.997
10228SOL    HW131583   0.235   6.658   1.959
10228SOL    HW231584   0.388   6.614   1.924
10229SOL     OW31585   0.951   3.279   4.680
10229SOL    HW131586   0.955   3.332   4.765
10229SOL    HW231587   0.984   3.334   4.604
10230SOL     OW31588   5.484   6.032   3.155
10230SOL    HW131589   5.494   6.010   3.252
10230SOL    HW231590   5.575   6.042   3.113
10231SOL     OW31591   6.818   5.500   5.585
10231SOL    HW131592   6.836   5.481   5.488
10231SOL    HW231593   6.868   5.582   5.613
10232SOL     OW31594   2.973   1.121   3.342
10232SOL    HW131595   2.993   1.196   3.279
10232SOL    HW231596   2.901   1.064   3.303
10233SOL     OW31597   3.776   4.115   4.843
10233SOL    HW131598   3.841   4.191   4.849
10233SOL    HW231599   3.710   4.122   4.918
10234SOL     OW31600   6.096   1.192   1.535
10234SOL    HW131601   6.093   1.292   1.530
10234SOL    HW231602   6.150   1.156   1.458
10235SOL     OW31603   2.227   2.951   1.850
10235SOL    HW131604   2.277   3.032   1.819
10235SOL    HW231605   2.176   2.913   1.773
10236SOL     OW31606   2.891   0.538   6.924
10236SOL    HW131607   2.957   0.605   6.889
10236SOL    HW231608   2.896   0.455   6.869
10237SOL     OW31609   0.254   3.609   6.923
10237SOL    HW131610   0.316   3.616   7.001
10237SOL    HW231611   0.263   3.691   6.866
10238SOL     OW31612   3.713   4.459   1.708
10238SOL    HW131613   3.644   4.525   1.738
10238SOL    HW231614   3.697   4.371   1.754
10239SOL     OW31615   1.677   3.111   4.958
10239SOL    HW131616   1.603   3.178   4.966
10239SOL    HW231617   1.764   3.154   4.982
10240SOL     OW31618   2.390   5.208   2.628
10240SOL    HW131619   2.416   5.199   2.532
10240SOL    HW231620   2.332   5.289   2.638
10241SOL     OW31621   6.163   7.014   2.455
10241SOL    HW131622   6.099   6.997   2.380
10241SOL    HW231623   6.125   0.057   2.517
10242SOL     OW31624   0.449   1.643   0.796
10242SOL    HW131625   0.500   1.726   0.821
10242SOL    HW231626   0.396   1.660   0.714
10243SOL     OW31627   2.680   4.693   2.453
10243SOL    HW131628   2.738   4.715   2.374
10243SOL    HW231629   2.617   4.620   2.429
10244SOL     OW31630   1.862   4.564   0.645
10244SOL    HW131631   1.858   4.598   0.739
10244SOL    HW231632   1.936   4.610   0.596
10245SOL     OW31633   3.771   3.784   0.850
10245SOL    HW131634   3.836   3.839   0.903
10245SOL    HW231635   3.802   3.779   0.755
10246SOL     OW31636   3.509   4.016   4.210
10246SOL    HW131637   3.603   4.050   4.199
10246SOL    HW231638   3.511   3.928   4.258
10247SOL     OW31639   6.367   3.945   5.737
10247SOL    HW131640   6.283   3.962   5.788
10247SOL    HW231641   6.444   3.985   5.787
10248SOL     OW31642   1.500   6.276   2.919
10248SOL    HW131643   1.555   6.221   2.857
10248SOL    HW231644   1.469   6.358   2.872
10249SOL     OW31645   2.985   5.728   6.849
10249SOL    HW131646   3.072   5.730   6.800
10249SOL    HW231647   2.911   5.755   6.787
10250SOL     OW31648   6.632   3.297   1.365
10250SOL    HW131649   6.672   3.221   1.315
10250SOL    HW231650   6.547   3.268   1.409
10251SOL     OW31651   1.936   1.717   4.430
10251SOL    HW131652   1.999   1.783   4.471
10251SOL    HW231653   1.850   1.764   4.407
10252SOL     OW31654   4.138   4.444   6.310
10252SOL    HW131655   4.224   4.494   6.300
10252SOL    HW231656   4.087   4.480   6.388
10253SOL     OW31657   2.809   5.378   0.306
10253SOL    HW131658   2.783   5.292   0.350
10253SOL    HW231659   2.883   5.362   0.242
10254SOL     OW31660   4.966   1.263   5.063
10254SOL    HW131661   4.866   1.261   5.054
10254SOL    HW231662   5.006   1.206   4.991
10255SOL     OW31663   2.692   6.479   1.244
10255SOL    HW131664   2.618   6.425   1.283
10255SOL    HW231665   2.675   6.493   1.146
10256SOL     OW31666   4.217   1.942   2.126
10256SOL    HW131667   4.177   1.856   2.155
10256SOL    HW231668   4.309   1.926   2.090
10257SOL     OW31669   2.155   5.077   3.942
10257SOL    HW131670   2.103   5.105   3.862
10257SOL    HW231671   2.105   5.104   4.025
10258SOL     OW31672   3.763   2.144   3.719
10258SOL    HW131673   3.793   2.066   3.773
10258SOL    HW231674   3.696   2.196   3.771
10259SOL     OW31675   0.642   3.948   2.780
10259SOL    HW131676   0.715   3.880   2.789
10259SOL    HW231677   0.646   4.012   2.856
10260SOL     OW31678   1.258   1.689   3.011
10260SOL    HW131679   1.335   1.691   3.074
10260SOL    HW231680   1.197   1.613   3.035
10261SOL     OW31681   6.588   4.749   1.245
10261SOL    HW131682   6.530   4.669   1.259
10261SOL    HW231683   6.592   4.770   1.147
10262SOL     OW31684   3.016   0.499   5.593
10262SOL    HW131685   2.925   0.521   5.629
10262SOL    HW231686   3.080   0.491   5.669
10263SOL     OW31687   5.865   6.914   0.885
10263SOL    HW131688   5.897   6.959   0.802
10263SOL    HW231689   5.878   6.975   0.963
10264SOL     OW31690   7.009   6.538   6.810
10264SOL    HW131691   7.000   6.491   6.722
10264SOL    HW231692   6.983   6.634   6.798
10265SOL     OW31693   3.211   2.690   1.368
10265SOL    HW131694   3.150   2.625   1.412
10265SOL    HW231695   3.160   2.771   1.339
10266SOL     OW31696   3.518   2.846   3.535
10266SOL    HW131697   3.524   2.869   3.633
10266SOL    HW231698   3.516   2.747   3.524
10267SOL     OW31699   5.392   1.927   0.422
10267SOL    HW131700   5.310   1.979   0.447
10267SOL    HW231701   5.469   1.957   0.478
10268SOL     OW31702   6.420   6.666   2.329
10268SOL    HW131703   6.440   6.746   2.273
10268SOL    HW231704   6.329   6.676   2.369
10269SOL     OW31705   1.109   3.904   6.163
10269SOL    HW131706   1.112   3.869   6.069
10269SOL    HW231707   1.036   3.858   6.213
10270SOL     OW31708   3.420   5.028   2.239
10270SOL    HW131709   3.397   4.979   2.324
10270SOL    HW231710   3.425   4.962   2.164
10271SOL     OW31711   3.858   2.518   0.168
10271SOL    HW131712   3.842   2.588   0.238
10271SOL    HW231713   3.825   2.430   0.202
10272SOL     OW31714   1.227   0.954   5.484
10272SOL    HW131715   1.129   0.976   5.481
10272SOL    HW231716   1.239   0.856   5.468
10273SOL     OW31717   2.897   5.633   2.732
10273SOL    HW131718   2.835   5.711   2.720
10273SOL    HW231719   2.867   5.557   2.674
10274SOL     OW31720   0.370   4.598   6.254
10274SOL    HW131721   0.446   4.646   6.210
10274SOL    HW231722   0.334   4.654   6.328
10275SOL     OW31723   0.623   6.383   2.060
10275SOL    HW131724   0.627   6.430   2.148
10275SOL    HW231725   0.716   6.363   2.029
10276SOL     OW31726   5.416   6.182   5.360
10276SOL    HW131727   5.487   6.248   5.384
10276SOL    HW231728   5.451   6.089   5.373
10277SOL     OW31729   1.889   5.986   5.140
10277SOL    HW131730   1.897   6.047   5.218
10277SOL    HW231731   1.980   5.949   5.117
10278SOL     OW31732   1.686   1.490   3.362
10278SOL    HW131733   1.604   1.449   3.402
10278SOL    HW231734   1.674   1.501   3.264
10279SOL     OW31735   1.079   4.892   4.102
10279SOL    HW131736   0.979   4.882   4.099
10279SOL    HW231737   1.121   4.801   4.096
10280SOL     OW31738   6.980   2.666   6.397
10280SOL    HW131739   6.928   2.586   6.366
10280SOL    HW231740   6.941   2.700   6.482
10281SOL     OW31741   5.911   1.712   3.470
10281SOL    HW131742   5.921   1.637   3.404
10281SOL    HW231743   5.835   1.771   3.442
10282SOL     OW31744   5.564   3.537   4.198
10282SOL    HW131745   5.574   3.460   4.135
10282SOL    HW231746   5.581   3.507   4.291
10283SOL     OW31747   1.912   3.043   1.100
10283SOL    HW131748   1.873   2.952   1.119
10283SOL    HW231749   1.838   3.109   1.089
10284SOL     OW31750   5.161   2.152   5.422
10284SOL    HW131751   5.184   2.094   5.344
10284SOL    HW231752   5.155   2.096   5.504
10285SOL     OW31753   5.391   6.278   3.281
10285SOL    HW131754   5.428   6.203   3.226
10285SOL    HW231755   5.291   6.281   3.272
10286SOL     OW31756   3.634   1.714   3.917
10286SOL    HW131757   3.688   1.775   3.859
10286SOL    HW231758   3.686   1.631   3.936
10287SOL     OW31759   3.403   5.442   1.652
10287SOL    HW131760   3.448   5.528   1.679
10287SOL    HW231761   3.315   5.462   1.611
10288SOL     OW31762   4.696   6.071   2.809
10288SOL    HW131763   4.729   5.988   2.763
10288SOL    HW231764   4.621   6.048   2.870
10289SOL     OW31765   2.958   6.389   6.599
10289SOL    HW131766   3.004   6.473   6.630
10289SOL    HW231767   2.985   6.369   6.506
10290SOL     OW31768   3.019   3.764   2.818
10290SOL    HW131769   3.034   3.841   2.756
10290SOL    HW231770   3.068   3.684   2.783
10291SOL     OW31771   3.627   1.761   2.029
10291SOL    HW131772   3.619   1.840   1.968
10291SOL    HW231773   3.575   1.778   2.112
10292SOL     OW31774   1.582   2.029   5.129
10292SOL    HW131775   1.565   2.095   5.057
10292SOL    HW231776   1.676   2.041   5.163
10293SOL     OW31777   1.288   3.652   2.418
10293SOL    HW131778   1.378   3.689   2.439
10293SOL    HW231779   1.248   3.611   2.500
10294SOL     OW31780   4.700   1.975   3.558
10294SOL    HW131781   4.727   2.028   3.478
10294SOL    HW231782   4.614   2.010   3.594
10295SOL     OW31783   0.575   3.259   5.940
10295SOL    HW131784   0.511   3.255   5.863
10295SOL    HW231785   0.644   3.329   5.922
10296SOL     OW31786   5.249   1.332   0.045
10296SOL    HW131787   5.245   1.396   0.122
10296SOL    HW231788   5.245   1.238   0.081
10297SOL     OW31789   1.990   1.301   5.945
10297SOL    HW131790   1.940   1.215   5.949
10297SOL    HW231791   2.073   1.288   5.891
10298SOL     OW31792   3.065   4.297   0.967
10298SOL    HW131793   3.028   4.303   1.059
10298SOL    HW231794   3.111   4.209   0.955
10299SOL     OW31795   3.833   4.998   2.949
10299SOL    HW131796   3.921   4.956   2.927
10299SOL    HW231797   3.769   4.982   2.875
10300SOL     OW31798   1.610   4.165   2.150
10300SOL    HW131799   1.608   4.228   2.072
10300SOL    HW231800   1.518   4.128   2.164
10301SOL     OW31801   5.070   2.051   4.912
10301SOL    HW131802   5.108   2.020   5.000
10301SOL    HW231803   5.140   2.103   4.863
10302SOL     OW31804   2.447   6.570   4.854
10302SOL    HW131805   2.429   6.611   4.765
10302SOL    HW231806   2.433   6.472   4.850
10303SOL     OW31807   1.526   5.678   3.116
10303SOL    HW131808   1.535   5.768   3.157
10303SOL    HW231809   1.465   5.682   3.037
10304SOL     OW31810   5.366   6.902   1.693
10304SOL    HW131811   5.312   6.979   1.728
10304SOL    HW231812   5.341   6.818   1.742
10305SOL     OW31813   1.162   4.321   5.933
10305SOL    HW131814   1.248   4.272   5.920
10305SOL    HW231815   1.100   4.265   5.988
10306SOL     OW31816   5.200   5.810   0.020
10306SOL    HW131817   5.281   5.776   0.068
10306SOL    HW231818   5.229   5.862   6.965
10307SOL     OW31819   3.151   2.093   5.295
10307SOL    HW131820   3.094   2.066   5.218
10307SOL    HW231821   3.203   2.175   5.271
10308SOL     OW31822   2.108   3.798   2.939
10308SOL    HW131823   2.021   3.827   2.977
10308SOL    HW231824   2.163   3.879   2.918
10309SOL     OW31825   6.831   2.277   0.086
10309SOL    HW131826   6.905   2.209   0.092
10309SOL    HW231827   6.765   2.260   0.159
10310SOL     OW31828   3.456   3.951   0.768
10310SOL    HW131829   3.381   4.013   0.790
10310SOL    HW231830   3.538   3.979   0.816
10311SOL     OW31831   6.499   5.820   0.547
10311SOL    HW131832   6.524   5.911   0.580
10311SOL    HW231833   6.400   5.816   0.532
10312SOL     OW31834   4.320   6.273   2.345
10312SOL    HW131835   4.351   6.264   2.439
10312SOL    HW231836   4.223   6.300   2.344
10313SOL     OW31837   4.279   5.943   1.845
10313SOL    HW131838   4.338   5.888   1.904
10313SOL    HW231839   4.211   5.990   1.902
10314SOL     OW31840   6.697   0.525   1.708
10314SOL    HW131841   6.733   0.569   1.626
10314SOL    HW231842   6.713   0.426   1.703
10315SOL     OW31843   5.341   5.517   5.396
10315SOL    HW131844   5.400   5.588   5.436
10315SOL    HW231845   5.394   5.462   5.332
10316SOL     OW31846   6.140   1.668   5.319
10316SOL    HW131847   6.080   1.735   5.362
10316SOL    HW231848   6.148   1.588   5.377
10317SOL     OW31849   4.520   6.023   5.949
10317SOL    HW131850   4.479   5.949   6.002
10317SOL    HW231851   4.542   5.990   5.857
10318SOL     OW31852   5.210   0.390   6.653
10318SOL    HW131853   5.293   0.370   6.705
10318SOL    HW231854   5.166   0.304   6.626
10319SOL     OW31855   0.638   2.876   5.513
10319SOL    HW131856   0.643   2.826   5.600
10319SOL    HW231857   0.710   2.946   5.511
10320SOL     OW31858   0.668   0.061   2.227
10320SOL    HW131859   0.696   6.991   2.236
10320SOL    HW231860   0.749   0.119   2.218
10321SOL     OW31861   4.146   2.186   1.955
10321SOL    HW131862   4.140   2.102   2.009
10321SOL    HW231863   4.056   2.207   1.916
10322SOL     OW31864   5.878   5.521   5.430
10322SOL    HW131865   5.858   5.455   5.358
10322SOL    HW231866   5.950   5.485   5.490
10323SOL     OW31867   5.909   3.690   5.017
10323SOL    HW131868   5.813   3.665   5.026
10323SOL    HW231869   5.965   3.629   5.073
10324SOL     OW31870   3.301   3.103   2.084
10324SOL    HW131871   3.261   3.036   2.021
10324SOL    HW231872   3.247   3.187   2.081
10325SOL     OW31873   6.697   4.039   2.218
10325SOL    HW131874   6.775   4.034   2.156
10325SOL    HW231875   6.722   3.998   2.306
10326SOL     OW31876   3.571   4.904   0.323
10326SOL    HW131877   3.482   4.948   0.340
10326SOL    HW231878   3.570   4.861   0.233
10327SOL     OW31879   2.246   1.735   0.816
10327SOL    HW131880   2.280   1.774   0.731
10327SOL    HW231881   2.180   1.798   0.858
10328SOL     OW31882   6.792   2.573   1.190
10328SOL    HW131883   6.848   2.653   1.169
10328SOL    HW231884   6.730   2.554   1.113
10329SOL     OW31885   3.214   1.123   3.555
10329SOL    HW131886   3.146   1.125   3.482
10329SOL    HW231887   3.173   1.085   3.638
10330SOL     OW31888   4.456   1.137   2.460
10330SOL    HW131889   4.394   1.179   2.525
10330SOL    HW231890   4.527   1.202   2.434
10331SOL     OW31891   6.513   0.772   6.155
10331SOL    HW131892   6.558   0.838   6.095
10331SOL    HW231893   6.434   0.733   6.109
10332SOL     OW31894   6.834   0.388   1.180
10332SOL    HW131895   6.848   0.317   1.111
10332SOL    HW231896   6.895   0.465   1.162
10333SOL     OW31897   0.398   4.666   5.271
10333SOL    HW131898   0.327   4.733   5.250
10333SOL    HW231899   0.426   4.619   5.187
10334SOL     OW31900   3.091   0.318   3.676
10334SOL    HW131901   3.044   0.249   3.620
10334SOL    HW231902   3.186   0.325   3.647
10335SOL     OW31903   2.859   4.029   6.287
10335SOL    HW131904   2.885   4.117   6.246
10335SOL    HW231905   2.893   3.954   6.230
10336SOL     OW31906   6.566   0.125   2.224
10336SOL    HW131907   6.501   0.167   2.288
10336SOL    HW231908   6.647   0.094   2.274
10337SOL     OW31909   0.123   6.375   5.724
10337SOL    HW131910   0.077   6.321   5.655
10337SOL    HW231911   0.061   6.393   5.800
10338SOL     OW31912   1.732   5.987   2.280
10338SOL    HW131913   1.816   6.029   2.247
10338SOL    HW231914   1.753   5.900   2.323
10339SOL     OW31915   4.323   4.246   6.552
10339SOL    HW131916   4.347   4.192   6.471
10339SOL    HW231917   4.265   4.191   6.612
10340SOL     OW31918   1.483   3.939   1.272
10340SOL    HW131919   1.509   3.853   1.316
10340SOL    HW231920   1.390   3.963   1.297
10341SOL     OW31921   2.109   3.610   2.736
10341SOL    HW131922   2.151   3.641   2.651
10341SOL    HW231923   2.107   3.686   2.802
10342SOL     OW31924   1.829   0.332   5.087
10342SOL    HW131925   1.752   0.276   5.055
10342SOL    HW231926   1.847   0.312   5.183
10343SOL     OW31927   3.644   5.612   6.909
10343SOL    HW131928   3.729   5.559   6.911
10343SOL    HW231929   3.665   5.709   6.911
10344SOL     OW31930   4.434   3.556   1.107
10344SOL    HW131931   4.513   3.598   1.151
10344SOL    HW231932   4.357   3.554   1.170
10345SOL     OW31933   1.532   1.480   6.416
10345SOL    HW131934   1.551   1.422   6.496
10345SOL    HW231935   1.568   1.436   6.334
10346SOL     OW31936   0.157   5.196   1.646
10346SOL    HW131937   0.068   5.227   1.679
10346SOL    HW231938   0.187   5.254   1.570
10347SOL     OW31939   4.104   1.950   3.855
10347SOL    HW131940   4.105   1.989   3.947
10347SOL    HW231941   4.161   2.006   3.795
10348SOL     OW31942   6.793   2.188   0.601
10348SOL    HW131943   6.850   2.226   0.528
10348SOL    HW231944   6.705   2.237   0.603
10349SOL     OW31945   0.993   0.932   0.715
10349SOL    HW131946   0.969   0.859   0.651
10349SOL    HW231947   0.919   0.999   0.718
10350SOL     OW31948   2.199   6.543   5.046
10350SOL    HW131949   2.242   6.603   4.979
10350SOL    HW231950   2.253   6.546   5.131
10351SOL     OW31951   4.232   4.612   5.828
10351SOL    HW131952   4.330   4.634   5.824
10351SOL    HW231953   4.218   4.516   5.808
10352SOL     OW31954   4.084   1.519   6.166
10352SOL    HW131955   4.059   1.465   6.085
10352SOL    HW231956   4.041   1.609   6.161
10353SOL     OW31957   6.781   2.742   4.856
10353SOL    HW131958   6.864   2.686   4.864
10353SOL    HW231959   6.804   2.838   4.870
10354SOL     OW31960   5.922   2.721   2.483
10354SOL    HW131961   5.825   2.731   2.463
10354SOL    HW231962   5.939   2.631   2.524
10355SOL     OW31963   1.581   6.870   1.851
10355SOL    HW131964   1.585   6.961   1.810
10355SOL    HW231965   1.646   6.865   1.927
10356SOL     OW31966   1.083   4.776   5.289
10356SOL    HW131967   1.063   4.801   5.194
10356SOL    HW231968   1.156   4.708   5.290
10357SOL     OW31969   1.673   3.239   6.497
10357SOL    HW131970   1.764   3.281   6.489
10357SOL    HW231971   1.629   3.239   6.408
10358SOL     OW31972   6.613   3.130   3.149
10358SOL    HW131973   6.626   3.043   3.196
10358SOL    HW231974   6.590   3.114   3.053
10359SOL     OW31975   0.701   1.654   1.911
10359SOL    HW131976   0.770   1.651   1.983
10359SOL    HW231977   0.668   1.561   1.893
10360SOL     OW31978   4.967   5.302   3.305
10360SOL    HW131979   4.969   5.338   3.398
10360SOL    HW231980   4.999   5.371   3.241
10361SOL     OW31981   2.919   6.877   3.613
10361SOL    HW131982   2.967   6.879   3.525
10361SOL    HW231983   2.821   6.886   3.597
10362SOL     OW31984   0.753   4.992   4.831
10362SOL    HW131985   0.755   4.954   4.923
10362SOL    HW231986   0.815   4.941   4.772
10363SOL     OW31987   4.947   1.294   1.789
10363SOL    HW131988   4.904   1.381   1.811
10363SOL    HW231989   4.881   1.233   1.745
10364SOL     OW31990   2.951   3.653   1.195
10364SOL    HW131991   2.908   3.563   1.206
10364SOL    HW231992   2.894   3.723   1.239
10365SOL     OW31993   4.701   4.706   5.973
10365SOL    HW131994   4.674   4.802   5.974
10365SOL    HW231995   4.647   4.656   6.040
10366SOL     OW31996   3.433   1.054   4.128
10366SOL    HW131997   3.392   1.117   4.062
10366SOL    HW231998   3.532   1.049   4.113
10367SOL     OW31999   6.366   2.076   2.705
10367SOL    HW132000   6.439   2.130   2.664
10367SOL    HW232001   6.365   1.984   2.664
10368SOL     OW32002   1.987   1.106   1.611
10368SOL    HW132003   2.042   1.143   1.535
10368SOL    HW232004   2.019   1.013   1.632
10369SOL     OW32005   3.849   0.847   5.455
10369SOL    HW132006   3.937   0.886   5.427
10369SOL    HW232007   3.865   0.762   5.505
10370SOL     OW32008   5.271   1.295   4.961
10370SOL    HW132009   5.201   1.228   4.935
10370SOL    HW232010   5.245   1.385   4.927
10371SOL     OW32011   3.169   6.272   4.939
10371SOL    HW132012   3.108   6.196   4.916
10371SOL    HW232013   3.117   6.343   4.987
10372SOL     OW32014   0.838   2.095   6.446
10372SOL    HW132015   0.797   2.066   6.359
10372SOL    HW232016   0.776   2.072   6.521
10373SOL     OW32017   2.203   5.918   4.895
10373SOL    HW132018   2.129   5.980   4.870
10373SOL    HW232019   2.210   5.913   4.995
10374SOL     OW32020   3.895   1.271   2.377
10374SOL    HW132021   3.842   1.350   2.406
10374SOL    HW232022   3.847   1.187   2.402
10375SOL     OW32023   3.341   1.624   6.278
10375SOL    HW132024   3.263   1.654   6.333
10375SOL    HW232025   3.406   1.698   6.267
10376SOL     OW32026   0.659   6.370   3.609
10376SOL    HW132027   0.698   6.301   3.547
10376SOL    HW232028   0.723   6.446   3.619
10377SOL     OW32029   6.901   0.732   4.116
10377SOL    HW132030   6.820   0.683   4.085
10377SOL    HW232031   6.979   0.710   4.057
10378SOL     OW32032   6.521   0.379   5.794
10378SOL    HW132033   6.536   0.424   5.882
10378SOL    HW232034   6.440   0.320   5.800
10379SOL     OW32035   3.863   6.737   4.922
10379SOL    HW132036   3.829   6.797   4.849
10379SOL    HW232037   3.858   6.785   5.009
10380SOL     OW32038   0.200   1.004   4.020
10380SOL    HW132039   0.195   1.065   4.099
10380SOL    HW232040   0.226   0.913   4.050
10381SOL     OW32041   4.049   5.357   6.118
10381SOL    HW132042   4.007   5.442   6.151
10381SOL    HW232043   4.118   5.379   6.049
10382SOL     OW32044   2.355   4.568   6.806
10382SOL    HW132045   2.304   4.548   6.723
10382SOL    HW232046   2.384   4.483   6.850
10383SOL     OW32047   0.241   3.239   0.975
10383SOL    HW132048   0.240   3.141   0.954
10383SOL    HW232049   0.247   3.292   0.890
10384SOL     OW32050   0.600   0.092   0.681
10384SOL    HW132051   0.548   0.059   0.602
10384SOL    HW232052   0.637   0.183   0.661
10385SOL     OW32053   4.568   0.445   6.711
10385SOL    HW132054   4.567   0.348   6.685
10385SOL    HW232055   4.532   0.500   6.636
10386SOL     OW32056   6.300   3.305   4.956
10386SOL    HW132057   6.206   3.277   4.972
10386SOL    HW232058   6.360   3.257   5.020
10387SOL     OW32059   3.910   2.030   2.174
10387SOL    HW132060   3.921   2.038   2.075
10387SOL    HW232061   3.965   2.100   2.220
10388SOL     OW32062   1.256   5.663   3.408
10388SOL    HW132063   1.192   5.649   3.483
10388SOL    HW232064   1.262   5.580   3.352
10389SOL     OW32065   0.332   6.380   1.720
10389SOL    HW132066   0.398   6.433   1.667
10389SOL    HW232067   0.261   6.441   1.755
10390SOL     OW32068   1.695   3.778   1.508
10390SOL    HW132069   1.763   3.851   1.502
10390SOL    HW232070   1.723   3.712   1.578
10391SOL     OW32071   1.125   5.593   5.132
10391SOL    HW132072   1.095   5.523   5.067
10391SOL    HW232073   1.214   5.567   5.170
10392SOL     OW32074   6.715   4.193   0.164
10392SOL    HW132075   6.721   4.098   0.135
10392SOL    HW232076   6.625   4.229   0.143
10393SOL     OW32077   1.700   1.775   2.891
10393SOL    HW132078   1.750   1.858   2.865
10393SOL    HW232079   1.624   1.762   2.828
10394SOL     OW32080   2.484   6.496   5.950
10394SOL    HW132081   2.385   6.485   5.951
10394SOL    HW232082   2.524   6.444   6.026
10395SOL     OW32083   6.229   0.955   4.677
10395SOL    HW132084   6.129   0.964   4.673
10395SOL    HW232085   6.258   0.879   4.619
10396SOL     OW32086   1.540   0.034   4.255
10396SOL    HW132087   1.640   0.039   4.250
10396SOL    HW232088   1.505   0.004   4.167
10397SOL     OW32089   3.543   1.854   3.632
10397SOL    HW132090   3.526   1.760   3.660
10397SOL    HW232091   3.641   1.866   3.612
10398SOL     OW32092   6.471   2.074   0.142
10398SOL    HW132093   6.527   2.131   0.203
10398SOL    HW232094   6.530   2.018   0.085
10399SOL     OW32095   4.178   1.407   5.076
10399SOL    HW132096   4.108   1.360   5.131
10399SOL    HW232097   4.261   1.353   5.075
10400SOL     OW32098   3.504   5.671   1.768
10400SOL    HW132099   3.507   5.691   1.866
10400SOL    HW232100   3.596   5.653   1.734
10401SOL     OW32101   6.806   0.331   2.325
10401SOL    HW132102   6.793   0.234   2.305
10401SOL    HW232103   6.785   0.385   2.244
10402SOL     OW32104   0.405   2.448   5.545
10402SOL    HW132105   0.339   2.373   5.539
10402SOL    HW232106   0.369   2.518   5.606
10403SOL     OW32107   5.442   1.832   2.366
10403SOL    HW132108   5.344   1.842   2.348
10403SOL    HW232109   5.461   1.857   2.461
10404SOL     OW32110   0.439   6.576   3.499
10404SOL    HW132111   0.474   6.646   3.561
10404SOL    HW232112   0.420   6.492   3.551
10405SOL     OW32113   1.663   5.212   5.028
10405SOL    HW132114   1.575   5.215   5.076
10405SOL    HW232115   1.657   5.148   4.952
10406SOL     OW32116   1.945   3.942   4.917
10406SOL    HW132117   1.940   3.892   5.004
10406SOL    HW232118   2.036   3.982   4.908
10407SOL     OW32119   1.374   1.045   6.709
10407SOL    HW132120   1.383   1.017   6.804
10407SOL    HW232121   1.413   1.137   6.698
10408SOL     OW32122   4.295   5.926   2.738
10408SOL    HW132123   4.361   5.969   2.799
10408SOL    HW232124   4.203   5.960   2.758
10409SOL     OW32125   0.714   4.552   1.369
10409SOL    HW132126   0.751   4.644   1.364
10409SOL    HW232127   0.767   4.491   1.310
10410SOL     OW32128   5.294   1.212   1.205
10410SOL    HW132129   5.306   1.186   1.300
10410SOL    HW232130   5.230   1.288   1.199
10411SOL     OW32131   2.804   5.135   3.999
10411SOL    HW132132   2.807   5.222   4.049
10411SOL    HW232133   2.716   5.091   4.016
10412SOL     OW32134   0.663   1.328   0.778
10412SOL    HW132135   0.640   1.344   0.682
10412SOL    HW232136   0.759   1.348   0.794
10413SOL     OW32137   1.101   2.065   0.794
10413SOL    HW132138   1.026   2.022   0.744
10413SOL    HW232139   1.178   2.081   0.733
10414SOL     OW32140   4.659   6.309   6.440
10414SOL    HW132141   4.574   6.328   6.489
10414SOL    HW232142   4.726   6.270   6.503
10415SOL     OW32143   2.108   4.511   3.948
10415SOL    HW132144   2.138   4.525   4.042
10415SOL    HW232145   2.123   4.595   3.895
10416SOL     OW32146   6.807   1.799   5.986
10416SOL    HW132147   6.711   1.774   6.002
10416SOL    HW232148   6.864   1.717   5.991
10417SOL     OW32149   4.270   4.642   3.303
10417SOL    HW132150   4.297   4.579   3.230
10417SOL    HW232151   4.336   4.637   3.378
10418SOL     OW32152   6.523   4.365   5.371
10418SOL    HW132153   6.604   4.328   5.416
10418SOL    HW232154   6.512   4.461   5.394
10419SOL     OW32155   2.647   1.273   5.003
10419SOL    HW132156   2.735   1.318   4.989
10419SOL    HW232157   2.573   1.339   4.991
10420SOL     OW32158   6.734   3.987   2.471
10420SOL    HW132159   6.707   3.917   2.537
10420SOL    HW232160   6.757   4.072   2.518
10421SOL     OW32161   1.454   3.755   4.002
10421SOL    HW132162   1.451   3.855   4.009
10421SOL    HW232163   1.498   3.717   4.083
10422SOL     OW32164   6.602   4.067   5.208
10422SOL    HW132165   6.545   4.137   5.251
10422SOL    HW232166   6.578   3.978   5.245
10423SOL     OW32167   4.127   4.852   4.571
10423SOL    HW132168   4.028   4.862   4.579
10423SOL    HW232169   4.167   4.851   4.663
10424SOL     OW32170   4.682   1.440   0.498
10424SOL    HW132171   4.717   1.516   0.552
10424SOL    HW232172   4.704   1.354   0.544
10425SOL     OW32173   0.818   6.680   1.865
10425SOL    HW132174   0.896   6.659   1.806
10425SOL    HW232175   0.782   6.770   1.843
10426SOL     OW32176   4.543   3.167   5.546
10426SOL    HW132177   4.543   3.087   5.485
10426SOL    HW232178   4.553   3.250   5.492
10427SOL     OW32179   5.334   5.460   5.939
10427SOL    HW132180   5.265   5.531   5.929
10427SOL    HW232181   5.384   5.450   5.853
10428SOL     OW32182   1.389   1.738   3.947
10428SOL    HW132183   1.431   1.710   4.033
10428SOL    HW232184   1.306   1.686   3.931
10429SOL     OW32185   1.238   3.959   2.899
10429SOL    HW132186   1.226   3.864   2.870
10429SOL    HW232187   1.316   3.999   2.851
10430SOL     OW32188   3.702   5.750   4.402
10430SOL    HW132189   3.729   5.841   4.370
10430SOL    HW232190   3.672   5.695   4.324
10431SOL     OW32191   2.823   1.204   4.221
10431SOL    HW132192   2.784   1.161   4.139
10431SOL    HW232193   2.819   1.303   4.212
10432SOL     OW32194   1.043   0.937   5.802
10432SOL    HW132195   1.103   1.015   5.818
10432SOL    HW232196   0.979   0.929   5.879
10433SOL     OW32197   1.127   6.180   1.676
10433SOL    HW132198   1.101   6.247   1.606
10433SOL    HW232199   1.048   6.123   1.699
10434SOL     OW32200   5.059   6.443   4.848
10434SOL    HW132201   5.048   6.344   4.848
10434SOL    HW232202   5.049   6.478   4.755
10435SOL     OW32203   1.095   2.524   6.193
10435SOL    HW132204   1.185   2.547   6.233
10435SOL    HW232205   1.061   2.440   6.235
10436SOL     OW32206   6.352   3.862   4.641
10436SOL    HW132207   6.386   3.948   4.603
10436SOL    HW232208   6.325   3.875   4.736
10437SOL     OW32209   5.257   4.892   5.488
10437SOL    HW132210   5.356   4.898   5.497
10437SOL    HW232211   5.234   4.817   5.427
10438SOL     OW32212   6.798   6.953   5.477
10438SOL    HW132213   6.750   6.919   5.558
10438SOL    HW232214   6.894   6.924   5.481
10439SOL     OW32215   6.651   1.054   4.932
10439SOL    HW132216   6.591   1.133   4.923
10439SOL    HW232217   6.745   1.080   4.908
10440SOL     OW32218   6.916   1.257   6.953
10440SOL    HW132219   6.822   1.225   6.965
10440SOL    HW232220   6.975   1.179   6.930
10441SOL     OW32221   3.641   1.798   1.358
10441SOL    HW132222   3.635   1.702   1.330
10441SOL    HW232223   3.696   1.849   1.292
10442SOL     OW32224   3.225   0.943   5.297
10442SOL    HW132225   3.219   1.021   5.359
10442SOL    HW232226   3.300   0.883   5.325
10443SOL     OW32227   0.343   2.231   2.734
10443SOL    HW132228   0.390   2.286   2.804
10443SOL    HW232229   0.396   2.233   2.649
10444SOL     OW32230   3.303   5.016   3.329
10444SOL    HW132231   3.299   4.939   3.392
10444SOL    HW232232   3.257   5.095   3.369
10445SOL     OW32233   0.225   3.530   2.063
10445SOL    HW132234   0.238   3.456   1.998
10445SOL    HW232235   0.170   3.602   2.021
10446SOL     OW32236   2.151   4.343   5.697
10446SOL    HW132237   2.181   4.248   5.690
10446SOL    HW232238   2.055   4.349   5.670
10447SOL     OW32239   6.072   1.960   2.703
10447SOL    HW132240   6.166   1.962   2.736
10447SOL    HW232241   6.056   1.873   2.655
10448SOL     OW32242   3.179   0.799   3.612
10448SOL    HW132243   3.268   0.764   3.641
10448SOL    HW232244   3.156   0.881   3.664
10449SOL     OW32245   3.525   5.438   0.085
10449SOL    HW132246   3.607   5.396   0.124
10449SOL    HW232247   3.547   5.476   7.020
10450SOL     OW32248   6.328   0.805   6.576
10450SOL    HW132249   6.364   0.895   6.551
10450SOL    HW232250   6.404   0.742   6.593
10451SOL     OW32251   2.820   0.677   3.862
10451SOL    HW132252   2.862   0.655   3.950
10451SOL    HW232253   2.885   0.660   3.788
10452SOL     OW32254   0.111   2.411   2.727
10452SOL    HW132255   0.186   2.344   2.725
10452SOL    HW232256   0.102   2.447   2.820
10453SOL     OW32257   4.419   6.227   2.605
10453SOL    HW132258   4.498   6.276   2.643
10453SOL    HW232259   4.343   6.229   2.671
10454SOL     OW32260   6.176   1.045   6.855
10454SOL    HW132261   6.090   1.025   6.902
10454SOL    HW232262   6.231   1.106   6.912
10455SOL     OW32263   6.149   6.166   4.579
10455SOL    HW132264   6.211   6.221   4.636
10455SOL    HW232265   6.055   6.185   4.606
10456SOL     OW32266   6.910   5.415   0.066
10456SOL    HW132267   6.837   5.349   0.050
10456SOL    HW232268   6.970   5.382   0.138
10457SOL     OW32269   4.503   3.704   6.826
10457SOL    HW132270   4.410   3.735   6.811
10457SOL    HW232271   4.568   3.773   6.793
10458SOL     OW32272   6.580   0.505   6.043
10458SOL    HW132273   6.676   0.481   6.055
10458SOL    HW232274   6.566   0.601   6.067
10459SOL     OW32275   6.324   4.946   0.926
10459SOL    HW132276   6.377   5.020   0.967
10459SOL    HW232277   6.351   4.935   0.831
10460SOL     OW32278   6.951   4.264   1.917
10460SOL    HW132279   6.956   4.202   1.996
10460SOL    HW232280   6.858   4.298   1.908
10461SOL     OW32281   6.403   4.614   5.471
10461SOL    HW132282   6.348   4.622   5.554
10461SOL    HW232283   6.472   4.686   5.469
10462SOL     OW32284   4.555   1.554   1.937
10462SOL    HW132285   4.497   1.477   1.965
10462SOL    HW232286   4.577   1.610   2.017
10463SOL     OW32287   4.874   1.395   6.416
10463SOL    HW132288   4.970   1.378   6.394
10463SOL    HW232289   4.868   1.452   6.497
10464SOL     OW32290   5.780   5.645   2.287
10464SOL    HW132291   5.857   5.583   2.273
10464SOL    HW232292   5.785   5.721   2.223
10465SOL     OW32293   4.981   4.504   2.729
10465SOL    HW132294   5.012   4.589   2.773
10465SOL    HW232295   4.921   4.527   2.652
10466SOL     OW32296   4.979   4.561   6.311
10466SOL    HW132297   5.045   4.490   6.336
10466SOL    HW232298   4.887   4.522   6.312
10467SOL     OW32299   1.719   2.657   6.823
10467SOL    HW132300   1.696   2.604   6.905
10467SOL    HW232301   1.742   2.751   6.850
10468SOL     OW32302   3.617   5.538   3.618
10468SOL    HW132303   3.543   5.601   3.643
10468SOL    HW232304   3.664   5.508   3.700
10469SOL     OW32305   4.879   3.827   5.929
10469SOL    HW132306   4.819   3.751   5.955
10469SOL    HW232307   4.878   3.838   5.830
10470SOL     OW32308   2.621   1.761   3.371
10470SOL    HW132309   2.660   1.852   3.387
10470SOL    HW232310   2.592   1.753   3.275
10471SOL     OW32311   2.730   0.642   6.689
10471SOL    HW132312   2.782   0.629   6.773
10471SOL    HW232313   2.734   0.558   6.634
10472SOL     OW32314   2.610   5.321   0.987
10472SOL    HW132315   2.625   5.231   0.946
10472SOL    HW232316   2.606   5.390   0.914
10473SOL     OW32317   5.651   6.190   5.869
10473SOL    HW132318   5.590   6.252   5.919
10473SOL    HW232319   5.689   6.123   5.932
10474SOL     OW32320   4.975   0.458   4.228
10474SOL    HW132321   4.899   0.487   4.287
10474SOL    HW232322   4.941   0.392   4.161
10475SOL     OW32323   2.392   6.304   1.901
10475SOL    HW132324   2.307   6.265   1.937
10475SOL    HW232325   2.438   6.236   1.845
10476SOL     OW32326   4.861   6.292   5.943
10476SOL    HW132327   4.949   6.295   5.895
10476SOL    HW232328   4.851   6.204   5.988
10477SOL     OW32329   6.791   0.221   4.346
10477SOL    HW132330   6.846   0.185   4.271
10477SOL    HW232331   6.824   0.184   4.433
10478SOL     OW32332   6.849   6.607   0.402
10478SOL    HW132333   6.774   6.547   0.377
10478SOL    HW232334   6.844   6.629   0.499
10479SOL     OW32335   6.464   1.940   2.150
10479SOL    HW132336   6.431   1.862   2.097
10479SOL    HW232337   6.529   1.909   2.220
10480SOL     OW32338   1.407   0.508   1.847
10480SOL    HW132339   1.473   0.583   1.840
10480SOL    HW232340   1.433   0.435   1.783
10481SOL     OW32341   1.131   6.328   3.027
10481SOL    HW132342   1.089   6.364   2.944
10481SOL    HW232343   1.208   6.386   3.053
10482SOL     OW32344   6.424   4.825   4.901
10482SOL    HW132345   6.409   4.854   4.996
10482SOL    HW232346   6.479   4.742   4.899
10483SOL     OW32347   5.042   5.912   0.331
10483SOL    HW132348   4.946   5.918   0.305
10483SOL    HW232349   5.059   5.969   0.411
10484SOL     OW32350   4.690   1.272   1.366
10484SOL    HW132351   4.674   1.207   1.292
10484SOL    HW232352   4.604   1.292   1.412
10485SOL     OW32353   3.260   4.297   6.689
10485SOL    HW132354   3.174   4.309   6.639
10485SOL    HW232355   3.267   4.202   6.721
10486SOL     OW32356   6.793   1.281   1.162
10486SOL    HW132357   6.863   1.352   1.170
10486SOL    HW232358   6.760   1.257   1.253
10487SOL     OW32359   5.183   6.716   2.195
10487SOL    HW132360   5.280   6.735   2.202
10487SOL    HW232361   5.131   6.795   2.226
10488SOL     OW32362   2.878   2.787   6.101
10488SOL    HW132363   2.854   2.690   6.089
10488SOL    HW232364   2.901   2.827   6.012
10489SOL     OW32365   0.742   0.041   5.323
10489SOL    HW132366   0.693   6.982   5.304
10489SOL    HW232367   0.701   0.086   5.403
10490SOL     OW32368   6.123   1.906   2.036
10490SOL    HW132369   6.161   1.817   2.059
10490SOL    HW232370   6.118   1.963   2.118
10491SOL     OW32371   1.641   3.469   0.013
10491SOL    HW132372   1.708   3.543   0.020
10491SOL    HW232373   1.596   3.472   6.949
10492SOL     OW32374   5.934   3.390   5.568
10492SOL    HW132375   5.852   3.332   5.573
10492SOL    HW232376   5.913   3.480   5.605
10493SOL     OW32377   3.137   1.058   1.796
10493SOL    HW132378   3.148   1.138   1.856
10493SOL    HW232379   3.094   1.087   1.710
10494SOL     OW32380   4.859   2.790   5.230
10494SOL    HW132381   4.858   2.691   5.218
10494SOL    HW232382   4.923   2.814   5.303
10495SOL     OW32383   2.408   0.081   0.386
10495SOL    HW132384   2.373   7.021   0.348
10495SOL    HW232385   2.384   0.087   0.483
10496SOL     OW32386   0.622   6.548   0.991
10496SOL    HW132387   0.567   6.487   0.935
10496SOL    HW232388   0.693   6.495   1.038
10497SOL     OW32389   2.204   6.696   2.154
10497SOL    HW132390   2.208   6.611   2.101
10497SOL    HW232391   2.295   6.738   2.157
10498SOL     OW32392   2.939   6.060   1.731
10498SOL    HW132393   2.963   6.052   1.635
10498SOL    HW232394   2.966   5.977   1.780
10499SOL     OW32395   3.124   6.115   2.209
10499SOL    HW132396   3.085   6.116   2.117
10499SOL    HW232397   3.079   6.186   2.264
10500SOL     OW32398   0.591   1.216   6.057
10500SOL    HW132399   0.551   1.137   6.010
10500SOL    HW232400   0.671   1.247   6.007
10501SOL     OW32401   1.720   5.544   3.223
10501SOL    HW132402   1.636   5.589   3.190
10501SOL    HW232403   1.784   5.613   3.255
10502SOL     OW32404   3.233   0.579   0.780
10502SOL    HW132405   3.318   0.557   0.827
10502SOL    HW232406   3.194   0.495   0.741
10503SOL     OW32407   4.650   2.791   0.093
10503SOL    HW132408   4.630   2.783   7.021
10503SOL    HW232409   4.697   2.708   0.124
10504SOL     OW32410   1.965   2.311   0.193
10504SOL    HW132411   2.015   2.307   0.279
10504SOL    HW232412   1.929   2.403   0.179
10505SOL     OW32413   6.202   5.661   0.833
10505SOL    HW132414   6.172   5.674   0.927
10505SOL    HW232415   6.128   5.619   0.780
10506SOL     OW32416   0.438   5.199   6.082
10506SOL    HW132417   0.401   5.182   6.173
10506SOL    HW232418   0.526   5.246   6.090
10507SOL     OW32419   2.423   6.574   6.892
10507SOL    HW132420   2.476   6.519   6.957
10507SOL    HW232421   2.379   6.514   6.826
10508SOL     OW32422   5.755   5.875   5.023
10508SOL    HW132423   5.802   5.807   5.080
10508SOL    HW232424   5.813   5.956   5.014
10509SOL     OW32425   0.258   6.500   6.113
10509SOL    HW132426   0.251   6.587   6.063
10509SOL    HW232427   0.320   6.439   6.063
10510SOL     OW32428   5.277   5.382   6.216
10510SOL    HW132429   5.284   5.413   6.121
10510SOL    HW232430   5.328   5.444   6.275
10511SOL     OW32431   4.657   2.757   1.032
10511SOL    HW132432   4.667   2.664   0.998
10511SOL    HW232433   4.600   2.809   0.969
10512SOL     OW32434   3.768   0.768   5.932
10512SOL    HW132435   3.726   0.678   5.929
10512SOL    HW232436   3.756   0.808   6.023
10513SOL     OW32437   0.004   2.910   5.361
10513SOL    HW132438   0.091   2.861   5.371
10513SOL    HW232439   0.004   2.958   5.273
10514SOL     OW32440   0.315   3.915   0.155
10514SOL    HW132441   0.374   3.975   0.100
10514SOL    HW232442   0.357   3.824   0.160
10515SOL     OW32443   6.395   2.300   3.282
10515SOL    HW132444   6.429   2.318   3.190
10515SOL    HW232445   6.345   2.213   3.283
10516SOL     OW32446   4.890   1.065   6.799
10516SOL    HW132447   4.813   1.105   6.748
10516SOL    HW232448   4.911   1.124   6.877
10517SOL     OW32449   0.468   2.033   2.946
10517SOL    HW132450   0.453   1.983   2.861
10517SOL    HW232451   0.406   2.111   2.951
10518SOL     OW32452   0.852   4.699   6.893
10518SOL    HW132453   0.933   4.647   6.866
10518SOL    HW232454   0.801   4.725   6.811
10519SOL     OW32455   2.733   2.316   6.332
10519SOL    HW132456   2.814   2.333   6.276
10519SOL    HW232457   2.703   2.402   6.374
10520SOL     OW32458   1.565   2.445   6.488
10520SOL    HW132459   1.609   2.497   6.415
10520SOL    HW232460   1.624   2.445   6.569
10521SOL     OW32461   6.016   5.206   1.679
10521SOL    HW132462   5.944   5.172   1.619
10521SOL    HW232463   6.103   5.162   1.656
10522SOL     OW32464   6.498   0.757   6.974
10522SOL    HW132465   6.403   0.751   6.944
10522SOL    HW232466   6.501   0.790   0.043
10523SOL     OW32467   0.362   6.449   4.846
10523SOL    HW132468   0.311   6.535   4.852
10523SOL    HW232469   0.432   6.457   4.775
10524SOL     OW32470   2.201   1.641   5.019
10524SOL    HW132471   2.287   1.601   5.050
10524SOL    HW232472   2.203   1.652   4.920
10525SOL     OW32473   3.176   0.031   5.734
10525SOL    HW132474   3.223   0.074   5.810
10525SOL    HW232475   3.102   0.090   5.702
10526SOL     OW32476   0.403   6.749   3.089
10526SOL    HW132477   0.306   6.727   3.098
10526SOL    HW232478   0.412   6.836   3.040
10527SOL     OW32479   0.132   2.700   4.569
10527SOL    HW132480   0.144   2.742   4.659
10527SOL    HW232481   0.077   2.760   4.511
10528SOL     OW32482   0.766   3.880   5.833
10528SOL    HW132483   0.671   3.906   5.849
10528SOL    HW232484   0.768   3.796   5.778
10529SOL     OW32485   2.196   6.024   3.976
10529SOL    HW132486   2.181   6.122   3.975
10529SOL    HW232487   2.142   5.982   4.049
10530SOL     OW32488   1.845   1.516   5.835
10530SOL    HW132489   1.783   1.563   5.897
10530SOL    HW232490   1.899   1.449   5.887
10531SOL     OW32491   1.174   3.030   4.578
10531SOL    HW132492   1.094   2.993   4.626
10531SOL    HW232493   1.212   2.959   4.518
10532SOL     OW32494   2.280   3.602   0.171
10532SOL    HW132495   2.370   3.560   0.183
10532SOL    HW232496   2.278   3.690   0.217
10533SOL     OW32497   3.264   1.674   4.183
10533SOL    HW132498   3.306   1.702   4.097
10533SOL    HW232499   3.332   1.677   4.256
10534SOL     OW32500   6.279   5.668   1.766
10534SOL    HW132501   6.302   5.606   1.691
10534SOL    HW232502   6.206   5.730   1.738
10535SOL     OW32503   0.208   2.153   1.395
10535SOL    HW132504   0.272   2.105   1.455
10535SOL    HW232505   0.214   2.252   1.413
10536SOL     OW32506   3.880   0.911   2.738
10536SOL    HW132507   3.888   0.936   2.835
10536SOL    HW232508   3.837   0.821   2.730
10537SOL     OW32509   3.326   5.609   3.357
10537SOL    HW132510   3.410   5.644   3.316
10537SOL    HW232511   3.293   5.673   3.426
10538SOL     OW32512   4.792   3.358   0.117
10538SOL    HW132513   4.774   3.303   0.036
10538SOL    HW232514   4.771   3.454   0.098
10539SOL     OW32515   0.765   3.900   6.529
10539SOL    HW132516   0.830   3.829   6.503
10539SOL    HW232517   0.791   3.986   6.486
10540SOL     OW32518   1.472   1.876   5.326
10540SOL    HW132519   1.515   1.936   5.259
10540SOL    HW232520   1.542   1.840   5.389
10541SOL     OW32521   3.786   3.637   1.891
10541SOL    HW132522   3.707   3.582   1.917
10541SOL    HW232523   3.792   3.716   1.952
10542SOL     OW32524   6.776   1.859   0.273
10542SOL    HW132525   6.698   1.829   0.328
10542SOL    HW232526   6.821   1.779   0.232
10543SOL     OW32527   0.665   1.441   4.811
10543SOL    HW132528   0.678   1.474   4.717
10543SOL    HW232529   0.719   1.498   4.874
10544SOL     OW32530   1.160   6.951   2.728
10544SOL    HW132531   1.079   7.008   2.714
10544SOL    HW232532   1.228   6.970   2.657
10545SOL     OW32533   5.776   1.329   2.903
10545SOL    HW132534   5.772   1.363   2.809
10545SOL    HW232535   5.688   1.342   2.947
10546SOL     OW32536   0.832   1.202   5.942
10546SOL    HW132537   0.834   1.221   5.844
10546SOL    HW232538   0.895   1.127   5.963
10547SOL     OW32539   4.530   1.823   1.332
10547SOL    HW132540   4.593   1.876   1.390
10547SOL    HW232541   4.567   1.731   1.319
10548SOL     OW32542   5.006   3.710   4.946
10548SOL    HW132543   4.924   3.677   4.992
10548SOL    HW232544   5.086   3.662   4.982
10549SOL     OW32545   6.622   0.488   2.156
10549SOL    HW132546   6.547   0.542   2.193
10549SOL    HW232547   6.691   0.548   2.117
10550SOL     OW32548   4.682   6.418   4.790
10550SOL    HW132549   4.758   6.387   4.734
10550SOL    HW232550   4.697   6.392   4.886
10551SOL     OW32551   1.976   2.460   5.374
10551SOL    HW132552   1.981   2.364   5.400
10551SOL    HW232553   1.881   2.483   5.352
10552SOL     OW32554   4.186   2.138   5.921
10552SOL    HW132555   4.125   2.152   5.999
10552SOL    HW232556   4.272   2.098   5.953
10553SOL     OW32557   1.312   4.890   2.070
10553SOL    HW132558   1.406   4.865   2.044
10553SOL    HW232559   1.257   4.807   2.077
10554SOL     OW32560   5.199   4.883   6.650
10554SOL    HW132561   5.156   4.862   6.563
10554SOL    HW232562   5.273   4.817   6.667
10555SOL     OW32563   2.815   3.245   0.960
10555SOL    HW132564   2.861   3.278   1.042
10555SOL    HW232565   2.834   3.307   0.884
10556SOL     OW32566   2.076   2.991   5.240
10556SOL    HW132567   1.981   3.009   5.266
10556SOL    HW232568   2.078   2.926   5.164
10557SOL     OW32569   1.242   2.842   3.085
10557SOL    HW132570   1.275   2.748   3.098
10557SOL    HW232571   1.145   2.840   3.063
10558SOL     OW32572   3.991   6.993   4.293
10558SOL    HW132573   3.935   0.049   4.315
10558SOL    HW232574   4.052   7.014   4.217
10559SOL     OW32575   3.781   0.590   1.054
10559SOL    HW132576   3.760   0.681   1.091
10559SOL    HW232577   3.858   0.551   1.105
10560SOL     OW32578   2.939   6.290   4.263
10560SOL    HW132579   3.008   6.343   4.215
10560SOL    HW232580   2.971   6.195   4.273
10561SOL     OW32581   2.742   4.795   0.400
10561SOL    HW132582   2.763   4.839   0.313
10561SOL    HW232583   2.824   4.754   0.438
10562SOL     OW32584   5.425   6.443   0.653
10562SOL    HW132585   5.455   6.507   0.723
10562SOL    HW232586   5.403   6.493   0.569
10563SOL     OW32587   1.293   0.677   4.099
10563SOL    HW132588   1.379   0.718   4.132
10563SOL    HW232589   1.297   0.665   4.000
10564SOL     OW32590   5.942   6.424   2.328
10564SOL    HW132591   6.000   6.398   2.250
10564SOL    HW232592   5.953   6.357   2.401
10565SOL     OW32593   0.433   0.756   5.359
10565SOL    HW132594   0.451   0.732   5.264
10565SOL    HW232595   0.456   0.852   5.375
10566SOL     OW32596   3.994   3.379   6.855
10566SOL    HW132597   4.074   3.330   6.818
10566SOL    HW232598   3.996   3.374   6.955
10567SOL     OW32599   2.441   2.281   4.191
10567SOL    HW132600   2.503   2.351   4.227
10567SOL    HW232601   2.347   2.314   4.196
10568SOL     OW32602   5.712   1.345   1.538
10568SOL    HW132603   5.714   1.278   1.463
10568SOL    HW232604   5.645   1.316   1.607
10569SOL     OW32605   6.859   2.747   1.689
10569SOL    HW132606   6.768   2.745   1.729
10569SOL    HW232607   6.925   2.781   1.757
10570SOL     OW32608   1.612   4.765   2.959
10570SOL    HW132609   1.602   4.673   2.921
10570SOL    HW232610   1.707   4.779   2.987
10571SOL     OW32611   0.321   4.861   4.440
10571SOL    HW132612   0.419   4.878   4.434
10571SOL    HW232613   0.296   4.843   4.535
10572SOL     OW32614   6.666   3.610   3.448
10572SOL    HW132615   6.675   3.528   3.390
10572SOL    HW232616   6.670   3.584   3.544
10573SOL     OW32617   4.973   6.086   4.467
10573SOL    HW132618   4.898   6.083   4.401
10573SOL    HW232619   5.009   5.995   4.481
10574SOL     OW32620   1.752   1.879   4.288
10574SOL    HW132621   1.769   1.891   4.190
10574SOL    HW232622   1.653   1.877   4.304
10575SOL     OW32623   6.753   0.896   3.291
10575SOL    HW132624   6.840   0.941   3.273
10575SOL    HW232625   6.682   0.935   3.232
10576SOL     OW32626   0.070   6.600   5.304
10576SOL    HW132627   0.060   6.652   5.219
10576SOL    HW232628   0.158   6.554   5.305
10577SOL     OW32629   1.279   2.653   6.539
10577SOL    HW132630   1.361   2.686   6.585
10577SOL    HW232631   1.246   2.723   6.475
10578SOL     OW32632   5.934   0.592   3.873
10578SOL    HW132633   5.926   0.673   3.931
10578SOL    HW232634   6.030   0.576   3.850
10579SOL     OW32635   3.716   1.824   0.493
10579SOL    HW132636   3.678   1.818   0.401
10579SOL    HW232637   3.695   1.740   0.544
10580SOL     OW32638   0.006   0.244   0.313
10580SOL    HW132639   7.005   0.149   0.331
10580SOL    HW232640   0.028   0.289   0.400
10581SOL     OW32641   5.786   6.822   2.880
10581SOL    HW132642   5.784   6.848   2.977
10581SOL    HW232643   5.866   6.766   2.862
10582SOL     OW32644   4.077   4.896   6.878
10582SOL    HW132645   4.013   4.922   6.949
10582SOL    HW232646   4.076   4.796   6.867
10583SOL     OW32647   4.116   0.998   5.725
10583SOL    HW132648   4.063   0.913   5.730
10583SOL    HW232649   4.063   1.066   5.674
10584SOL     OW32650   6.436   6.930   0.930
10584SOL    HW132651   6.521   6.983   0.932
10584SOL    HW232652   6.361   6.987   0.897
10585SOL     OW32653   1.541   3.362   5.454
10585SOL    HW132654   1.598   3.395   5.529
10585SOL    HW232655   1.496   3.277   5.480
10586SOL     OW32656   1.735   5.572   5.310
10586SOL    HW132657   1.672   5.555   5.234
10586SOL    HW232658   1.713   5.509   5.385
10587SOL     OW32659   6.036   4.621   7.002
10587SOL    HW132660   6.018   4.543   0.035
10587SOL    HW232661   5.954   4.679   6.996
10588SOL     OW32662   0.618   4.542   1.837
10588SOL    HW132663   0.520   4.526   1.822
10588SOL    HW232664   0.657   4.465   1.885
10589SOL     OW32665   5.675   1.443   4.456
10589SOL    HW132666   5.669   1.458   4.555
10589SOL    HW232667   5.634   1.355   4.433
10590SOL     OW32668   0.936   0.265   1.618
10590SOL    HW132669   0.916   0.361   1.638
10590SOL    HW232670   1.025   0.259   1.572
10591SOL     OW32671   1.121   1.847   6.093
10591SOL    HW132672   1.199   1.882   6.145
10591SOL    HW232673   1.140   1.753   6.064
10592SOL     OW32674   5.798   2.630   0.477
10592SOL    HW132675   5.858   2.640   0.556
10592SOL    HW232676   5.852   2.608   0.396
10593SOL     OW32677   2.556   5.072   0.388
10593SOL    HW132678   2.656   5.079   0.387
10593SOL    HW232679   2.523   5.064   0.294
10594SOL     OW32680   5.585   1.439   3.392
10594SOL    HW132681   5.548   1.394   3.473
10594SOL    HW232682   5.607   1.534   3.413
10595SOL     OW32683   3.493   0.311   6.208
10595SOL    HW132684   3.432   0.387   6.233
10595SOL    HW232685   3.464   0.228   6.254
10596SOL     OW32686   4.354   0.171   1.741
10596SOL    HW132687   4.374   0.097   1.805
10596SOL    HW232688   4.281   0.143   1.679
10597SOL     OW32689   3.018   0.868   4.943
10597SOL    HW132690   3.025   0.930   5.022
10597SOL    HW232691   3.055   0.914   4.862
10598SOL     OW32692   2.685   2.547   0.382
10598SOL    HW132693   2.681   2.640   0.420
10598SOL    HW232694   2.778   2.526   0.353
10599SOL     OW32695   5.466   2.262   0.149
10599SOL    HW132696   5.407   2.331   0.192
10599SOL    HW232697   5.414   2.177   0.137
10600SOL     OW32698   1.805   3.385   0.446
10600SOL    HW132699   1.706   3.375   0.437
10600SOL    HW232700   1.835   3.466   0.395
10601SOL     OW32701   1.778   5.185   6.120
10601SOL    HW132702   1.777   5.086   6.108
10601SOL    HW232703   1.736   5.208   6.208
10602SOL     OW32704   5.313   1.697   3.361
10602SOL    HW132705   5.258   1.619   3.390
10602SOL    HW232706   5.394   1.705   3.420
10603SOL     OW32707   2.409   5.898   3.431
10603SOL    HW132708   2.383   5.974   3.371
10603SOL    HW232709   2.388   5.922   3.526
10604SOL     OW32710   5.675   4.291   5.115
10604SOL    HW132711   5.696   4.254   5.205
10604SOL    HW232712   5.744   4.358   5.089
10605SOL     OW32713   1.574   4.673   0.684
10605SOL    HW132714   1.656   4.643   0.635
10605SOL    HW232715   1.561   4.618   0.766
10606SOL     OW32716   5.907   0.417   2.360
10606SOL    HW132717   5.850   0.378   2.432
10606SOL    HW232718   5.924   0.513   2.379
10607SOL     OW32719   4.313   3.633   5.798
10607SOL    HW132720   4.297   3.726   5.830
10607SOL    HW232721   4.277   3.622   5.706
10608SOL     OW32722   5.866   2.156   5.044
10608SOL    HW132723   5.824   2.207   4.970
10608SOL    HW232724   5.795   2.118   5.104
10609SOL     OW32725   3.324   6.316   1.721
10609SOL    HW132726   3.413   6.313   1.677
10609SOL    HW232727   3.263   6.375   1.668
10610SOL     OW32728   0.147   3.909   6.382
10610SOL    HW132729   0.151   3.818   6.422
10610SOL    HW232730   0.089   3.968   6.439
10611SOL     OW32731   4.808   3.289   6.289
10611SOL    HW132732   4.768   3.223   6.353
10611SOL    HW232733   4.817   3.247   6.199
10612SOL     OW32734   2.612   0.249   5.602
10612SOL    HW132735   2.587   0.232   5.506
10612SOL    HW232736   2.531   0.233   5.660
10613SOL     OW32737   0.137   0.125   5.539
10613SOL    HW132738   0.077   0.072   5.480
10613SOL    HW232739   0.230   0.090   5.533
10614SOL     OW32740   6.782   1.704   4.218
10614SOL    HW132741   6.848   1.761   4.170
10614SOL    HW232742   6.689   1.735   4.198
10615SOL     OW32743   4.061   5.665   5.486
10615SOL    HW132744   4.066   5.569   5.514
10615SOL    HW232745   4.153   5.698   5.464
10616SOL     OW32746   3.534   6.364   0.843
10616SOL    HW132747   3.457   6.404   0.892
10616SOL    HW232748   3.597   6.436   0.815
10617SOL     OW32749   2.557   2.911   0.719
10617SOL    HW132750   2.592   2.988   0.773
10617SOL    HW232751   2.527   2.838   0.780
10618SOL     OW32752   5.606   3.705   6.943
10618SOL    HW132753   5.602   3.611   6.976
10618SOL    HW232754   5.551   3.764   7.002
10619SOL     OW32755   0.616   3.491   1.726
10619SOL    HW132756   0.602   3.525   1.633
10619SOL    HW232757   0.591   3.562   1.792
10620SOL     OW32758   1.013   6.292   5.650
10620SOL    HW132759   1.006   6.248   5.561
10620SOL    HW232760   0.964   6.238   5.718
10621SOL     OW32761   1.582   5.805   1.014
10621SOL    HW132762   1.662   5.761   1.054
10621SOL    HW232763   1.612   5.880   0.954
10622SOL     OW32764   4.548   1.050   1.042
10622SOL    HW132765   4.457   1.057   1.002
10622SOL    HW232766   4.599   1.134   1.024
10623SOL     OW32767   5.920   3.692   3.438
10623SOL    HW132768   5.998   3.739   3.398
10623SOL    HW232769   5.881   3.628   3.371
10624SOL     OW32770   1.168   1.008   4.770
10624SOL    HW132771   1.195   0.912   4.769
10624SOL    HW232772   1.129   1.033   4.681
10625SOL     OW32773   0.766   4.485   0.095
10625SOL    HW132774   0.731   4.394   0.073
10625SOL    HW232775   0.799   4.529   0.011
10626SOL     OW32776   1.106   2.640   1.430
10626SOL    HW132777   1.009   2.628   1.450
10626SOL    HW232778   1.118   2.662   1.333
10627SOL     OW32779   5.294   6.055   2.250
10627SOL    HW132780   5.379   6.002   2.248
10627SOL    HW232781   5.291   6.111   2.333
10628SOL     OW32782   5.747   5.234   6.262
10628SOL    HW132783   5.771   5.305   6.328
10628SOL    HW232784   5.729   5.148   6.311
10629SOL     OW32785   2.541   4.585   5.179
10629SOL    HW132786   2.638   4.563   5.167
10629SOL    HW232787   2.508   4.632   5.097
10630SOL     OW32788   6.301   0.973   3.650
10630SOL    HW132789   6.367   0.969   3.574
10630SOL    HW232790   6.260   0.883   3.662
10631SOL     OW32791   1.645   5.022   4.809
10631SOL    HW132792   1.612   5.015   4.715
10631SOL    HW232793   1.718   4.956   4.824
10632SOL     OW32794   5.597   2.190   4.095
10632SOL    HW132795   5.614   2.288   4.088
10632SOL    HW232796   5.534   2.172   4.170
10633SOL     OW32797   2.990   4.339   1.216
10633SOL    HW132798   2.898   4.377   1.224
10633SOL    HW232799   3.050   4.386   1.281
10634SOL     OW32800   3.443   5.099   0.822
10634SOL    HW132801   3.352   5.071   0.790
10634SOL    HW232802   3.433   5.151   0.907
10635SOL     OW32803   2.844   1.048   1.234
10635SOL    HW132804   2.828   1.093   1.322
10635SOL    HW232805   2.942   1.026   1.226
10636SOL     OW32806   1.509   2.209   2.200
10636SOL    HW132807   1.522   2.224   2.102
10636SOL    HW232808   1.598   2.205   2.245
10637SOL     OW32809   3.399   4.298   5.866
10637SOL    HW132810   3.366   4.260   5.952
10637SOL    HW232811   3.404   4.226   5.797
10638SOL     OW32812   0.030   5.480   2.608
10638SOL    HW132813   0.081   5.403   2.569
10638SOL    HW232814   6.999   5.522   2.537
10639SOL     OW32815   0.873   1.745   3.421
10639SOL    HW132816   0.915   1.818   3.367
10639SOL    HW232817   0.774   1.747   3.407
10640SOL     OW32818   4.063   6.932   6.786
10640SOL    HW132819   4.041   6.848   6.835
10640SOL    HW232820   4.138   6.915   6.722
10641SOL     OW32821   3.344   2.081   7.024
10641SOL    HW132822   3.434   2.039   0.011
10641SOL    HW232823   3.351   2.180   0.010
10642SOL     OW32824   0.378   2.551   1.421
10642SOL    HW132825   0.320   2.478   1.457
10642SOL    HW232826   0.350   2.639   1.459
10643SOL     OW32827   2.139   4.867   5.933
10643SOL    HW132828   2.229   4.824   5.922
10643SOL    HW232829   2.136   4.952   5.881
10644SOL     OW32830   4.735   2.485   3.597
10644SOL    HW132831   4.711   2.577   3.567
10644SOL    HW232832   4.652   2.437   3.625
10645SOL     OW32833   0.617   0.967   4.171
10645SOL    HW132834   0.614   1.056   4.217
10645SOL    HW232835   0.571   0.974   4.082
10646SOL     OW32836   0.517   1.865   4.923
10646SOL    HW132837   0.488   1.824   5.010
10646SOL    HW232838   0.457   1.834   4.850
10647SOL     OW32839   5.014   6.090   6.794
10647SOL    HW132840   5.093   6.145   6.767
10647SOL    HW232841   4.989   6.111   6.888
10648SOL     OW32842   5.202   2.979   6.529
10648SOL    HW132843   5.276   3.043   6.549
10648SOL    HW232844   5.194   2.967   6.430
10649SOL     OW32845   0.213   4.587   3.730
10649SOL    HW132846   0.280   4.575   3.803
10649SOL    HW232847   0.161   4.671   3.746
10650SOL     OW32848   1.366   6.162   3.162
10650SOL    HW132849   1.333   6.246   3.205
10650SOL    HW232850   1.432   6.184   3.091
10651SOL     OW32851   4.802   0.319   5.931
10651SOL    HW132852   4.770   0.339   6.024
10651SOL    HW232853   4.725   0.321   5.868
10652SOL     OW32854   3.387   0.259   0.191
10652SOL    HW132855   3.346   0.350   0.186
10652SOL    HW232856   3.349   0.200   0.120
10653SOL     OW32857   4.861   4.950   4.156
10653SOL    HW132858   4.949   4.994   4.179
10653SOL    HW232859   4.826   4.990   4.072
10654SOL     OW32860   4.699   0.818   1.001
10654SOL    HW132861   4.661   0.744   1.057
10654SOL    HW232862   4.638   0.897   1.004
10655SOL     OW32863   3.417   5.392   1.320
10655SOL    HW132864   3.474   5.331   1.375
10655SOL    HW232865   3.476   5.452   1.265
10656SOL     OW32866   6.212   2.032   0.699
10656SOL    HW132867   6.187   1.958   0.762
10656SOL    HW232868   6.295   2.077   0.733
10657SOL     OW32869   6.297   6.848   0.348
10657SOL    HW132870   6.284   6.944   0.326
10657SOL    HW232871   6.273   6.792   0.268
10658SOL     OW32872   0.038   4.015   5.104
10658SOL    HW132873   7.010   3.957   5.043
10658SOL    HW232874   0.129   4.029   5.064
10659SOL     OW32875   6.821   6.266   1.217
10659SOL    HW132876   6.748   6.334   1.214
10659SOL    HW232877   6.861   6.257   1.125
10660SOL     OW32878   5.509   4.256   6.549
10660SOL    HW132879   5.595   4.306   6.561
10660SOL    HW232880   5.494   4.197   6.629
10661SOL     OW32881   0.109   6.554   2.665
10661SOL    HW132882   0.064   6.520   2.748
10661SOL    HW232883   0.045   6.611   2.613
10662SOL     OW32884   6.140   0.904   2.449
10662SOL    HW132885   6.065   0.839   2.435
10662SOL    HW232886   6.169   0.941   2.361
10663SOL     OW32887   0.855   6.745   1.029
10663SOL    HW132888   0.762   6.721   1.055
10663SOL    HW232889   0.919   6.705   1.094
10664SOL     OW32890   1.999   4.252   6.467
10664SOL    HW132891   2.082   4.247   6.523
10664SOL    HW232892   2.024   4.279   6.374
10665SOL     OW32893   1.399   1.007   7.007
10665SOL    HW132894   1.415   1.083   0.045
10665SOL    HW232895   1.347   0.935   0.028
10666SOL     OW32896   4.031   4.304   0.132
10666SOL    HW132897   3.971   4.364   0.186
10666SOL    HW232898   4.006   4.311   0.036
10667SOL     OW32899   3.950   1.772   5.601
10667SOL    HW132900   3.917   1.682   5.571
10667SOL    HW232901   3.874   1.823   5.642
10668SOL     OW32902   1.235   1.792   5.159
10668SOL    HW132903   1.192   1.857   5.097
10668SOL    HW232904   1.325   1.826   5.186
10669SOL     OW32905   6.870   6.843   0.912
10669SOL    HW132906   6.960   6.875   0.940
10669SOL    HW232907   6.815   6.822   0.993
10670SOL     OW32908   4.949   4.580   5.522
10670SOL    HW132909   5.008   4.614   5.595
10670SOL    HW232910   4.872   4.643   5.510
10671SOL     OW32911   2.031   3.348   3.030
10671SOL    HW132912   1.939   3.378   3.001
10671SOL    HW232913   2.084   3.428   3.058
10672SOL     OW32914   6.964   2.951   0.670
10672SOL    HW132915   6.895   2.883   0.695
10672SOL    HW232916   6.930   3.042   0.695
10673SOL     OW32917   2.313   2.400   5.629
10673SOL    HW132918   2.300   2.456   5.547
10673SOL    HW232919   2.390   2.337   5.615
10674SOL     OW32920   3.858   3.499   0.485
10674SOL    HW132921   3.884   3.512   0.581
10674SOL    HW232922   3.913   3.561   0.427
10675SOL     OW32923   1.642   0.662   6.232
10675SOL    HW132924   1.542   0.669   6.233
10675SOL    HW232925   1.681   0.744   6.273
10676SOL     OW32926   6.185   7.016   6.438
10676SOL    HW132927   6.170   7.015   6.339
10676SOL    HW232928   6.276   6.980   6.458
10677SOL     OW32929   0.991   1.088   2.164
10677SOL    HW132930   1.068   1.105   2.227
10677SOL    HW232931   0.966   0.991   2.168
10678SOL     OW32932   3.584   5.400   2.966
10678SOL    HW132933   3.677   5.402   3.001
10678SOL    HW232934   3.573   5.470   2.895
10679SOL     OW32935   5.603   5.218   5.810
10679SOL    HW132936   5.682   5.158   5.802
10679SOL    HW232937   5.612   5.273   5.893
10680SOL     OW32938   1.697   3.096   3.495
10680SOL    HW132939   1.765   3.153   3.450
10680SOL    HW232940   1.736   3.006   3.514
10681SOL     OW32941   0.247   3.822   6.722
10681SOL    HW132942   0.194   3.766   6.658
10681SOL    HW232943   0.228   3.918   6.705
10682SOL     OW32944   1.958   1.977   3.238
10682SOL    HW132945   1.986   1.885   3.264
10682SOL    HW232946   1.882   1.971   3.173
10683SOL     OW32947   3.023   2.238   3.727
10683SOL    HW132948   2.926   2.245   3.748
10683SOL    HW232949   3.036   2.237   3.628
10684SOL     OW32950   4.746   3.914   0.003
10684SOL    HW132951   4.652   3.945   0.018
10684SOL    HW232952   4.789   3.972   6.958
10685SOL     OW32953   0.385   3.656   2.886
10685SOL    HW132954   0.480   3.637   2.862
10685SOL    HW232955   0.381   3.736   2.946
10686SOL     OW32956   3.996   5.906   6.462
10686SOL    HW132957   4.000   5.938   6.367
10686SOL    HW232958   4.084   5.868   6.488
10687SOL     OW32959   0.187   5.293   1.919
10687SOL    HW132960   0.203   5.266   2.014
10687SOL    HW232961   0.135   5.222   1.872
10688SOL     OW32962   6.268   4.035   2.179
10688SOL    HW132963   6.331   4.030   2.256
10688SOL    HW232964   6.300   4.104   2.113
10689SOL     OW32965   6.886   0.016   3.217
10689SOL    HW132966   6.951   0.063   3.276
10689SOL    HW232967   6.914   0.025   3.121
10690SOL     OW32968   4.771   5.617   3.203
10690SOL    HW132969   4.672   5.606   3.205
10690SOL    HW232970   4.809   5.595   3.294
10691SOL     OW32971   6.461   1.828   1.619
10691SOL    HW132972   6.526   1.878   1.677
10691SOL    HW232973   6.494   1.827   1.525
10692SOL     OW32974   2.867   5.895   3.770
10692SOL    HW132975   2.950   5.838   3.766
10692SOL    HW232976   2.873   5.956   3.849
10693SOL     OW32977   1.846   1.129   1.295
10693SOL    HW132978   1.861   1.101   1.200
10693SOL    HW232979   1.924   1.184   1.326
10694SOL     OW32980   3.527   6.336   1.163
10694SOL    HW132981   3.489   6.254   1.119
10694SOL    HW232982   3.475   6.416   1.134
10695SOL     OW32983   6.644   2.421   4.093
10695SOL    HW132984   6.597   2.472   4.165
10695SOL    HW232985   6.717   2.477   4.055
10696SOL     OW32986   6.764   5.037   1.295
10696SOL    HW132987   6.677   5.087   1.296
10696SOL    HW232988   6.789   5.016   1.200
10697SOL     OW32989   6.985   6.262   3.565
10697SOL    HW132990   7.008   6.306   3.479
10697SOL    HW232991   6.966   6.331   3.635
10698SOL     OW32992   2.758   7.023   3.895
10698SOL    HW132993   2.668   0.031   3.922
10698SOL    HW232994   2.829   0.041   3.951
10699SOL     OW32995   4.697   1.711   2.863
10699SOL    HW132996   4.612   1.668   2.896
10699SOL    HW232997   4.680   1.808   2.846
10700SOL     OW32998   0.593   0.063   0.133
10700SOL    HW132999   0.557   7.008   0.086
10700SOL    HW233000   0.593   0.141   0.071
10701SOL     OW33001   4.342   6.151   6.668
10701SOL    HW133002   4.277   6.214   6.626
10701SOL    HW233003   4.417   6.203   6.709
10702SOL     OW33004   5.714   2.197   1.775
10702SOL    HW133005   5.631   2.249   1.794
10702SOL    HW233006   5.702   2.103   1.806
10703SOL     OW33007   3.884   3.893   3.033
10703SOL    HW133008   3.837   3.943   3.106
10703SOL    HW233009   3.824   3.823   2.995
10704SOL     OW33010   4.759   6.812   2.162
10704SOL    HW133011   4.808   6.800   2.248
10704SOL    HW233012   4.661   6.798   2.177
10705SOL     OW33013   1.266   3.620   0.048
10705SOL    HW133014   1.240   3.672   6.992
10705SOL    HW233015   1.328   3.675   0.104
10706SOL     OW33016   4.358   0.523   2.579
10706SOL    HW133017   4.375   0.557   2.486
10706SOL    HW233018   4.302   0.440   2.574
10707SOL     OW33019   6.923   6.733   5.884
10707SOL    HW133020   6.995   6.800   5.865
10707SOL    HW233021   6.853   6.776   5.941
10708SOL     OW33022   5.009   0.962   1.450
10708SOL    HW133023   5.092   0.910   1.470
10708SOL    HW233024   5.018   1.055   1.484
10709SOL     OW33025   5.899   0.519   5.722
10709SOL    HW133026   5.958   0.474   5.789
10709SOL    HW233027   5.943   0.601   5.687
10710SOL     OW33028   6.755   6.236   4.386
10710SOL    HW133029   6.729   6.320   4.337
10710SOL    HW233030   6.855   6.235   4.399
10711SOL     OW33031   2.098   0.102   4.003
10711SOL    HW133032   2.193   0.074   3.995
10711SOL    HW233033   2.094   0.189   4.053
10712SOL     OW33034   3.715   1.015   4.193
10712SOL    HW133035   3.708   1.110   4.224
10712SOL    HW233036   3.811   0.993   4.176
10713SOL     OW33037   2.252   5.407   2.021
10713SOL    HW133038   2.308   5.480   2.060
10713SOL    HW233039   2.280   5.390   1.926
10714SOL     OW33040   0.314   4.755   4.680
10714SOL    HW133041   0.393   4.695   4.684
10714SOL    HW233042   0.323   4.828   4.748
10715SOL     OW33043   5.474   1.596   4.067
10715SOL    HW133044   5.525   1.682   4.073
10715SOL    HW233045   5.421   1.594   3.983
10716SOL     OW33046   6.608   1.221   4.006
10716SOL    HW133047   6.661   1.167   3.941
10716SOL    HW233048   6.542   1.161   4.052
10717SOL     OW33049   0.647   1.545   1.020
10717SOL    HW133050   0.578   1.615   1.002
10717SOL    HW233051   0.673   1.500   0.935
10718SOL     OW33052   6.801   5.499   0.672
10718SOL    HW133053   6.880   5.439   0.677
10718SOL    HW233054   6.718   5.449   0.696
10719SOL     OW33055   4.889   0.484   3.054
10719SOL    HW133056   4.910   0.470   2.958
10719SOL    HW233057   4.865   0.579   3.071
10720SOL     OW33058   6.679   3.292   6.183
10720SOL    HW133059   6.730   3.267   6.101
10720SOL    HW233060   6.739   3.338   6.248
10721SOL     OW33061   6.476   2.146   4.410
10721SOL    HW133062   6.449   2.199   4.330
10721SOL    HW233063   6.440   2.053   4.403
10722SOL     OW33064   6.663   3.501   0.181
10722SOL    HW133065   6.577   3.454   0.161
10722SOL    HW233066   6.687   3.561   0.104
10723SOL     OW33067   5.232   4.041   6.853
10723SOL    HW133068   5.173   4.112   6.891
10723SOL    HW233069   5.181   3.990   6.783
10724SOL     OW33070   4.344   6.768   6.043
10724SOL    HW133071   4.311   6.698   6.106
10724SOL    HW233072   4.435   6.744   6.011
10725SOL     OW33073   0.479   5.817   4.532
10725SOL    HW133074   0.488   5.785   4.437
10725SOL    HW233075   0.554   5.879   4.553
10726SOL     OW33076   5.155   0.819   4.980
10726SOL    HW133077   5.175   0.723   4.960
10726SOL    HW233078   5.188   0.841   5.072
10727SOL     OW33079   2.001   4.642   4.729
10727SOL    HW133080   2.086   4.669   4.683
10727SOL    HW233081   2.021   4.608   4.820
10728SOL     OW33082   4.991   6.917   2.938
10728SOL    HW133083   5.060   6.860   2.982
10728SOL    HW233084   5.009   6.922   2.840
10729SOL     OW33085   6.270   1.880   2.951
10729SOL    HW133086   6.326   1.958   2.922
10729SOL    HW233087   6.179   1.912   2.975
10730SOL     OW33088   2.109   5.990   2.452
10730SOL    HW133089   2.090   5.919   2.384
10730SOL    HW233090   2.177   6.053   2.416
10731SOL     OW33091   3.168   5.589   0.153
10731SOL    HW133092   3.184   5.547   0.064
10731SOL    HW233093   3.255   5.605   0.199
10732SOL     OW33094   5.452   6.689   3.049
10732SOL    HW133095   5.398   6.693   3.133
10732SOL    HW233096   5.549   6.682   3.072
10733SOL     OW33097   5.703   1.503   0.617
10733SOL    HW133098   5.649   1.476   0.696
10733SOL    HW233099   5.701   1.431   0.548
10734SOL     OW33100   0.563   0.125   6.389
10734SOL    HW133101   0.566   0.081   6.300
10734SOL    HW233102   0.509   0.070   6.452
10735SOL     OW33103   0.715   5.390   2.524
10735SOL    HW133104   0.698   5.399   2.622
10735SOL    HW233105   0.814   5.393   2.507
10736SOL     OW33106   0.176   0.665   3.907
10736SOL    HW133107   0.240   0.596   3.872
10736SOL    HW233108   0.182   0.668   4.007
10737SOL     OW33109   0.543   2.003   1.306
10737SOL    HW133110   0.513   2.022   1.400
10737SOL    HW233111   0.627   1.948   1.309
10738SOL     OW33112   2.556   0.879   2.356
10738SOL    HW133113   2.555   0.978   2.370
10738SOL    HW233114   2.505   0.834   2.429
10739SOL     OW33115   6.054   1.559   2.685
10739SOL    HW133116   6.039   1.596   2.776
10739SOL    HW233117   6.150   1.570   2.660
10740SOL     OW33118   1.454   6.437   5.732
10740SOL    HW133119   1.505   6.490   5.665
10740SOL    HW233120   1.504   6.354   5.755
10741SOL     OW33121   1.676   2.660   3.582
10741SOL    HW133122   1.756   2.602   3.598
10741SOL    HW233123   1.607   2.607   3.532
10742SOL     OW33124   5.901   5.817   1.848
10742SOL    HW133125   5.827   5.754   1.821
10742SOL    HW233126   5.971   5.767   1.899
10743SOL     OW33127   3.716   1.098   5.119
10743SOL    HW133128   3.630   1.148   5.129
10743SOL    HW233129   3.712   1.014   5.173
10744SOL     OW33130   3.031   0.816   1.241
10744SOL    HW133131   3.106   0.847   1.183
10744SOL    HW233132   3.054   0.833   1.337
10745SOL     OW33133   2.492   4.882   1.037
10745SOL    HW133134   2.515   4.908   0.943
10745SOL    HW233135   2.478   4.965   1.091
10746SOL     OW33136   2.769   5.710   1.123
10746SOL    HW133137   2.798   5.707   1.219
10746SOL    HW233138   2.765   5.805   1.092
10747SOL     OW33139   5.869   2.407   4.088
10747SOL    HW133140   5.959   2.417   4.046
10747SOL    HW233141   5.860   2.314   4.124
10748SOL     OW33142   4.620   5.620   1.013
10748SOL    HW133143   4.565   5.551   1.060
10748SOL    HW233144   4.590   5.711   1.040
10749SOL     OW33145   6.238   4.746   3.443
10749SOL    HW133146   6.218   4.815   3.514
10749SOL    HW233147   6.289   4.789   3.369
10750SOL     OW33148   4.721   4.146   3.933
10750SOL    HW133149   4.677   4.229   3.900
10750SOL    HW233150   4.727   4.148   4.033
10751SOL     OW33151   1.480   3.315   4.994
10751SOL    HW133152   1.530   3.367   5.064
10751SOL    HW233153   1.398   3.275   5.035
10752SOL     OW33154   6.114   5.044   6.978
10752SOL    HW133155   6.075   5.007   0.036
10752SOL    HW233156   6.041   5.073   6.916
10753SOL     OW33157   4.491   6.918   4.426
10753SOL    HW133158   4.398   6.890   4.451
10753SOL    HW233159   4.539   6.842   4.384
10754SOL     OW33160   0.303   2.936   1.739
10754SOL    HW133161   0.244   3.003   1.695
10754SOL    HW233162   0.398   2.951   1.712
10755SOL     OW33163   7.013   1.622   1.614
10755SOL    HW133164   6.941   1.654   1.677
10755SOL    HW233165   0.072   1.608   1.665
10756SOL     OW33166   6.175   2.120   0.108
10756SOL    HW133167   6.170   2.191   0.038
10756SOL    HW233168   6.270   2.092   0.121
10757SOL     OW33169   6.842   3.997   0.504
10757SOL    HW133170   6.917   4.014   0.567
10757SOL    HW233171   6.792   3.915   0.533
10758SOL     OW33172   0.916   5.645   6.604
10758SOL    HW133173   0.912   5.744   6.615
10758SOL    HW233174   0.891   5.601   6.690
10759SOL     OW33175   1.403   2.712   6.113
10759SOL    HW133176   1.318   2.759   6.092
10759SOL    HW233177   1.386   2.639   6.179
10760SOL     OW33178   1.180   6.117   0.337
10760SOL    HW133179   1.211   6.212   0.327
10760SOL    HW233180   1.192   6.069   0.250
10761SOL     OW33181   0.800   2.410   6.435
10761SOL    HW133182   0.853   2.486   6.473
10761SOL    HW233183   0.862   2.347   6.387
10762SOL     OW33184   4.095   0.551   6.075
10762SOL    HW133185   4.144   0.621   6.024
10762SOL    HW233186   4.126   0.461   6.045
10763SOL     OW33187   5.574   0.767   2.531
10763SOL    HW133188   5.629   0.833   2.480
10763SOL    HW233189   5.625   0.682   2.543
10764SOL     OW33190   4.400   0.979   5.162
10764SOL    HW133191   4.369   1.061   5.114
10764SOL    HW233192   4.500   0.971   5.155
10765SOL     OW33193   5.543   1.576   2.299
10765SOL    HW133194   5.502   1.665   2.320
10765SOL    HW233195   5.585   1.539   2.381
10766SOL     OW33196   1.771   5.011   0.195
10766SOL    HW133197   1.700   4.984   0.130
10766SOL    HW233198   1.802   4.930   0.245
10767SOL     OW33199   2.090   6.892   0.573
10767SOL    HW133200   2.074   6.838   0.490
10767SOL    HW233201   2.002   6.923   0.610
10768SOL     OW33202   5.164   5.272   0.363
10768SOL    HW133203   5.135   5.338   0.293
10768SOL    HW233204   5.214   5.320   0.435
10769SOL     OW33205   2.853   4.203   5.521
10769SOL    HW133206   2.910   4.267   5.470
10769SOL    HW233207   2.767   4.187   5.472
10770SOL     OW33208   5.505   6.992   4.558
10770SOL    HW133209   5.585   0.012   4.598
10770SOL    HW233210   5.531   6.901   4.526
10771SOL     OW33211   4.457   0.360   5.512
10771SOL    HW133212   4.362   0.332   5.501
10771SOL    HW233213   4.506   0.344   5.426
10772SOL     OW33214   5.823   6.837   4.510
10772SOL    HW133215   5.791   6.914   4.454
10772SOL    HW233216   5.919   6.852   4.534
10773SOL     OW33217   6.719   4.536   6.954
10773SOL    HW133218   6.794   4.480   6.919
10773SOL    HW233219   6.754   4.598   7.024
10774SOL     OW33220   1.173   2.373   1.074
10774SOL    HW133221   1.209   2.397   0.984
10774SOL    HW233222   1.243   2.325   1.127
10775SOL     OW33223   1.443   4.429   1.328
10775SOL    HW133224   1.506   4.483   1.384
10775SOL    HW233225   1.377   4.489   1.283
10776SOL     OW33226   5.922   0.514   2.786
10776SOL    HW133227   5.975   0.460   2.852
10776SOL    HW233228   5.841   0.552   2.832
10777SOL     OW33229   3.095   1.025   3.798
10777SOL    HW133230   3.085   1.122   3.820
10777SOL    HW233231   3.122   0.975   3.880
10778SOL     OW33232   6.521   6.151   4.974
10778SOL    HW133233   6.611   6.125   4.939
10778SOL    HW233234   6.450   6.105   4.921
10779SOL     OW33235   5.541   4.577   3.202
10779SOL    HW133236   5.574   4.660   3.158
10779SOL    HW233237   5.510   4.512   3.133
10780SOL     OW33238   0.331   6.036   4.632
10780SOL    HW133239   0.246   6.038   4.685
10780SOL    HW233240   0.347   5.942   4.600
10781SOL     OW33241   6.176   1.224   5.009
10781SOL    HW133242   6.228   1.143   4.981
10781SOL    HW233243   6.151   1.277   4.928
10782SOL     OW33244   6.711   3.255   5.520
10782SOL    HW133245   6.687   3.158   5.511
10782SOL    HW233246   6.805   3.262   5.555
10783SOL     OW33247   1.544   2.480   1.982
10783SOL    HW133248   1.461   2.504   2.032
10783SOL    HW233249   1.536   2.386   1.948
10784SOL     OW33250   2.695   6.055   2.141
10784SOL    HW133251   2.740   5.973   2.106
10784SOL    HW233252   2.595   6.044   2.133
10785SOL     OW33253   1.720   5.193   1.623
10785SOL    HW133254   1.699   5.248   1.542
10785SOL    HW233255   1.749   5.101   1.595
10786SOL     OW33256   4.335   2.332   2.574
10786SOL    HW133257   4.269   2.269   2.533
10786SOL    HW233258   4.399   2.363   2.504
10787SOL     OW33259   3.087   1.452   4.095
10787SOL    HW133260   3.147   1.525   4.127
10787SOL    HW233261   3.105   1.369   4.146
10788SOL     OW33262   1.079   4.539   0.306
10788SOL    HW133263   1.118   4.529   0.397
10788SOL    HW233264   0.982   4.562   0.314
10789SOL     OW33265   6.124   0.964   0.248
10789SOL    HW133266   6.079   0.973   0.337
10789SOL    HW233267   6.207   1.020   0.247
10790SOL     OW33268   0.202   1.896   5.182
10790SOL    HW133269   0.220   1.984   5.139
10790SOL    HW233270   0.135   1.845   5.127
10791SOL     OW33271   2.118   1.634   2.050
10791SOL    HW133272   2.056   1.581   1.992
10791SOL    HW233273   2.065   1.698   2.106
10792SOL     OW33274   3.482   2.409   1.347
10792SOL    HW133275   3.498   2.490   1.404
10792SOL    HW233276   3.430   2.341   1.399
10793SOL     OW33277   5.183   1.572   4.839
10793SOL    HW133278   5.192   1.665   4.803
10793SOL    HW233279   5.113   1.523   4.789
10794SOL     OW33280   4.242   3.341   1.766
10794SOL    HW133281   4.287   3.251   1.770
10794SOL    HW233282   4.162   3.341   1.826
10795SOL     OW33283   0.082   4.131   2.519
10795SOL    HW133284   0.121   4.116   2.428
10795SOL    HW233285   0.076   4.044   2.568
10796SOL     OW33286   5.595   6.957   6.599
10796SOL    HW133287   5.642   0.013   6.565
10796SOL    HW233288   5.624   6.939   6.693
10797SOL     OW33289   4.031   2.808   0.112
10797SOL    HW133290   4.073   2.853   0.033
10797SOL    HW233291   3.960   2.867   0.151
10798SOL     OW33292   2.277   0.213   6.257
10798SOL    HW133293   2.301   0.124   6.219
10798SOL    HW233294   2.361   0.264   6.276
10799SOL     OW33295   3.126   1.810   2.577
10799SOL    HW133296   3.115   1.899   2.533
10799SOL    HW233297   3.218   1.776   2.562
10800SOL     OW33298   1.496   0.061   0.567
10800SOL    HW133299   1.521   0.092   0.659
10800SOL    HW233300   1.400   0.082   0.550
10801SOL     OW33301   1.925   6.157   5.374
10801SOL    HW133302   1.934   6.088   5.446
10801SOL    HW233303   2.016   6.194   5.353
10802SOL     OW33304   1.288   3.453   3.883
10802SOL    HW133305   1.332   3.534   3.844
10802SOL    HW233306   1.207   3.481   3.935
10803SOL     OW33307   5.159   4.155   5.646
10803SOL    HW133308   5.074   4.207   5.657
10803SOL    HW233309   5.177   4.102   5.729
10804SOL     OW33310   6.197   3.813   1.622
10804SOL    HW133311   6.228   3.906   1.600
10804SOL    HW233312   6.100   3.805   1.602
10805SOL     OW33313   3.981   7.013   0.540
10805SOL    HW133314   3.992   6.927   0.490
10805SOL    HW233315   3.917   7.000   0.616
10806SOL     OW33316   5.734   3.517   0.284
10806SOL    HW133317   5.801   3.573   0.331
10806SOL    HW233318   5.762   3.421   0.286
10807SOL     OW33319   3.226   5.989   3.501
10807SOL    HW133320   3.197   5.897   3.526
10807SOL    HW233321   3.325   5.992   3.492
10808SOL     OW33322   1.039   3.428   6.817
10808SOL    HW133323   1.138   3.442   6.818
10808SOL    HW233324   1.018   3.332   6.835
10809SOL     OW33325   2.814   1.472   4.189
10809SOL    HW133326   2.796   1.542   4.258
10809SOL    HW233327   2.902   1.490   4.146
10810SOL     OW33328   0.379   1.415   5.782
10810SOL    HW133329   0.291   1.460   5.763
10810SOL    HW233330   0.381   1.387   5.878
10811SOL     OW33331   4.272   4.968   5.891
10811SOL    HW133332   4.268   5.068   5.881
10811SOL    HW233333   4.319   4.929   5.812
10812SOL     OW33334   6.843   3.085   2.650
10812SOL    HW133335   6.777   3.158   2.629
10812SOL    HW233336   6.922   3.125   2.696
10813SOL     OW33337   2.703   5.801   1.589
10813SOL    HW133338   2.606   5.812   1.568
10813SOL    HW233339   2.718   5.822   1.686
10814SOL     OW33340   1.958   0.252   5.363
10814SOL    HW133341   2.051   0.220   5.341
10814SOL    HW233342   1.963   0.320   5.436
10815SOL     OW33343   5.127   4.072   2.720
10815SOL    HW133344   5.134   4.119   2.808
10815SOL    HW233345   5.211   4.020   2.703
10816SOL     OW33346   1.895   1.089   2.287
10816SOL    HW133347   1.974   1.150   2.282
10816SOL    HW233348   1.835   1.104   2.208
10817SOL     OW33349   5.372   0.360   2.706
10817SOL    HW133350   5.466   0.335   2.683
10817SOL    HW233351   5.336   0.295   2.773
10818SOL     OW33352   5.409   3.135   6.640
10818SOL    HW133353   5.468   3.216   6.640
10818SOL    HW233354   5.464   3.052   6.642
10819SOL     OW33355   0.520   3.993   6.651
10819SOL    HW133356   0.489   4.009   6.557
10819SOL    HW233357   0.600   3.933   6.650
10820SOL     OW33358   0.303   6.779   3.864
10820SOL    HW133359   0.324   6.772   3.961
10820SOL    HW233360   0.251   6.862   3.847
10821SOL     OW33361   0.154   6.960   2.249
10821SOL    HW133362   0.086   6.944   2.321
10821SOL    HW233363   0.237   6.908   2.270
10822SOL     OW33364   1.398   3.530   2.164
10822SOL    HW133365   1.435   3.446   2.125
10822SOL    HW233366   1.422   3.534   2.261
10823SOL     OW33367   2.841   5.653   1.390
10823SOL    HW133368   2.926   5.704   1.382
10823SOL    HW233369   2.778   5.702   1.450
10824SOL     OW33370   5.184   0.320   3.465
10824SOL    HW133371   5.255   0.323   3.394
10824SOL    HW233372   5.172   0.412   3.503
10825SOL     OW33373   2.994   1.310   1.320
10825SOL    HW133374   3.000   1.407   1.296
10825SOL    HW233375   2.996   1.256   1.236
10826SOL     OW33376   6.845   3.791   2.016
10826SOL    HW133377   6.862   3.803   2.113
10826SOL    HW233378   6.749   3.809   1.996
10827SOL     OW33379   6.661   3.763   4.571
10827SOL    HW133380   6.653   3.860   4.595
10827SOL    HW233381   6.570   3.725   4.555
10828SOL     OW33382   1.302   5.962   1.065
10828SOL    HW133383   1.386   5.909   1.053
10828SOL    HW233384   1.244   5.951   0.986
10829SOL     OW33385   3.114   3.897   1.654
10829SOL    HW133386   3.158   3.949   1.581
10829SOL    HW233387   3.167   3.906   1.738
10830SOL     OW33388   6.147   3.342   4.351
10830SOL    HW133389   6.110   3.384   4.433
10830SOL    HW233390   6.199   3.410   4.299
10831SOL     OW33391   5.067   0.762   2.578
10831SOL    HW133392   5.145   0.714   2.540
10831SOL    HW233393   5.068   0.754   2.678
10832SOL     OW33394   0.995   2.027   0.219
10832SOL    HW133395   0.904   2.067   0.227
10832SOL    HW233396   1.000   1.943   0.272
10833SOL     OW33397   2.329   1.114   4.119
10833SOL    HW133398   2.359   1.048   4.187
10833SOL    HW233399   2.291   1.065   4.040
10834SOL     OW33400   0.765   0.957   5.370
10834SOL    HW133401   0.845   1.015   5.383
10834SOL    HW233402   0.713   0.991   5.291
10835SOL     OW33403   6.344   1.538   2.237
10835SOL    HW133404   6.362   1.458   2.179
10835SOL    HW233405   6.382   1.523   2.328
10836SOL     OW33406   0.353   1.435   5.130
10836SOL    HW133407   0.403   1.482   5.203
10836SOL    HW233408   0.317   1.349   5.165
10837SOL     OW33409   6.547   4.550   0.321
10837SOL    HW133410   6.591   4.602   0.395
10837SOL    HW233411   6.517   4.614   0.250
10838SOL     OW33412   5.995   0.003   6.647
10838SOL    HW133413   6.039   0.018   6.558
10838SOL    HW233414   5.957   0.089   6.680
10839SOL     OW33415   2.702   1.804   6.992
10839SOL    HW133416   2.752   1.750   6.924
10839SOL    HW233417   2.614   1.832   6.953
10840SOL     OW33418   3.331   6.003   1.416
10840SOL    HW133419   3.299   5.962   1.331
10840SOL    HW233420   3.410   5.953   1.450
10841SOL     OW33421   3.967   6.249   6.132
10841SOL    HW133422   4.046   6.303   6.105
10841SOL    HW233423   3.887   6.277   6.080
10842SOL     OW33424   6.449   2.906   0.845
10842SOL    HW133425   6.390   2.888   0.766
10842SOL    HW233426   6.540   2.934   0.814
10843SOL     OW33427   1.318   1.745   1.947
10843SOL    HW133428   1.413   1.751   1.919
10843SOL    HW233429   1.291   1.649   1.955
10844SOL     OW33430   6.542   6.209   4.566
10844SOL    HW133431   6.604   6.241   4.495
10844SOL    HW233432   6.493   6.128   4.534
10845SOL     OW33433   1.067   1.210   1.765
10845SOL    HW133434   1.139   1.236   1.828
10845SOL    HW233435   1.103   1.211   1.671
10846SOL     OW33436   4.323   1.621   0.901
10846SOL    HW133437   4.258   1.628   0.977
10846SOL    HW233438   4.274   1.632   0.815
10847SOL     OW33439   2.954   1.394   5.874
10847SOL    HW133440   3.019   1.362   5.943
10847SOL    HW233441   2.968   1.343   5.789
10848SOL     OW33442   2.584   1.478   6.848
10848SOL    HW133443   2.643   1.399   6.865
10848SOL    HW233444   2.547   1.511   6.936
10849SOL     OW33445   3.033   4.927   3.731
10849SOL    HW133446   3.040   4.987   3.811
10849SOL    HW233447   2.942   4.885   3.729
10850SOL     OW33448   4.621   6.466   6.982
10850SOL    HW133449   4.572   6.423   0.032
10850SOL    HW233450   4.613   6.565   6.988
10851SOL     OW33451   2.733   2.982   6.206
10851SOL    HW133452   2.704   3.040   6.130
10851SOL    HW233453   2.790   2.907   6.172
10852SOL     OW33454   0.124   1.084   6.239
10852SOL    HW133455   0.202   1.033   6.274
10852SOL    HW233456   0.127   1.084   6.139
10853SOL     OW33457   3.004   2.146   4.621
10853SOL    HW133458   3.009   2.124   4.524
10853SOL    HW233459   3.087   2.115   4.667
10854SOL     OW33460   5.593   0.543   6.682
10854SOL    HW133461   5.612   0.522   6.778
10854SOL    HW233462   5.671   0.516   6.626
10855SOL     OW33463   1.853   6.084   2.512
10855SOL    HW133464   1.788   6.055   2.441
10855SOL    HW233465   1.941   6.040   2.497
10856SOL     OW33466   6.029   6.444   0.520
10856SOL    HW133467   6.062   6.369   0.578
10856SOL    HW233468   6.030   6.529   0.572
10857SOL     OW33469   6.472   2.541   3.371
10857SOL    HW133470   6.438   2.462   3.320
10857SOL    HW233471   6.512   2.509   3.457
10858SOL     OW33472   1.848   3.607   0.272
10858SOL    HW133473   1.907   3.563   0.205
10858SOL    HW233474   1.897   3.684   0.314
10859SOL     OW33475   0.659   4.260   3.290
10859SOL    HW133476   0.600   4.195   3.337
10859SOL    HW233477   0.750   4.258   3.331
10860SOL     OW33478   0.241   1.120   0.474
10860SOL    HW133479   0.252   1.215   0.505
10860SOL    HW233480   0.239   1.060   0.553
10861SOL     OW33481   3.611   2.756   1.800
10861SOL    HW133482   3.623   2.789   1.894
10861SOL    HW233483   3.618   2.834   1.737
10862SOL     OW33484   2.816   2.544   5.998
10862SOL    HW133485   2.831   2.461   6.051
10862SOL    HW233486   2.735   2.533   5.941
10863SOL     OW33487   2.286   0.314   3.059
10863SOL    HW133488   2.365   0.288   3.003
10863SOL    HW233489   2.236   0.232   3.086
10864SOL     OW33490   2.991   4.663   1.507
10864SOL    HW133491   3.013   4.653   1.604
10864SOL    HW233492   3.043   4.595   1.454
10865SOL     OW33493   5.379   3.259   3.738
10865SOL    HW133494   5.299   3.200   3.730
10865SOL    HW233495   5.383   3.298   3.830
10866SOL     OW33496   6.815   2.697   0.693
10866SOL    HW133497   6.737   2.643   0.724
10866SOL    HW233498   6.899   2.646   0.710
10867SOL     OW33499   2.653   2.807   0.477
10867SOL    HW133500   2.729   2.872   0.475
10867SOL    HW233501   2.577   2.845   0.529
10868SOL     OW33502   0.609   1.769   3.387
10868SOL    HW133503   0.570   1.749   3.477
10868SOL    HW233504   0.536   1.781   3.321
10869NA      NA33505   0.272   1.814   5.993
10870NA      NA33506   4.469   4.465   5.238
10871NA      NA33507   1.795   5.016   2.682
10872NA      NA33508   5.102   4.296   3.772
10873NA      NA33509   4.166   2.224   5.150
10874NA      NA33510   3.048   5.067   1.258
10875NA      NA33511   1.307   5.398   0.585
10876NA      NA33512   3.683   4.363   1.477
10877NA      NA33513   4.763   4.218   0.452
10878NA      NA33514   3.710   1.280   6.322
10879NA      NA33515   5.112   6.049   2.110
10880NA      NA33516   1.409   0.292   5.539
10881NA      NA33517   5.034   4.992   1.742
10882NA      NA33518   3.297   3.287   7.024
   7.02532   7.02532   7.02532
